Membrane in water
40344
    1TMC1    C1    1   2.178   0.368  11.870 -0.6428 -0.1445 -0.5240
    1TMC1    C2    2   2.233   0.332  11.752  0.2739  0.4514 -0.2497
    1TMC1    C3    3   2.267   0.433  11.668  0.7994  0.8553 -0.0753
    1TMC1    C4    4   2.158   0.501  11.907  0.3624  0.2203  0.5561
    1TMC1    C5    5   2.212   0.592  11.823 -0.6959 -0.0453  0.1220
    1TMC1    C6    6   2.266   0.566  11.703  0.0850 -0.1897 -0.0338
    1TMC1     C    7   2.117   0.262  11.951 -0.0658  0.4294 -0.7119
    1TMC1     O    8   2.037   0.290  12.042 -1.4625 -0.6337  0.0553
    1TMC1     H    9   2.243   0.230  11.717 -4.3057 -0.0897 -0.0273
    1TMC1    H1   10   2.110   0.532  11.999  0.0223 -0.7847  0.7153
    1TMC1    H2   11   2.304   0.649  11.646 -1.9806  0.6420 -0.2259
    1TMC1    C7   12   2.204   0.732  11.851 -0.1925 -0.0506 -0.3375
    1TMC1    C8   13   2.318   0.394  11.542  0.0697 -0.8073  0.2499
    1TMC1    O1   14   2.184   0.820  11.770  0.4034  0.5129  0.0878
    1TMC1    O2   15   2.357   0.283  11.504  0.3326 -0.5514 -0.2619
    1TMC1    O3   16   2.207   0.741  11.988  0.3263  0.4384 -0.4269
    1TMC1    H3   17   2.239   0.655  12.024 -0.1719 -0.2401 -1.5987
    1TMC1    O5   18   2.298   0.491  11.454 -0.2061  0.1965  0.2263
    1TMC1    H5   19   2.245   0.569  11.481  0.8749  1.2804 -0.7681
    2MPD2     C   20   2.120   4.501  12.086  0.6768  0.1409 -0.5691
    2MPD2    C1   21   2.027   4.603  12.115 -0.0942  0.2636 -0.0405
    2MPD2    C2   22   2.049   4.727  12.073 -0.2025  0.4042  0.0459
    2MPD2    C3   23   2.156   0.016  11.985 -0.1599  0.2601 -0.5860
    2MPD2    C4   24   2.241   4.656  11.948 -0.1660 -0.7005  0.2307
    2MPD2    C5   25   2.226   4.530  12.001 -0.3168  0.2557 -0.5579
    2MPD2     H   26   1.973   0.061  12.096 -1.9740 -1.1759 -0.8407
    2MPD2    H1   27   2.330   4.672  11.887 -0.4137 -0.4543 -0.0663
    2MPD2    H2   28   2.112   4.398  12.116  1.6693  0.0002 -0.7752
    2MPD2    H3   29   2.282   4.441  11.974 -0.6008  0.0165 -0.3604
    2MPD2     N   30   2.183   0.141  11.931 -0.5153 -0.1299  0.3152
    2MPD2    H5   31   2.265   0.144  11.872  0.0910  2.2879  1.2640
    2MPD2    N1   32   1.915   4.574  12.196 -0.4933 -0.3530 -0.0760
    2MPD2    H7   33   1.854   4.651  12.220  3.4452  3.2168 -1.6070
    3TMC1    C1   34   1.147   1.119  11.330  0.1621  0.2159 -0.6171
    3TMC1    C2   35   1.241   1.170  11.246 -0.7690 -0.7376 -0.5471
    3TMC1    C3   36   1.301   1.077  11.154 -0.0595 -0.1278  0.4692
    3TMC1    C4   37   1.108   0.983  11.332  0.2708  0.2419 -0.2957
    3TMC1    C5   38   1.174   0.905  11.237 -0.6472  0.8558 -0.1570
    3TMC1    C6   39   1.276   0.950  11.150 -0.3308  0.2862 -0.1015
    3TMC1     C   40   1.064   1.195  11.419 -0.5773 -0.1755  0.7789
    3TMC1     O   41   1.037   1.133  11.523 -0.0439  0.0224 -0.4346
    3TMC1     H   42   1.269   1.275  11.254 -1.2383 -0.6999  0.5285
    3TMC1    H1   43   1.043   0.939  11.406  1.1543  0.0689  0.3812
    3TMC1    H2   44   1.326   0.882  11.082  0.0652 -0.6911  1.1764
    3TMC1    C7   45   1.153   0.767  11.231  0.3478  0.2752  0.0507
    3TMC1    C8   46   1.386   1.138  11.054  0.0292  0.3434  0.0588
    3TMC1    O1   47   1.232   0.695  11.173  0.2264  0.1268  0.0831
    3TMC1    O2   48   1.396   1.263  11.051  0.0407 -0.6243  0.2553
    3TMC1    O3   49   1.013   0.765  11.217  0.0859 -0.6789  0.2177
    3TMC1    H3   50   0.958   0.840  11.250 -0.6181 -1.1800  0.1987
    3TMC1    O5   51   1.473   1.050  11.009 -0.3607  0.1563 -0.2737
    3TMC1    H5   52   1.481   0.973  11.068  1.5964  2.5911  2.6491
    4MPD2     C   53   0.817   1.612  11.583 -0.0600  0.6338  0.9141
    4MPD2    C1   54   0.827   1.620  11.441 -0.7840 -0.0928 -0.0821
    4MPD2    C2   55   0.892   1.521  11.375  0.2535  0.6575  0.1039
    4MPD2    C3   56   0.941   1.408  11.442 -0.1434  0.3219 -0.1102
    4MPD2    C4   57   0.911   1.393  11.573  0.9796  0.0319 -0.3804
    4MPD2    C5   58   0.853   1.489  11.640 -0.8432  0.0955  0.5095
    4MPD2     H   59   0.905   1.534  11.269 -0.9647 -0.2641 -0.1543
    4MPD2    H1   60   0.949   1.309  11.630  3.7552  0.9175 -0.9164
    4MPD2    H2   61   0.766   1.683  11.647 -0.2125  0.4612  0.9806
    4MPD2    H3   62   0.852   1.475  11.747 -0.4117 -0.2069  0.4767
    4MPD2     N   63   1.025   1.317  11.368 -0.1597 -0.9867  0.2928
    4MPD2    H5   64   1.045   1.343  11.272  0.6342  0.6508  0.8977
    4MPD2    N1   65   0.774   1.725  11.357 -0.1566  0.2524 -0.2814
    4MPD2    H7   66   0.805   1.716  11.260 -1.1121 -1.3275 -0.4478
    5TCq1    O1   67   1.821   2.919  12.129  0.1515 -0.6457 -0.2640
    5TCq1    C1   68   1.763   2.908  12.009  0.1405  0.0267 -0.4903
    5TCq1    O2   69   1.802   2.847  11.910 -0.4526 -0.4130  0.0162
    5TCq1    C2   70   1.654   3.002  12.006 -0.3890  1.1515 -0.2453
    5TCq1    C3   71   1.612   3.079  12.110  0.3043  0.1360  0.2585
    5TCq1    C4   72   1.483   3.136  12.101 -0.0846  0.5238 -0.0142
    5TCq1    C5   73   1.402   3.126  11.989  0.9147  0.2628  0.0395
    5TCq1    C6   74   1.454   3.049  11.887 -0.0930  0.2970  1.1285
    5TCq1    C7   75   1.576   2.983  11.895 -0.3769  0.2363  0.2880
    5TCq1    C8   76   1.404   3.080  11.757  0.3577  0.3449  0.5396
    5TCq1    O4   77   1.475   3.074  11.654  0.0263  0.0889  0.3596
    5TCq1    C9   78   1.440   3.205  12.227  0.7122  0.1231 -0.0891
    5TCq1    O5   79   1.333   3.272  12.232  0.2227  0.2049  0.3603
    5TCq1    O6   80   1.518   3.185  12.326  1.0363 -0.1417  0.0796
    5TCq1    H1   81   1.766   2.976  12.188  0.2386 -3.4108  2.4834
    5TCq1    H2   82   1.666   3.096  12.202 -2.5156  0.6053  1.8232
    5TCq1    H3   83   1.303   3.169  11.995  1.3051  1.2166 -0.3847
    5TCq1    H4   84   1.601   2.930  11.804 -0.1589  0.3547  0.2792
    6MPD2     C   85   1.066   3.187  11.648 -0.3509  0.0198  0.3168
    6MPD2    C1   86   1.196   3.134  11.637  0.2151 -0.3639  0.8566
    6MPD2    C2   87   1.237   3.103  11.508  0.1516  0.3283 -0.4985
    6MPD2    C3   88   1.165   3.138  11.393  0.4743 -0.3198 -0.2926
    6MPD2    C4   89   1.033   3.191  11.406  0.3288  0.0686 -0.2906
    6MPD2    C5   90   0.987   3.210  11.531  0.4703  0.0916 -0.0714
    6MPD2     H   91   1.338   3.069  11.487 -0.0688 -1.3016  1.1428
    6MPD2    H1   92   0.979   3.235  11.323  1.4791  1.6577 -0.2085
    6MPD2    H2   93   1.018   3.207  11.742 -0.5415  1.2268 -0.0444
    6MPD2    H3   94   0.891   3.257  11.550 -0.7442 -1.7629 -1.6135
    6MPD2     N   95   1.236   3.108  11.269 -0.4050 -0.0954  0.1148
    6MPD2    H5   96   1.328   3.065  11.278  0.1091  1.0323  0.2397
    6MPD2    N1   97   1.271   3.117  11.757  0.0674 -0.4179 -0.6138
    6MPD2    H7   98   1.218   3.125  11.843  0.0974  3.8834 -1.0121
    7TCq1    O1   99   4.310   2.656  12.643 -0.8612  0.5529  0.4937
    7TCq1    C1  100   4.430   2.671  12.694  0.4549 -0.2093 -0.2896
    7TCq1    O2  101   4.492   2.778  12.704 -1.0060 -0.4721 -0.8902
    7TCq1    C2  102   4.442   2.566  12.791  0.0268 -0.2107 -0.8094
    7TCq1    C3  103   4.495   2.600  12.911 -0.6042  0.2959  1.1234
    7TCq1    C4  104   4.494   2.505  13.009 -0.5598 -0.4358  0.6323
    7TCq1    C5  105   4.436   2.384  12.993  0.0712  0.0038 -0.4630
    7TCq1    C6  106   4.386   2.355  12.871 -0.0069 -0.1766  0.0081
    7TCq1    C7  107   4.385   2.445  12.764 -0.5384  0.0383  0.3396
    7TCq1    C8  108   4.331   2.216  12.853  0.8913  0.7930  0.0542
    7TCq1    O4  109   4.349   2.137  12.942  0.9276 -0.3769 -0.6493
    7TCq1    C9  110   4.541   2.538  13.142 -0.3788  0.2670 -0.2844
    7TCq1    O5  111   4.530   2.451  13.235 -0.4699  0.5702 -0.1962
    7TCq1    O6  112   4.556   2.664  13.165  0.1956  0.1246  0.2792
    7TCq1    H1  113   4.262   2.582  12.686 -1.4921  0.8839  0.3525
    7TCq1    H2  114   4.525   2.701  12.934  1.5629 -0.6250  2.3624
    7TCq1    H3  115   4.426   2.314  13.075 -0.3049  0.9813  0.3242
    7TCq1    H4  116   4.366   2.418  12.661 -1.5050 -0.4660  0.6476
    8MPD2     C  117   4.032   1.890  12.604  0.3990  0.1553  0.2096
    8MPD2    C1  118   4.118   1.871  12.712  0.1715 -0.0403 -0.5906
    8MPD2    C2  119   4.188   1.979  12.765  0.8295 -0.4066 -0.6132
    8MPD2    C3  120   4.174   2.102  12.709  0.8767 -0.8103 -0.3749
    8MPD2    C4  121   4.094   2.123  12.597 -0.5742  0.8098  0.7069
    8MPD2    C5  122   4.014   2.018  12.557  0.4717  0.3661  0.0978
    8MPD2     H  123   4.271   1.965  12.834 -0.2002  0.5282  0.8126
    8MPD2    H1  124   4.085   2.221  12.552 -2.7996 -0.2567 -1.1879
    8MPD2    H2  125   3.967   1.816  12.559 -0.6821  1.0802  0.2510
    8MPD2    H3  126   3.947   2.038  12.475 -1.7954  0.8673  2.0790
    8MPD2     N  127   4.251   2.210  12.747  0.4400  0.5333  0.3809
    8MPD2    H5  128   4.221   2.294  12.697  0.2106 -0.7252 -1.6080
    8MPD2    N1  129   4.118   1.742  12.760 -0.0966 -0.5422  0.2030
    8MPD2    H7  130   4.055   1.675  12.716 -1.7621  1.5135 -0.5523
    9TMC1    C1  131   0.176   1.142  12.053 -0.9339 -0.6653  0.5745
    9TMC1    C2  132   0.084   1.246  12.036  0.3418  0.1023  0.9815
    9TMC1    C3  133   4.712   1.248  12.116 -0.3962  0.1516  0.0476
    9TMC1    C4  134   0.150   1.045  12.149  0.1066 -0.1035  0.2083
    9TMC1    C5  135   0.035   1.053  12.226  0.4891  0.4172 -0.1902
    9TMC1    C6  136   4.680   1.146  12.199  0.6613 -1.0518  0.2081
    9TMC1     C  137   0.305   1.165  11.989  0.2032  0.3006 -0.1957
    9TMC1     O  138   0.324   1.282  11.962  0.7084  0.0592 -0.3069
    9TMC1     H  139   0.108   1.322  11.963 -0.1055 -0.3109  0.3977
    9TMC1    H1  140   0.224   0.968  12.168 -0.0353 -0.4544 -0.6313
    9TMC1    H2  141   4.589   1.148  12.259  0.6749 -0.9354  0.2230
    9TMC1    C7  142   4.731   0.928  12.300 -0.1329  0.3374 -0.6873
    9TMC1    C8  143   4.605   1.334  12.078  0.2560 -0.3886 -0.0214
    9TMC1    O1  144   4.614   0.905  12.321 -0.1336 -0.3504  0.2170
    9TMC1    O2  145   4.502   1.322  12.140  0.4141  0.2434 -0.2191
    9TMC1    O3  146   0.091   0.851  12.335  0.2604  0.3735 -0.2528
    9TMC1    H3  147   0.174   0.900  12.352  0.3163 -0.4953  1.8934
    9TMC1    O5  148   4.604   1.322  11.943  0.1294  0.1641 -0.4667
    9TMC1    H5  149   4.694   1.320  11.902  1.1909 -1.8053  1.9609
   10MPD2     C  150   0.578   1.201  11.905  0.8038 -0.3513 -0.2434
   10MPD2    C1  151   0.534   1.087  11.967  0.0948  0.1318 -0.0856
   10MPD2    C2  152   0.627   0.984  12.000 -0.2080  1.0375 -0.0332
   10MPD2    C3  153   0.764   0.999  11.961  0.0769 -0.2105  0.3304
   10MPD2    C4  154   0.797   1.116  11.895 -0.7656  0.0900 -0.2821
   10MPD2    C5  155   0.709   1.218  11.870  0.4277 -0.6598  0.1486
   10MPD2     H  156   0.604   0.894  12.057  2.5707 -0.3907 -1.1348
   10MPD2    H1  157   0.896   1.143  11.858 -0.2237 -1.1150  0.2992
   10MPD2    H2  158   0.518   1.288  11.883  0.5623 -0.1328  1.3329
   10MPD2    H3  159   0.729   1.306  11.810 -1.3526 -0.6207 -0.3999
   10MPD2     N  160   0.870   0.910  11.997  0.3797 -0.1689 -0.2422
   10MPD2    H5  161   0.965   0.942  11.982  0.4989 -0.6825 -0.5702
   10MPD2    N1  162   0.398   1.065  12.000  0.5442 -0.1171  0.0768
   10MPD2    H7  163   0.375   0.974  12.039 -0.0760 -0.6266 -1.4807
   11TCq1    O1  164   2.911   0.442  14.548  0.0885 -0.1000 -0.6482
   11TCq1    C1  165   2.974   0.479  14.432 -0.1024  0.1866  0.1833
   11TCq1    O2  166   3.051   0.571  14.439  0.2614 -0.1272 -0.3548
   11TCq1    C2  167   2.937   0.404  14.313 -0.3108  0.0838  0.2617
   11TCq1    C3  168   2.989   0.444  14.197 -0.8950  0.2127  0.1255
   11TCq1    C4  169   2.999   0.356  14.094  0.4213  0.0176 -0.4370
   11TCq1    C5  170   2.940   0.231  14.099  0.0484  0.4331 -0.7932
   11TCq1    C6  171   2.870   0.199  14.213 -0.0656  0.1684 -0.1797
   11TCq1    C7  172   2.881   0.274  14.328 -0.2449  0.7803  0.5170
   11TCq1    C8  173   2.808   0.067  14.227 -0.7188  0.0916  0.6444
   11TCq1    O4  174   2.825   0.013  14.334  0.0997 -0.2267 -0.6113
   11TCq1    C9  175   3.077   0.393  13.976 -0.2934  0.7024  0.1455
   11TCq1    O5  176   3.075   0.312  13.875 -0.2702  0.2455  0.3985
   11TCq1    O6  177   3.136   0.502  13.987  0.2134 -0.0181 -0.6753
   11TCq1    H1  178   2.838   0.376  14.542 -0.5786  0.4515  1.6224
   11TCq1    H2  179   3.051   0.532  14.210 -1.4678  0.6097  0.1520
   11TCq1    H3  180   2.953   0.160  14.018 -0.7499  0.2114 -0.7182
   11TCq1    H4  181   2.830   0.248  14.420 -0.8743  0.1308 -0.0220
   12MPD2     C  182   2.670   4.543  14.201 -0.6706  0.8547  0.1063
   12MPD2    C1  183   2.672   4.637  14.100 -0.0014  0.6642  0.1547
   12MPD2    C2  184   2.604   4.619  13.982  0.3791 -0.8738 -0.0808
   12MPD2    C3  185   2.530   4.505  13.961  0.0320  0.1334 -0.0553
   12MPD2    C4  186   2.525   4.411  14.063 -0.1859 -0.1480  0.5640
   12MPD2    C5  187   2.597   4.422  14.182  0.1446 -0.0656 -0.4755
   12MPD2     H  188   2.607   4.692  13.901  0.1794  0.0900  0.7844
   12MPD2    H1  189   2.476   4.315  14.052 -1.9461  0.8496 -0.3089
   12MPD2    H2  190   2.717   4.559  14.298  0.5041  0.1522 -0.3549
   12MPD2    H3  191   2.599   4.342  14.255 -1.0891  0.2452 -0.0952
   12MPD2     N  192   2.472   4.459  13.839 -0.0356  0.1556 -0.4295
   12MPD2    H5  193   2.418   4.373  13.844  1.2029 -0.6517 -1.1572
   12MPD2    N1  194   2.748   0.016  14.111 -0.4395 -0.0957 -0.0851
   12MPD2    H7  195   2.745   0.080  14.032  3.2300  1.2845  0.8716
   13TCq1    O1  196   2.721   1.800  11.293  0.0913  0.2777  0.0500
   13TCq1    C1  197   2.600   1.836  11.260  0.0920 -0.2205 -0.0214
   13TCq1    O2  198   2.518   1.897  11.330 -0.4919  0.1191  0.7956
   13TCq1    C2  199   2.557   1.732  11.179  0.2226 -0.7054 -0.2427
   13TCq1    C3  200   2.633   1.665  11.088  0.4545 -0.7373  0.3398
   13TCq1    C4  201   2.593   1.543  11.044  0.3010  0.4709 -0.2568
   13TCq1    C5  202   2.474   1.488  11.086 -0.7938 -0.3892 -0.2976
   13TCq1    C6  203   2.395   1.559  11.181 -0.0145  0.2388 -0.1134
   13TCq1    C7  204   2.437   1.680  11.228  0.1995 -0.6065 -0.2514
   13TCq1    C8  205   2.262   1.521  11.210 -0.2100 -0.1635  0.8865
   13TCq1    O4  206   2.207   1.551  11.314 -0.3691  0.3921  0.4874
   13TCq1    C9  207   2.672   1.474  10.954  0.5280  0.7842  0.6023
   13TCq1    O5  208   2.664   1.349  10.949 -0.0996 -0.5544  0.3041
   13TCq1    O6  209   2.775   1.538  10.910 -0.0933  0.1711 -0.5620
   13TCq1    H1  210   2.755   1.719  11.249 -0.8321 -0.1187  0.0639
   13TCq1    H2  211   2.721   1.710  11.043  0.3660 -1.3714 -0.4800
   13TCq1    H3  212   2.441   1.390  11.055  1.0022 -1.2674  0.5667
   13TCq1    H4  213   2.361   1.730  11.286 -0.0535  0.2020 -1.2892
   14MPD2     C  214   2.036   1.354  10.966 -0.2289  0.1282  0.4263
   14MPD2    C1  215   2.077   1.403  11.091 -0.1287  0.6079  0.3268
   14MPD2    C2  216   1.991   1.391  11.199 -1.3229 -0.0584  0.2988
   14MPD2    C3  217   1.884   1.310  11.194  0.0679 -0.0623  0.1536
   14MPD2    C4  218   1.854   1.254  11.077 -0.5535 -0.8705  0.7673
   14MPD2    C5  219   1.919   1.286  10.961  0.5070  1.0906  0.1094
   14MPD2     H  220   2.007   1.424  11.301 -2.2254 -0.3832  0.5430
   14MPD2    H1  221   1.768   1.191  11.060 -0.2814 -1.5512  1.9186
   14MPD2    H2  222   2.105   1.353  10.883  1.7045  1.8737  2.0170
   14MPD2    H3  223   1.872   1.246  10.872  1.5123  0.2979 -0.0640
   14MPD2     N  224   1.800   1.294  11.303  0.0969 -0.6892  0.1469
   14MPD2    H5  225   1.800   1.366  11.374 -1.5608  0.8008 -1.3572
   14MPD2    N1  226   2.208   1.456  11.098  0.2753 -0.5079  0.4144
   14MPD2    H7  227   2.262   1.453  11.012  0.6082  4.0014  0.4993
   15TCq1    O1  228   4.632   4.296   2.001  0.1183 -0.3886  0.5964
   15TCq1    C1  229   4.562   4.409   2.039  0.2020 -0.3680  0.1116
   15TCq1    O2  230   4.609   4.503   2.107  0.0275 -0.6794  0.3035
   15TCq1    C2  231   4.439   4.341   2.078 -0.2631 -0.7286 -0.3144
   15TCq1    C3  232   4.370   4.380   2.188  0.1143 -0.6601  0.0676
   15TCq1    C4  233   4.250   4.328   2.221 -0.2755 -0.7706  0.2634
   15TCq1    C5  234   4.185   4.239   2.138  0.1315 -0.7698 -0.6319
   15TCq1    C6  235   4.256   4.200   2.023 -0.2636  0.4768  0.6559
   15TCq1    C7  236   4.379   4.245   1.998 -0.4362 -0.6793 -0.1390
   15TCq1    C8  237   4.207   4.092   1.941  0.7365 -0.3614 -0.0765
   15TCq1    O4  238   4.287   4.024   1.876 -0.2223 -0.2771  0.3209
   15TCq1    C9  239   4.172   4.396   2.326 -0.2533  0.1243  0.0881
   15TCq1    O5  240   4.048   4.405   2.300 -0.1333  0.4886  0.5478
   15TCq1    O6  241   4.235   4.445   2.420  0.2154  0.1282 -0.3384
   15TCq1    H1  242   4.582   4.219   1.966 -0.4927  1.2964 -2.2297
   15TCq1    H2  243   4.420   4.453   2.251 -0.8276 -0.5901  0.7423
   15TCq1    H3  244   4.091   4.195   2.171  0.0460 -0.5915 -0.6372
   15TCq1    H4  245   4.427   4.228   1.902  1.2775  1.0354  0.4370
   16MPD2     C  246   3.861   4.002   1.854 -0.1171  0.0027 -0.3244
   16MPD2    C1  247   3.999   4.000   1.849  0.3360 -0.1508 -0.0197
   16MPD2    C2  248   4.046   3.910   1.754 -0.0292 -0.4339  0.0043
   16MPD2    C3  249   3.962   3.845   1.663  0.8809 -0.0618  0.6903
   16MPD2    C4  250   3.827   3.858   1.660 -0.1235 -0.1577  0.1514
   16MPD2    C5  251   3.783   3.935   1.763  0.6420  0.0656 -0.0020
   16MPD2     H  252   4.148   3.876   1.760  0.1761  0.2303  0.3476
   16MPD2    H1  253   3.758   3.807   1.594 -0.7183  0.0209  0.6361
   16MPD2    H2  254   3.810   4.058   1.932  1.5419  2.3800 -0.9616
   16MPD2    H3  255   3.675   3.930   1.776  1.0252 -1.7354  2.5842
   16MPD2     N  256   4.030   3.753   1.579 -0.5784  0.5348  0.0177
   16MPD2    H5  257   4.129   3.744   1.595 -0.9515 -0.6335  1.6430
   16MPD2    N1  258   4.074   4.076   1.948  0.1961  0.0955 -0.1112
   16MPD2    H7  259   4.031   4.144   2.009 -0.2447 -0.1941 -0.0919
   17TMC1    C1  260   1.126   4.287  11.262  0.4972 -0.1001  0.7719
   17TMC1    C2  261   1.131   4.356  11.142 -0.1998  0.4643  0.2904
   17TMC1    C3  262   1.017   4.343  11.072 -0.2782 -0.1707 -0.0219
   17TMC1    C4  263   1.027   4.203  11.294 -0.3905  0.7671 -0.4339
   17TMC1    C5  264   0.925   4.187  11.207  1.0334 -0.4431 -0.3913
   17TMC1    C6  265   0.920   4.252  11.085  0.2305 -0.1209 -0.7845
   17TMC1     C  266   1.217   4.329  11.368  0.5217 -0.3948 -1.0525
   17TMC1     O  267   1.169   4.343  11.479 -0.0893  0.0754 -0.4435
   17TMC1     H  268   1.213   4.424  11.122  0.6692 -1.0410 -1.1888
   17TMC1    H1  269   1.034   4.151  11.389 -1.4723 -1.7490 -1.7196
   17TMC1    H2  270   0.843   4.236  11.010  0.4916  0.7963 -1.2601
   17TMC1    C7  271   0.800   4.149  11.264  0.7126  0.7480  0.7210
   17TMC1    C8  272   1.027   4.406  10.940 -0.5536  0.0397  0.6709
   17TMC1    O1  273   0.692   4.177  11.219  0.6020 -0.7789  0.6500
   17TMC1    O2  274   0.992   4.350  10.838 -0.2908 -0.3208  0.1900
   17TMC1    O3  275   0.825   4.042  11.343 -0.0593  0.3754 -1.0537
   17TMC1    H3  276   0.918   4.013  11.340  0.0281  0.7045 -1.4290
   17TMC1    O5  277   1.003   4.534  10.972 -0.3800 -0.2690 -0.2173
   17TMC1    H5  278   1.042   4.558  11.059 -1.7769  2.2064 -0.2840
   18MPD2     C  279   1.444   4.450  11.518 -0.3088 -0.2879 -0.1166
   18MPD2    C1  280   1.452   4.414  11.384  0.0968  0.0175  0.2625
   18MPD2    C2  281   1.569   4.439  11.303 -0.3512 -0.0770  0.3480
   18MPD2    C3  282   1.674   4.493  11.373  0.0197 -0.2549  0.3465
   18MPD2    C4  283   1.672   4.520  11.507  0.2608  0.2651  0.4587
   18MPD2    C5  284   1.557   4.499  11.582  0.0608  0.0336  0.4249
   18MPD2     H  285   1.566   4.430  11.195  3.1201  0.4188  0.1971
   18MPD2    H1  286   1.763   4.552  11.557 -1.0021  1.1379  2.1937
   18MPD2    H2  287   1.356   4.434  11.578 -1.3372  0.6903 -1.3440
   18MPD2    H3  288   1.554   4.533  11.685  3.1222 -0.6875  0.7524
   18MPD2     N  289   1.798   4.538  11.312  0.4155  0.0712 -0.1234
   18MPD2    H5  290   1.862   4.593  11.368  0.0379  1.2270 -0.8116
   18MPD2    N1  291   1.341   4.358  11.320 -0.4850  0.5612  0.6308
   18MPD2    H7  292   1.362   4.323  11.227 -0.0848 -0.1472  0.9894
   19TMC2    C1  293   3.656   0.417  13.948  0.7977  0.5978  0.5936
   19TMC2    C2  294   3.582   0.530  13.941 -0.9333  0.4602 -0.3410
   19TMC2    C3  295   3.443   0.521  13.903  0.3313  0.2496 -0.5552
   19TMC2    C4  296   3.598   0.294  13.926 -0.1401  0.4487  0.6151
   19TMC2    C5  297   3.470   0.285  13.889 -0.0961  0.0751  0.6287
   19TMC2    C6  298   3.388   0.399  13.875 -0.2476 -0.1310  0.4327
   19TMC2     C  299   3.796   0.432  13.989 -0.2111  0.0446  0.1113
   19TMC2     O  300   3.850   0.542  13.977  0.4569  0.0202  0.0699
   19TMC2     H  301   3.638   0.622  13.957  0.6226 -0.6280  0.4538
   19TMC2    H1  302   3.657   0.203  13.919  0.3503  0.5565  3.2306
   19TMC2    H2  303   3.298   0.386  13.817 -0.2622 -1.7282  0.8155
   19TMC2    C7  304   3.426   0.160  13.827 -0.1936  0.7530  0.0780
   19TMC2    C8  305   3.387   0.634  13.834  0.3828 -0.2762  0.2407
   19TMC2    O1  306   3.521   0.087  13.799  0.7275  0.2698 -0.1676
   19TMC2    O2  307   3.456   0.726  13.789  0.0218 -0.4429 -0.2175
   19TMC2    O5  308   3.256   0.608  13.794  0.0849  0.0867 -0.2210
   19TMC2    H5  309   3.207   0.555  13.860 -0.7603  1.7402  0.4764
   20MPD2     C  310   4.075   0.381  14.073 -0.2436 -0.0562 -0.1155
   20MPD2    C1  311   3.981   0.279  14.080 -0.1696  0.3068  0.0766
   20MPD2    C2  312   4.021   0.155  14.120  0.5575  0.2070  1.0183
   20MPD2    C3  313   4.159   0.124  14.129  0.2371  0.1782  0.3108
   20MPD2    C4  314   4.251   0.226  14.113 -0.1380  0.1225 -0.7874
   20MPD2    C5  315   4.211   0.355  14.091 -0.1219 -0.3760  0.6205
   20MPD2     H  316   3.945   0.079  14.134  1.0047 -0.5761 -0.8234
   20MPD2    H1  317   4.357   0.201  14.108 -0.4436 -1.4293  0.4925
   20MPD2    H2  318   4.045   0.485  14.061 -1.8074 -0.3186  1.4270
   20MPD2    H3  319   4.279   0.439  14.077  1.7518 -1.6011  2.3227
   20MPD2     N  320   4.199   0.003  14.171 -0.7402  0.6426  0.0714
   20MPD2    H5  321   4.290   4.737  14.216 -0.7919  1.3005  0.2490
   20MPD2    N1  322   3.846   0.313  14.039 -0.5695 -0.3737 -0.2314
   20MPD2    H7  323   3.778   0.238  14.046 -0.2743 -0.6585 -0.4074
   21TMC2    C1  324   1.361   0.761  14.310  0.4481 -0.8188 -0.0128
   21TMC2    C2  325   1.487   0.812  14.319 -0.2139  0.7842  0.1133
   21TMC2    C3  326   1.502   0.940  14.350  0.2113 -0.2149  0.7144
   21TMC2    C4  327   1.252   0.831  14.346 -0.9047 -0.3744 -0.5739
   21TMC2    C5  328   1.267   0.964  14.369 -0.9197 -0.5888 -0.5019
   21TMC2    C6  329   1.393   1.017  14.375 -0.1554  0.2111  0.0172
   21TMC2     C  330   1.354   0.623  14.348  0.5349  0.3623 -0.3321
   21TMC2     O  331   1.459   0.568  14.395  0.0858 -0.2541  0.0004
   21TMC2     H  332   1.578   0.756  14.302 -0.9884 -1.4444  3.4390
   21TMC2    H1  333   1.149   0.801  14.361 -1.0655  0.5284  0.0971
   21TMC2    H2  334   1.402   1.124  14.386 -1.5068  0.2790  0.5361
   21TMC2    C7  335   1.165   1.038  14.452  0.1209  0.0265 -0.1852
   21TMC2    C8  336   1.623   0.998  14.303 -0.3067 -0.3383  0.6420
   21TMC2    O1  337   1.204   1.056  14.569 -0.5083  0.7691  0.2954
   21TMC2    O2  338   1.612   1.095  14.224  0.0443 -0.3214  0.4800
   21TMC2    O5  339   1.702   0.998  14.411  0.1264  0.5383 -0.0652
   21TMC2    H5  340   1.684   0.914  14.458 -0.6583  1.3118  1.0181
   22MPD2     C  341   1.075   0.234  14.522 -0.3171 -0.1048  0.0229
   22MPD2    C1  342   1.189   0.292  14.567 -0.3018 -0.3830 -0.2793
   22MPD2    C2  343   1.251   0.400  14.504 -0.4128  0.9074  0.4956
   22MPD2    C3  344   1.186   0.463  14.405 -0.1883  0.7068  0.2440
   22MPD2    C4  345   1.063   0.414  14.367  0.3599  0.4874 -0.1432
   22MPD2    C5  346   1.012   0.302  14.421 -0.3746  0.9349 -0.1205
   22MPD2     H  347   1.348   0.429  14.544  1.6359 -1.3689 -2.8057
   22MPD2    H1  348   1.016   0.457  14.280 -0.7557 -0.8599 -0.1876
   22MPD2    H2  349   1.027   0.145  14.561  1.4950 -1.3874 -0.6994
   22MPD2    H3  350   0.913   0.270  14.389  0.0788  0.4361 -1.0310
   22MPD2     N  351   1.229   0.573  14.332  0.2278  0.4590  0.2414
   22MPD2    H5  352   1.171   0.626  14.267 -0.5506 -0.0543  0.5239
   22MPD2    N1  353   1.265   0.234  14.676 -0.1137 -0.0529 -0.0599
   22MPD2    H7  354   1.344   0.290  14.706  0.1411  0.3020 -1.3883
   23TMC2    C1  355   2.388   1.351  15.019 -0.9493 -1.1030  0.5998
   23TMC2    C2  356   2.476   1.339  14.920  0.6264  0.1239  0.1216
   23TMC2    C3  357   2.435   1.285  14.799 -0.1249  0.0059 -0.0666
   23TMC2    C4  358   2.259   1.323  14.997  0.9840  0.2788  0.0289
   23TMC2    C5  359   2.215   1.289  14.875  0.8921  0.1499  0.2702
   23TMC2    C6  360   2.302   1.268  14.771 -1.3131  0.1426  0.1767
   23TMC2     C  361   2.440   1.387  15.147 -0.1812 -0.0759  0.0068
   23TMC2     O  362   2.551   1.333  15.168 -0.0187  0.1671 -0.1625
   23TMC2     H  363   2.579   1.362  14.945  0.2956  2.7774 -0.9420
   23TMC2    H1  364   2.194   1.328  15.084  0.9444  0.3737 -0.0060
   23TMC2    H2  365   2.265   1.229  14.677 -0.6928 -1.0409  0.4250
   23TMC2    C7  366   2.080   1.239  14.872  0.3573 -0.4260 -0.6243
   23TMC2    C8  367   2.541   1.275  14.696 -0.0062  0.7074  0.0089
   23TMC2    O1  368   2.035   1.201  14.981 -0.5014 -0.5393 -0.4393
   23TMC2    O2  369   2.526   1.215  14.592 -0.5426 -0.3651 -0.1129
   23TMC2    O5  370   2.634   1.370  14.711  0.5904  0.7030  0.1010
   23TMC2    H5  371   2.640   1.412  14.800  0.8479 -0.7570  0.7713
   24MPD2     C  372   2.463   1.618  15.611 -0.4299 -0.2204  0.5475
   24MPD2    C1  373   2.548   1.528  15.550  0.1020  0.7911  0.8685
   24MPD2    C2  374   2.519   1.481  15.422  0.1269  0.3291 -0.2019
   24MPD2    C3  375   2.400   1.513  15.355  0.5458 -0.1631 -0.5073
   24MPD2    C4  376   2.308   1.588  15.424  0.0456  0.3215  0.3078
   24MPD2    C5  377   2.349   1.646  15.541  0.3851 -0.1496 -0.2720
   24MPD2     H  378   2.596   1.419  15.377  1.3661  0.9081  1.1450
   24MPD2    H1  379   2.209   1.613  15.387  0.2036 -3.6724 -2.7214
   24MPD2    H2  380   2.490   1.680  15.695  0.9478 -0.5904  0.3811
   24MPD2    H3  381   2.281   1.721  15.579 -0.4456 -0.8499 -0.3918
   24MPD2     N  382   2.367   1.468  15.229  1.1835  0.5100 -0.2534
   24MPD2    H5  383   2.283   1.502  15.183  0.8618  0.7049  0.4832
   24MPD2    N1  384   2.679   1.491  15.592 -0.7206  0.0695  0.5500
   24MPD2    H7  385   2.736   1.431  15.533  0.7377  2.2516 -0.2810
   25TMC2    C1  386   1.536   4.180  11.775 -0.3309  0.9031 -0.0104
   25TMC2    C2  387   1.643   4.259  11.809  0.0328 -0.6056 -0.2621
   25TMC2    C3  388   1.635   4.346  11.917  0.1911  0.1743 -0.0686
   25TMC2    C4  389   1.431   4.171  11.860  0.1031 -0.5177  0.1540
   25TMC2    C5  390   1.425   4.259  11.965 -0.5089 -0.1047  0.0925
   25TMC2    C6  391   1.526   4.347  11.995 -0.0849 -0.7475 -0.5713
   25TMC2     C  392   1.562   4.072  11.675  0.3541  0.2409  0.1907
   25TMC2     O  393   1.678   4.047  11.648  0.2721  0.1139  0.0257
   25TMC2     H  394   1.728   4.271  11.743  1.2091 -1.6198  1.0866
   25TMC2    H1  395   1.358   4.092  11.846 -0.9752  0.4789  0.1501
   25TMC2    H2  396   1.517   4.418  12.076  0.6188 -0.1203 -1.0537
   25TMC2    C7  397   1.300   4.254  12.045  0.0966  0.4162 -0.4995
   25TMC2    C8  398   1.704   4.475  11.916 -0.0464  0.0961  0.3567
   25TMC2    O1  399   1.295   4.303  12.154 -0.0772 -0.4503  0.0719
   25TMC2    O2  400   1.652   4.575  11.963 -0.1824 -0.0492  0.2624
   25TMC2    O5  401   1.804   4.466  11.835  0.4224  0.3700  0.0030
   25TMC2    H5  402   1.852   4.381  11.842 -1.4809 -0.7201 -0.2008
   26MPD2     C  403   1.390   3.656  11.441 -0.6026 -0.1380 -0.3843
   26MPD2    C1  404   1.282   3.746  11.450  0.3575 -0.4733  0.0158
   26MPD2    C2  405   1.308   3.871  11.508  0.6480  0.3078  0.1043
   26MPD2    C3  406   1.435   3.909  11.544 -0.0863 -0.6538 -0.2393
   26MPD2    C4  407   1.538   3.820  11.533  0.2529  0.1392 -0.0660
   26MPD2    C5  408   1.514   3.696  11.484  0.0739  0.0382  0.9710
   26MPD2     H  409   1.225   3.933  11.537 -0.6072 -1.2864 -0.0575
   26MPD2    H1  410   1.633   3.846  11.578 -1.0102  3.1285  0.8377
   26MPD2    H2  411   1.379   3.559  11.394 -2.0187  0.8467 -2.0705
   26MPD2    H3  412   1.594   3.625  11.464 -1.0598 -1.0294  0.3035
   26MPD2     N  413   1.447   4.021  11.619 -0.2231 -0.1090  0.2751
   26MPD2    H5  414   1.364   4.076  11.638 -0.1898 -0.9486  2.8476
   26MPD2    N1  415   1.158   3.700  11.394 -0.1050  0.1113 -0.5405
   26MPD2    H7  416   1.162   3.603  11.365  1.1213 -0.1941  0.6554
   27TMC2    C1  417   0.503   1.253  12.690  0.1911  0.3722 -0.4205
   27TMC2    C2  418   0.530   1.374  12.630 -0.1718  0.3906  0.5291
   27TMC2    C3  419   0.659   1.411  12.632 -0.3546  1.0043 -0.8775
   27TMC2    C4  420   0.597   1.173  12.745  0.1240 -0.8055  0.0988
   27TMC2    C5  421   0.728   1.214  12.726  0.2691 -0.4930 -0.7105
   27TMC2    C6  422   0.761   1.333  12.661 -0.0567  0.2398  0.2835
   27TMC2     C  423   0.370   1.203  12.702 -0.1592 -0.0912  0.1860
   27TMC2     O  424   0.356   1.110  12.776  0.1375 -0.2232 -0.1435
   27TMC2     H  425   0.455   1.451  12.613 -0.8289 -0.6115 -1.1003
   27TMC2    H1  426   0.574   1.087  12.806  3.5491 -1.0645  0.9907
   27TMC2    H2  427   0.863   1.357  12.631 -0.1880 -1.7808 -1.8493
   27TMC2    C7  428   0.843   1.139  12.775  0.6320 -0.1412 -0.1590
   27TMC2    C8  429   0.671   1.533  12.551 -0.4007 -0.0034  0.3825
   27TMC2    O1  430   0.937   1.213  12.801  0.1634  0.0567  0.2107
   27TMC2    O2  431   0.589   1.566  12.467 -0.1687 -0.3781 -0.0100
   27TMC2    O5  432   0.800   1.575  12.558 -0.0843  0.5057  0.1088
   27TMC2    H5  433   0.846   1.535  12.635 -2.4859 -0.3167  1.1078
   28MPD2     C  434   4.615   1.188  12.583  0.1896  0.2870  0.1328
   28MPD2    C1  435   4.657   1.307  12.541 -0.2833  0.2844 -0.2726
   28MPD2    C2  436   0.049   1.339  12.555  0.6876 -0.0991 -0.1815
   28MPD2    C3  437   0.142   1.251  12.620  0.8090  0.3111  0.4119
   28MPD2    C4  438   0.087   1.128  12.665  0.4402  0.2714  0.3843
   28MPD2    C5  439   4.693   1.104  12.641 -0.3587 -0.2006  0.5178
   28MPD2     H  440   0.082   1.426  12.499  0.4061  0.5048  0.5935
   28MPD2    H1  441   0.148   1.052  12.713  0.9816 -0.1588 -0.9814
   28MPD2    H2  442   4.511   1.157  12.585  0.6988 -1.5173 -1.2218
   28MPD2    H3  443   4.649   1.013  12.679  1.5148 -1.1709  0.3510
   28MPD2     N  444   0.278   1.285  12.641  0.1594  0.4284 -0.1416
   28MPD2    H5  445   0.319   1.360  12.587 -2.0868  1.1581 -0.8063
   28MPD2    N1  446   4.560   1.391  12.478 -0.0520 -0.3419 -0.4384
   28MPD2    H7  447   4.475   1.340  12.455 -0.5869  0.1155  0.4955
   29TMC2    C1  448   0.075   3.694  14.156  0.2434 -0.3978 -0.3664
   29TMC2    C2  449   4.725   3.703  14.257 -0.2712 -0.1224 -0.1258
   29TMC2    C3  450   0.007   3.800  14.350 -0.4349  0.3349 -0.4729
   29TMC2    C4  451   0.182   3.773  14.150 -0.5868 -0.1175  0.2147
   29TMC2    C5  452   0.208   3.865  14.249  0.5872  0.4539  0.1425
   29TMC2    C6  453   0.117   3.878  14.353 -0.3084 -0.1064 -0.5279
   29TMC2     C  454   0.085   3.569  14.073 -0.0921 -0.3326 -0.5341
   29TMC2     O  455   0.190   3.530  14.025  0.2608  0.0953 -1.0682
   29TMC2     H  456   4.642   3.636  14.277  1.4495 -2.3599 -0.5195
   29TMC2    H1  457   0.244   3.773  14.061 -1.9249 -1.1149 -0.7131
   29TMC2    H2  458   0.120   3.956  14.428 -0.1103 -1.9148  1.3721
   29TMC2    C7  459   0.266   3.989  14.203  0.2178  1.0936 -0.0857
   29TMC2    C8  460   4.663   3.790  14.466 -0.3643  0.7289  0.2379
   29TMC2    O1  461   0.275   4.008  14.083  0.6074  0.4057 -0.0406
   29TMC2    O2  462   4.633   3.684  14.520 -0.1984  0.5369 -0.2841
   29TMC2    O5  463   4.585   3.895  14.464 -0.1592 -0.0207  0.1076
   29TMC2    H5  464   4.609   3.969  14.404  1.1983 -0.6418 -0.1300
   30MPD2     C  465   4.577   3.155  13.906 -0.4192 -0.4313  0.4379
   30MPD2    C1  466   4.706   3.166  13.956 -0.8437  0.0357  1.1634
   30MPD2    C2  467   0.012   3.285  14.000 -0.3698 -0.2586  0.5157
   30MPD2    C3  468   4.664   3.394  13.998  0.2507 -0.5277 -0.0572
   30MPD2    C4  469   4.533   3.380  13.954  0.0824 -0.5799  0.2158
   30MPD2    C5  470   4.494   3.261  13.906 -0.3434  0.5488  0.3990
   30MPD2     H  471   0.110   3.308  14.039  0.1725  0.3536 -1.2025
   30MPD2    H1  472   4.467   3.465  13.964  0.7628  0.2224 -2.4349
   30MPD2    H2  473   4.535   3.064  13.864 -0.2942 -0.4466  0.3458
   30MPD2    H3  474   4.389   3.245  13.881  0.2305 -1.4570 -0.7661
   30MPD2     N  475   4.696   3.520  14.056 -0.5808 -0.3096 -0.4684
   30MPD2    H5  476   4.621   3.587  14.073 -2.2052 -2.1059 -0.5327
   30MPD2    N1  477   0.050   3.048  13.969 -0.4529 -0.0074 -0.1097
   30MPD2    H7  478   0.150   3.064  13.975 -0.6219  1.9107 -2.2861
   31TMC2    C1  479   2.522   2.212  15.505 -0.1997 -0.0430  0.5168
   31TMC2    C2  480   2.394   2.230  15.471  0.2725 -0.7921 -0.0765
   31TMC2    C3  481   2.307   2.250  15.579  0.5028 -0.5271  0.1036
   31TMC2    C4  482   2.580   2.205  15.631 -0.1815 -0.4720  0.7051
   31TMC2    C5  483   2.487   2.235  15.730 -0.1058 -0.1810  0.1307
   31TMC2    C6  484   2.350   2.251  15.708  0.0893 -0.4030 -0.1360
   31TMC2     C  485   2.615   2.213  15.389  0.0413  0.2513  0.0086
   31TMC2     O  486   2.566   2.248  15.284 -0.5805 -0.0048  0.5463
   31TMC2     H  487   2.356   2.231  15.369  0.1954  4.8033  0.0513
   31TMC2    H1  488   2.685   2.206  15.657  0.3771 -0.1951 -1.5857
   31TMC2    H2  489   2.270   2.254  15.781 -0.6936  0.7979 -1.0394
   31TMC2    C7  490   2.548   2.240  15.862  0.5774  0.4377  0.4217
   31TMC2    C8  491   2.166   2.228  15.564  0.0511  0.9307  0.0977
   31TMC2    O1  492   2.659   2.200  15.886  0.3692  0.3668 -0.7709
   31TMC2    O2  493   2.102   2.171  15.652  0.5602  0.5147  0.2148
   31TMC2    O5  494   2.128   2.278  15.445 -0.0626  1.0365  0.0342
   31TMC2    H5  495   2.187   2.348  15.410  0.7584  0.0968 -0.4757
   32MPD2     C  496   3.065   2.135  15.164  0.4163  0.2632 -0.5019
   32MPD2    C1  497   2.948   2.197  15.121  0.3695  0.2620  0.5077
   32MPD2    C2  498   2.844   2.207  15.207 -0.0456 -0.0772  1.5590
   32MPD2    C3  499   2.853   2.165  15.342  0.2754 -0.1426  0.8831
   32MPD2    C4  500   2.978   2.113  15.387  0.5995  0.3168 -0.4497
   32MPD2    C5  501   3.078   2.096  15.299 -0.5806 -0.6250  0.2485
   32MPD2     H  502   2.754   2.259  15.177  0.6590 -0.5535 -1.3851
   32MPD2    H1  503   2.996   2.086  15.490  1.8084  0.1248 -0.7089
   32MPD2    H2  504   3.142   2.130  15.088  1.9632  0.9954  1.0228
   32MPD2    H3  505   3.172   2.056  15.337  0.8910  0.1672 -2.5517
   32MPD2     N  506   2.743   2.178  15.429 -0.2000 -0.3334  0.0348
   32MPD2    H5  507   2.760   2.143  15.523 -0.8025 -0.1752  0.2069
   32MPD2    N1  508   2.938   2.245  14.990 -0.0414 -0.1232 -0.5032
   32MPD2    H7  509   3.021   2.246  14.932  0.9250 -1.3636  0.8790
   33TMC2    C1  510   1.694   0.706  10.826 -0.4396 -0.5911 -0.1391
   33TMC2    C2  511   1.579   0.674  10.763 -0.2816 -0.3219 -0.1253
   33TMC2    C3  512   1.504   0.774  10.709  0.3768  0.4349  0.3680
   33TMC2    C4  513   1.744   0.835  10.819 -0.0118  0.5553  0.1644
   33TMC2    C5  514   1.673   0.926  10.749  0.2699 -0.0955  0.0105
   33TMC2    C6  515   1.553   0.896  10.691 -0.1684  0.1601  0.5241
   33TMC2     C  516   1.769   0.605  10.897 -0.4983  0.1084 -0.7202
   33TMC2     O  517   1.737   0.489  10.880  0.1367 -0.2906 -0.3055
   33TMC2     H  518   1.536   0.575  10.758 -1.6251  0.3987 -2.9040
   33TMC2    H1  519   1.844   0.862  10.852 -0.5474  0.1822  2.1089
   33TMC2    H2  520   1.502   0.960  10.620 -1.5004  3.1382  4.1869
   33TMC2    C7  521   1.756   1.042  10.697 -0.3521 -0.2338 -0.4736
   33TMC2    C8  522   1.374   0.741  10.659  0.3297 -0.2478 -0.1288
   33TMC2    O1  523   1.877   1.022  10.681  0.4424  0.3197 -0.1251
   33TMC2    O2  524   1.341   0.623  10.648  0.1253 -0.0129 -0.2690
   33TMC2    O5  525   1.295   0.837  10.707 -0.1222 -0.6702  0.2815
   33TMC2    H5  526   1.323   0.919  10.754  0.4062  2.1164 -4.8262
   34MPD2     C  527   2.215   0.489  11.141  0.5251 -0.5003 -0.2225
   34MPD2    C1  528   2.110   0.406  11.102  0.0191 -0.1574  0.0186
   34MPD2    C2  529   2.001   0.463  11.042 -0.1408  0.5408 -0.1092
   34MPD2    C3  530   1.981   0.599  11.031  0.3322 -0.0876  0.1696
   34MPD2    C4  531   2.094   0.674  11.067 -0.0232 -0.3319 -0.4231
   34MPD2    C5  532   2.206   0.624  11.113 -0.4986 -0.5150 -1.0937
   34MPD2     H  533   1.919   0.404  11.004 -2.4526  1.4101  3.5855
   34MPD2    H1  534   2.089   0.781  11.050 -0.7335 -0.3160 -0.1469
   34MPD2    H2  535   2.310   0.452  11.176  0.6374  0.1121  0.1286
   34MPD2    H3  536   2.277   0.701  11.141 -1.7190 -0.5542  2.1827
   34MPD2     N  537   1.872   0.666  10.965 -0.4166  0.4002  0.5222
   34MPD2    H5  538   1.888   0.765  10.978  0.0298  0.2746  0.9305
   34MPD2    N1  539   2.135   0.266  11.108  0.6470  0.6789  0.3227
   34MPD2    H7  540   2.229   0.241  11.137  0.3419  0.6274  1.2634
   35TMC2    C1  541   2.669   1.778  11.668  0.0420 -0.1622 -0.3441
   35TMC2    C2  542   2.546   1.828  11.624 -0.3209  0.3829  0.2615
   35TMC2    C3  543   2.455   1.726  11.598 -0.5427  0.1622 -0.5908
   35TMC2    C4  544   2.687   1.643  11.704  0.3140  0.3161 -0.4157
   35TMC2    C5  545   2.586   1.558  11.686 -0.2224 -0.2105  0.2361
   35TMC2    C6  546   2.468   1.597  11.635  0.6101  0.6957 -0.4877
   35TMC2     C  547   2.768   1.873  11.716 -0.7655  0.2973 -0.0603
   35TMC2     O  548   2.726   1.984  11.733  0.4283  0.2588  0.1188
   35TMC2     H  549   2.519   1.933  11.615  1.7099  0.7682 -1.4328
   35TMC2    H1  550   2.770   1.617  11.769  1.4114  1.9344 -1.1594
   35TMC2    H2  551   2.403   1.515  11.608  0.7853 -0.6151  3.0384
   35TMC2    C7  552   2.613   1.433  11.751 -0.3538 -0.0190  0.0829
   35TMC2    C8  553   2.326   1.746  11.546  0.5190 -0.5262 -0.0739
   35TMC2    O1  554   2.730   1.412  11.779  0.1484  0.0547  0.0523
   35TMC2    O2  555   2.236   1.700  11.615  0.1443  0.1841  0.3307
   35TMC2    O5  556   2.316   1.869  11.488  0.1410 -0.0154  0.0709
   35TMC2    H5  557   2.393   1.904  11.438  0.1547 -1.2982 -0.8170
   36MPD2     C  558   3.247   2.040  11.796 -0.0550 -0.5167 -0.2398
   36MPD2    C1  559   3.256   1.906  11.790 -0.1169 -0.0001  0.3187
   36MPD2    C2  560   3.132   1.839  11.759 -0.1987 -0.3358  0.0075
   36MPD2    C3  561   3.014   1.909  11.736 -0.6288 -0.2463 -0.0620
   36MPD2    C4  562   3.013   2.048  11.753 -0.1080  1.1244 -0.6197
   36MPD2    C5  563   3.135   2.107  11.774  0.3520 -0.3068 -0.0059
   36MPD2     H  564   3.129   1.730  11.755  0.6825 -0.3964  0.9079
   36MPD2    H1  565   2.923   2.105  11.732  0.9843  2.7005 -1.0432
   36MPD2    H2  566   3.332   2.106  11.810 -0.2836 -0.6116  1.6255
   36MPD2    H3  567   3.127   2.215  11.771  1.5987 -0.2112  0.0356
   36MPD2     N  568   2.899   1.829  11.716  0.5789 -0.1888 -0.1524
   36MPD2    H5  569   2.908   1.731  11.692 -0.4633 -0.2210 -0.3964
   36MPD2    N1  570   3.380   1.842  11.827  0.0793 -0.6228  0.2296
   36MPD2    H7  571   3.462   1.899  11.843  0.8023 -1.4746 -0.3851
   37TMC2    C1  572   0.557   2.535  11.806  0.4166 -0.5410  0.2103
   37TMC2    C2  573   0.511   2.655  11.756  0.4918  0.5766 -0.4799
   37TMC2    C3  574   0.528   2.673  11.623 -0.6521  0.0701  0.1402
   37TMC2    C4  575   0.614   2.445  11.723 -0.0277 -0.1343  0.2594
   37TMC2    C5  576   0.646   2.478  11.598  0.2320 -0.1180 -0.7306
   37TMC2    C6  577   0.604   2.596  11.542  0.5584  0.4292 -1.2375
   37TMC2     C  578   0.545   2.508  11.944  0.5608 -0.2320 -0.2184
   37TMC2     O  579   0.460   2.562  12.012 -0.5587 -0.4975 -0.1834
   37TMC2     H  580   0.450   2.713  11.824 -0.6313  0.8706 -1.7218
   37TMC2    H1  581   0.647   2.348  11.759  2.1213  0.3961 -0.2779
   37TMC2    H2  582   0.628   2.629  11.442  0.1240 -0.5229 -1.6496
   37TMC2    C7  583   0.780   2.431  11.563 -0.4328 -0.9881 -0.3047
   37TMC2    C8  584   0.513   2.808  11.571  0.7565  0.5315 -0.8999
   37TMC2    O1  585   0.853   2.413  11.660  0.1637  0.2356  0.9962
   37TMC2    O2  586   0.595   2.863  11.499  0.5334  0.2659  0.9161
   37TMC2    O5  587   0.429   2.871  11.657  0.3188  0.3626 -0.1884
   37TMC2    H5  588   0.364   2.816  11.705  1.6405  0.9676  2.2743
   38MPD2     C  589   0.750   2.281  12.364  0.3131 -0.5404  0.1733
   38MPD2    C1  590   0.843   2.278  12.268  0.4049 -0.3493 -0.0666
   38MPD2    C2  591   0.809   2.331  12.148  0.7426 -0.5371  0.3854
   38MPD2    C3  592   0.683   2.383  12.121 -0.0075 -0.2305 -0.5393
   38MPD2    C4  593   0.582   2.371  12.219  0.5392 -0.3943 -0.1216
   38MPD2    C5  594   0.621   2.316  12.343 -0.2031 -0.0887 -0.1193
   38MPD2     H  595   0.894   2.345  12.082  1.4484 -0.0005  1.4168
   38MPD2    H1  596   0.486   2.420  12.206  0.5399 -0.7643 -1.5320
   38MPD2    H2  597   0.767   2.244  12.464 -2.5655  2.2060  1.6650
   38MPD2    H3  598   0.558   2.308  12.431 -0.1072  0.4940  0.0044
   38MPD2     N  599   0.654   2.436  11.991 -0.5927  0.0770  0.8442
   38MPD2    H5  600   0.725   2.419  11.920 -1.5203 -2.4868  0.5332
   38MPD2    N1  601   0.962   2.218  12.297  0.3199 -0.5896 -0.1857
   38MPD2    H7  602   1.019   2.202  12.214 -1.5607  1.2561 -1.8394
   39TMC2    C1  603   0.145   2.801   1.456 -0.2352  0.1729 -0.3062
   39TMC2    C2  604   0.144   2.800   1.587 -0.6425  0.2744 -0.5000
   39TMC2    C3  605   0.262   2.818   1.655 -0.0946  0.1680  0.6219
   39TMC2    C4  606   0.261   2.798   1.385  0.4671 -0.0525  0.6133
   39TMC2    C5  607   0.381   2.795   1.457 -0.0666  0.9204 -0.3034
   39TMC2    C6  608   0.381   2.814   1.590  0.5024  0.0192  0.2246
   39TMC2     C  609   0.020   2.802   1.387 -0.3279 -0.2551  0.1838
   39TMC2     O  610   4.660   2.841   1.448  0.0071  0.2731 -0.0198
   39TMC2     H  611   0.048   2.788   1.638 -0.7015  1.3347 -0.3757
   39TMC2    H1  612   0.270   2.792   1.277 -2.2731 -3.5178  0.5758
   39TMC2    H2  613   0.475   2.803   1.642  0.0948 -0.2551  0.9058
   39TMC2    C7  614   0.509   2.788   1.393  0.2053 -0.2849 -0.7328
   39TMC2    C8  615   0.269   2.801   1.801  0.6701  0.8020 -0.2781
   39TMC2    O1  616   0.603   2.731   1.450 -1.1199  0.2587  0.1957
   39TMC2    O2  617   0.373   2.787   1.870 -0.4352  0.4978  0.7012
   39TMC2    O5  618   0.158   2.870   1.843  0.7265 -0.0883 -0.1693
   39TMC2    H5  619   0.086   2.904   1.787  0.2983 -1.6503 -0.5618
   40MPD2     C  620   4.694   2.667   1.056  0.6830  0.4819  0.5477
   40MPD2    C1  621   4.666   2.741   1.169 -0.6367 -0.6108  0.0632
   40MPD2    C2  622   4.548   2.809   1.171 -0.3386 -0.2383  0.7898
   40MPD2    C3  623   4.455   2.799   1.062 -0.1156 -0.2727  0.4093
   40MPD2    C4  624   4.480   2.715   0.952  0.7963 -0.3820 -0.5569
   40MPD2    C5  625   4.604   2.660   0.954  0.2441 -0.0847  1.1575
   40MPD2     H  626   4.531   2.879   1.252  1.0358  0.9098  0.0844
   40MPD2    H1  627   4.432   2.705   0.856 -0.9078  0.4911  0.1897
   40MPD2    H2  628   0.057   2.631   1.045 -0.3785 -1.8217 -1.8585
   40MPD2    H3  629   4.636   2.606   0.866 -0.9512 -1.3341  1.4975
   40MPD2     N  630   4.328   2.867   1.060 -0.1847  0.4199 -0.2772
   40MPD2    H5  631   4.276   2.859   0.974 -0.9052 -0.4304  0.2255
   40MPD2    N1  632   0.029   2.743   1.261 -0.1114 -0.3835  0.2503
   40MPD2    H7  633   0.117   2.695   1.247  0.2839  0.2804  0.4343
   41TMC2    C1  634   3.648   1.401  13.665  0.1382 -0.3720  0.4497
   41TMC2    C2  635   3.621   1.327  13.778  0.2162  0.7979  0.3073
   41TMC2    C3  636   3.514   1.243  13.776  0.1985 -0.6767 -0.7751
   41TMC2    C4  637   3.569   1.391  13.554  0.4856 -0.0216  0.8300
   41TMC2    C5  638   3.456   1.323  13.564  0.4155 -0.0857  0.6937
   41TMC2    C6  639   3.421   1.245  13.676  1.0925  0.3523  0.0176
   41TMC2     C  640   3.725   1.522  13.670 -0.2557  0.1560  0.2805
   41TMC2     O  641   3.731   1.590  13.569  0.0302  0.0240 -0.5856
   41TMC2     H  642   3.688   1.321  13.863  1.9508 -0.8046 -1.1925
   41TMC2    H1  643   3.595   1.447  13.465  0.2630 -0.1579  0.6808
   41TMC2    H2  644   3.330   1.185  13.680  1.5922 -0.3199  1.2730
   41TMC2    C7  645   3.363   1.316  13.454  0.4237 -0.4466  0.3087
   41TMC2    C8  646   3.479   1.174  13.897  0.0706  0.4063 -0.7461
   41TMC2    O1  647   3.319   1.206  13.434 -0.6479 -0.4421 -0.2925
   41TMC2    O2  648   3.536   1.204  14.003 -0.4492  0.1039  0.7683
   41TMC2    O5  649   3.435   1.049  13.866 -0.6864 -0.3797  0.4599
   41TMC2    H5  650   3.417   1.029  13.772  0.0792  0.4681  0.1417
   42MPD2     C  651   3.833   1.780  13.763  0.2201 -0.6607 -0.3743
   42MPD2    C1  652   3.806   1.677  13.850  0.8035  0.2015  0.1952
   42MPD2    C2  653   3.823   1.694  13.985  0.0838 -0.0914  0.6575
   42MPD2    C3  654   3.862   1.812  14.039 -0.3780  0.3083  0.5098
   42MPD2    C4  655   3.874   1.915  13.951  0.6968 -0.6097  0.8472
   42MPD2    C5  656   3.861   1.903  13.818 -0.3416  0.2302  0.2267
   42MPD2     H  657   3.809   1.600  14.039 -1.7978  0.5280  1.2552
   42MPD2    H1  658   3.889   2.018  13.983 -0.7498  0.5921 -2.3934
   42MPD2    H2  659   3.835   1.769  13.655  1.0159  0.7832 -0.5057
   42MPD2    H3  660   3.880   1.989  13.756 -0.7919 -0.3547 -0.7241
   42MPD2     N  661   3.860   1.833  14.178 -0.0628 -0.5361  0.0088
   42MPD2    H5  662   3.857   1.927  14.216  3.2449 -0.5060  0.2144
   42MPD2    N1  663   3.753   1.553  13.804  0.8047  0.1701  0.2298
   42MPD2    H7  664   3.721   1.487  13.874  1.9056 -1.1189 -0.4902
   43TMC2    C1  665   0.438   3.898   1.115 -0.6017  0.6062 -0.8239
   43TMC2    C2  666   0.467   3.781   1.183  0.7131 -0.0170  0.0545
   43TMC2    C3  667   0.572   3.788   1.278 -0.2362 -0.1063 -0.3284
   43TMC2    C4  668   0.505   4.010   1.155  0.0606  0.1476 -0.2749
   43TMC2    C5  669   0.611   4.016   1.247  0.5545  0.2483  0.7964
   43TMC2    C6  670   0.643   3.899   1.312 -0.0113 -0.3393 -0.4913
   43TMC2     C  671   0.406   3.881   0.974 -0.4938 -0.4678  0.4931
   43TMC2     O  672   0.410   3.762   0.938  0.4565  0.1738 -0.4756
   43TMC2     H  673   0.441   3.684   1.142 -0.6821 -0.0225  0.9502
   43TMC2    H1  674   0.482   4.100   1.100 -0.5979  0.5687  0.6982
   43TMC2    H2  675   0.720   3.886   1.387  1.4027 -1.6485 -2.1835
   43TMC2    C7  676   0.686   4.143   1.273 -0.0490 -0.5343 -0.4701
   43TMC2    C8  677   0.599   3.672   1.353 -0.1663 -0.5696 -0.0105
   43TMC2    O1  678   0.796   4.129   1.317  0.0162  0.2971  0.3585
   43TMC2    O2  679   0.622   3.672   1.473 -0.3089  0.0333  0.3266
   43TMC2    O5  680   0.609   3.562   1.273  0.2411  0.3388  0.1805
   43TMC2    H5  681   0.631   3.594   1.183 -1.3585 -0.6600 -0.5628
   44MPD2     C  682   0.259   4.078   0.515 -0.6548  0.2850  0.2126
   44MPD2    C1  683   0.292   3.947   0.554  0.1781 -0.1851  0.9505
   44MPD2    C2  684   0.312   3.921   0.691 -0.0821  0.0529  0.5039
   44MPD2    C3  685   0.324   4.024   0.785  0.7260  0.7075  0.5585
   44MPD2    C4  686   0.292   4.154   0.740  0.0407  0.3015  0.5282
   44MPD2    C5  687   0.257   4.175   0.610 -0.1598  0.2412  0.0083
   44MPD2     H  688   0.343   3.819   0.710  1.9236  0.4623 -0.5844
   44MPD2    H1  689   0.287   4.231   0.816  1.5021  1.9296 -1.0299
   44MPD2    H2  690   0.238   4.103   0.411  1.1779  4.4622  0.8515
   44MPD2    H3  691   0.235   4.274   0.572  0.7682 -0.0032 -1.1444
   44MPD2     N  692   0.365   4.004   0.918  0.1961 -0.3442  0.1366
   44MPD2    H5  693   0.364   4.093   0.966  0.1128  0.4467 -1.3421
   44MPD2    N1  694   0.306   3.839   0.462 -0.4848 -0.0041 -0.9536
   44MPD2    H7  695   0.336   3.749   0.498 -0.8277  0.5143  0.6130
   45TMC2    C1  696   0.172   2.391   9.664 -0.6346  0.4897  0.8218
   45TMC2    C2  697   0.187   2.356   9.532  0.2409 -0.1141 -0.4092
   45TMC2    C3  698   0.218   2.458   9.445  0.1246 -0.5625 -0.0618
   45TMC2    C4  699   0.185   2.516   9.714 -0.3052 -0.9596  0.1672
   45TMC2    C5  700   0.233   2.615   9.633 -0.0370 -0.3867  0.2208
   45TMC2    C6  701   0.238   2.588   9.497 -0.8967 -0.4691 -0.1091
   45TMC2     C  702   0.174   2.289   9.765  0.7131  0.3937  0.2041
   45TMC2     O  703   0.226   2.317   9.872  0.2462  0.4487  0.4359
   45TMC2     H  704   0.194   2.258   9.487 -0.1340  0.5221 -1.8687
   45TMC2    H1  705   0.176   2.532   9.821  1.4543  0.0728  0.1705
   45TMC2    H2  706   0.262   2.666   9.427 -3.0573  0.0389 -0.2699
   45TMC2    C7  707   0.272   2.742   9.692  0.1213 -0.1862  0.0970
   45TMC2    C8  708   0.179   2.465   9.307 -0.2251  0.4115  0.7366
   45TMC2    O1  709   0.291   2.739   9.811  0.2786  0.1143  0.3009
   45TMC2    O2  710   0.215   2.558   9.243 -0.3747 -0.1086  0.0118
   45TMC2    O5  711   0.058   2.415   9.311 -0.1181 -0.3880 -0.4774
   45TMC2    H5  712   0.049   2.346   9.379  1.4770 -0.5672 -0.4639
   46MPD2     C  713   0.166   2.032   9.916 -0.2839  0.2361 -0.0098
   46MPD2    C1  714   0.100   2.051   9.795  0.0435 -0.1598  0.5146
   46MPD2    C2  715   0.034   1.943   9.733 -0.4587 -0.1135 -0.2507
   46MPD2    C3  716   0.035   1.821   9.795 -0.5686  0.4946 -0.0739
   46MPD2    C4  717   0.085   1.812   9.924  0.1608 -0.2152 -0.0844
   46MPD2    C5  718   0.161   1.909   9.983 -0.5745  1.1532 -0.2710
   46MPD2     H  719   4.738   1.961   9.632 -3.0434 -0.4759  0.5769
   46MPD2    H1  720   0.058   1.725   9.984  1.2197 -0.1325  0.5086
   46MPD2    H2  721   0.234   2.103   9.961 -1.1223  1.8743 -1.3035
   46MPD2    H3  722   0.205   1.900  10.081 -0.2876  2.3279 -0.2838
   46MPD2     N  723   4.706   1.715   9.731  0.0132 -0.7525  0.2174
   46MPD2    H5  724   4.654   1.739   9.647  0.6738  2.2340  0.6411
   46MPD2    N1  725   0.108   2.175   9.718 -0.4316 -0.0488  0.3713
   46MPD2    H7  726   0.062   2.174   9.628  1.2604  2.0884 -0.5081
   47TMC2    C1  727   2.898   2.696   8.917  0.4417  0.9092 -0.0053
   47TMC2    C2  728   2.931   2.766   8.804 -0.3508 -0.3725  0.1841
   47TMC2    C3  729   2.831   2.804   8.723  0.5666 -0.4327 -0.7875
   47TMC2    C4  730   2.769   2.681   8.956  0.2094 -0.0462 -0.5849
   47TMC2    C5  731   2.673   2.721   8.873 -0.8066  0.1322 -1.0790
   47TMC2    C6  732   2.700   2.777   8.751  0.0558 -0.1938 -0.5561
   47TMC2     C  733   3.018   2.641   8.982 -0.0341  0.0692  0.1311
   47TMC2     O  734   3.118   2.688   8.939  0.1813  0.4921  0.1742
   47TMC2     H  735   3.032   2.778   8.767 -0.7915  0.5694 -0.7108
   47TMC2    H1  736   2.735   2.638   9.050  0.0888  0.0418 -0.5892
   47TMC2    H2  737   2.629   2.814   8.678  0.7845  1.3733 -0.4703
   47TMC2    C7  738   2.541   2.700   8.916 -0.1721  0.6688 -0.4978
   47TMC2    C8  739   2.854   2.854   8.589  0.1639  0.7624  0.2579
   47TMC2    O1  740   2.515   2.616   9.004 -0.6981 -0.1638 -0.1727
   47TMC2    O2  741   2.773   2.911   8.518 -0.2235 -0.2767 -0.4428
   47TMC2    O5  742   2.945   2.768   8.539  0.0715  0.3956 -0.1055
   47TMC2    H5  743   2.987   2.699   8.595 -0.5371 -0.6680 -0.9449
   48MPD2     C  744   3.218   2.570   9.192  0.2782  1.0158 -0.2054
   48MPD2    C1  745   3.084   2.523   9.192  0.4649 -0.5964 -0.2847
   48MPD2    C2  746   3.030   2.445   9.294 -0.2253  1.0464  0.5979
   48MPD2    C3  747   3.124   2.402   9.392  0.2720  0.6495 -0.5631
   48MPD2    C4  748   3.254   2.463   9.402  0.4255 -0.1303 -1.1213
   48MPD2    C5  749   3.292   2.546   9.299  0.1298 -0.1044 -0.4571
   48MPD2     H  750   2.933   2.397   9.285  1.3835 -2.2879  0.7139
   48MPD2    H1  751   3.334   2.446   9.473 -2.1077  0.6060  1.9153
   48MPD2    H2  752   3.269   2.628   9.116  0.9275 -0.6313 -1.0240
   48MPD2    H3  753   3.391   2.588   9.286  0.1956 -0.2154 -0.3088
   48MPD2     N  754   3.077   2.315   9.490  0.1687 -0.2740 -0.1507
   48MPD2    H5  755   2.990   2.270   9.462  0.1629  0.3005 -1.0345
   48MPD2    N1  756   2.992   2.556   9.083  0.1854 -0.0216 -0.1024
   48MPD2    H7  757   2.895   2.538   9.105 -0.6825  4.3697 -0.3206
   49TMC2    C1  758   1.200   4.010  10.512  0.3590 -0.6905  0.1072
   49TMC2    C2  759   1.289   3.916  10.479  0.1573 -0.8902  0.1683
   49TMC2    C3  760   1.405   3.911  10.551  0.7242 -0.2623  0.3496
   49TMC2    C4  761   1.241   4.112  10.591 -0.0638  0.0923  0.5678
   49TMC2    C5  762   1.358   4.107  10.655  0.2746  0.3931  0.3973
   49TMC2    C6  763   1.448   4.005  10.635 -0.2120 -0.5738 -0.2239
   49TMC2     C  764   1.061   4.001  10.460  0.0130 -0.4638 -0.2452
   49TMC2     O  765   1.024   3.893  10.428 -0.4143 -0.4132 -0.1965
   49TMC2     H  766   1.263   3.828  10.421  1.3179 -1.3587  0.3441
   49TMC2    H1  767   1.176   4.194  10.618 -0.4894  0.2431 -0.9115
   49TMC2    H2  768   1.545   4.006  10.683  0.3736  1.7345 -1.4404
   49TMC2    C7  769   1.400   4.224  10.737 -0.0349  0.0902  0.0121
   49TMC2    C8  770   1.510   3.835  10.492 -0.0841  0.1495 -0.1623
   49TMC2    O1  771   1.487   4.198  10.820  0.3980  0.0172  0.1002
   49TMC2    O2  772   1.536   3.720  10.526  0.3973  0.3208 -0.1018
   49TMC2    O5  773   1.512   3.889  10.370 -0.0531  0.3818  0.5656
   49TMC2    H5  774   1.480   3.981  10.384  3.2536  1.2579  2.4436
   50MPD2     C  775   0.811   4.055  10.320  0.4470 -0.3798  0.5665
   50MPD2    C1  776   0.867   4.145  10.408 -0.7952 -0.3637  0.0123
   50MPD2    C2  777   0.804   4.267  10.437 -0.1247  0.5163  0.5766
   50MPD2    C3  778   0.675   4.280  10.388 -0.0089  0.4393  0.1575
   50MPD2    C4  779   0.613   4.184  10.310 -0.1337  0.5049 -0.1452
   50MPD2    C5  780   0.683   4.078  10.269  0.1673 -0.3959  0.0286
   50MPD2     H  781   0.862   4.341  10.490  1.2566 -0.3792  0.3089
   50MPD2    H1  782   0.516   4.199  10.264 -0.7111  0.6705  1.1359
   50MPD2    H2  783   0.856   3.963  10.285  1.1829  1.0003 -2.1164
   50MPD2    H3  784   0.635   4.011  10.199 -0.3563  0.5816 -0.5494
   50MPD2     N  785   0.592   4.389  10.423  0.9630 -1.1188 -0.2495
   50MPD2    H5  786   0.505   4.402  10.372  0.9521  0.3038  0.1393
   50MPD2    N1  787   0.992   4.120  10.464  0.2243  1.2658  0.3341
   50MPD2    H7  788   1.032   4.203  10.505  0.0339  0.4907  2.1106
   51TMC2    C1  789   1.592   2.680   1.394 -0.5419  0.8914 -0.2887
   51TMC2    C2  790   1.567   2.751   1.511 -0.2835 -0.6478  0.4626
   51TMC2    C3  791   1.623   2.877   1.507 -0.5272  0.3388  0.3302
   51TMC2    C4  792   1.670   2.725   1.283  0.5391 -0.4692  0.0676
   51TMC2    C5  793   1.714   2.852   1.286 -0.4003 -0.1070 -0.5739
   51TMC2    C6  794   1.698   2.924   1.405 -0.0748 -0.0316 -0.3909
   51TMC2     C  795   1.587   2.535   1.413  0.4129  0.2977  0.5231
   51TMC2     O  796   1.483   2.499   1.470  0.2029  0.1160  0.2618
   51TMC2     H  797   1.527   2.709   1.602 -0.3829  0.2828  0.8481
   51TMC2    H1  798   1.699   2.663   1.200  0.6119  1.4179 -1.3162
   51TMC2    H2  799   1.746   3.021   1.405 -1.4579  0.6545  0.6568
   51TMC2    C7  800   1.813   2.894   1.183  0.6039 -0.2268  0.7028
   51TMC2    C8  801   1.625   2.952   1.632 -0.2916 -0.0381  0.2288
   51TMC2    O1  802   1.915   2.949   1.227  0.4118  0.2851  0.1678
   51TMC2    O2  803   1.658   2.905   1.738 -0.2117 -0.4027  0.0245
   51TMC2    O5  804   1.570   3.077   1.617  0.2804 -0.0981 -0.6958
   51TMC2    H5  805   1.551   3.096   1.523 -1.4222  0.2433 -0.2942
   52MPD2     C  806   1.656   2.046   1.286  0.3737  0.2434  0.4036
   52MPD2    C1  807   1.778   2.112   1.259  0.3805  0.0535 -0.5785
   52MPD2    C2  808   1.783   2.247   1.285  0.2824  0.0833  0.0691
   52MPD2    C3  809   1.670   2.315   1.328 -0.5830 -0.0189  0.5749
   52MPD2    C4  810   1.553   2.242   1.351  0.0688 -0.2664  0.1044
   52MPD2    C5  811   1.543   2.116   1.323  0.7666 -0.1972 -0.9704
   52MPD2     H  812   1.875   2.303   1.272  1.6137 -2.2572 -0.6272
   52MPD2    H1  813   1.460   2.272   1.398  1.0491  1.0064  1.1908
   52MPD2    H2  814   1.637   1.939   1.287  2.0043 -0.0490 -0.2327
   52MPD2    H3  815   1.459   2.049   1.335  0.4507  0.5987  1.3270
   52MPD2     N  816   1.675   2.454   1.340 -0.2334  0.6867  0.1664
   52MPD2    H5  817   1.756   2.503   1.305 -1.2633 -0.0386 -3.2608
   52MPD2    N1  818   1.901   2.049   1.220 -0.0006 -0.5441  0.3305
   52MPD2    H7  819   1.963   2.118   1.178 -0.8912  1.5421  2.4538
   53TMC2    C1  820   1.416   2.054  11.537 -0.7339  0.1400 -0.5239
   53TMC2    C2  821   1.461   1.921  11.522 -0.7277  0.7646 -0.3352
   53TMC2    C3  822   1.516   1.873  11.637 -0.0607  0.0955  0.2955
   53TMC2    C4  823   1.429   2.120  11.656 -0.1831 -0.1452 -0.7151
   53TMC2    C5  824   1.482   2.060  11.767  1.0389 -0.7690  0.0214
   53TMC2    C6  825   1.532   1.931  11.751  0.1994  0.2498 -0.7656
   53TMC2     C  826   1.338   2.111  11.428 -0.1969  0.2291 -0.1879
   53TMC2     O  827   1.360   2.076  11.309 -0.2245  0.3539 -0.8888
   53TMC2     H  828   1.446   1.860  11.434  2.0895  0.5162 -0.6291
   53TMC2    H1  829   1.380   2.216  11.668  1.8321  0.6916  0.8825
   53TMC2    H2  830   1.550   1.867  11.836  1.4203 -0.9807 -1.9608
   53TMC2    C7  831   1.449   2.112  11.904 -0.1180 -0.5083 -0.1734
   53TMC2    C8  832   1.553   1.733  11.636  0.1552 -0.6458  0.2561
   53TMC2    O1  833   1.341   2.167  11.902 -0.5761 -0.0842  0.6254
   53TMC2    O2  834   1.524   1.643  11.712  0.1694 -0.1700  0.1968
   53TMC2    O5  835   1.642   1.728  11.534 -0.0750 -0.6305 -0.6027
   53TMC2    H5  836   1.665   1.821  11.515  1.7651 -1.0615 -0.4671
   54MPD2     C  837   1.150   2.276  11.257  0.1519  0.3281 -0.2621
   54MPD2    C1  838   1.130   2.254  11.391 -0.5208  0.2951 -0.0051
   54MPD2    C2  839   1.016   2.310  11.449  0.3948 -0.2952  0.3493
   54MPD2    C3  840   0.920   2.372  11.374  0.3705  0.9960  0.6194
   54MPD2    C4  841   0.937   2.381  11.236  0.4100  0.2877  0.1690
   54MPD2    C5  842   1.060   2.343  11.180 -0.4333  0.0862 -0.1451
   54MPD2     H  843   1.010   2.294  11.556 -0.8306  1.6336  0.5567
   54MPD2    H1  844   0.863   2.437  11.180  0.7125 -0.7093 -1.2025
   54MPD2    H2  845   1.249   2.265  11.216  1.2644  0.7499  2.3381
   54MPD2    H3  846   1.092   2.370  11.080  3.0797  0.4168  1.0712
   54MPD2     N  847   0.803   2.434  11.430  0.3354 -1.2008 -0.0007
   54MPD2    H5  848   0.732   2.481  11.374  1.5829 -0.0503 -0.6142
   54MPD2    N1  849   1.228   2.189  11.477 -0.1075 -0.6224  0.2423
   54MPD2    H7  850   1.210   2.195  11.576  0.3143 -0.0159  0.2790
   55TMC2    C1  851   2.996   4.514   0.614 -0.3300  0.7134 -0.2664
   55TMC2    C2  852   3.105   4.582   0.570  0.0741  0.0818  0.2994
   55TMC2    C3  853   3.220   4.509   0.570  0.2367 -0.5336  0.1140
   55TMC2    C4  854   2.984   4.378   0.622  0.1040  0.3184  0.0870
   55TMC2    C5  855   3.103   4.305   0.601  0.4128 -0.0269 -0.7845
   55TMC2    C6  856   3.222   4.376   0.595  0.5690 -0.4750  0.4903
   55TMC2     C  857   2.877   4.591   0.657 -0.0038  0.2802  0.3133
   55TMC2     O  858   2.774   4.528   0.661 -0.1908  0.2824 -0.0582
   55TMC2     H  859   3.092   4.675   0.517 -2.4078 -0.4770 -0.0774
   55TMC2    H1  860   2.890   4.329   0.645  0.7255 -0.4554  1.0094
   55TMC2    H2  861   3.317   4.326   0.582  0.4885 -0.5941  0.3452
   55TMC2    C7  862   3.116   4.165   0.585  0.0033 -0.8346  0.1597
   55TMC2    C8  863   3.345   4.562   0.592  0.0802  0.8561  0.0890
   55TMC2    O1  864   3.223   4.120   0.551 -0.3219  0.2157 -0.2639
   55TMC2    O2  865   3.448   4.511   0.540  0.3513 -0.2886  0.0652
   55TMC2    O5  866   3.345   4.630   0.706 -0.0757  0.1670  0.1159
   55TMC2    H5  867   3.254   4.641   0.741  0.6412  0.5595  1.8487
   56MPD2     C  868   2.813   0.219   0.655  0.0228  0.3045 -0.5872
   56MPD2    C1  869   2.811   0.084   0.700 -0.9050 -0.4823  0.5494
   56MPD2    C2  870   2.691   0.048   0.769 -0.4913 -0.1013  0.0006
   56MPD2    C3  871   2.587   0.138   0.794 -0.1215 -0.8590  0.7490
   56MPD2    C4  872   2.595   0.267   0.747  0.5084 -0.1559  0.0454
   56MPD2    C5  873   2.702   0.306   0.675 -0.1195  0.4572  0.6643
   56MPD2     H  874   2.685   4.693   0.822 -0.0094  0.4667  1.0822
   56MPD2    H1  875   2.514   0.339   0.758 -0.7363 -1.8519  1.8696
   56MPD2    H2  876   2.897   0.260   0.600  0.3322  0.1477 -0.2261
   56MPD2    H3  877   2.690   0.409   0.644  2.7085  0.4020 -0.6788
   56MPD2     N  878   2.485   0.096   0.879  0.5182 -0.0743  0.0483
   56MPD2    H5  879   2.496   0.005   0.922  1.1969  0.7300  1.5928
   56MPD2    N1  880   2.907   4.723   0.670  0.3602  0.3813 -0.4477
   56MPD2    H7  881   3.000   0.025   0.667  0.8965 -0.6389  1.9886
   57TMC2    C1  882   1.901   0.456  13.452  0.5445 -0.7127 -0.6716
   57TMC2    C2  883   1.841   0.343  13.502  0.0848 -0.4311  0.2095
   57TMC2    C3  884   1.899   0.224  13.463 -0.0545  0.1160 -0.5715
   57TMC2    C4  885   2.012   0.452  13.373 -0.6620  0.0674  0.2997
   57TMC2    C5  886   2.073   0.332  13.346  0.0712  0.8003  0.4713
   57TMC2    C6  887   2.022   0.217  13.394 -0.2536  0.0995 -0.6310
   57TMC2     C  888   1.886   0.584  13.523  0.7557 -0.4806  0.7187
   57TMC2     O  889   1.916   0.682  13.464  0.4859 -0.0475  0.1292
   57TMC2     H  890   1.753   0.352  13.566  0.5184 -1.3838  0.9496
   57TMC2    H1  891   2.059   0.547  13.349 -0.7037 -0.0861 -0.3954
   57TMC2    H2  892   2.075   0.124  13.379  0.5630  0.2694  1.0709
   57TMC2    C7  893   2.200   0.349  13.278  0.3505 -0.1978 -0.5663
   57TMC2    C8  894   1.850   0.104  13.535  0.2286 -0.1223  0.2364
   57TMC2    O1  895   2.232   0.466  13.265 -0.2418 -0.1887  0.2655
   57TMC2    O2  896   1.923   0.020  13.578 -0.2782 -0.8892 -0.3874
   57TMC2    O5  897   1.711   0.101  13.539 -0.2199 -0.1109  0.3007
   57TMC2    H5  898   1.668   0.167  13.480  1.8947  1.0287  0.0244
   58MPD2     C  899   1.693   0.851  13.915  0.0469 -0.4833  0.0850
   58MPD2    C1  900   1.676   0.865  13.779 -0.2116  0.5245 -0.4397
   58MPD2    C2  901   1.734   0.776  13.691 -0.1744 -0.0836  0.1047
   58MPD2    C3  902   1.791   0.658  13.742  0.3406  0.4653  0.2512
   58MPD2    C4  903   1.791   0.633  13.877 -0.5350  0.1154  0.1617
   58MPD2    C5  904   1.743   0.732  13.964 -0.1672 -0.8614  0.1787
   58MPD2     H  905   1.726   0.789  13.584  1.8395 -0.4952 -0.0929
   58MPD2    H1  906   1.835   0.540  13.913 -0.5158 -0.7718 -2.1009
   58MPD2    H2  907   1.641   0.910  13.989 -1.6241 -1.5302 -0.2552
   58MPD2    H3  908   1.752   0.709  14.069  1.6412 -3.9995 -0.6832
   58MPD2     N  909   1.846   0.563  13.652 -0.2223  0.2670 -0.2404
   58MPD2    H5  910   1.845   0.465  13.677 -0.9974  0.0024 -1.3125
   58MPD2    N1  911   1.609   0.984  13.732  0.1925  0.5364 -0.0778
   58MPD2    H7  912   1.603   0.995  13.631  3.6620 -2.5472 -0.6372
   59TMC2    C1  913   4.071   0.998  12.636  0.7922  0.3356  0.8393
   59TMC2    C2  914   4.074   0.901  12.726 -0.2236 -0.4721 -0.5146
   59TMC2    C3  915   4.016   0.784  12.685 -0.3322 -0.2973 -0.2605
   59TMC2    C4  916   4.000   0.998  12.518  0.4765 -0.3877  0.0355
   59TMC2    C5  917   3.946   0.876  12.485 -0.8656  0.2251 -0.2141
   59TMC2    C6  918   3.955   0.765  12.564 -0.4710 -0.0416 -0.5584
   59TMC2     C  919   4.142   1.119  12.656 -1.1242  0.2629  0.1621
   59TMC2     O  920   4.105   1.214  12.590 -0.1293  0.2855  0.3369
   59TMC2     H  921   4.096   0.923  12.830 -2.3993 -4.4651  0.8155
   59TMC2    H1  922   3.999   1.077  12.444 -3.0205 -0.3300  0.1576
   59TMC2    H2  923   3.920   0.667  12.535 -2.4204  0.6879 -0.6461
   59TMC2    C7  924   3.845   0.872  12.389 -0.4121 -0.4317 -0.5147
   59TMC2    C8  925   4.037   0.672  12.775 -0.2974  0.1445  0.3954
   59TMC2    O1  926   3.808   0.758  12.357 -0.2472  0.0818  0.2260
   59TMC2    O2  927   3.948   0.587  12.786  0.1080  0.1630 -0.0031
   59TMC2    O5  928   4.150   0.695  12.852 -0.4530 -0.5141  0.4163
   59TMC2    H5  929   4.207   0.764  12.811  2.0095 -2.0726  1.2447
   60MPD2     C  930   4.312   1.336  12.753 -0.5444  0.3135 -0.0610
   60MPD2    C1  931   4.320   1.212  12.807  0.1346 -0.6768  0.1937
   60MPD2    C2  932   4.415   1.184  12.910 -0.2063  0.5913  0.4495
   60MPD2    C3  933   4.502   1.290  12.950  0.1039 -0.1116  0.4028
   60MPD2    C4  934   4.480   1.415  12.896  0.1471  1.2205 -0.0680
   60MPD2    C5  935   4.395   1.436  12.793 -0.5537 -0.5306 -0.0275
   60MPD2     H  936   4.430   1.086  12.954 -0.7802  0.4914  0.4234
   60MPD2    H1  937   4.541   1.500  12.926  0.0111  1.4129 -0.3304
   60MPD2    H2  938   4.244   1.370  12.676 -0.4179  3.1259  1.0447
   60MPD2    H3  939   4.386   1.533  12.745 -3.9910 -0.7119  0.2758
   60MPD2     N  940   4.615   1.276  13.030 -0.2380  0.2382  0.1691
   60MPD2    H5  941   4.679   1.353  13.012  0.4706 -0.3088  0.3478
   60MPD2    N1  942   4.240   1.105  12.753  0.3327  0.2074 -0.6078
   60MPD2    H7  943   4.254   1.012  12.791 -0.0293  0.3147 -0.2128
   61TMC2    C1  944   3.655   2.368  15.989 -0.1596 -0.0461 -0.3083
   61TMC2    C2  945   3.525   2.347  16.028 -0.8777  0.3585  0.0024
   61TMC2    C3  946   3.427   2.400  15.959 -0.4717  0.2910 -0.0399
   61TMC2    C4  947   3.681   2.460  15.893 -0.7733 -0.0086 -0.0676
   61TMC2    C5  948   3.577   2.509  15.822  0.0847 -0.2197 -0.3060
   61TMC2    C6  949   3.449   2.481  15.852  0.3911 -0.4492 -0.5839
   61TMC2     C  950   3.748   2.263  16.010 -0.6815 -0.1301 -0.3272
   61TMC2     O  951   3.724   2.172  16.091  0.1788  0.1004  0.3121
   61TMC2     H  952   3.502   2.267  16.097  2.0036 -0.6479 -0.1959
   61TMC2    H1  953   3.778   2.495  15.859 -0.3397  0.2522  1.4193
   61TMC2    H2  954   3.362   2.524  15.804  0.6695  1.4803  0.6173
   61TMC2    C7  955   3.615   2.578  15.698  0.1919  0.4134 -0.4714
   61TMC2    C8  956   3.295   2.382  16.015  0.8550 -0.0386  0.0442
   61TMC2    O1  957   3.728   2.558  15.650  0.2069 -0.2632 -0.1879
   61TMC2    O2  958   3.195   2.403  15.946  0.2300  0.1483  0.4465
   61TMC2    O5  959   3.296   2.379  16.148 -0.0415 -0.5442 -0.2950
   61TMC2    H5  960   3.381   2.404  16.190 -0.6885 -2.0842  1.9374
   62MPD2     C  961   3.953   2.042  15.966  0.2577 -0.0774 -0.4979
   62MPD2    C1  962   3.940   2.157  15.884  0.1406 -0.2237 -0.5352
   62MPD2    C2  963   4.019   2.169  15.769  0.5999 -0.5020 -0.1776
   62MPD2    C3  964   4.102   2.074  15.732  0.3043 -0.0736  0.0542
   62MPD2    C4  965   4.119   1.964  15.810  0.0544 -0.7894 -0.2864
   62MPD2    C5  966   4.053   1.950  15.928 -0.0079  0.1771 -0.6005
   62MPD2     H  967   4.017   2.261  15.712 -2.5219 -0.3249  0.2144
   62MPD2    H1  968   4.199   1.896  15.785  1.7796  1.9522 -2.2950
   62MPD2    H2  969   3.904   2.032  16.063  1.0948  1.9900  0.1468
   62MPD2    H3  970   4.070   1.860  15.984  0.5542 -0.0106 -1.0683
   62MPD2     N  971   4.170   2.072  15.614  0.2057 -0.6577 -0.1337
   62MPD2    H5  972   4.234   1.994  15.603  1.5062  0.4357 -0.4020
   62MPD2    N1  973   3.854   2.269  15.915 -0.1196  0.5760  0.2426
   62MPD2    H7  974   3.864   2.349  15.853  1.3760  0.5530  0.4468
   63TMC2    C1  975   2.685   2.608  10.042  0.8984 -0.0580  0.2840
   63TMC2    C2  976   2.809   2.649  10.094  0.3252 -0.3514  0.1143
   63TMC2    C3  977   2.882   2.732  10.012 -0.0397 -0.9614  0.4191
   63TMC2    C4  978   2.652   2.634   9.914  0.1500  0.0061  0.2024
   63TMC2    C5  979   2.741   2.698   9.837 -0.1117 -0.0844  0.0855
   63TMC2    C6  980   2.853   2.750   9.878  0.0116 -0.3103  0.0203
   63TMC2     C  981   2.567   2.610  10.127 -0.0918  0.0869 -0.6807
   63TMC2     O  982   2.462   2.638  10.072 -0.1035 -0.1685 -0.2648
   63TMC2     H  983   2.845   2.629  10.194 -2.4416  0.2544  1.2195
   63TMC2    H1  984   2.563   2.589   9.872 -0.3987  0.9140  0.3758
   63TMC2    H2  985   2.927   2.793   9.812 -0.5202  3.9750  2.1831
   63TMC2    C7  986   2.687   2.742   9.709 -0.9303 -0.3069  0.2674
   63TMC2    C8  987   3.023   2.746  10.046  0.4910  0.4811  0.1788
   63TMC2    O1  988   2.563   2.723   9.701  0.1643  0.3003  0.1863
   63TMC2    O2  989   3.083   2.670  10.123 -0.0983  0.2832  0.4147
   63TMC2    O5  990   3.064   2.863   9.988 -0.3852  0.2689 -0.0867
   63TMC2    H5  991   2.979   2.911   9.977 -1.4663 -1.6016  0.1280
   64MPD2     C  992   2.275   2.527  10.542 -0.1964  0.4547 -0.1266
   64MPD2    C1  993   2.406   2.492  10.571  0.4517 -0.4849 -0.0983
   64MPD2    C2  994   2.509   2.505  10.477 -0.2113  0.6577 -0.3612
   64MPD2    C3  995   2.482   2.572  10.356 -0.6214 -0.0915 -0.6391
   64MPD2    C4  996   2.355   2.614  10.331  0.0089 -0.2273 -0.2240
   64MPD2    C5  997   2.255   2.597  10.426 -0.7405  0.6727  0.2471
   64MPD2     H  998   2.615   2.485  10.488 -0.5247  0.6329  2.4888
   64MPD2    H1  999   2.320   2.673  10.247  2.0674 -2.1879 -2.4794
   64MPD2    H2 1000   2.189   2.511  10.606 -0.7676  1.6077 -0.6166
   64MPD2    H3 1001   2.159   2.642  10.403 -0.6416  1.1109  0.7032
   64MPD2     N 1002   2.592   2.588  10.263  0.3659 -0.3262 -0.2470
   64MPD2    H5 1003   2.688   2.567  10.289  0.7707  1.0178 -0.6968
   64MPD2    N1 1004   2.432   2.441  10.697 -0.3791  0.4700  0.3405
   64MPD2    H7 1005   2.348   2.424  10.751 -2.0136 -0.6204 -2.5821
   65TMC2    C1 1006   4.675   1.621  15.477  0.4146  0.5240 -0.7702
   65TMC2    C2 1007   4.681   1.550  15.358 -0.4421 -0.2653 -0.6054
   65TMC2    C3 1008   4.682   1.622  15.242 -0.3117 -0.0558  0.4972
   65TMC2    C4 1009   4.679   1.757  15.484 -0.0562  0.4717 -0.3998
   65TMC2    C5 1010   4.688   1.827  15.366  0.4203 -1.2125  0.1411
   65TMC2    C6 1011   4.691   1.760  15.241  0.3581 -0.1181 -0.2711
   65TMC2     C 1012   4.662   1.554  15.609 -0.2867  0.5760 -0.1435
   65TMC2     O 1013   4.683   1.620  15.710  0.0104  0.0164 -0.4144
   65TMC2     H 1014   4.700   1.443  15.350  1.2927 -0.0265  0.1245
   65TMC2    H1 1015   4.681   1.807  15.581 -4.4802  0.2016 -0.1684
   65TMC2    H2 1016   4.694   1.825  15.154  2.6389  1.0761  0.7046
   65TMC2    C7 1017   4.666   1.967  15.362  0.9361 -0.4599  0.1708
   65TMC2    C8 1018   4.695   1.547  15.127  0.7712 -0.5348  0.1783
   65TMC2    O1 1019   4.706   2.034  15.265  0.1847 -0.0957 -0.1304
   65TMC2    O2 1020   4.733   1.431  15.132 -0.0225 -0.0852 -0.5674
   65TMC2    O5 1021   4.688   1.619  15.013 -0.1316 -0.5458  0.2220
   65TMC2    H5 1022   4.648   1.708  15.029 -0.8051 -1.2296  2.3821
   66MPD2     C 1023   4.624   1.371  15.843  0.0722  0.5883  0.6852
   66MPD2    C1 1024   4.598   1.341  15.709 -0.6233  0.0037 -0.4759
   66MPD2    C2 1025   4.580   1.203  15.684 -0.1491  0.5620 -0.2024
   66MPD2    C3 1026   4.585   1.115  15.785  0.0798  0.2411  0.1997
   66MPD2    C4 1027   4.614   1.145  15.915 -0.7864 -0.4767 -0.3078
   66MPD2    C5 1028   4.623   1.281  15.942  0.1656  0.2402  0.0270
   66MPD2     H 1029   4.575   1.176  15.579  0.6413  0.6737 -0.2675
   66MPD2    H1 1030   4.624   1.082  16.002  0.4892  2.4577  1.6668
   66MPD2    H2 1031   4.630   1.475  15.874  2.0604  0.8545 -0.6443
   66MPD2    H3 1032   4.634   1.309  16.046 -1.6702  1.7101 -0.1724
   66MPD2     N 1033   4.563   0.973  15.765  0.6184  0.1163  0.0852
   66MPD2    H5 1034   4.545   0.920  15.850  2.2438 -0.9938 -0.2577
   66MPD2    N1 1035   4.623   1.425  15.601 -0.3424 -0.1279 -0.5781
   66MPD2    H7 1036   4.594   1.376  15.516  0.9469 -0.7105 -0.6834
   67TMC2    C1 1037   4.573   0.881  14.306  0.3071 -0.3423  1.0772
   67TMC2    C2 1038   4.492   0.976  14.371  0.8196  0.0376  0.3010
   67TMC2    C3 1039   4.521   1.006  14.505 -0.4694  0.2033  0.8245
   67TMC2    C4 1040   4.675   0.813  14.370 -0.0757 -0.1128  0.0245
   67TMC2    C5 1041   4.691   0.837  14.503  0.0676 -0.1309  0.0422
   67TMC2    C6 1042   4.615   0.931  14.569  0.5149 -0.3600 -0.2385
   67TMC2     C 1043   4.581   0.885  14.164 -0.7661 -0.1198 -0.0883
   67TMC2     O 1044   4.697   0.882  14.119  0.0026 -0.0332 -0.3953
   67TMC2     H 1045   4.417   1.030  14.314  1.9883  0.8824 -0.4570
   67TMC2    H1 1046   4.738   0.745  14.313 -0.4573 -0.1435 -0.3602
   67TMC2    H2 1047   4.622   0.935  14.677  2.2415 -0.2484 -0.3480
   67TMC2    C7 1048   0.084   0.801  14.548  0.3106 -0.3049  0.7546
   67TMC2    C8 1049   4.443   1.103  14.566  0.1982  0.1934  0.1763
   67TMC2    O1 1050   0.165   0.761  14.467  0.2443 -0.2789  0.0341
   67TMC2    O2 1051   4.340   1.152  14.520  0.1832  0.7141  0.0615
   67TMC2    O5 1052   4.497   1.146  14.680 -0.4894  0.4489  0.1446
   67TMC2    H5 1053   4.594   1.133  14.671 -0.6946 -0.8463 -0.1251
   68MPD2     C 1054   4.542   0.907  13.879  0.2024  0.3768 -0.3689
   68MPD2    C1 1055   4.441   0.881  13.963  0.0507  0.4141 -0.3218
   68MPD2    C2 1056   4.312   0.857  13.917  0.1892  0.4996  0.4605
   68MPD2    C3 1057   4.289   0.855  13.775  0.6568 -0.7105  0.4832
   68MPD2    C4 1058   4.389   0.896  13.691  0.1666 -0.1837 -0.3638
   68MPD2    C5 1059   4.515   0.910  13.742 -0.0917 -0.4145  0.8503
   68MPD2     H 1060   4.225   0.833  13.977  0.2813 -0.8797  0.0424
   68MPD2    H1 1061   4.378   0.906  13.584  0.4408 -1.7879 -0.5397
   68MPD2    H2 1062   4.644   0.932  13.906 -0.8349  3.0847  1.0340
   68MPD2    H3 1063   4.592   0.955  13.680  0.8917 -1.2676  1.4554
   68MPD2     N 1064   4.162   0.823  13.718  0.5069  0.1165 -0.0284
   68MPD2    H5 1065   4.158   0.847  13.620  2.3502  1.6679  0.2823
   68MPD2    N1 1066   4.460   0.884  14.102  0.0087  0.3133 -0.1683
   68MPD2    H7 1067   4.373   0.890  14.155  0.5007 -2.0475  0.9226
   69TMC2    C1 1068   1.578   2.526  12.825  0.0825 -0.0135  0.3480
   69TMC2    C2 1069   1.615   2.639  12.893  0.4842 -0.5354 -0.5338
   69TMC2    C3 1070   1.646   2.750  12.823  0.3437 -0.2806 -0.0699
   69TMC2    C4 1071   1.563   2.523  12.689 -0.3972  0.0035  0.1497
   69TMC2    C5 1072   1.596   2.636  12.624  0.1459  0.0887  0.3888
   69TMC2    C6 1073   1.632   2.753  12.686 -0.3420 -0.5053  0.0880
   69TMC2     C 1074   1.485   2.443  12.903  0.3957  0.2120 -0.3230
   69TMC2     O 1075   1.523   2.426  13.022  0.7297 -0.1275  0.2079
   69TMC2     H 1076   1.635   2.634  12.999 -1.0802 -0.3508 -0.2314
   69TMC2    H1 1077   1.542   2.427  12.645  0.0596 -0.8366  1.7739
   69TMC2    H2 1078   1.638   2.846  12.630 -1.8879 -0.9178 -0.7587
   69TMC2    C7 1079   1.611   2.632  12.476 -0.2537 -0.3906 -0.3193
   69TMC2    C8 1080   1.705   2.868  12.877 -0.0889  0.3938  0.2302
   69TMC2    O1 1081   1.667   2.536  12.426  0.6601  0.2124 -0.9790
   69TMC2    O2 1082   1.780   2.939  12.810 -0.1754 -0.1581 -0.0603
   69TMC2    O5 1083   1.691   2.868  13.006 -0.4359 -0.1103 -0.4030
   69TMC2    H5 1084   1.624   2.813  13.052  2.4440 -3.5232 -0.2431
   70MPD2     C 1085   1.171   2.266  12.814  0.1727 -0.1054  0.0703
   70MPD2    C1 1086   1.272   2.316  12.891  1.0434  0.4406  0.3373
   70MPD2    C2 1087   1.265   2.287  13.023  0.1386  1.0505 -0.1425
   70MPD2    C3 1088   1.158   2.205  13.073  0.2588  0.4974  0.2381
   70MPD2    C4 1089   1.068   2.145  12.993  0.9842 -0.4323 -0.0654
   70MPD2    C5 1090   1.072   2.186  12.865  0.4174 -0.2336 -0.4719
   70MPD2     H 1091   1.350   2.317  13.083 -0.4988  0.6202  0.9788
   70MPD2    H1 1092   0.989   2.080  13.028  0.2980  1.2242  1.4823
   70MPD2    H2 1093   1.174   2.289  12.708 -0.5673 -1.6312 -0.2792
   70MPD2    H3 1094   0.994   2.151  12.799 -0.3144  0.9230 -0.2224
   70MPD2     N 1095   1.153   2.159  13.206 -1.4847  0.3953 -0.0600
   70MPD2    H5 1096   1.071   2.100  13.219 -1.3113  0.2895  0.5249
   70MPD2    N1 1097   1.378   2.393  12.832  0.3309  0.4139  0.9166
   70MPD2    H7 1098   1.373   2.423  12.735 -0.0183 -0.4171  0.6804
   71TMC2    C1 1099   4.224   2.556   1.266 -0.6678  0.3312  0.7739
   71TMC2    C2 1100   4.356   2.561   1.300 -0.4448 -0.1937 -0.4535
   71TMC2    C3 1101   4.376   2.581   1.437  0.5156 -0.5670 -0.2897
   71TMC2    C4 1102   4.127   2.576   1.360 -0.3087  0.0201  0.1768
   71TMC2    C5 1103   4.152   2.607   1.488 -0.4293 -0.1077 -0.0007
   71TMC2    C6 1104   4.276   2.599   1.530 -0.5848  0.4892 -0.5087
   71TMC2     C 1105   4.187   2.575   1.124  0.3095  0.3916 -0.2567
   71TMC2     O 1106   4.077   2.624   1.109  0.5233 -0.2543 -0.1781
   71TMC2     H 1107   4.434   2.567   1.225  0.4827 -1.4169  0.4118
   71TMC2    H1 1108   4.027   2.586   1.319 -0.8156 -0.2403  1.3237
   71TMC2    H2 1109   4.303   2.621   1.633  3.0431  1.6397 -1.7173
   71TMC2    C7 1110   4.051   2.623   1.586  1.2447 -0.0488 -0.1993
   71TMC2    C8 1111   4.514   2.566   1.478  0.2813  0.4917 -0.1024
   71TMC2    O1 1112   4.070   2.702   1.678  0.1062 -0.0684 -0.3613
   71TMC2    O2 1113   4.549   2.607   1.590  0.2750  0.0157 -0.4170
   71TMC2    O5 1114   4.562   2.453   1.419 -0.2901  0.5545  0.0997
   71TMC2    H5 1115   4.513   2.419   1.341 -0.3079  2.0264 -0.5211
   72MPD2     C 1116   4.224   2.511   0.615 -0.0716 -0.3141  0.1993
   72MPD2    C1 1117   4.154   2.602   0.683  0.6063 -0.1989 -0.3310
   72MPD2    C2 1118   4.168   2.599   0.824  0.1576  0.0777 -0.0568
   72MPD2    C3 1119   4.247   2.506   0.891 -0.0910  0.1084  0.5358
   72MPD2    C4 1120   4.320   2.419   0.821  0.2960 -0.4164  0.3288
   72MPD2    C5 1121   4.304   2.424   0.687 -0.6279 -0.1881  0.7845
   72MPD2     H 1122   4.110   2.672   0.879  1.9716  1.6925 -0.2904
   72MPD2    H1 1123   4.390   2.344   0.857 -0.3458 -1.1699  0.0292
   72MPD2    H2 1124   4.236   2.494   0.508 -0.6552  1.4932 -0.1600
   72MPD2    H3 1125   4.362   2.349   0.636 -2.3533 -0.0804 -1.3049
   72MPD2     N 1126   4.259   2.507   1.035  0.1473 -0.4045 -0.3135
   72MPD2    H5 1127   4.336   2.453   1.075 -0.1911 -2.0012 -1.8352
   72MPD2    N1 1128   4.081   2.704   0.612 -0.1546 -1.3389  0.3011
   72MPD2    H7 1129   4.046   2.779   0.671 -2.4549 -2.1147 -0.0608
   73TMC2    C1 1130   4.128   4.125  13.177 -0.1153 -0.4482 -0.4475
   73TMC2    C2 1131   4.178   4.156  13.051  0.1851 -0.4167  0.5714
   73TMC2    C3 1132   4.307   4.110  13.027 -1.2011  0.3968 -0.0717
   73TMC2    C4 1133   4.190   4.037  13.264 -0.3862 -0.5573  0.5989
   73TMC2    C5 1134   4.316   3.992  13.232 -0.1724 -0.7313 -0.2600
   73TMC2    C6 1135   4.374   4.034  13.114 -0.4652  0.1787  0.1462
   73TMC2     C 1136   4.065   4.234  13.250  0.4601 -0.0798  0.4264
   73TMC2     O 1137   4.086   4.229  13.371  0.3618  0.2559 -0.2848
   73TMC2     H 1138   4.138   4.239  12.994 -0.6851  0.1413  1.9814
   73TMC2    H1 1139   4.141   4.013  13.358 -0.3632 -2.8197  0.0310
   73TMC2    H2 1140   4.476   4.008  13.090  0.0208  2.0027  0.2329
   73TMC2    C7 1141   4.407   4.045  13.332  0.4927  0.5164 -0.0558
   73TMC2    C8 1142   4.386   4.206  12.967 -0.7576  0.8713 -0.7090
   73TMC2    O1 1143   4.525   4.038  13.301 -0.0915 -0.3755 -0.3948
   73TMC2    O2 1144   4.411   4.309  13.025 -0.0626  0.9548 -0.3833
   73TMC2    O5 1145   4.347   4.204  12.833 -0.6693  0.7171  0.4699
   73TMC2    H5 1146   4.295   4.124  12.808 -0.2614  0.7241 -0.4185
   74MPD2     C 1147   3.736   4.630  13.329  0.4246  0.2758 -0.4884
   74MPD2    C1 1148   3.849   4.584  13.401  0.3743  0.1613  0.2378
   74MPD2    C2 1149   3.930   4.484  13.351 -0.2226  0.0665 -1.3760
   74MPD2    C3 1150   3.900   4.418  13.231 -0.0630 -0.0351 -0.4533
   74MPD2    C4 1151   3.803   4.477  13.156 -0.0367 -0.0477  0.0515
   74MPD2    C5 1152   3.714   4.574  13.205  0.2109  0.1334 -0.3935
   74MPD2     H 1153   4.013   4.444  13.407 -1.2930  0.5339  0.5416
   74MPD2    H1 1154   3.812   4.449  13.052  2.6304  0.1449  0.2250
   74MPD2    H2 1155   3.667   4.710  13.354 -0.1822 -0.2854 -0.3450
   74MPD2    H3 1156   3.636   4.609  13.139  0.8213  2.1984  0.0020
   74MPD2     N 1157   3.980   4.316  13.178 -0.1524 -0.1761 -0.7117
   74MPD2    H5 1158   3.959   4.297  13.080 -0.0584  0.9331 -0.9466
   74MPD2    N1 1159   3.871   4.643  13.527  0.0793 -0.2203 -0.1496
   74MPD2    H7 1160   3.810   4.718  13.557 -0.5203 -0.7170 -0.1219
   75TMC2    C1 1161   3.954   0.732  13.686  0.0918  0.1367 -0.0629
   75TMC2    C2 1162   3.889   0.609  13.698 -0.4145 -0.2147  0.1551
   75TMC2    C3 1163   3.778   0.597  13.618  0.4268  0.2625 -1.0213
   75TMC2    C4 1164   3.910   0.835  13.608 -0.0717  0.0061 -0.2997
   75TMC2    C5 1165   3.788   0.822  13.547 -0.3170  0.3621 -0.0964
   75TMC2    C6 1166   3.734   0.698  13.535 -0.0660  0.0101  0.4518
   75TMC2     C 1167   4.061   0.753  13.780  0.0721 -0.1989  0.0145
   75TMC2     O 1168   4.069   0.696  13.891 -0.6140  0.2611 -0.6200
   75TMC2     H 1169   3.930   0.537  13.767  0.9074  0.6156  0.2421
   75TMC2    H1 1170   3.947   0.937  13.620 -1.0718  0.4883 -1.3096
   75TMC2    H2 1171   3.641   0.686  13.480  0.5888 -0.9103 -0.4441
   75TMC2    C7 1172   3.743   0.921  13.451 -0.0492  0.0733 -0.5676
   75TMC2    C8 1173   3.703   0.472  13.603  0.3911 -0.5089  0.1475
   75TMC2    O1 1174   3.664   0.881  13.371 -0.2238  0.5531  0.0144
   75TMC2    O2 1175   3.586   0.465  13.568  0.1987  0.0243 -0.5423
   75TMC2    O5 1176   3.777   0.376  13.662  1.0426  0.5897  0.0256
   75TMC2    H5 1177   3.873   0.394  13.670  1.2013  0.0772 -0.7009
   76TMC2    C1 1178   2.283   1.606  12.120  0.0654 -0.2842 -0.5405
   76TMC2    C2 1179   2.247   1.594  12.253 -0.0611 -0.8363  0.7298
   76TMC2    C3 1180   2.343   1.593  12.348 -0.2944 -0.0571 -0.0371
   76TMC2    C4 1181   2.413   1.588  12.085 -0.9684  0.4705 -0.6562
   76TMC2    C5 1182   2.507   1.592  12.182  0.3907  0.1949  1.1249
   76TMC2    C6 1183   2.472   1.594  12.316  0.1218  0.3556 -0.2776
   76TMC2     C 1184   2.221   1.720  12.048 -0.0530 -0.6529 -0.3775
   76TMC2     O 1185   2.098   1.732  12.056 -0.4757 -0.6325 -0.2815
   76TMC2     H 1186   2.148   1.627  12.281  0.5282 -0.9587  2.9465
   76TMC2    H1 1187   2.440   1.590  11.980 -0.4272  0.0764 -0.5224
   76TMC2    H2 1188   2.551   1.614  12.387  2.7279  1.6706 -3.5697
   76TMC2    C7 1189   2.617   1.679  12.142  0.5774  0.4992  0.0165
   76TMC2    C8 1190   2.310   1.648  12.477  0.4855 -0.1367  0.1768
   76TMC2    O1 1191   2.585   1.747  12.044  0.0003 -0.4324  0.5879
   76TMC2    O2 1192   2.229   1.742  12.498  0.0777  0.6701  0.7127
   76TMC2    O5 1193   2.345   1.555  12.565 -0.3852  0.3066 -0.1716
   76TMC2    H5 1194   2.403   1.487  12.523 -0.0461 -0.3169  1.3169
   77MPD2     C 1195   2.252   2.145  11.766  0.1601 -0.0235  0.8168
   77MPD2    C1 1196   2.142   2.084  11.818  0.3495 -0.1693 -0.2190
   77MPD2    C2 1197   2.154   1.963  11.890 -0.6243 -0.0601  0.1757
   77MPD2    C3 1198   2.279   1.919  11.924 -0.1789 -0.0004 -0.3004
   77MPD2    C4 1199   2.387   1.986  11.870  0.1116  0.5126  0.6028
   77MPD2    C5 1200   2.374   2.099  11.799 -0.4250  0.0224 -0.0892
   77MPD2     H 1201   2.061   1.917  11.921 -1.8456  2.3426  0.0651
   77MPD2    H1 1202   2.485   1.942  11.889  0.3383  0.8513  0.2051
   77MPD2    H2 1203   2.241   2.231  11.702 -2.8376 -2.2936 -1.6932
   77MPD2    H3 1204   2.463   2.143  11.755  0.6698 -0.9302  1.1489
   77MPD2     N 1205   2.311   1.801  11.984 -0.4372 -0.0166 -0.4143
   77MPD2    H5 1206   2.410   1.785  11.997 -0.0452  1.4835 -1.4960
   77MPD2    N1 1207   2.016   2.141  11.796 -0.0188  0.1530  0.6594
   77MPD2    H7 1208   1.940   2.101  11.850 -0.0437  0.6214  0.9658
   78TMC2    C1 1209   0.329   0.466   2.019 -0.1328 -0.2437  0.3283
   78TMC2    C2 1210   0.250   0.553   2.088 -0.2351  1.0699 -0.6620
   78TMC2    C3 1211   0.262   0.690   2.078 -0.6404  0.2716  0.2383
   78TMC2    C4 1212   0.420   0.513   1.930  0.5432 -0.2020 -0.2481
   78TMC2    C5 1213   0.421   0.653   1.908 -0.0205  0.0954 -0.0543
   78TMC2    C6 1214   0.353   0.739   1.991 -0.8423 -0.2192 -0.0224
   78TMC2     C 1215   0.290   0.326   2.027  0.5973 -0.3098  0.0819
   78TMC2     O 1216   0.175   0.305   2.059  0.8675 -0.0174 -0.7598
   78TMC2     H 1217   0.186   0.516   2.167 -1.3133  1.9954 -1.1082
   78TMC2    H1 1218   0.466   0.444   1.861  3.1802 -0.6488  1.9294
   78TMC2    H2 1219   0.371   0.846   1.980  0.0759 -0.4229 -0.4973
   78TMC2    C7 1220   0.508   0.711   1.809  0.4091  0.0396 -0.8002
   78TMC2    C8 1221   0.138   0.756   2.071 -0.8546 -0.2265  0.0460
   78TMC2    O1 1222   0.524   0.829   1.822 -0.4369  0.2192  0.6588
   78TMC2    O2 1223   0.105   0.843   1.992 -0.5369  0.7889  0.1313
   78TMC2    O5 1224   0.062   0.716   2.178 -0.3194  0.1469  0.0084
   78TMC2    H5 1225   0.115   0.671   2.246  1.6515 -0.7958 -2.1566
   79MPD1     C 1226   0.348   4.604   1.827 -0.7062 -0.1564 -0.5910
   79MPD1    C1 1227   0.233   4.653   1.888 -0.2167 -0.0710 -0.5127
   79MPD1    C2 1228   0.244   0.050   1.926  0.1199 -0.7036 -0.0507
   79MPD1    C3 1229   0.361   0.121   1.911  0.3819 -0.5637  0.1595
   79MPD1    C4 1230   0.473   0.062   1.855  0.1702 -0.6320 -0.4814
   79MPD1    C5 1231   0.466   4.678   1.811  0.5512 -0.2531  0.1118
   79MPD1     H 1232   0.156   0.093   1.972 -0.8045 -2.6284  0.0128
   79MPD1    H1 1233   0.566   0.114   1.834 -1.0382  1.3655 -0.9184
   79MPD1    H2 1234   0.347   4.498   1.806 -0.3442 -0.0498 -1.1370
   79MPD1    H3 1235   0.545   4.635   1.749 -0.3989  0.6303 -1.7072
   79MPD1     N 1236   0.383   0.248   1.965 -0.1613  0.1790  0.1744
   79MPD1    H5 1237   0.479   0.282   1.970  0.1941 -0.5247 -1.9461
   79MPD1    N1 1238   0.118   4.576   1.883 -0.1661  0.6592  0.0227
   79MPD1    H6 1239   0.046   4.616   1.942  0.1074 -0.6338  1.2473
   79MPD1    H7 1240   0.138   4.478   1.901 -0.0163  0.5638 -0.6559
   80TMC2    C1 1241   0.669   1.426  12.164  0.1489 -0.0361 -0.5518
   80TMC2    C2 1242   0.545   1.475  12.182 -0.0996  0.0398 -0.1624
   80TMC2    C3 1243   0.453   1.393  12.234 -0.1696  1.0112  0.5933
   80TMC2    C4 1244   0.713   1.304  12.213  0.7059  0.6169  0.2867
   80TMC2    C5 1245   0.617   1.223  12.269  0.7750  0.7753 -0.2890
   80TMC2    C6 1246   0.484   1.264  12.276  0.4204 -0.5740  0.7051
   80TMC2     C 1247   0.758   1.520  12.098  0.0991 -0.4243  0.1634
   80TMC2     O 1248   0.747   1.640  12.107 -0.5135  0.2383 -0.4546
   80TMC2     H 1249   0.509   1.574  12.157 -0.4822 -0.6618 -2.4034
   80TMC2    H1 1250   0.806   1.260  12.180  1.0232  1.3641  0.1936
   80TMC2    H2 1251   0.411   1.204  12.329  1.4596 -1.9872  0.5513
   80TMC2    C7 1252   0.647   1.099  12.332  0.5473 -0.3155  0.4069
   80TMC2    C8 1253   0.330   1.446  12.265 -0.2362 -0.2024  0.1089
   80TMC2    O1 1254   0.557   1.024  12.361 -0.2639  0.0024 -0.1386
   80TMC2    O2 1255   0.235   1.373  12.272  0.7228  0.0009 -0.1781
   80TMC2    O5 1256   0.347   1.562  12.331 -0.2166 -0.2811 -0.0954
   80TMC2    H5 1257   0.436   1.601  12.323 -0.4512  0.5065  1.0807
   81MPD2     C 1258   1.092   1.443  11.971  0.0646  0.2465  0.0037
   81MPD2    C1 1259   0.993   1.513  12.034 -0.2656  0.4123 -0.4907
   81MPD2    C2 1260   1.023   1.635  12.073 -0.5204  0.3445 -0.4012
   81MPD2    C3 1261   1.155   1.691  12.061  0.4608  0.3613  0.5189
   81MPD2    C4 1262   1.250   1.611  12.000 -0.3335 -0.9329  0.8499
   81MPD2    C5 1263   1.218   1.490  11.951  0.2137 -0.2519 -1.0292
   81MPD2     H 1264   0.958   1.697  12.133  1.7404  2.5281 -0.2127
   81MPD2    H1 1265   1.354   1.643  12.007 -0.4608  0.4597 -3.3169
   81MPD2    H2 1266   1.065   1.346  11.931 -1.4232  0.9126 -0.5862
   81MPD2    H3 1267   1.288   1.427  11.898  1.7758  1.3794 -0.9080
   81MPD2     N 1268   1.186   1.806  12.134  0.2229 -0.6583 -0.2596
   81MPD2    H5 1269   1.104   1.841  12.182  0.0140 -1.2677 -0.1800
   81MPD2    N1 1270   0.868   1.450  12.063  1.0406 -0.0734  0.7169
   81MPD2    H7 1271   0.859   1.349  12.053  0.1876 -0.0180  0.9519
   82TMC2    C1 1272   3.927   0.725  11.766  0.0702 -0.4601  0.4119
   82TMC2    C2 1273   3.952   0.780  11.890 -0.3352  1.0133  0.0250
   82TMC2    C3 1274   4.002   0.700  11.987  0.6373  0.0868  0.8429
   82TMC2    C4 1275   3.953   0.593  11.746 -0.1322 -0.0321  0.2708
   82TMC2    C5 1276   4.014   0.522  11.846 -0.5749  0.2332  0.4776
   82TMC2    C6 1277   4.041   0.571  11.969 -0.1228 -0.5099 -0.6359
   82TMC2     C 1278   3.905   0.810  11.652 -0.0482 -0.2728 -0.0880
   82TMC2     O 1279   3.907   0.753  11.540 -0.3786 -0.1430 -0.4338
   82TMC2     H 1280   3.961   0.886  11.912  1.5252  1.2974 -2.0443
   82TMC2    H1 1281   3.925   0.543  11.654  2.7238  1.5950 -1.4889
   82TMC2    H2 1282   4.101   0.514  12.039  1.7336  1.5724 -0.5170
   82TMC2    C7 1283   4.030   0.375  11.839  0.3706  0.0125  0.5865
   82TMC2    C8 1284   4.079   0.765  12.076  0.3714  0.2098 -0.7596
   82TMC2    O1 1285   4.010   0.321  11.946  0.2536 -0.0640 -0.2256
   82TMC2    O2 1286   4.052   0.852  12.153 -0.2490  0.7927 -0.2559
   82TMC2    O5 1287   4.208   0.738  12.039 -0.1792 -0.6225 -0.2330
   82TMC2    H5 1288   4.221   0.698  11.951  0.9507 -2.8730  0.9661
   83MPD2     C 1289   3.799   1.271  11.434 -0.1664 -0.9905 -0.2816
   83MPD2    C1 1290   3.746   1.141  11.411 -1.2217  0.7923  0.4008
   83MPD2    C2 1291   3.787   1.031  11.489 -0.2744 -0.2942 -0.2104
   83MPD2    C3 1292   3.873   1.048  11.593  0.2196 -0.4492  0.3050
   83MPD2    C4 1293   3.920   1.176  11.620  0.2111 -0.1220  0.0721
   83MPD2    C5 1294   3.887   1.280  11.536  0.0177  0.3578  0.2830
   83MPD2     H 1295   3.750   0.932  11.466  1.0533 -1.1012  1.0888
   83MPD2    H1 1296   3.988   1.199  11.702  0.0788 -3.0071  0.9705
   83MPD2    H2 1297   3.793   1.344  11.354  0.3087 -0.4327  0.1979
   83MPD2    H3 1298   3.936   1.375  11.554  1.6315 -0.9202  2.6382
   83MPD2     N 1299   3.917   0.941  11.672 -0.1002  0.0765 -0.2086
   83MPD2    H5 1300   3.955   0.965  11.763  2.7117  1.9532 -1.8575
   83MPD2    N1 1301   3.661   1.140  11.293 -0.4421  0.2386  0.4469
   83MPD2    H7 1302   3.657   1.228  11.242 -0.5307  1.0538  1.8709
   84TMC2    C1 1303   0.541   0.075  10.638  0.5963 -0.5596  0.0476
   84TMC2    C2 1304   0.477   0.122  10.527  0.3972  0.0275  0.0208
   84TMC2    C3 1305   0.443   0.033  10.427  0.3610  0.0181  0.3197
   84TMC2    C4 1306   0.569   4.679  10.650 -0.8041  0.4339  1.0244
   84TMC2    C5 1307   0.537   4.592  10.547 -0.2973  0.6150  0.0832
   84TMC2    C6 1308   0.490   4.645  10.424  0.7598  0.1332  0.6175
   84TMC2     C 1309   0.557   0.166  10.749  0.1308  0.3444  0.3268
   84TMC2     O 1310   0.492   0.268  10.747 -0.1848  0.1020  0.7088
   84TMC2     H 1311   0.467   0.230  10.520 -2.2915 -0.2613 -0.6149
   84TMC2    H1 1312   0.590   4.626  10.743  3.6075 -0.5101 -0.5035
   84TMC2    H2 1313   0.483   4.589  10.331 -0.0533  1.3017 -0.0325
   84TMC2    C7 1314   0.623   4.473  10.532 -0.1497  0.0918 -0.1662
   84TMC2    C8 1315   0.369   0.092  10.313  0.5245 -0.8593 -0.6029
   84TMC2    O1 1316   0.694   4.447  10.628 -0.6645  0.3023  0.2139
   84TMC2    O2 1317   0.343   0.210  10.307 -0.2521  0.0737 -0.1078
   84TMC2    O5 1318   0.296   4.736  10.256 -0.4297 -0.7168 -0.2663
   84TMC2    H5 1319   0.320   4.645  10.285 -1.6765 -0.8140  0.4884
   85TMC2    C1 1320   1.820   2.681  15.884 -0.2992  0.4889 -0.2065
   85TMC2    C2 1321   1.746   2.666  15.765  0.1926  0.5295 -0.1132
   85TMC2    C3 1322   1.756   2.766  15.674  0.0654  0.1605  0.2310
   85TMC2    C4 1323   1.902   2.794  15.902  0.1414  0.4671 -0.4847
   85TMC2    C5 1324   1.915   2.885  15.799 -1.0479  0.2239  1.2704
   85TMC2    C6 1325   1.839   2.872  15.680  0.0985  0.2849  0.3175
   85TMC2     C 1326   1.772   2.630  16.013  0.8033  0.4592  0.5976
   85TMC2     O 1327   1.773   2.708  16.107 -0.1441  0.0913 -0.3432
   85TMC2     H 1328   1.702   2.568  15.751  0.1924  0.2917  1.4834
   85TMC2    H1 1329   1.965   2.792  15.990 -1.6401  2.0624  0.8424
   85TMC2    H2 1330   1.837   2.948  15.604  2.7281 -1.9637 -2.0045
   85TMC2    C7 1331   2.051   2.943  15.785  0.7186  0.9186 -0.5118
   85TMC2    C8 1332   1.683   2.753  15.550 -0.8994 -0.0741  0.9658
   85TMC2    O1 1333   2.138   2.932  15.875  0.5589 -0.5123 -0.0110
   85TMC2    O2 1334   1.709   2.820  15.453  0.3510 -0.2374 -0.1884
   85TMC2    O5 1335   1.582   2.675  15.568 -0.4497  0.3332 -0.3001
   85TMC2    H5 1336   1.575   2.650  15.663 -1.1276 -1.4924 -0.8220
   86MPD2     C 1337   1.544   2.269  16.307 -0.4674 -0.0395 -0.0824
   86MPD2    C1 1338   1.554   2.222  16.177  0.1157 -0.5876  0.3151
   86MPD2    C2 1339   1.624   2.303  16.085 -0.0939  0.2483 -0.1080
   86MPD2    C3 1340   1.663   2.431  16.111  0.1876 -0.2140  0.3345
   86MPD2    C4 1341   1.635   2.478  16.241  0.5574 -0.0120  0.6631
   86MPD2    C5 1342   1.583   2.392  16.338  0.1005 -0.4031 -0.2683
   86MPD2     H 1343   1.655   2.260  15.990 -0.0843 -1.8634  0.8404
   86MPD2    H1 1344   1.639   2.580  16.277 -0.1925  0.8507 -1.6621
   86MPD2    H2 1345   1.501   2.208  16.385  2.7425 -0.4029  1.4176
   86MPD2    H3 1346   1.575   2.429  16.440 -1.2857 -3.5658  0.7848
   86MPD2     N 1347   1.721   2.508  16.007 -0.4434 -0.2772 -0.0771
   86MPD2    H5 1348   1.739   2.452  15.925  0.5867 -0.7512  0.4747
   86MPD2    N1 1349   1.511   2.086  16.139 -0.2028  0.0503 -0.7070
   86MPD2    H7 1350   1.545   2.056  16.048 -0.1115 -0.8429 -0.3848
   87TMC2    C1 1351   4.332   0.434   1.159 -0.2843  0.4631  0.2036
   87TMC2    C2 1352   4.229   0.369   1.220 -0.4037  0.1493 -0.6175
   87TMC2    C3 1353   4.149   0.435   1.306  0.6112  0.3752  0.1453
   87TMC2    C4 1354   4.355   0.564   1.163 -0.1682 -0.2105  0.3251
   87TMC2    C5 1355   4.271   0.631   1.252 -0.0885  0.9726 -0.4872
   87TMC2    C6 1356   4.167   0.575   1.320 -0.5839 -1.1903  0.2290
   87TMC2     C 1357   4.388   0.369   1.045 -0.6310  0.5455 -0.0807
   87TMC2     O 1358   4.432   0.450   0.964  0.2050 -0.0400  0.2045
   87TMC2     H 1359   4.221   0.262   1.207 -1.8725  0.1957 -0.0800
   87TMC2    H1 1360   4.440   0.613   1.117  1.7008 -1.8815  1.9848
   87TMC2    H2 1361   4.099   0.634   1.380  0.2025 -0.9389  0.8684
   87TMC2    C7 1362   4.236   0.763   1.221 -0.2415  0.1639 -0.3344
   87TMC2    C8 1363   4.022   0.363   1.329 -0.0343  0.0816  0.2761
   87TMC2    O1 1364   4.120   0.793   1.245  0.2481  0.3351  0.5501
   87TMC2    O2 1365   4.001   0.260   1.266  0.0274 -0.3498 -0.0620
   87TMC2    O5 1366   3.929   0.450   1.374  0.4230 -0.0496  0.2840
   87TMC2    H5 1367   3.968   0.509   1.441 -0.0592  1.2319 -0.5641
   88MPD2     C 1368   4.444   1.000   1.038 -0.5070  1.1092  0.2417
   88MPD2    C1 1369   4.330   0.962   1.104  0.4286  0.2772 -0.5967
   88MPD2    C2 1370   4.205   1.023   1.079 -0.2195 -0.2835 -0.1544
   88MPD2    C3 1371   4.213   1.142   1.012 -0.1602  0.1608 -0.1483
   88MPD2    C4 1372   4.329   1.179   0.947  0.2318 -0.0744  0.4063
   88MPD2    C5 1373   4.446   1.113   0.968  0.5652  0.2879 -0.0558
   88MPD2     H 1374   4.112   0.993   1.125 -1.2184  1.8635 -0.8060
   88MPD2    H1 1375   4.333   1.269   0.886  2.7070  0.6669  1.7005
   88MPD2    H2 1376   4.536   0.943   1.039 -0.9776  0.3132 -2.6809
   88MPD2    H3 1377   4.532   1.153   0.915  0.2689  1.0811  0.0616
   88MPD2     N 1378   4.094   1.223   0.989 -0.6823  0.5197  0.3889
   88MPD2    H5 1379   4.106   1.296   0.919  0.1866 -0.3198 -0.3423
   88MPD2    N1 1380   4.342   0.840   1.176  0.4728  0.2182 -0.0153
   88MPD2    H7 1381   4.439   0.812   1.185  0.7596  0.8341 -1.0883
   89TMC2    C1 1382   0.700   3.029   0.591 -0.0607 -0.0298 -0.3407
   89TMC2    C2 1383   0.604   2.938   0.551 -0.6801  0.1159 -0.0955
   89TMC2    C3 1384   0.578   2.937   0.414  0.3795 -0.2731  0.3821
   89TMC2    C4 1385   0.762   3.121   0.503 -0.4025  0.0980  0.7986
   89TMC2    C5 1386   0.725   3.109   0.371  0.4620  0.7570 -0.8613
   89TMC2    C6 1387   0.641   3.016   0.323 -0.0386  0.1806  0.6045
   89TMC2     C 1388   0.758   3.017   0.728  0.7520  0.1220 -0.4449
   89TMC2     O 1389   0.871   3.044   0.757  0.0084  0.0254 -0.5538
   89TMC2     H 1390   0.553   2.869   0.617 -0.2566 -0.7389 -0.6640
   89TMC2    H1 1391   0.843   3.182   0.541  0.3434 -0.5108  0.1865
   89TMC2    H2 1392   0.581   3.035   0.235 -0.1506 -1.8446  0.2584
   89TMC2    C7 1393   0.723   3.230   0.287 -0.2778 -0.3529 -0.2667
   89TMC2    C8 1394   0.499   2.828   0.360 -0.0701  0.2238 -0.1991
   89TMC2    O1 1395   0.730   3.207   0.165  0.9301 -0.3407  0.2004
   89TMC2    O2 1396   0.457   2.824   0.248 -0.1053  0.1882  0.3597
   89TMC2    O5 1397   0.544   2.724   0.430  0.4491  0.4477  0.3255
   89TMC2    H5 1398   0.601   2.731   0.510  1.1645  0.0728 -0.1534
   90MPD2     C 1399   0.759   2.839   1.226 -0.3171 -0.2660  0.1963
   90MPD2    C1 1400   0.627   2.871   1.187  0.0986  0.5074  0.1175
   90MPD2    C2 1401   0.610   2.923   1.057 -0.7479 -0.1906 -0.2257
   90MPD2    C3 1402   0.709   2.927   0.957  0.0258  0.8174  0.6824
   90MPD2    C4 1403   0.836   2.890   0.999 -0.5315 -0.7734  0.1094
   90MPD2    C5 1404   0.857   2.844   1.134  0.0770 -0.0974  0.3232
   90MPD2     H 1405   0.510   2.956   1.032  0.2285  1.0973 -2.4438
   90MPD2    H1 1406   0.920   2.878   0.931  0.4022  0.7635  0.9800
   90MPD2    H2 1407   0.789   2.807   1.325  0.4425 -0.2527 -0.0311
   90MPD2    H3 1408   0.956   2.803   1.153  0.4855  0.8645  0.2631
   90MPD2     N 1409   0.673   2.963   0.825  0.1943  0.2468 -0.2316
   90MPD2    H5 1410   0.573   2.970   0.813  0.2974  1.2779 -0.5390
   90MPD2    N1 1411   0.516   2.853   1.270 -0.5345 -0.9523  0.0130
   90MPD2    H7 1412   0.429   2.896   1.240  0.7440  2.3812  1.1354
   91TMC2    C1 1413   1.767   3.752  16.218 -0.7084  0.3177  0.5531
   91TMC2    C2 1414   1.852   3.780  16.324 -0.0466  0.6669 -0.3079
   91TMC2    C3 1415   1.812   3.709  16.430 -0.7483  0.6432 -0.0256
   91TMC2    C4 1416   1.643   3.691  16.225 -0.1082  0.3244 -0.1331
   91TMC2    C5 1417   1.611   3.628  16.339 -0.1345  0.6050  0.1233
   91TMC2    C6 1418   1.697   3.634  16.443  0.4724  0.1514  0.4407
   91TMC2     C 1419   1.812   3.790  16.092 -0.2876  0.5988 -0.1021
   91TMC2     O 1420   1.734   3.791  16.001  0.0390 -0.2813 -0.3686
   91TMC2     H 1421   1.935   3.850  16.331  0.3707  0.0581  0.8445
   91TMC2    H1 1422   1.574   3.697  16.142 -1.0073  1.2276  0.6781
   91TMC2    H2 1423   1.673   3.574  16.530 -1.9316  0.3602 -0.0801
   91TMC2    C7 1424   1.535   3.500  16.330 -0.5065  0.2056 -0.3807
   91TMC2    C8 1425   1.877   3.742  16.552 -1.1582 -0.5188  0.0162
   91TMC2    O1 1426   1.523   3.438  16.436  0.7382  0.3004 -0.6529
   91TMC2    O2 1427   1.917   3.851  16.580 -0.2992 -0.2350  0.2050
   91TMC2    O5 1428   1.954   3.634  16.576 -0.2513 -0.1384 -0.0077
   91TMC2    H5 1429   1.913   3.548  16.552  1.4114 -1.6600  2.6088
   92MPD2     C 1430   1.941   3.952  15.887  0.0186  0.2246 -0.3472
   92MPD2    C1 1431   2.011   3.887  15.988 -0.0289 -0.1888 -0.0969
   92MPD2    C2 1432   2.149   3.900  15.988  0.5332 -0.0016 -0.2333
   92MPD2    C3 1433   2.216   3.963  15.889  0.5614  0.3158 -0.6697
   92MPD2    C4 1434   2.144   4.029  15.795 -0.5891 -0.0596  0.0396
   92MPD2    C5 1435   2.008   4.027  15.790  0.3168 -0.2991 -0.2165
   92MPD2     H 1436   2.198   3.848  16.070  1.1893 -0.4102 -0.8797
   92MPD2    H1 1437   2.199   4.082  15.719 -1.0927 -0.7148 -0.7846
   92MPD2    H2 1438   1.833   3.955  15.887  0.0534  1.5780 -1.7189
   92MPD2    H3 1439   1.952   4.089  15.721  2.2633  0.6257 -0.9695
   92MPD2     N 1440   2.359   3.962  15.890 -0.3147 -0.4418 -0.8955
   92MPD2    H5 1441   2.406   3.913  15.966 -3.1363  0.1640  1.2211
   92MPD2    N1 1442   1.943   3.818  16.090  0.0615  0.1625  0.1200
   92MPD2    H7 1443   1.996   3.795  16.173 -0.9818  0.0482  0.7489
   93TMC2    C1 1444   4.095   3.539  14.073  0.6553 -0.3512  0.6794
   93TMC2    C2 1445   3.993   3.596  14.141  0.7175 -0.0460 -0.1902
   93TMC2    C3 1446   4.021   3.707  14.212 -0.2938  0.3339  0.1297
   93TMC2    C4 1447   4.224   3.573  14.083 -0.3289  0.8871 -0.0654
   93TMC2    C5 1448   4.255   3.679  14.163  0.2483 -0.2645  0.2566
   93TMC2    C6 1449   4.156   3.748  14.225  0.0440 -0.0393 -0.8281
   93TMC2     C 1450   4.064   3.478  13.945 -0.0462 -0.2690  0.1180
   93TMC2     O 1451   4.157   3.438  13.874  0.0123  0.3699  0.0638
   93TMC2     H 1452   3.890   3.562  14.139  0.7046  0.0707 -1.4634
   93TMC2    H1 1453   4.304   3.542  14.017 -0.3103  2.3068 -0.7195
   93TMC2    H2 1454   4.177   3.837  14.283  0.4956  0.7304 -2.1854
   93TMC2    C7 1455   4.373   3.752  14.124 -0.8835 -1.1038 -0.6262
   93TMC2    C8 1456   3.913   3.764  14.291 -0.3014  0.0040 -0.2767
   93TMC2    O1 1457   4.480   3.701  14.093  0.1684  0.1401 -0.3128
   93TMC2    O2 1458   3.847   3.859  14.261 -0.0075 -0.3898  0.6450
   93TMC2    O5 1459   3.849   3.660  14.355  0.2327 -0.1190 -0.4605
   93TMC2    H5 1460   3.914   3.596  14.391  0.5840  0.4925 -0.0023
   94MPD2     C 1461   3.954   3.436  13.672  0.5364 -0.2574  0.7158
   94MPD2    C1 1462   3.881   3.442  13.790  0.1922 -0.5793 -0.6687
   94MPD2    C2 1463   3.751   3.428  13.774 -0.3890 -0.0473 -0.2393
   94MPD2    C3 1464   3.687   3.410  13.653 -0.0501 -1.2544  0.4616
   94MPD2    C4 1465   3.760   3.422  13.537  0.2403  0.0181  0.4380
   94MPD2    C5 1466   3.897   3.428  13.547 -0.6136 -0.3096 -0.1450
   94MPD2     H 1467   3.698   3.442  13.867 -0.2632  0.9138 -0.3075
   94MPD2    H1 1468   3.714   3.429  13.440  3.1257  1.0074 -0.8574
   94MPD2    H2 1469   4.062   3.430  13.668  0.5048 -0.6549  0.4993
   94MPD2    H3 1470   3.962   3.431  13.460  0.2043  1.0889  0.5176
   94MPD2     N 1471   3.552   3.376  13.641 -0.3384  0.0612  0.0967
   94MPD2    H5 1472   3.509   3.376  13.549  1.4393 -0.9687 -0.7530
   94MPD2    N1 1473   3.929   3.468  13.920 -0.1831 -0.1946  0.1812
   94MPD2    H7 1474   3.871   3.495  13.999  0.6796  0.4607  0.5904
   95TMC2    C1 1475   3.847   0.202  16.218 -0.5296  0.0071  0.5325
   95TMC2    C2 1476   3.795   0.136  16.113 -0.4394 -0.0091 -0.2142
   95TMC2    C3 1477   3.702   0.034  16.128  0.4085 -0.4120 -0.0558
   95TMC2    C4 1478   3.800   0.177  16.345 -0.4306  0.9124  0.4475
   95TMC2    C5 1479   3.709   0.078  16.365 -0.6380 -0.2561  0.0913
   95TMC2    C6 1480   3.660   0.000  16.256 -1.2546  0.0477  0.4056
   95TMC2     C 1481   3.940   0.302  16.181 -0.1068  0.5689  0.3151
   95TMC2     O 1482   4.021   0.270  16.096  0.4809  0.3073  0.2508
   95TMC2     H 1483   3.815   0.167  16.011 -1.5816 -1.8851 -1.0034
   95TMC2    H1 1484   3.840   0.244  16.420 -0.9279  1.9000 -0.1678
   95TMC2    H2 1485   3.587   4.661  16.270  0.4379 -1.3912  0.9757
   95TMC2    C7 1486   3.678   0.034  16.496 -0.2116 -0.6587 -0.7669
   95TMC2    C8 1487   3.740   4.664  16.038  0.5385 -0.2171 -1.0082
   95TMC2    O1 1488   3.582   4.693  16.498  0.1353  0.0883 -0.3484
   95TMC2    O2 1489   3.858   4.630  16.024  0.1702  0.0829 -0.1849
   95TMC2    O5 1490   3.636   4.571  16.036  0.2839  0.1063 -0.6075
   95TMC2    H5 1491   3.554   4.625  16.048 -1.0473 -2.4789  1.9045
   96MPD2     C 1492   4.040   0.790  16.044 -0.5426  0.2702  0.2326
   96MPD2    C1 1493   4.093   0.674  15.994  0.5769  0.0644 -0.8499
   96MPD2    C2 1494   4.051   0.549  16.044 -0.4391 -0.2365 -0.0488
   96MPD2    C3 1495   3.950   0.546  16.150 -0.6965  0.2154 -0.6505
   96MPD2    C4 1496   3.892   0.667  16.182  0.0643  0.0495  0.4325
   96MPD2    C5 1497   3.939   0.787  16.133  0.7081  0.0679 -0.1324
   96MPD2     H 1498   4.078   0.454  16.000  3.1160 -0.3822  2.4683
   96MPD2    H1 1499   3.807   0.663  16.250  1.0925 -0.9799  1.6630
   96MPD2    H2 1500   4.071   0.888  16.010  0.9316  0.3681  1.8532
   96MPD2    H3 1501   3.906   0.882  16.173 -0.3438 -0.4833  0.3267
   96MPD2     N 1502   3.897   0.429  16.212  0.2978 -0.4688 -0.3643
   96MPD2    H5 1503   3.825   0.445  16.281  1.8754  2.8503  0.5202
   96MPD2    N1 1504   4.191   0.686  15.894 -0.3136  0.2057  0.0934
   96MPD2    H7 1505   4.224   0.779  15.867  2.7020 -1.4269 -1.8465
   97TMC2    C1 1506   1.004   3.289  17.700 -0.5798 -0.1695 -0.2139
   97TMC2    C2 1507   0.898   3.334  17.620 -0.2764 -0.8607  0.8393
   97TMC2    C3 1508   0.904   3.466  17.586 -0.7993 -0.3574 -0.0418
   97TMC2    C4 1509   1.095   3.371   0.009 -0.0015 -0.3384  0.8201
   97TMC2    C5 1510   1.097   3.498  17.729  0.3715 -0.0650 -0.3235
   97TMC2    C6 1511   1.007   3.540  17.634 -0.2234  0.1957  0.4674
   97TMC2     C 1512   1.014   3.150  17.729 -0.1293 -0.0687  0.7588
   97TMC2     O 1513   1.082   3.119   0.071  0.2104 -0.2575 -0.1960
   97TMC2     H 1514   0.818   3.267  17.592 -0.7928 -0.0023  0.2958
   97TMC2    H1 1515   1.166   3.324   0.075  0.2535 -0.5352  0.4065
   97TMC2    H2 1516   1.009   3.634  17.580  3.1331  1.1097  2.1873
   97TMC2    C7 1517   1.214   3.572   0.022  0.4956 -0.2741 -0.3406
   97TMC2    C8 1518   0.826   3.520  17.477  0.1383 -0.9462  0.5688
   97TMC2    O1 1519   1.268   3.534   0.124  0.4020 -0.4877 -0.3605
   97TMC2    O2 1520   0.810   3.640  17.479  0.3491  0.6908 -0.7596
   97TMC2    O5 1521   0.813   3.436  17.377  0.0066  0.0820 -0.0662
   97TMC2    H5 1522   0.849   3.347  17.397  0.7360  0.4209  0.1642
   98MPD2     C 1523   0.867   2.672  17.663  0.1639 -0.3130 -0.1889
   98MPD2    C1 1524   0.933   2.735   0.013 -0.5778  0.4974  0.7141
   98MPD2    C2 1525   0.964   2.866   0.006  0.0320 -0.2521 -0.0416
   98MPD2    C3 1526   0.920   2.943  17.649  0.1554 -0.1905  0.0474
   98MPD2    C4 1527   0.832   2.879  17.560  0.1392  0.0044 -0.0618
   98MPD2    C5 1528   0.807   2.741  17.566 -0.5049  0.3887 -0.4740
   98MPD2     H 1529   1.040   2.910   0.069  0.8033 -1.6713  0.0201
   98MPD2    H1 1530   0.805   2.938  17.473 -0.1078  0.0732  0.0602
   98MPD2    H2 1531   0.852   2.564  17.661 -1.2637 -0.1200  0.1745
   98MPD2    H3 1532   0.744   2.691  17.493  1.4632 -1.4488 -0.9090
   98MPD2     N 1533   0.956   3.077  17.630  0.2068  0.0865 -0.0658
   98MPD2    H5 1534   0.906   3.114  17.549 -1.8023 -0.0861  1.0804
   98MPD2    N1 1535   0.955   2.651   0.123  0.2602  0.5160  0.0063
   98MPD2    H7 1536   0.921   2.555   0.127  0.9637  0.3782  2.8101
   99TMC2    C1 1537   0.248   0.021   1.537  0.0109  0.3881 -0.3648
   99TMC2    C2 1538   0.306   0.145   1.545 -0.3426  0.4620 -0.6019
   99TMC2    C3 1539   0.227   0.253   1.581  0.1070 -0.7448  0.1505
   99TMC2    C4 1540   0.121   4.736   1.587 -0.8631  0.0820 -0.1664
   99TMC2    C5 1541   0.053   0.107   1.638 -0.4431 -0.1687 -0.1442
   99TMC2    C6 1542   0.103   0.241   1.631 -0.0571  0.3196 -0.4845
   99TMC2     C 1543   0.333   4.650   1.483 -0.6177 -0.7303  0.0227
   99TMC2     O 1544   0.279   4.544   1.458 -0.3056 -0.0311  0.2001
   99TMC2     H 1545   0.404   0.177   1.511  0.0316  1.4450  1.3945
   99TMC2    H1 1546   0.085   4.634   1.593  0.6311 -0.3837  1.1907
   99TMC2    H2 1547   0.043   0.320   1.674 -0.8641 -0.4087 -0.2702
   99TMC2    C7 1548   4.678   0.088   1.724 -0.0052 -0.2315  0.3668
   99TMC2    C8 1549   0.288   0.381   1.601 -0.2320  0.1750  0.6145
   99TMC2    O1 1550   4.645   0.178   1.800  1.2766 -0.5973 -0.1009
   99TMC2    O2 1551   0.251   0.463   1.684 -0.7457 -0.4955 -0.3249
   99TMC2    O5 1552   0.357   0.417   1.492 -0.0058  0.6194  0.1142
   99TMC2    H5 1553   0.359   0.353   1.417 -2.0733 -1.2828  1.6790
  100MPD2     C 1554   0.698   4.627   1.458  0.0410  0.8513 -0.5941
  100MPD2    C1 1555   0.569   4.587   1.436  0.2491  0.3660 -0.2431
  100MPD2    C2 1556   0.544   4.467   1.373 -0.0768  0.2401 -0.2242
  100MPD2    C3 1557   0.643   4.383   1.333  0.0177 -0.4439  0.1874
  100MPD2    C4 1558   0.770   4.411   1.371 -0.5231  0.5810 -0.4326
  100MPD2    C5 1559   0.801   4.537   1.425  1.0501 -0.2330  0.5410
  100MPD2     H 1560   0.444   4.441   1.341 -0.5118 -1.2371  2.3346
  100MPD2    H1 1561   0.852   4.346   1.343 -1.7744 -1.0312 -0.3760
  100MPD2    H2 1562   0.731   4.724   1.493 -0.2127 -0.3400  3.0006
  100MPD2    H3 1563   0.906   4.556   1.440  1.0557 -0.0384  0.2656
  100MPD2     N 1564   0.603   4.257   1.273  0.9472  0.1590  0.2884
  100MPD2    H5 1565   0.507   4.254   1.238  1.5101 -1.0658 -1.1448
  100MPD2    N1 1566   0.466   4.676   1.478  0.1763 -0.0157  0.3065
  100MPD2    H7 1567   0.497   0.030   1.506  2.1540 -0.5913  0.0869
  101TMC2    C1 1568   0.324   1.908  12.599 -0.7832 -0.0968  0.4193
  101TMC2    C2 1569   0.211   1.932  12.527 -0.1193  0.0260 -0.1771
  101TMC2    C3 1570   0.171   2.065  12.513 -0.1367 -0.0596 -0.8423
  101TMC2    C4 1571   0.381   2.010  12.667  0.2832  0.1865  0.1538
  101TMC2    C5 1572   0.326   2.130  12.666  0.1607  0.0225 -0.5002
  101TMC2    C6 1573   0.228   2.162  12.580 -0.4825 -0.3241  0.3375
  101TMC2     C 1574   0.329   1.783  12.674 -0.8897 -0.2647  0.3023
  101TMC2     O 1575   0.231   1.719  12.688 -0.8328  0.2706  0.4544
  101TMC2     H 1576   0.156   1.854  12.476  1.9470 -2.3592  1.2609
  101TMC2    H1 1577   0.477   2.004  12.718  1.4856  0.5617 -2.0406
  101TMC2    H2 1578   0.186   2.262  12.574  0.8804  0.1322 -1.9304
  101TMC2    C7 1579   0.420   2.240  12.690  0.8264 -0.0200  0.0244
  101TMC2    C8 1580   0.081   2.115  12.410 -0.3784 -0.4031  0.5245
  101TMC2    O1 1581   0.420   2.335  12.616  0.2362  0.1618 -0.4873
  101TMC2    O2 1582   0.012   2.215  12.424 -0.1522  0.4698 -0.0868
  101TMC2    O5 1583   0.120   2.069  12.292 -0.2027  0.0349 -0.3897
  101TMC2    H5 1584   0.166   1.983  12.292 -1.8759 -0.8605  0.5236
  102MPD2     C 1585   0.618   1.656  12.867 -0.2835  0.0991  0.2680
  102MPD2    C1 1586   0.480   1.658  12.823 -0.0840 -0.1411  0.0765
  102MPD2    C2 1587   0.387   1.566  12.881  0.0006  0.3193 -0.0974
  102MPD2    C3 1588   0.432   1.468  12.967 -0.3360  0.2955 -0.0927
  102MPD2    C4 1589   0.565   1.457  12.986  0.8792 -0.4823 -0.7300
  102MPD2    C5 1590   0.652   1.548  12.937  0.0675  0.7323  0.4400
  102MPD2     H 1591   0.283   1.572  12.854 -0.2610 -2.0357  0.3374
  102MPD2    H1 1592   0.609   1.378  13.046 -1.5424 -1.2075  0.0953
  102MPD2    H2 1593   0.700   1.722  12.840  0.7931 -0.8714  1.1938
  102MPD2    H3 1594   0.753   1.528  12.969 -0.2424 -2.3266 -0.4955
  102MPD2     N 1595   0.337   1.391  13.037 -0.2841 -0.2420 -0.2041
  102MPD2    H5 1596   0.239   1.407  13.017 -0.3069 -0.7599 -0.4941
  102MPD2    N1 1597   0.451   1.762  12.734 -0.4794  0.6785 -0.1319
  102MPD2    H7 1598   0.531   1.816  12.702 -0.6700  1.5874  0.9243
  103TMC2    C1 1599   3.258   1.807  12.582 -0.5674  0.3495 -0.2282
  103TMC2    C2 1600   3.381   1.836  12.526  0.2335 -0.0594 -0.3193
  103TMC2    C3 1601   3.479   1.864  12.611  0.0388  1.0807  0.2139
  103TMC2    C4 1602   3.237   1.779  12.715 -0.5221  0.0001  0.2961
  103TMC2    C5 1603   3.348   1.793  12.800  0.1298 -0.8652 -0.3356
  103TMC2    C6 1604   3.477   1.836  12.752  0.0291 -0.5231 -0.0850
  103TMC2     C 1605   3.145   1.787  12.496  0.5712  0.4940  0.7955
  103TMC2     O 1606   3.070   1.698  12.538  0.3597 -0.5286 -0.2200
  103TMC2     H 1607   3.398   1.837  12.419  0.6562 -1.0784 -0.2615
  103TMC2    H1 1608   3.138   1.749  12.745 -0.4773  0.7644  1.1958
  103TMC2    H2 1609   3.567   1.831  12.811  0.1721  0.2305 -0.2345
  103TMC2    C7 1610   3.351   1.724  12.930 -0.1851 -0.3666  0.5277
  103TMC2    C8 1611   3.584   1.953  12.563  0.5581  0.7491 -0.6954
  103TMC2    O1 1612   3.445   1.741  13.007  0.4460 -0.1139  0.2342
  103TMC2    O2 1613   3.574   2.007  12.457  0.8214  0.5009  0.2301
  103TMC2    O5 1614   3.703   1.942  12.630  0.5935 -0.3706 -0.1204
  103TMC2    H5 1615   3.713   1.893  12.714 -1.8846 -0.5423  0.0917
  104MPD2     C 1616   3.034   1.968  12.189 -0.0606  0.7369  0.6906
  104MPD2    C1 1617   3.024   1.879  12.292  0.0522  0.0121 -0.2491
  104MPD2    C2 1618   2.919   1.794  12.295  0.3344  0.3426 -0.2173
  104MPD2    C3 1619   2.832   1.782  12.197 -0.1404  0.4710 -0.2306
  104MPD2    C4 1620   2.845   1.870  12.090  0.6694 -0.0982 -0.4793
  104MPD2    C5 1621   2.941   1.971  12.089 -0.6064 -0.5618 -0.5138
  104MPD2     H 1622   2.899   1.735  12.384 -0.2916  1.8407  0.6386
  104MPD2    H1 1623   2.767   1.864  12.015  0.4622  0.6997 -0.3338
  104MPD2    H2 1624   3.110   2.045  12.188  0.2927  0.3847 -0.3583
  104MPD2    H3 1625   2.950   2.040  12.006 -3.8967  0.5043  0.0188
  104MPD2     N 1626   2.727   1.692  12.221  0.4843 -0.6377 -0.3792
  104MPD2    H5 1627   2.728   1.618  12.291  0.2464  1.4395  1.8261
  104MPD2    N1 1628   3.131   1.875  12.387 -0.4935 -0.3882  0.3538
  104MPD2    H7 1629   3.200   1.948  12.375 -2.7070  1.3406 -1.8843
  105TMC2    C1 1630   4.493   0.135   0.116 -0.0829  0.5951 -0.6720
  105TMC2    C2 1631   4.435   0.256   0.100  0.1759 -0.5727 -0.5237
  105TMC2    C3 1632   4.396   0.319   0.215  0.1484 -0.5095 -0.0204
  105TMC2    C4 1633   4.499   0.070   0.241  0.1555  0.1441 -0.6474
  105TMC2    C5 1634   4.458   0.136   0.349 -0.0545 -0.4534  0.0224
  105TMC2    C6 1635   4.409   0.268   0.342  0.0891 -0.2923 -0.3313
  105TMC2     C 1636   4.574   0.072   0.013 -0.4844 -0.7576  0.0877
  105TMC2     O 1637   4.593   4.694   0.022 -0.0103 -0.1608  0.1531
  105TMC2     H 1638   4.422   0.306   0.005  0.9091 -0.1229 -0.3880
  105TMC2    H1 1639   4.544   4.712   0.253 -1.3096 -0.3096  1.2131
  105TMC2    H2 1640   4.377   0.323   0.429 -0.8120  0.9534 -1.4518
  105TMC2    C7 1641   4.498   0.067   0.475  0.7945  0.8454  0.5968
  105TMC2    C8 1642   4.371   0.460   0.202 -0.7681 -0.0413  0.1353
  105TMC2    O1 1643   4.513   4.685   0.472 -0.1418  0.5665 -0.1902
  105TMC2    O2 1644   4.458   0.539   0.165 -0.4943 -0.5437  0.5622
  105TMC2    O5 1645   4.289   0.488   0.303  0.3814  0.0680  0.4118
  105TMC2    H5 1646   4.230   0.412   0.317 -1.0644  1.1549  0.2532
  106MPD2     C 1647   0.094   0.096  17.330  0.1902 -0.4745 -0.1401
  106MPD2    C1 1648   0.090   0.222  17.384 -0.0755  0.0618 -0.3386
  106MPD2    C2 1649   0.015   0.238  17.495  0.2189  0.5449  0.5155
  106MPD2    C3 1650   4.700   0.133  17.563 -0.4603 -0.5908 -0.2972
  106MPD2    C4 1651   4.703   0.007  17.507  0.8133 -0.3841 -0.4085
  106MPD2    C5 1652   0.011   4.732  17.382 -0.0956 -0.4416  0.9029
  106MPD2     H 1653   0.010   0.335  17.543  0.5137  0.1145  1.4113
  106MPD2    H1 1654   4.642   4.663  17.541  0.7800 -0.0342  0.3840
  106MPD2    H2 1655   0.139   0.091  17.232 -1.1984  0.9723 -0.8396
  106MPD2    H3 1656   0.018   4.635  17.334 -0.0110 -0.2735  0.5725
  106MPD2     N 1657   4.627   0.164  17.681 -0.1626  0.6641 -0.2103
  106MPD2    H5 1658   4.607   0.262  17.698 -0.5245  0.9000 -2.0086
  106MPD2    N1 1659   0.164   0.329  17.344 -0.3024 -0.0766 -0.3721
  106MPD2    H7 1660   0.148   0.407  17.407  1.1747  1.9339 -2.4900
  107TMC2    C1 1661   0.272   0.655  11.517  1.0316 -0.0955 -0.4258
  107TMC2    C2 1662   0.290   0.762  11.435 -0.1002 -0.9459  0.0889
  107TMC2    C3 1663   0.366   0.744  11.319  0.6826 -0.3742  0.7799
  107TMC2    C4 1664   0.329   0.536  11.496 -0.7317  0.0112  0.0537
  107TMC2    C5 1665   0.413   0.530  11.389  0.0218  0.0098  0.1168
  107TMC2    C6 1666   0.436   0.631  11.298  0.3060 -0.5031  0.2011
  107TMC2     C 1667   0.191   0.661  11.637 -0.1514  0.1453 -0.1444
  107TMC2     O 1668   0.182   0.564  11.710  0.5381 -0.1293 -0.1957
  107TMC2     H 1669   0.247   0.860  11.449  0.5081 -0.5803 -0.5971
  107TMC2    H1 1670   0.317   0.449  11.561  0.8703  0.1492  0.5463
  107TMC2    H2 1671   0.505   0.637  11.215 -0.3581 -1.1526 -0.3868
  107TMC2    C7 1672   0.480   0.406  11.366  0.0076  0.4219  0.4761
  107TMC2    C8 1673   0.405   0.857  11.246 -0.1730  0.4775 -0.5913
  107TMC2    O1 1674   0.508   0.338  11.466  0.5730  0.6579 -0.4106
  107TMC2    O2 1675   0.383   0.969  11.280  0.4656  0.7676  0.3802
  107TMC2    O5 1676   0.409   0.824  11.111 -0.5423  0.2689  0.6646
  107TMC2    H5 1677   0.393   0.728  11.098 -2.5402  0.5948  0.6868
  108MPD2     C 1678   4.696   0.935  11.712  0.3093  0.4070 -0.2480
  108MPD2    C1 1679   0.022   0.819  11.732  0.0724 -0.2704  0.1672
  108MPD2    C2 1680   4.731   0.753  11.852 -0.2214 -0.1409  0.0748
  108MPD2    C3 1681   4.637   0.802  11.944  0.2184  0.0197  0.5213
  108MPD2    C4 1682   4.561   0.909  11.909 -0.0371 -0.5065  0.2092
  108MPD2    C5 1683   4.596   0.974  11.796  0.3410  0.1210 -0.3732
  108MPD2     H 1684   0.049   0.663  11.873  1.2468  1.2179  1.8143
  108MPD2    H1 1685   4.481   0.950  11.969 -2.3551 -0.1462 -3.1081
  108MPD2    H2 1686   4.712   0.992  11.621  1.2020 -0.8850 -0.9040
  108MPD2    H3 1687   4.534   1.059  11.770  0.9935  0.7123  0.0044
  108MPD2     N 1688   4.592   0.733  12.061 -0.0258  1.0816  0.0865
  108MPD2    H5 1689   4.517   0.766  12.121 -0.7073  1.9076 -1.2075
  108MPD2    N1 1690   0.127   0.784  11.644 -0.0873  0.0968  0.1527
  108MPD2    H7 1691   0.139   0.830  11.555  2.3615  0.7107  0.7868
  109TMC2    C1 1692   0.856   1.438   0.276 -0.4191  0.5187  0.4559
  109TMC2    C2 1693   0.858   1.413   0.143 -0.1198 -0.7285  0.2830
  109TMC2    C3 1694   0.904   1.512   0.065 -0.2412  0.2913 -0.1255
  109TMC2    C4 1695   0.905   1.548   0.340  0.2296 -1.1264 -0.4601
  109TMC2    C5 1696   0.968   1.634   0.252  0.4000 -0.5717 -0.0447
  109TMC2    C6 1697   0.961   1.624   0.117  0.0491 -0.2282 -0.5437
  109TMC2     C 1698   0.783   1.335   0.349  0.6958  0.1022  0.5698
  109TMC2     O 1699   0.717   1.254   0.282 -0.4165  0.2971  0.0939
  109TMC2     H 1700   0.821   1.320   0.100 -0.6133 -0.3068 -0.2122
  109TMC2    H1 1701   0.898   1.558   0.448 -0.2281 -0.2684 -0.5703
  109TMC2    H2 1702   1.006   1.698   0.053  1.0642  0.2703  0.7464
  109TMC2    C7 1703   1.052   1.735   0.307  0.5389 -0.1836 -0.5575
  109TMC2    C8 1704   0.937   1.461  17.687 -0.3446  0.4991  0.8035
  109TMC2    O1 1705   1.078   1.822   0.225  0.2242 -0.6166 -0.1086
  109TMC2    O2 1706   0.977   1.352  17.645 -0.2049 -0.3707  0.7271
  109TMC2    O5 1707   0.898   1.570  17.609  0.0613 -0.5470 -0.3797
  109TMC2    H5 1708   0.843   1.633  17.660 -0.6588 -1.0260 -0.5722
  110MPD2     C 1709   0.603   1.095   0.775 -0.2660 -0.1254 -0.2187
  110MPD2    C1 1710   0.687   1.197   0.808 -0.0296  0.6888 -0.2801
  110MPD2    C2 1711   0.736   1.282   0.709  0.0027 -0.0624 -0.0510
  110MPD2    C3 1712   0.718   1.261   0.580 -0.3716 -1.1610  0.6302
  110MPD2    C4 1713   0.624   1.161   0.551  0.0068  0.8939 -1.1433
  110MPD2    C5 1714   0.579   1.073   0.641 -0.1738  0.1332  0.1560
  110MPD2     H 1715   0.801   1.366   0.733  0.0175 -0.5309  1.5434
  110MPD2    H1 1716   0.592   1.127   0.453  0.7826 -1.6832 -0.5054
  110MPD2    H2 1717   0.571   1.017   0.844  0.9465  1.2060  1.8458
  110MPD2    H3 1718   0.521   0.991   0.600 -0.6951  0.4860  0.1943
  110MPD2     N 1719   0.789   1.339   0.485 -0.1906 -0.1303  0.3422
  110MPD2    H5 1720   0.848   1.412   0.523  0.2599 -0.4893  0.3368
  110MPD2    N1 1721   0.706   1.216   0.954  0.2309  0.2566 -1.2294
  110MPD2    H7 1722   0.663   1.156   1.024  2.0797  0.5757  0.1933
  111TMC2    C1 1723   0.924   2.796  11.233 -0.1991  0.2721 -0.1376
  111TMC2    C2 1724   1.038   2.743  11.185  0.8848 -0.7887 -0.4397
  111TMC2    C3 1725   1.139   2.720  11.272  0.2216  0.0684 -0.1634
  111TMC2    C4 1726   0.910   2.823  11.366  0.0738  0.1444 -0.3089
  111TMC2    C5 1727   1.011   2.803  11.455  0.5635 -0.9044  0.3468
  111TMC2    C6 1728   1.128   2.743  11.408  0.7266  0.4686 -0.0788
  111TMC2     C 1729   0.809   2.790  11.152  0.2850  0.1218  0.8931
  111TMC2     O 1730   0.819   2.739  11.044 -0.0518 -0.1048  0.4730
  111TMC2     H 1731   1.035   2.691  11.090  0.9445  0.2199 -0.9830
  111TMC2    H1 1732   0.814   2.828  11.417  0.0152  0.4575 -0.4461
  111TMC2    H2 1733   1.203   2.707  11.477  0.5722  0.2856 -0.0041
  111TMC2    C7 1734   0.994   2.814  11.598  0.7942 -0.3942 -0.5644
  111TMC2    C8 1735   1.265   2.705  11.209  0.1870  0.2516  0.0672
  111TMC2    O1 1736   1.084   2.758  11.656  0.0113  0.0791 -0.5412
  111TMC2    O2 1737   1.281   2.705  11.088 -0.2820 -0.0702  0.4727
  111TMC2    O5 1738   1.358   2.769  11.288  0.0602 -0.1715 -0.0039
  111TMC2    H5 1739   1.342   2.756  11.384  2.7880  0.2131  0.4919
  112MPD2     C 1740   0.306   2.870  11.054 -0.4400  0.1535  0.1480
  112MPD2    C1 1741   0.400   2.808  10.980 -0.4109 -0.3915  0.1775
  112MPD2    C2 1742   0.534   2.805  11.022  0.4401 -0.0950  0.0998
  112MPD2    C3 1743   0.571   2.866  11.142  0.3049  0.0069  0.9837
  112MPD2    C4 1744   0.475   2.936  11.211 -0.2781 -0.0495 -0.3043
  112MPD2    C5 1745   0.346   2.930  11.171  0.0543 -0.1437 -0.2886
  112MPD2     H 1746   0.601   2.748  10.959 -0.6974 -0.8818 -0.3898
  112MPD2    H1 1747   0.497   2.978  11.309 -2.2553  1.6109 -0.5765
  112MPD2    H2 1748   0.200   2.879  11.039 -0.7073  0.0728  1.9136
  112MPD2    H3 1749   0.272   2.979  11.232  1.6530  0.9821  0.7707
  112MPD2     N 1750   0.696   2.855  11.201 -0.0886  0.2051 -0.0308
  112MPD2    H5 1751   0.702   2.892  11.295  1.6860 -0.2430  0.0344
  112MPD2    N1 1752   0.361   2.745  10.859 -0.7605  0.0015  0.2080
  112MPD2    H7 1753   0.434   2.693  10.813  0.0316 -0.1306  1.6218
  113TMC2    C1 1754   3.658   4.207   0.646  0.3452  0.1724 -0.2632
  113TMC2    C2 1755   3.643   4.268   0.521 -0.4412  0.3987  0.0193
  113TMC2    C3 1756   3.594   4.190   0.415  0.1794 -0.9992  0.0989
  113TMC2    C4 1757   3.633   4.074   0.666 -0.4432 -0.3760 -0.0780
  113TMC2    C5 1758   3.585   4.003   0.557 -0.3705  0.7572 -0.1661
  113TMC2    C6 1759   3.559   4.060   0.434 -0.5368  0.1833  0.2131
  113TMC2     C 1760   3.748   4.284   0.738 -0.2329  0.3034 -0.1107
  113TMC2     O 1761   3.714   4.397   0.765  0.3875  0.5571  0.0343
  113TMC2     H 1762   3.666   4.374   0.519 -0.7715  0.4408 -2.2210
  113TMC2    H1 1763   3.658   4.026   0.760 -0.7539 -1.6618 -0.6601
  113TMC2    H2 1764   3.537   4.000   0.347  2.9692  3.7267 -3.1063
  113TMC2    C7 1765   3.515   3.875   0.565  0.2658  0.1093 -0.2378
  113TMC2    C8 1766   3.574   4.252   0.284 -0.5558 -0.0746  0.4613
  113TMC2    O1 1767   3.505   3.798   0.471 -0.4052 -0.0767  0.3851
  113TMC2    O2 1768   3.546   4.182   0.187 -0.2107 -0.4467  0.2569
  113TMC2    O5 1769   3.543   4.387   0.301  0.1078  0.6312  0.1215
  113TMC2    H5 1770   3.542   4.420   0.393 -0.7931  2.9140 -0.7096
  114MPD2     C 1771   4.094   4.248   1.120 -0.4473  0.5117  0.3194
  114MPD2    C1 1772   3.985   4.336   1.106 -1.0530 -0.4660  0.2134
  114MPD2    C2 1773   3.903   4.325   0.994  0.2002  0.8432 -0.3094
  114MPD2    C3 1774   3.922   4.221   0.907 -0.1548 -0.0598  0.2376
  114MPD2    C4 1775   4.031   4.139   0.920  0.0015 -1.0478 -0.4263
  114MPD2    C5 1776   4.117   4.150   1.023 -0.5160  0.3221  0.0732
  114MPD2     H 1777   3.830   4.404   0.981 -0.6182  0.2742  0.8204
  114MPD2    H1 1778   4.059   4.060   0.851  0.4279 -1.3179  0.0567
  114MPD2    H2 1779   4.165   4.253   1.201 -0.8913 -0.1461  0.7481
  114MPD2    H3 1780   4.190   4.070   1.030 -0.0100  0.7459 -0.3772
  114MPD2     N 1781   3.847   4.205   0.791  0.2323  0.0743 -0.1035
  114MPD2    H5 1782   3.868   4.124   0.733 -0.2967  0.9964 -1.5575
  114MPD2    N1 1783   3.961   4.435   1.205  0.2558 -0.7770 -0.3240
  114MPD2    H7 1784   3.880   4.493   1.189  1.6076  1.5532  1.3184
  115TMC2    C1 1785   4.607   2.402  17.403 -0.0895  0.0135 -0.0692
  115TMC2    C2 1786   4.727   2.364  17.352 -0.5452 -0.4858 -0.7383
  115TMC2    C3 1787   0.086   2.461  17.349  0.1762 -0.3811 -0.4913
  115TMC2    C4 1788   4.583   2.528  17.462  0.4811  0.2591 -0.4116
  115TMC2    C5 1789   4.676   2.622  17.432  0.3892 -0.4907  0.0750
  115TMC2    C6 1790   0.057   2.589  17.381  0.3891 -0.5510  0.5873
  115TMC2     C 1791   4.503   2.294  17.427 -0.6060 -0.5937  0.3956
  115TMC2     O 1792   4.525   2.187  17.375  0.0092 -0.1970 -0.0198
  115TMC2     H 1793   0.014   2.262  17.326  1.9516  0.2479 -1.0354
  115TMC2    H1 1794   4.484   2.562  17.489  0.5962 -2.4538  3.5926
  115TMC2    H2 1795   0.130   2.668  17.369 -0.2090 -0.4443 -2.5237
  115TMC2    C7 1796   4.637   2.751  17.485  0.0318  0.2371  0.2570
  115TMC2    C8 1797   0.224   2.425  17.349  0.7444 -0.3642 -0.4793
  115TMC2    O1 1798   4.546   2.757  17.569  0.6784 -0.0345  0.3495
  115TMC2    O2 1799   0.270   2.349  17.262  0.1479 -0.7700  0.1524
  115TMC2    O5 1800   0.255   2.437  17.478  0.4507  0.1736  0.3422
  115TMC2    H5 1801   0.189   2.464  17.545 -1.6357 -1.5911 -0.9841
  116MPD2     C 1802   4.050   2.157  17.625  0.3081  0.1934  0.4146
  116MPD2    C1 1803   4.115   2.110  17.506 -0.2688  0.3145  0.6536
  116MPD2    C2 1804   4.240   2.159  17.477  0.2149 -0.1583 -0.9845
  116MPD2    C3 1805   4.293   2.257  17.561 -0.1010  0.4731 -0.6655
  116MPD2    C4 1806   4.208   2.321  17.653 -0.5015  0.3204 -0.8792
  116MPD2    C5 1807   4.086   2.272  17.682 -0.4071  0.7892  0.1612
  116MPD2     H 1808   4.295   2.117  17.394  3.1222  0.7492  0.4726
  116MPD2    H1 1809   4.239   2.402  17.719  0.4028  0.4725 -1.4875
  116MPD2    H2 1810   3.953   2.115  17.650  0.7052  0.0155  1.6804
  116MPD2    H3 1811   4.026   2.326  17.755  0.9511  0.9010  1.1991
  116MPD2     N 1812   4.410   2.330  17.525 -0.1332 -0.0461  0.8092
  116MPD2    H5 1813   4.426   2.413  17.582 -1.0368  0.7680 -0.1151
  116MPD2    N1 1814   4.059   1.996  17.441 -0.0531  0.2671  0.2925
  116MPD2    H7 1815   3.971   1.951  17.465  0.4133 -1.1340 -0.6134
  117TMC2    C1 1816   3.373   4.004  13.624  0.6107 -0.2197  0.2363
  117TMC2    C2 1817   3.478   3.939  13.689 -0.0180 -0.5085 -0.0245
  117TMC2    C3 1818   3.558   4.018  13.769 -0.5362 -0.3875  0.3683
  117TMC2    C4 1819   3.351   4.140  13.630 -0.1549  0.2810  0.1381
  117TMC2    C5 1820   3.446   4.214  13.704  0.1011  0.5592 -0.0642
  117TMC2    C6 1821   3.544   4.157  13.781 -0.0705 -0.2351 -0.1814
  117TMC2     C 1822   3.282   3.934  13.539 -0.4720 -0.5355  0.2290
  117TMC2     O 1823   3.335   3.836  13.483 -0.4866 -0.0771  0.3759
  117TMC2     H 1824   3.492   3.834  13.667 -1.9768 -0.6340 -0.6299
  117TMC2    H1 1825   3.271   4.189  13.575  0.7403  1.1964 -0.3515
  117TMC2    H2 1826   3.615   4.215  13.839 -1.6504  0.5449  0.9594
  117TMC2    C7 1827   3.433   4.360  13.723  0.0624 -0.5147 -0.2095
  117TMC2    C8 1828   3.673   3.971  13.834 -0.5447  0.7027  0.4545
  117TMC2    O1 1829   3.527   4.431  13.750 -0.0523 -0.0977 -0.3273
  117TMC2    O2 1830   3.711   4.019  13.937  0.2767 -0.2074 -0.2243
  117TMC2    O5 1831   3.699   3.843  13.796  0.1851 -0.2160 -0.2319
  117TMC2    H5 1832   3.671   3.822  13.704 -0.9828 -0.1121  0.1043
  118MPD2     C 1833   3.110   4.526  13.676  0.1857  0.4563  0.6574
  118MPD2    C1 1834   3.246   4.520  13.704 -0.1594  0.6883 -0.1819
  118MPD2    C2 1835   3.308   4.640  13.749 -0.0628 -0.2917 -0.0930
  118MPD2    C3 1836   3.236   0.017  13.758  0.8125 -0.1841  0.0008
  118MPD2    C4 1837   3.103   0.018  13.734 -0.0266 -0.6907  0.0908
  118MPD2    C5 1838   3.032   4.640  13.702 -0.0219  0.4632  0.3355
  118MPD2     H 1839   3.413   4.635  13.773  0.3818  1.4765 -1.6893
  118MPD2    H1 1840   3.043   0.107  13.749  2.5645  1.2086 -0.8131
  118MPD2    H2 1841   3.053   4.438  13.648  2.1676 -0.5090 -0.3576
  118MPD2    H3 1842   2.927   4.649  13.677  0.3249  1.0243 -0.9361
  118MPD2     N 1843   3.293   0.140  13.809  0.2255  0.6487  0.2832
  118MPD2    H5 1844   3.231   0.216  13.835  0.7768  1.0818  0.3258
  118MPD2    N1 1845   3.307   4.398  13.696 -0.4198 -0.2168  0.0337
  118MPD2    H7 1846   3.243   4.324  13.666 -1.2477  0.8305 -0.8148
  119TMC2    C1 1847   1.005   0.567  13.335 -0.3425 -0.6742  0.0083
  119TMC2    C2 1848   1.021   0.440  13.282  0.0287  0.2793  0.5612
  119TMC2    C3 1849   0.946   0.340  13.330 -0.3677 -0.3433  0.5014
  119TMC2    C4 1850   0.911   0.595  13.426  0.3795 -0.2691  0.3734
  119TMC2    C5 1851   0.831   0.492  13.467 -0.1773 -0.1956  0.3825
  119TMC2    C6 1852   0.846   0.362  13.422  0.6088 -0.1044 -0.4639
  119TMC2     C 1853   1.105   0.670  13.321 -0.3525 -0.7666 -0.1464
  119TMC2     O 1854   1.069   0.788  13.338  0.0652  0.1278  0.3038
  119TMC2     H 1855   1.085   0.429  13.195  1.3031 -0.0451  1.5510
  119TMC2    H1 1856   0.900   0.694  13.468  0.0096  0.6533 -1.8905
  119TMC2    H2 1857   0.775   0.283  13.442 -1.8503  2.3890  0.6429
  119TMC2    C7 1858   0.778   0.501  13.604  1.2427 -0.7664 -0.1135
  119TMC2    C8 1859   0.943   0.223  13.246 -0.3077  0.4886 -0.6501
  119TMC2    O1 1860   0.777   0.612  13.659  0.5546 -0.3199 -0.4413
  119TMC2    O2 1861   1.005   0.215  13.139 -0.0985  0.1330  0.1117
  119TMC2    O5 1862   0.929   0.109  13.322  0.5996 -0.2869 -0.4530
  119TMC2    H5 1863   0.940   0.126  13.418 -1.7508 -2.3239  0.1867
  120MPD2     C 1864   1.596   0.803  13.341  0.8222 -0.0354  0.0754
  120MPD2    C1 1865   1.485   0.880  13.343  0.0421  0.5867  0.1467
  120MPD2    C2 1866   1.364   0.815  13.335 -0.0462  0.5831 -0.1752
  120MPD2    C3 1867   1.353   0.678  13.316  0.2661 -0.6430 -0.4144
  120MPD2    C4 1868   1.470   0.599  13.312  0.5121  0.4461 -0.3279
  120MPD2    C5 1869   1.593   0.666  13.312  0.2913  0.1388  0.2127
  120MPD2     H 1870   1.283   0.884  13.357 -0.4294  0.4669 -1.2481
  120MPD2    H1 1871   1.467   0.492  13.298 -0.4206  0.4591 -0.2691
  120MPD2    H2 1872   1.690   0.856  13.344 -0.9241  2.9233  2.0075
  120MPD2    H3 1873   1.685   0.610  13.307  0.1266 -0.1799  0.7090
  120MPD2     N 1874   1.228   0.613  13.305 -0.2428  0.0507  0.2527
  120MPD2    H5 1875   1.232   0.512  13.309  2.2372  0.0535 -2.0278
  120MPD2    N1 1876   1.487   1.014  13.390  0.0169 -0.1363  0.1890
  120MPD2    H7 1877   1.574   1.050  13.428 -0.3397 -0.2308  1.0882
  121TMC2    C1 1878   3.169   1.955  14.000 -0.0676 -0.4385  0.2914
  121TMC2    C2 1879   3.221   1.856  14.086 -0.3265 -0.0399  0.6992
  121TMC2    C3 1880   3.150   1.744  14.120 -0.3530  0.7535  0.6809
  121TMC2    C4 1881   3.055   1.927  13.931 -0.4415 -0.0091  0.3503
  121TMC2    C5 1882   2.999   1.802  13.950 -0.1399  0.0127 -0.8062
  121TMC2    C6 1883   3.045   1.710  14.046  0.5497 -0.0107 -0.1384
  121TMC2     C 1884   3.228   2.092  13.998 -0.2717 -0.3091  0.8669
  121TMC2     O 1885   3.327   2.105  14.066  0.0742  0.5525 -0.1437
  121TMC2     H 1886   3.310   1.873  14.145 -0.5138  0.1565  0.9289
  121TMC2    H1 1887   3.015   1.987  13.851 -1.7868 -1.2003  0.1330
  121TMC2    H2 1888   2.997   1.614  14.063 -1.4018  1.0046  0.1586
  121TMC2    C7 1889   2.872   1.783  13.881 -0.6787  0.5365  0.9165
  121TMC2    C8 1890   3.178   1.675  14.245  0.0466 -0.0064  0.2274
  121TMC2    O1 1891   2.851   1.665  13.857  0.1272 -0.0282 -0.3123
  121TMC2    O2 1892   3.292   1.655  14.285  0.3128  0.1466  0.1463
  121TMC2    O5 1893   3.062   1.615  14.287 -0.0826 -0.0944  0.3607
  121TMC2    H5 1894   2.982   1.657  14.249 -0.3968 -0.9581  0.0830
  122MPD2     C 1895   3.244   2.396  13.990  0.2643  0.1951  0.5792
  122MPD2    C1 1896   3.184   2.315  13.895 -0.6879 -0.5415 -0.6399
  122MPD2    C2 1897   3.108   2.374  13.800  0.2179 -0.2660 -0.0051
  122MPD2    C3 1898   3.096   2.512  13.788  0.1659  0.2648  0.3964
  122MPD2    C4 1899   3.145   2.587  13.888 -0.4027 -0.0166  0.5401
  122MPD2    C5 1900   3.216   2.531  13.985  0.0805  0.7551  0.0998
  122MPD2     H 1901   3.053   2.305  13.737  1.3053 -0.7620 -0.4100
  122MPD2    H1 1902   3.147   2.695  13.881 -0.3997 -0.1116 -1.0521
  122MPD2    H2 1903   3.310   2.371  14.072  0.2758 -1.1456  0.1597
  122MPD2    H3 1904   3.273   2.599  14.047 -1.3309  1.4275  0.6550
  122MPD2     N 1905   3.033   2.574  13.672  0.1748 -0.0690 -0.0104
  122MPD2    H5 1906   3.020   2.674  13.685 -0.6399 -0.2398  0.5267
  122MPD2    N1 1907   3.167   2.173  13.904 -0.5715 -0.3092 -0.8619
  122MPD2    H7 1908   3.112   2.125  13.833 -2.6042 -1.7154  1.6459
  123TMC2    C1 1909   1.024   1.428  10.701 -0.4893 -0.2158  0.1691
  123TMC2    C2 1910   1.156   1.455  10.678 -0.5792 -0.2489  0.0178
  123TMC2    C3 1911   1.186   1.529  10.563 -0.6923 -0.5051 -0.3580
  123TMC2    C4 1912   0.924   1.478  10.629 -0.3447  0.0781 -0.2733
  123TMC2    C5 1913   0.959   1.551  10.522  0.4932  0.1740  0.7511
  123TMC2    C6 1914   1.090   1.577  10.480 -0.3272  0.3518 -0.2080
  123TMC2     C 1915   0.996   1.318  10.791 -0.5782  0.3033 -0.2026
  123TMC2     O 1916   1.092   1.275  10.850 -0.0987  1.3042 -0.1706
  123TMC2     H 1917   1.235   1.403  10.731  0.6833 -0.9959 -2.5713
  123TMC2    H1 1918   0.824   1.459  10.665 -0.3973  0.5119 -0.1892
  123TMC2    H2 1919   1.109   1.639  10.393  2.4317  1.1242  0.9269
  123TMC2    C7 1920   0.857   1.549  10.418 -1.2355 -0.0976  0.3776
  123TMC2    C8 1921   1.323   1.571  10.533  0.9349  0.1675 -0.4681
  123TMC2    O1 1922   0.753   1.497  10.456  0.7317 -0.2948  0.3208
  123TMC2    O2 1923   1.347   1.610  10.418 -0.1192 -0.1121  0.0038
  123TMC2    O5 1924   1.390   1.602  10.647  0.9863  0.0931  0.2137
  123TMC2    H5 1925   1.368   1.553  10.729  0.4437  0.5937  0.3662
  124MPD2     C 1926   0.683   0.957  10.980  0.4047  0.5148 -0.1475
  124MPD2    C1 1927   0.604   1.059  10.925  0.1408 -0.5592  0.4340
  124MPD2    C2 1928   0.669   1.165  10.862 -1.2155 -0.0870  0.5014
  124MPD2    C3 1929   0.805   1.171  10.868  0.1096  0.2667  0.8439
  124MPD2    C4 1930   0.883   1.073  10.923 -0.4018 -0.4174 -0.0736
  124MPD2    C5 1931   0.820   0.970  10.983 -0.1132  0.0579  0.1236
  124MPD2     H 1932   0.616   1.228  10.792 -0.4092  0.9126  0.7786
  124MPD2    H1 1933   0.991   1.068  10.923 -0.4345 -1.0434  1.4767
  124MPD2    H2 1934   0.632   0.877  11.034  1.0145  0.6830  0.6786
  124MPD2    H3 1935   0.877   0.893  11.032  0.2691  0.7981  0.8574
  124MPD2     N 1936   0.867   1.280  10.798  0.1908  0.7442 -0.1433
  124MPD2    H5 1937   0.795   1.328  10.745 -2.5426 -0.0050  2.8759
  124MPD2    N1 1938   0.469   1.037  10.903  1.0112 -0.1919  0.5518
  124MPD2    H7 1939   0.430   0.954  10.947  2.5918  1.2225  4.6940
  125TMC2    C1 1940   1.699   2.272   9.087 -0.2139 -0.6508 -0.2891
  125TMC2    C2 1941   1.747   2.247   9.214 -0.2583 -0.2421  0.2982
  125TMC2    C3 1942   1.845   2.330   9.262  0.0306 -0.1593  0.5036
  125TMC2    C4 1943   1.756   2.371   9.002  0.3677 -0.0518  0.0403
  125TMC2    C5 1944   1.856   2.447   9.058 -0.0578 -0.6987  1.0441
  125TMC2    C6 1945   1.899   2.424   9.181 -0.2763 -0.0062 -0.0889
  125TMC2     C 1946   1.589   2.186   9.033  0.1974 -0.2726 -0.3473
  125TMC2     O 1947   1.542   2.217   8.925  0.1275 -0.2124 -0.0336
  125TMC2     H 1948   1.707   2.168   9.276  1.2477 -0.1165  1.4258
  125TMC2    H1 1949   1.721   2.390   8.902  1.7943 -0.0438 -0.4624
  125TMC2    H2 1950   1.954   2.503   9.232 -0.6850  0.6000 -0.5871
  125TMC2    C7 1951   1.895   2.567   8.988 -0.2777  0.6047 -0.2854
  125TMC2    C8 1952   1.866   2.331   9.406 -0.2436 -0.0635  0.3164
  125TMC2    O1 1953   1.812   2.618   8.911  0.1023 -0.1788 -0.0818
  125TMC2    O2 1954   1.779   2.317   9.490  0.2407 -0.4461 -0.5350
  125TMC2    O5 1955   1.995   2.364   9.420 -0.3055  0.0035 -0.2052
  125TMC2    H5 1956   2.044   2.370   9.336 -0.6470 -0.7913 -0.4623
  126MPD1     C 1957   1.255   1.806   9.049  0.4793 -0.0489  0.5622
  126MPD1    C1 1958   1.294   1.830   9.174  0.2732  0.3208 -0.3424
  126MPD1    C2 1959   1.403   1.916   9.187 -0.1661 -0.6449  0.2608
  126MPD1    C3 1960   1.447   1.990   9.081  0.4273  0.1939 -0.1314
  126MPD1    C4 1961   1.392   1.977   8.961 -0.4541  0.0452 -0.7151
  126MPD1    C5 1962   1.293   1.882   8.939 -0.5380 -0.0655 -0.0069
  126MPD1     H 1963   1.445   1.919   9.286  1.4896  1.0536 -0.4984
  126MPD1    H1 1964   1.428   2.032   8.876  0.6868 -0.8287 -0.7996
  126MPD1    H2 1965   1.185   1.729   9.020  0.4085 -0.2016  1.1461
  126MPD1    H3 1966   1.259   1.852   8.841 -0.6069 -0.5079  0.1508
  126MPD1     N 1967   1.548   2.083   9.115 -0.7504 -0.5978  0.9367
  126MPD1    H5 1968   1.583   2.065   9.209 -0.7110 -0.4197  0.9566
  126MPD1    N1 1969   1.259   1.756   9.287 -0.0933 -0.4268 -0.3098
  126MPD1    H6 1970   1.265   1.800   9.378 -0.4607 -1.7565  0.3540
  126MPD1    H7 1971   1.161   1.733   9.271 -0.7399  2.2231 -0.1599
  127TMC2    C1 1972   2.429   1.571  10.292  0.5246 -0.2683 -0.1281
  127TMC2    C2 1973   2.510   1.482  10.353 -0.0273 -0.0939 -0.4681
  127TMC2    C3 1974   2.454   1.407  10.456  0.2530  0.3823  0.4564
  127TMC2    C4 1975   2.294   1.592  10.311  0.5173 -0.8014  0.4166
  127TMC2    C5 1976   2.245   1.504  10.403  0.1957 -0.1875 -0.0392
  127TMC2    C6 1977   2.320   1.417  10.477 -0.2494 -0.2470  0.4271
  127TMC2     C 1978   2.488   1.650  10.184 -0.5805  0.5612 -0.1913
  127TMC2     O 1979   2.604   1.681  10.202 -0.1808  0.2698  0.3605
  127TMC2     H 1980   2.614   1.484  10.323 -0.2324  0.2707 -1.1578
  127TMC2    H1 1981   2.233   1.667  10.262 -0.6330 -1.4960  0.7830
  127TMC2    H2 1982   2.271   1.356  10.552  0.3321 -2.6029 -1.1213
  127TMC2    C7 1983   2.109   1.536  10.446  0.0182 -0.1568  0.1231
  127TMC2    C8 1984   2.515   1.302  10.532 -0.1815  0.0713 -0.7522
  127TMC2    O1 1985   2.063   1.645  10.424  0.0991  0.0582 -0.2701
  127TMC2    O2 1986   2.465   1.258  10.634 -0.2959  0.2700  0.2881
  127TMC2    O5 1987   2.594   1.237  10.449  0.5942  0.0853 -0.1073
  127TMC2    H5 1988   2.631   1.290  10.375  0.4839 -0.2031 -0.3706
  128MPD2     C 1989   2.350   1.748   9.850 -0.0348 -0.0256 -0.2990
  128MPD2    C1 1990   2.439   1.746   9.955  0.2276 -0.4225  0.6287
  128MPD2    C2 1991   2.558   1.803   9.929 -0.1466  0.2005 -0.0627
  128MPD2    C3 1992   2.595   1.869   9.817  0.1058 -0.2598 -0.1280
  128MPD2    C4 1993   2.502   1.881   9.712 -0.1108 -0.4986  0.3464
  128MPD2    C5 1994   2.384   1.815   9.735 -0.8643  0.6060  0.4143
  128MPD2     H 1995   2.637   1.796  10.003  1.3563  0.3104 -1.6554
  128MPD2    H1 1996   2.508   1.926   9.613  0.6874  0.1413  0.6841
  128MPD2    H2 1997   2.251   1.707   9.865  0.8331 -2.6862 -1.8778
  128MPD2    H3 1998   2.311   1.814   9.656  1.1494 -1.0335 -1.4158
  128MPD2     N 1999   2.729   1.917   9.811  0.4906 -0.1681 -0.4132
  128MPD2    H5 2000   2.782   1.904   9.897  0.8025 -1.7212 -0.8577
  128MPD2    N1 2001   2.410   1.676  10.074  0.4056 -0.0526 -0.6336
  128MPD2    H7 2002   2.318   1.635  10.078 -0.0887  0.9726 -1.4219
  129TMC2    C1 2003   1.915   0.928   1.546 -0.1711 -0.3723 -0.5868
  129TMC2    C2 2004   1.862   1.030   1.624  0.4720  0.0579 -0.2079
  129TMC2    C3 2005   1.740   0.996   1.678  0.2558  1.1085  0.0122
  129TMC2    C4 2006   1.878   0.802   1.555  0.1853 -0.4658  0.1031
  129TMC2    C5 2007   1.770   0.766   1.638 -0.3234  0.6252 -0.0560
  129TMC2    C6 2008   1.702   0.863   1.704 -0.2826 -0.0897  0.1709
  129TMC2     C 2009   2.026   0.950   1.461  0.5628  0.0889  0.9154
  129TMC2     O 2010   2.084   0.853   1.413 -0.2356 -0.4345  0.1490
  129TMC2     H 2011   1.894   1.133   1.622 -0.3232  0.3346  2.0777
  129TMC2    H1 2012   1.929   0.724   1.500 -1.8233 -0.5127 -1.7257
  129TMC2    H2 2013   1.601   0.845   1.738 -0.8069  0.6878 -0.9867
  129TMC2    C7 2014   1.705   0.635   1.612  0.4475  0.0419 -0.1485
  129TMC2    C8 2015   1.662   1.091   1.739  0.1400  0.4974  0.1948
  129TMC2    O1 2016   1.586   0.629   1.640  0.3405  0.0819 -0.0230
  129TMC2    O2 2017   1.603   1.070   1.849  0.2305  0.0972  0.1506
  129TMC2    O5 2018   1.601   1.146   1.631 -0.0308  0.1753 -0.0446
  129TMC2    H5 2019   1.640   1.148   1.541 -0.8851 -1.7306 -0.4513
  130MPD2     C 2020   2.241   1.077   1.294 -0.1776  0.1391  0.3380
  130MPD2    C1 2021   2.129   1.149   1.337  0.2967 -0.0987  0.2890
  130MPD2    C2 2022   2.104   1.275   1.292 -0.4084 -0.2389  0.0573
  130MPD2    C3 2023   2.194   1.342   1.205  1.2277 -0.5684  0.0544
  130MPD2    C4 2024   2.293   1.266   1.153  0.9928 -0.1595  0.2880
  130MPD2    C5 2025   2.325   1.139   1.204 -0.6999 -0.6674  0.5876
  130MPD2     H 2026   2.023   1.333   1.333 -1.1013 -1.5221  0.5108
  130MPD2    H1 2027   2.371   1.317   1.099  0.2961  0.9020  0.2869
  130MPD2    H2 2028   2.252   0.975   1.329 -0.4105  0.8654  2.5634
  130MPD2    H3 2029   2.423   1.099   1.179 -0.9779 -0.4684 -0.8354
  130MPD2     N 2030   2.183   1.483   1.186  0.1775 -0.3402 -0.0359
  130MPD2    H5 2031   2.115   1.526   1.248  0.9423  1.5895 -0.5201
  130MPD2    N1 2032   2.033   1.084   1.419 -0.1460 -0.0059 -0.6891
  130MPD2    H7 2033   1.952   1.140   1.445 -0.6433 -0.7905 -0.5302
  131TMC2    C1 2034   0.289   1.560  10.063  0.4611  0.1191 -0.3523
  131TMC2    C2 2035   0.287   1.535   9.930  0.7659  0.0073  0.4698
  131TMC2    C3 2036   0.364   1.617   9.852  0.8990 -0.9591  0.2201
  131TMC2    C4 2037   0.348   1.670  10.113 -0.0643  0.1024 -0.1322
  131TMC2    C5 2038   0.431   1.742  10.037  0.1146  0.1221  0.0942
  131TMC2    C6 2039   0.443   1.720   9.907  0.0507 -0.1290 -0.0864
  131TMC2     C 2040   0.227   1.459  10.145 -0.2994 -0.3107  0.0275
  131TMC2     O 2041   0.276   1.456  10.257  0.0498  0.0357 -0.3384
  131TMC2     H 2042   0.249   1.449   9.875 -1.5913  1.6682 -0.5122
  131TMC2    H1 2043   0.343   1.699  10.218  1.9331 -0.2944  0.0668
  131TMC2    H2 2044   0.518   1.769   9.846  0.1984 -1.3763 -0.9062
  131TMC2    C7 2045   0.513   1.848  10.097 -0.1991 -0.3425 -0.4606
  131TMC2    C8 2046   0.393   1.567   9.727 -0.1342  0.0654 -0.3393
  131TMC2    O1 2047   0.562   1.830  10.207 -0.0806  0.0030 -0.0296
  131TMC2    O2 2048   0.436   1.451   9.717  0.0951  0.3911  0.1208
  131TMC2    O5 2049   0.424   1.668   9.638  0.8582  0.7693  0.0389
  131TMC2    H5 2050   0.419   1.758   9.676 -1.1357  0.8103 -0.3217
  132MPD2     C 2051   4.697   1.208  10.079 -0.2175  0.9068  0.5498
  132MPD2    C1 2052   0.055   1.279  10.149  0.6830  0.6409  0.3617
  132MPD2    C2 2053   0.088   1.234  10.274 -0.2497 -0.6683  0.5035
  132MPD2    C3 2054   0.027   1.123  10.330  0.0110 -0.2898 -0.6172
  132MPD2    C4 2055   4.679   1.048  10.257  0.8630 -0.2147  0.5421
  132MPD2    C5 2056   4.643   1.094  10.135 -0.2203  0.1238 -0.5852
  132MPD2     H 2057   0.159   1.290  10.334  1.1046 -1.2628 -0.5383
  132MPD2    H1 2058   4.618   0.969  10.300  1.5901  0.0700  2.0941
  132MPD2    H2 2059   4.657   1.238   9.983  2.5530  0.9315 -0.6002
  132MPD2    H3 2060   4.562   1.040  10.087  0.4994  1.1016 -2.8900
  132MPD2     N 2061   0.062   1.107  10.467  0.6579 -0.2052  0.3883
  132MPD2    H5 2062   0.112   1.182  10.514  1.6833  0.9947 -2.5975
  132MPD2    N1 2063   0.122   1.389  10.084 -0.2669  0.1903  0.5247
  132MPD2    H7 2064   0.088   1.425   9.996 -0.2686  0.1106  0.4929
  133TMC2    C1 2065   0.103   0.541   9.907  0.3164 -0.0082 -0.1806
  133TMC2    C2 2066   0.225   0.573   9.963 -0.8801  0.6491 -0.9905
  133TMC2    C3 2067   0.301   0.474  10.020 -0.5420 -0.2538  0.5212
  133TMC2    C4 2068   0.053   0.415   9.909 -0.2138  0.0120 -0.6492
  133TMC2    C5 2069   0.134   0.315   9.968  0.1728 -0.4468 -0.2259
  133TMC2    C6 2070   0.257   0.343  10.025 -0.5987  0.0906  0.3960
  133TMC2     C 2071   0.048   0.645   9.821  0.1337  0.0310 -0.0344
  133TMC2     O 2072   0.091   0.760   9.848  0.6438 -0.4221  0.0791
  133TMC2     H 2073   0.257   0.677   9.971  1.9079 -0.2053 -1.0071
  133TMC2    H1 2074   4.689   0.398   9.879 -0.6258 -1.5190  1.6782
  133TMC2    H2 2075   0.315   0.268  10.076  0.9784  0.1919 -1.2334
  133TMC2    C7 2076   0.083   0.180   9.955 -0.5433 -0.3771 -0.6397
  133TMC2    C8 2077   0.411   0.530  10.096 -0.1705 -1.0242  0.4144
  133TMC2    O1 2078   4.729   0.166   9.876  0.1167  0.1484 -0.3522
  133TMC2    O2 2079   0.471   0.628  10.059 -0.1649  0.1471 -0.4118
  133TMC2    O5 2080   0.373   0.506  10.226 -0.1612  0.3726  0.6470
  133TMC2    H5 2081   0.289   0.455  10.225 -0.7826  1.4254 -0.3108
  134MPD2     C 2082   4.488   0.621   9.625 -0.1573 -0.0617 -0.1034
  134MPD2    C1 2083   4.588   0.688   9.685 -0.1585  0.6530 -0.5439
  134MPD2    C2 2084   4.599   0.826   9.686 -0.5588  0.4859 -0.2930
  134MPD2    C3 2085   4.503   0.901   9.627 -0.3395  1.1079  0.4709
  134MPD2    C4 2086   4.406   0.833   9.552 -0.5475 -0.0512  0.0057
  134MPD2    C5 2087   4.399   0.697   9.553  0.3857  0.4731 -0.9686
  134MPD2     H 2088   4.680   0.872   9.741 -1.2819 -0.0216  1.1947
  134MPD2    H1 2089   4.323   0.888   9.508  1.6171  1.0348 -2.7202
  134MPD2    H2 2090   4.471   0.514   9.625  0.4823 -0.1573 -0.9678
  134MPD2    H3 2091   4.313   0.650   9.505 -0.9018  0.5694  1.2608
  134MPD2     N 2092   4.500   1.044   9.620 -0.0848  0.1177 -0.2605
  134MPD2    H5 2093   4.424   1.086   9.568 -0.7733  0.5024  1.0683
  134MPD2    N1 2094   4.685   0.604   9.748 -0.1487 -0.3920 -0.1692
  134MPD2    H7 2095   4.676   0.503   9.745  2.2564 -0.6247  0.4195
  135TMC2    C1 2096   1.825   3.675   9.194 -0.0772 -0.5254 -0.3060
  135TMC2    C2 2097   1.817   3.541   9.160 -0.4226  0.8574  0.0076
  135TMC2    C3 2098   1.767   3.456   9.256  0.3211 -0.2348  1.1869
  135TMC2    C4 2099   1.795   3.710   9.322 -0.6565  0.3384 -0.7265
  135TMC2    C5 2100   1.745   3.622   9.416  0.2218 -0.2109  0.9500
  135TMC2    C6 2101   1.733   3.487   9.382  0.3183  0.2694  1.1751
  135TMC2     C 2102   1.878   3.775   9.105 -0.1238  0.3888  0.0392
  135TMC2     O 2103   1.853   3.888   9.127 -0.3729 -0.0761 -0.3024
  135TMC2     H 2104   1.837   3.509   9.058  2.2376  0.7640  0.5621
  135TMC2    H1 2105   1.803   3.817   9.339 -0.2435 -0.0778  1.7375
  135TMC2    H2 2106   1.722   3.416   9.463 -0.1819 -1.4560 -0.3954
  135TMC2    C7 2107   1.745   3.668   9.553 -0.4506 -0.2186  0.0207
  135TMC2    C8 2108   1.709   3.339   9.198 -0.6358  0.0391 -0.3210
  135TMC2    O1 2109   1.811   3.770   9.585  1.0606 -0.0861 -0.1127
  135TMC2    O2 2110   1.735   3.300   9.084  0.1788 -0.1282  0.4388
  135TMC2    O5 2111   1.591   3.323   9.250  0.2095  0.0421  0.3367
  135TMC2    H5 2112   1.591   3.350   9.345 -2.2299  0.7230  0.1361
  136MPD2     C 2113   2.011   3.932   8.889  0.3254  0.5490  0.4622
  136MPD2    C1 2114   2.046   3.801   8.924 -0.2602  0.0502  0.1733
  136MPD2    C2 2115   2.152   3.739   8.861  0.5173 -0.3353  0.4150
  136MPD2    C3 2116   2.233   3.813   8.777  0.5043 -0.6595  0.2176
  136MPD2    C4 2117   2.198   3.950   8.752  0.5308 -0.3807  0.4939
  136MPD2    C5 2118   2.098   4.010   8.816  0.5671 -0.3615 -0.2782
  136MPD2     H 2119   2.167   3.635   8.884 -1.0870 -0.6724 -0.0080
  136MPD2    H1 2120   2.257   4.004   8.678  0.4573  0.1337  0.8095
  136MPD2    H2 2121   1.917   3.973   8.924 -1.4811 -2.4132 -0.9279
  136MPD2    H3 2122   2.072   4.111   8.786 -1.3175 -0.8030 -0.0803
  136MPD2     N 2123   2.349   3.754   8.719 -0.2303  0.4884 -0.3020
  136MPD2    H5 2124   2.406   3.809   8.656 -1.2447  1.5992 -0.2364
  136MPD2    N1 2125   1.969   3.723   9.015 -0.0525 -0.6327 -0.3972
  136MPD2    H7 2126   2.019   3.638   9.039  1.6440  0.4774  0.0131
  137TMC2    C1 2127   1.453   2.629   9.099 -0.1729  0.0630 -0.0050
  137TMC2    C2 2128   1.556   2.713   9.073 -0.4793  0.4336 -0.1084
  137TMC2    C3 2129   1.546   2.813   8.977 -0.1234  0.4067 -0.5588
  137TMC2    C4 2130   1.326   2.669   9.064  0.2707  0.1399  0.1621
  137TMC2    C5 2131   1.310   2.772   8.973 -0.1455 -0.1609 -0.0475
  137TMC2    C6 2132   1.425   2.844   8.925  0.3679 -0.0906 -0.0092
  137TMC2     C 2133   1.472   2.536   9.213 -0.8666 -0.3123  0.7701
  137TMC2     O 2134   1.570   2.556   9.285 -0.2906 -0.1078  0.2219
  137TMC2     H 2135   1.654   2.698   9.117 -0.1461 -0.7009 -1.2468
  137TMC2    H1 2136   1.243   2.610   9.101  1.4629 -2.2636 -1.0059
  137TMC2    H2 2137   1.422   2.921   8.849  2.1732  0.8330  0.8627
  137TMC2    C7 2138   1.181   2.803   8.925 -0.3393 -0.5446  0.8870
  137TMC2    C8 2139   1.652   2.889   8.927 -0.0909 -1.1726 -0.4573
  137TMC2    O1 2140   1.170   2.886   8.837 -0.0762 -0.5612 -0.1347
  137TMC2    O2 2141   1.643   2.957   8.823  0.4023 -0.5151 -0.1255
  137TMC2    O5 2142   1.721   2.929   9.034 -0.5669 -0.2177 -0.1238
  137TMC2    H5 2143   1.721   2.881   9.120  0.2509  1.0610  0.5886
  138MPD2     C 2144   1.246   2.270   9.308 -0.3376 -0.1269  0.3731
  138MPD2    C1 2145   1.362   2.343   9.312 -0.4938 -0.2354  0.3098
  138MPD2    C2 2146   1.456   2.314   9.414 -0.2202 -0.8261 -0.0156
  138MPD2    C3 2147   1.438   2.215   9.506 -0.1271 -0.7602  0.5622
  138MPD2    C4 2148   1.335   2.133   9.484 -0.2840  0.2258  0.8629
  138MPD2    C5 2149   1.239   2.167   9.393 -0.8273 -0.0161  0.3880
  138MPD2     H 2150   1.550   2.366   9.427  0.3145 -1.9724  0.6586
  138MPD2    H1 2151   1.318   2.051   9.552 -3.9904  0.5584  0.3896
  138MPD2    H2 2152   1.163   2.298   9.244 -0.5190  0.0417  0.6794
  138MPD2    H3 2153   1.144   2.115   9.387  0.1993 -1.8317 -0.2344
  138MPD2     N 2154   1.532   2.213   9.609 -0.5738  0.0088  0.6137
  138MPD2    H5 2155   1.611   2.277   9.602 -1.8454  1.5483  0.3606
  138MPD2    N1 2156   1.376   2.442   9.220 -0.0583 -0.3802  0.0800
  138MPD2    H7 2157   1.316   2.440   9.138 -2.1653 -0.6598  1.6617
  139TMC2    C1 2158   2.935   0.245  13.369  0.4084 -0.4375  1.1574
  139TMC2    C2 2159   3.016   0.356  13.358 -0.1851  0.9643 -0.4081
  139TMC2    C3 2160   2.955   0.477  13.366  0.0875 -0.0183 -1.0508
  139TMC2    C4 2161   2.794   0.254  13.375 -0.0085 -0.0960 -0.1380
  139TMC2    C5 2162   2.740   0.380  13.383 -0.2342  0.2615 -0.0989
  139TMC2    C6 2163   2.820   0.493  13.375  0.8044 -0.4377  0.3152
  139TMC2     C 2164   2.992   0.109  13.349 -0.7156 -0.2908  0.1625
  139TMC2     O 2165   3.102   0.100  13.301 -0.1966 -0.7161 -0.7231
  139TMC2     H 2166   3.122   0.339  13.341 -0.4213 -1.9376  1.0276
  139TMC2    H1 2167   2.730   0.169  13.356  1.9078 -1.0894 -2.1570
  139TMC2    H2 2168   2.779   0.593  13.367  1.9964  0.0941  0.8509
  139TMC2    C7 2169   2.613   0.406  13.442 -0.0549  0.5380 -0.5044
  139TMC2    C8 2170   3.036   0.594  13.382  0.5012 -0.1350  0.4851
  139TMC2    O1 2171   2.596   0.527  13.469  0.8322 -0.1728 -0.5899
  139TMC2    O2 2172   3.005   0.705  13.342 -0.4290  0.0222 -0.6567
  139TMC2    O5 2173   3.160   0.557  13.428  0.1592  0.8194 -0.2558
  139TMC2    H5 2174   3.142   0.472  13.471  0.6171  2.1932  2.6299
  140MPD2     C 2175   2.833   4.525  13.419  0.4175  0.4994  0.7827
  140MPD2    C1 2176   2.939   4.610  13.391  0.4615  0.0378  0.1729
  140MPD2    C2 2177   3.062   4.558  13.354 -0.1877  0.4386 -0.5267
  140MPD2    C3 2178   3.087   4.424  13.345 -0.2823  0.2703  0.1969
  140MPD2    C4 2179   2.988   4.340  13.378 -0.3510  0.1289 -0.2247
  140MPD2    C5 2180   2.863   4.392  13.404  0.4087 -0.0970  0.2063
  140MPD2     H 2181   3.143   4.626  13.329 -0.1384  0.4571 -0.3132
  140MPD2    H1 2182   2.991   4.232  13.379 -2.3943  0.0603 -0.3357
  140MPD2    H2 2183   2.739   4.566  13.451  0.7637  0.2730  2.0751
  140MPD2    H3 2184   2.785   4.324  13.435  1.0578  0.0119  2.0867
  140MPD2     N 2185   3.211   4.383  13.305 -0.3305  0.1082 -0.2650
  140MPD2    H5 2186   3.278   4.455  13.282 -1.9439  1.9204  0.7758
  140MPD2    N1 2187   2.909   0.008  13.388 -0.2579  0.3496  0.7398
  140MPD2    H7 2188   2.825   0.044  13.433  0.1871  0.8384  1.1908
  141TMC2    C1 2189   3.829   1.775  14.402  0.2393  0.9405  0.4680
  141TMC2    C2 2190   3.713   1.847  14.405  0.0886 -0.1047 -1.9052
  141TMC2    C3 2191   3.642   1.865  14.520  0.1651  0.3504  0.1104
  141TMC2    C4 2192   3.868   1.694  14.502 -0.6443  0.3394 -0.4730
  141TMC2    C5 2193   3.799   1.712  14.621 -0.3423 -0.1113 -0.5134
  141TMC2    C6 2194   3.688   1.799  14.630  1.1227  1.0824  0.7708
  141TMC2     C 2195   3.869   1.732  14.273  0.4096 -0.2688  0.0162
  141TMC2     O 2196   3.900   1.613  14.260 -0.2900 -0.3269  0.6006
  141TMC2     H 2197   3.672   1.882  14.311 -0.3066  0.8174 -1.3911
  141TMC2    H1 2198   3.947   1.623  14.479 -2.1505 -1.4912  0.0410
  141TMC2    H2 2199   3.629   1.807  14.720 -0.4005  0.1386 -0.1512
  141TMC2    C7 2200   3.887   1.723  14.735 -0.2704  0.1002 -0.2171
  141TMC2    C8 2201   3.523   1.943  14.501 -1.0428 -0.2926  0.1932
  141TMC2    O1 2202   3.852   1.796  14.829 -0.6241 -0.0642  0.3537
  141TMC2    O2 2203   3.509   2.016  14.405  0.2852  0.4080 -0.2726
  141TMC2    O5 2204   3.432   1.908  14.588  0.2014  0.0912  0.2951
  141TMC2    H5 2205   3.457   1.856  14.667 -0.6701 -2.5011 -1.1519
  142TMC2    C1 2206   0.295   0.958  10.161  0.7525  0.1033 -0.0848
  142TMC2    C2 2207   0.234   0.967  10.044  0.6454  0.0519  0.1309
  142TMC2    C3 2208   0.275   1.065   9.949 -0.0266 -0.6590  0.0394
  142TMC2    C4 2209   0.398   1.046  10.195  0.1631 -0.0959  0.2202
  142TMC2    C5 2210   0.448   1.131  10.098  0.7150 -0.0259  0.2904
  142TMC2    C6 2211   0.386   1.146   9.973  0.2792 -0.4680 -0.0880
  142TMC2     C 2212   0.250   0.856  10.257 -0.0387  0.2768 -0.4255
  142TMC2     O 2213   0.182   0.768  10.212 -0.2075  0.1470  0.3502
  142TMC2     H 2214   0.147   0.905  10.024 -1.5496  2.9427  0.6375
  142TMC2    H1 2215   0.453   1.041  10.288  0.6811 -1.7788 -0.1864
  142TMC2    H2 2216   0.417   1.213   9.894 -2.1736 -1.2515 -1.7332
  142TMC2    C7 2217   0.549   1.223  10.134  0.6039  0.0674 -0.0527
  142TMC2    C8 2218   0.216   1.086   9.826  0.1932 -0.4890  0.5660
  142TMC2    O1 2219   0.612   1.196  10.237 -0.7385  0.5001  0.2797
  142TMC2    O2 2220   0.232   1.194   9.769  0.5089  0.0627 -0.7039
  142TMC2    O5 2221   0.255   0.973   9.763  0.0953 -0.3470  0.2306
  142TMC2    H5 2222   0.221   0.895   9.813  0.9358  0.6530  2.3502
  143MPD2     C 2223   0.267   0.572  10.679  0.9089  0.2055  0.4627
  143MPD2    C1 2224   0.221   0.552  10.558  0.0107  0.3849  0.1258
  143MPD2    C2 2225   0.218   0.649  10.467 -0.3105  0.0113  0.8408
  143MPD2    C3 2226   0.288   0.773  10.485 -1.0484 -1.2778  0.9207
  143MPD2    C4 2227   0.343   0.794  10.606  0.0798 -0.0247 -0.1209
  143MPD2    C5 2228   0.332   0.695  10.696  0.3540  0.5670 -0.2950
  143MPD2     H 2229   0.183   0.631  10.366  2.3228 -1.6785  0.2300
  143MPD2    H1 2230   0.390   0.887  10.635  1.3701 -0.0793 -2.0330
  143MPD2    H2 2231   0.263   0.490  10.750 -1.6611  0.2228  0.3448
  143MPD2    H3 2232   0.378   0.711  10.793  0.7440 -4.4237  0.3323
  143MPD2     N 2233   0.298   0.871  10.384  0.0020 -0.3840  0.0467
  143MPD2    H5 2234   0.349   0.956  10.406  0.8826 -0.7531 -0.5200
  143MPD2    N1 2235   0.164   0.426  10.533  0.2269  0.0437  0.0808
  143MPD2    H7 2236   0.169   0.356  10.607  0.7895  1.1682  1.0969
  144TMC2    C1 2237   4.319   3.450   0.602 -0.4568  0.1891  0.3868
  144TMC2    C2 2238   4.396   3.351   0.548 -0.0687  0.2112 -0.3999
  144TMC2    C3 2239   4.519   3.329   0.613 -0.3375  0.0168  0.8864
  144TMC2    C4 2240   4.351   3.507   0.719  0.6672 -0.5317  0.3783
  144TMC2    C5 2241   4.473   3.485   0.780 -0.2784 -0.6960  0.6356
  144TMC2    C6 2242   4.552   3.385   0.733 -0.4143 -0.8358 -0.6755
  144TMC2     C 2243   4.225   3.511   0.507  0.6250  0.4499 -0.5867
  144TMC2     O 2244   4.217   3.454   0.398  0.0233 -0.1014 -0.3837
  144TMC2     H 2245   4.369   3.302   0.455  0.3344 -1.8715  0.5742
  144TMC2    H1 2246   4.293   3.587   0.765  1.1884  0.4426 -0.6545
  144TMC2    H2 2247   4.652   3.373   0.773  0.1133  1.1328 -1.4489
  144TMC2    C7 2248   4.493   3.511   0.921 -0.0764  0.1867 -0.0751
  144TMC2    C8 2249   4.602   3.224   0.545 -0.5316 -0.9993  0.0798
  144TMC2    O1 2250   4.557   3.423   0.970 -0.0218  0.8270  0.8152
  144TMC2    O2 2251   4.577   3.174   0.439 -0.7407 -0.2179  0.4574
  144TMC2    O5 2252   4.609   3.147   0.656  0.3521 -0.6593 -0.4763
  144TMC2    H5 2253   4.587   3.204   0.732  1.3787  0.4901 -1.0299
  145MPD2     C 2254   3.868   3.848   0.333 -0.5452  0.1276  0.1169
  145MPD2    C1 2255   3.896   3.714   0.298  0.0120 -0.2898  0.6601
  145MPD2    C2 2256   3.994   3.640   0.367  0.4924 -0.5485 -0.0640
  145MPD2    C3 2257   4.060   3.700   0.478  0.5522  0.0555 -0.7072
  145MPD2    C4 2258   4.024   3.828   0.513  0.8774 -0.1260  0.8216
  145MPD2    C5 2259   3.935   3.903   0.442  0.6643  0.0458 -0.5849
  145MPD2     H 2260   4.024   3.543   0.329  0.8544 -1.8468  3.5554
  145MPD2    H1 2261   4.073   3.868   0.601 -0.6011  0.1046  1.5406
  145MPD2    H2 2262   3.800   3.918   0.285  2.1215  1.8594 -1.1170
  145MPD2    H3 2263   3.921   4.010   0.457 -0.5959 -0.7330  3.5626
  145MPD2     N 2264   4.160   3.625   0.551 -0.7211  1.0403  1.0250
  145MPD2    H5 2265   4.199   3.668   0.634 -0.6369  1.5306  0.7294
  145MPD2    N1 2266   3.843   3.648   0.182 -0.5425 -0.0823  0.0070
  145MPD2    H7 2267   3.852   3.547   0.171 -0.2361  0.0251 -0.7465
  146TMC2    C1 2268   0.431   3.121  12.631 -0.3027 -0.4186  0.3081
  146TMC2    C2 2269   0.348   3.152  12.529 -0.3071 -0.3661 -0.9840
  146TMC2    C3 2270   0.371   3.085  12.418  0.2971  0.5396 -0.9303
  146TMC2    C4 2271   0.543   3.046  12.635  0.7350  0.1358 -0.0825
  146TMC2    C5 2272   0.566   2.993  12.510  0.1574 -0.2477 -0.2201
  146TMC2    C6 2273   0.486   3.016  12.406 -0.6513  0.1980  0.1901
  146TMC2     C 2274   0.389   3.182  12.761  0.5970 -0.7292 -0.0300
  146TMC2     O 2275   0.317   3.281  12.757 -0.0436 -0.3559 -0.4714
  146TMC2     H 2276   0.249   3.190  12.553  1.2426  4.4248 -2.1995
  146TMC2    H1 2277   0.600   3.039  12.726  0.1775  1.8655  0.4054
  146TMC2    H2 2278   0.524   2.975  12.313  1.4000  0.5966  0.8560
  146TMC2    C7 2279   0.695   2.924  12.486  0.0040 -0.4258  0.0376
  146TMC2    C8 2280   0.296   3.117  12.300 -0.2792  0.4233  0.4907
  146TMC2    O1 2281   0.741   2.920  12.372 -0.4617 -0.0276 -0.1654
  146TMC2    O2 2282   0.350   3.192  12.218  0.6144 -0.7310 -0.1096
  146TMC2    O5 2283   0.167   3.127  12.339 -0.8054  0.2085  0.2861
  146TMC2    H5 2284   0.150   3.061  12.409  1.3174 -1.2316 -0.5344
  147MPD2     C 2285   1.179   2.866  12.675 -0.1657 -0.0326 -0.0180
  147MPD2    C1 2286   1.091   2.836  12.774 -0.4064 -0.2250 -0.2402
  147MPD2    C2 2287   0.954   2.849  12.741 -0.5066  0.4164 -0.0912
  147MPD2    C3 2288   0.901   2.900  12.625  0.1432  0.5756  0.6995
  147MPD2    C4 2289   0.997   2.927  12.533 -0.0328 -1.0278 -0.7251
  147MPD2    C5 2290   1.130   2.907  12.555  0.3814  0.4875  0.2142
  147MPD2     H 2291   0.885   2.823  12.821 -0.7352  1.5332  0.0732
  147MPD2    H1 2292   0.968   2.977  12.442  1.2637  0.9102 -0.0627
  147MPD2    H2 2293   1.286   2.860  12.683 -0.3193  2.4020  3.7554
  147MPD2    H3 2294   1.201   2.945  12.483 -0.9569  0.5848 -1.0453
  147MPD2     N 2295   0.762   2.914  12.604  0.9065 -0.0027 -0.4557
  147MPD2    H5 2296   0.705   2.889  12.684  1.7245  1.8542  0.7051
  147MPD2    N1 2297   1.137   2.774  12.894 -0.6063  0.8749 -0.2470
  147MPD2    H7 2298   1.237   2.769  12.908 -0.5278  1.1524 -0.7119
  148TMC2    C1 2299   0.670   1.865  10.670  0.9760 -0.3542  0.3889
  148TMC2    C2 2300   0.790   1.929  10.643 -0.3730 -0.5079  0.1838
  148TMC2    C3 2301   0.905   1.888  10.704  0.7155 -0.1547 -0.4548
  148TMC2    C4 2302   0.666   1.762  10.764  0.1819 -0.4971 -0.6641
  148TMC2    C5 2303   0.790   1.732  10.824  0.1717 -0.1791  0.5377
  148TMC2    C6 2304   0.909   1.794  10.796 -1.0273  0.9435  1.5768
  148TMC2     C 2305   0.555   1.952  10.666  0.6185  0.2615 -0.0789
  148TMC2     O 2306   0.584   2.064  10.631  0.4939  0.1131  0.7254
  148TMC2     H 2307   0.782   2.016  10.579  0.3528 -0.2694  0.4119
  148TMC2    H1 2308   0.573   1.721  10.804 -1.1011 -1.2790 -4.4458
  148TMC2    H2 2309   1.004   1.765  10.839 -1.0566  0.2562  1.1611
  148TMC2    C7 2310   0.795   1.618  10.924 -0.0147  0.1150 -0.5070
  148TMC2    C8 2311   1.026   1.935  10.650 -0.7702 -0.6680 -0.4453
  148TMC2    O1 2312   0.906   1.567  10.944  0.6710  0.3198 -0.3214
  148TMC2    O2 2313   1.136   1.934  10.699  0.0478 -0.0651 -0.7651
  148TMC2    O5 2314   1.002   1.953  10.514  0.0451 -0.4914 -0.6956
  148TMC2    H5 2315   0.909   1.939  10.485  0.5151 -1.6465 -1.6387
  149MPD2     C 2316   0.285   2.086  10.648 -0.0586  0.1285  0.3117
  149MPD2    C1 2317   0.310   1.952  10.684  0.6127 -0.5945 -0.2016
  149MPD2    C2 2318   0.199   1.863  10.702 -0.2200 -0.1521 -0.1195
  149MPD2    C3 2319   0.065   1.907  10.682  0.6597 -0.7306  0.5021
  149MPD2    C4 2320   0.050   2.042  10.649  0.5133  0.1911  0.8453
  149MPD2    C5 2321   0.153   2.129  10.644 -0.0698 -0.2775 -0.2635
  149MPD2     H 2322   0.208   1.759  10.731  0.6986  0.4531  1.7385
  149MPD2    H1 2323   4.690   2.082  10.633  0.3545  0.3162  2.1466
  149MPD2    H2 2324   0.371   2.147  10.621 -1.7318  1.5569 -1.8233
  149MPD2    H3 2325   0.139   2.232  10.611 -2.3788 -1.5948 -3.3664
  149MPD2     N 2326   4.686   1.831  10.682 -0.4279  0.1460 -0.6578
  149MPD2    H5 2327   4.596   1.866  10.651 -1.0776  0.3788  1.4827
  149MPD2    N1 2328   0.436   1.893  10.699 -0.1588  0.3086 -0.5649
  149MPD2    H7 2329   0.448   1.793  10.714 -0.3902  0.4221  0.3907
  150TMC2    C1 2330   1.883   0.928  12.586 -0.0368 -0.4004 -0.1092
  150TMC2    C2 2331   1.811   1.048  12.591 -0.3133  0.4968 -0.5923
  150TMC2    C3 2332   1.886   1.157  12.593  0.0764  0.2896 -0.1990
  150TMC2    C4 2333   2.020   0.922  12.585  0.2669 -0.1301 -0.2043
  150TMC2    C5 2334   2.088   1.041  12.598  0.6947  0.2466 -0.1292
  150TMC2    C6 2335   2.021   1.161  12.590  0.5166  0.0243 -0.5216
  150TMC2     C 2336   1.806   0.806  12.603 -0.5651 -0.5354  0.6076
  150TMC2     O 2337   1.877   0.705  12.621  0.3049  0.8173  0.4873
  150TMC2     H 2338   1.707   1.068  12.614 -0.5675 -2.8012  1.1183
  150TMC2    H1 2339   2.071   0.827  12.583  0.3874 -0.0777  0.3284
  150TMC2    H2 2340   2.069   1.257  12.608 -0.5251  1.4156 -5.2080
  150TMC2    C7 2341   2.238   1.041  12.598  0.6743 -0.4107 -0.4832
  150TMC2    C8 2342   1.823   1.283  12.553  0.7610  0.0041  0.3020
  150TMC2    O1 2343   2.295   1.140  12.561 -0.2053  0.3920 -0.2832
  150TMC2    O2 2344   1.710   1.314  12.588  0.3960 -0.2355 -0.2061
  150TMC2    O5 2345   1.895   1.344  12.454  0.2483 -0.0273  0.0495
  150TMC2    H5 2346   1.968   1.289  12.420  1.7323  1.2399  1.2290
  151MPD2     C 2347   1.434   0.471  12.497  0.1725  0.3737  0.3316
  151MPD2    C1 2348   1.416   0.587  12.422 -0.0415  0.3258  0.6622
  151MPD2    C2 2349   1.502   0.690  12.430 -1.4031  0.3388 -0.1380
  151MPD2    C3 2350   1.601   0.701  12.523  0.1536 -0.1879  0.0926
  151MPD2    C4 2351   1.609   0.607  12.618  0.7687  0.0380 -0.3213
  151MPD2    C5 2352   1.528   0.489  12.605 -0.1151  0.3802 -0.2732
  151MPD2     H 2353   1.502   0.766  12.353 -1.2748 -2.1253 -2.5734
  151MPD2    H1 2354   1.685   0.598  12.694 -0.0099 -1.3461  0.3017
  151MPD2    H2 2355   1.370   0.386  12.476  2.5000 -1.2298 -0.3103
  151MPD2    H3 2356   1.552   0.406  12.671 -0.1801 -2.4384 -3.7774
  151MPD2     N 2357   1.684   0.815  12.543  0.4160 -0.0512 -0.2800
  151MPD2    H5 2358   1.667   0.893  12.480  0.7185 -1.0746 -1.6474
  151MPD2    N1 2359   1.317   0.584  12.323  0.3792  0.8804 -0.2790
  151MPD2    H7 2360   1.255   0.504  12.322  2.3589 -0.6794  1.3104
  152TMC2    C1 2361   2.310   0.865  12.989  0.1362 -0.8006  0.1462
  152TMC2    C2 2362   2.391   0.764  13.037  0.0973  0.2643  0.2921
  152TMC2    C3 2363   2.523   0.787  13.039 -0.0838  0.1674 -0.4192
  152TMC2    C4 2364   2.357   0.989  12.951  0.5383 -1.1263 -0.6437
  152TMC2    C5 2365   2.490   1.009  12.964 -0.4591  0.1709  0.0631
  152TMC2    C6 2366   2.571   0.911  13.009 -0.2985  0.5305 -0.6171
  152TMC2     C 2367   2.165   0.846  12.960  0.0668  0.2072 -0.2495
  152TMC2     O 2368   2.098   0.928  12.898  0.6193  0.3551  0.0706
  152TMC2     H 2369   2.349   0.665  13.048  3.1095 -1.2210 -1.8799
  152TMC2    H1 2370   2.290   1.061  12.905  1.5502  1.1583  1.4662
  152TMC2    H2 2371   2.676   0.920  13.032 -0.1389 -2.1823 -0.3027
  152TMC2    C7 2372   2.545   1.121  12.897 -0.7105  0.2906 -0.5227
  152TMC2    C8 2373   2.593   0.666  13.017 -1.0588 -0.4087 -0.7407
  152TMC2    O1 2374   2.462   1.181  12.831  0.1794  0.1792  0.0619
  152TMC2    O2 2375   2.698   0.663  12.952  0.1790 -0.0012 -0.1304
  152TMC2    O5 2376   2.584   0.615  13.141 -0.6116  0.2802 -0.2167
  152TMC2    H5 2377   2.501   0.640  13.186  0.4383 -1.6552  2.7609
  153MPD2     C 2378   1.957   0.551  13.029 -0.0792 -0.3757 -0.0212
  153MPD2    C1 2379   1.982   0.682  13.002  0.4551 -0.2476 -0.2290
  153MPD2    C2 2380   1.875   0.766  12.986  1.2091  0.2611 -0.8406
  153MPD2    C3 2381   1.744   0.718  12.996 -0.6870 -0.3169  0.2893
  153MPD2    C4 2382   1.723   0.588  13.021 -0.0264  0.4010  0.4549
  153MPD2    C5 2383   1.825   0.497  13.041  0.0472  0.5067  0.3462
  153MPD2     H 2384   1.884   0.867  12.948  3.0442  0.9947  1.4830
  153MPD2    H1 2385   1.624   0.545  13.027 -0.1954  0.7305  0.0548
  153MPD2    H2 2386   2.027   0.468  13.035 -3.4524 -3.0479  2.4318
  153MPD2    H3 2387   1.799   0.398  13.076 -0.1451 -0.2600 -2.0026
  153MPD2     N 2388   1.635   0.805  12.967 -0.2690 -0.5645 -0.6171
  153MPD2    H5 2389   1.661   0.899  12.939 -1.3630 -0.7790 -2.3231
  153MPD2    N1 2390   2.118   0.726  13.005  0.5509 -0.0567 -0.0122
  153MPD2    H7 2391   2.183   0.651  13.024  0.2177 -0.6616 -1.2888
  154TMC2    C1 2392   4.289   4.480   0.746 -1.2040  0.8574  0.1411
  154TMC2    C2 2393   4.308   4.446   0.879 -0.2594 -0.7011  0.7242
  154TMC2    C3 2394   4.391   4.348   0.921 -0.1382 -0.0490 -0.2374
  154TMC2    C4 2395   4.370   4.429   0.649  0.2193 -0.0657 -0.2476
  154TMC2    C5 2396   4.453   4.324   0.702  0.7069 -0.5934  0.1726
  154TMC2    C6 2397   4.464   4.276   0.824 -0.7997 -0.2430  0.3065
  154TMC2     C 2398   4.170   4.558   0.716  0.2202 -0.1449  0.5404
  154TMC2     O 2399   4.096   4.600   0.803 -0.6667 -0.6377 -0.3442
  154TMC2     H 2400   4.248   4.500   0.952  0.6339 -1.4009  1.9773
  154TMC2    H1 2401   4.375   4.460   0.545 -1.1406  1.0740  0.0308
  154TMC2    H2 2402   4.550   4.220   0.860 -0.4107 -0.2327 -0.6074
  154TMC2    C7 2403   4.522   4.249   0.598  0.4791 -0.0899  0.4918
  154TMC2    C8 2404   4.430   4.356   1.058  0.6037 -0.7990 -0.1371
  154TMC2    O1 2405   4.558   4.138   0.639 -0.1027 -0.2936  0.3322
  154TMC2    O2 2406   4.433   4.463   1.112  0.4007 -0.5300 -0.5210
  154TMC2    O5 2407   4.495   4.245   1.105  0.4448  0.4386 -1.0409
  154TMC2    H5 2408   4.483   4.168   1.044 -0.8258 -1.1678  1.2271
  155MPD2     C 2409   4.114   4.684   0.373 -0.2274 -0.4217 -0.2237
  155MPD2    C1 2410   4.085   4.670   0.506  0.4304  0.1084  0.0287
  155MPD2    C2 2411   3.960   4.721   0.546  0.3569  0.8604 -0.4978
  155MPD2    C3 2412   3.873   0.052   0.459  0.3360 -0.0552 -0.2490
  155MPD2    C4 2413   3.915   0.060   0.323 -0.3119  0.1751 -0.1871
  155MPD2    C5 2414   4.034   0.003   0.286 -0.3346  0.4385  0.5156
  155MPD2     H 2415   3.938   4.727   0.652  1.5136 -0.0204 -0.2052
  155MPD2    H1 2416   3.856   0.107   0.245  1.6006  1.1303 -1.0689
  155MPD2    H2 2417   4.212   4.667   0.329 -1.1681 -3.2040 -1.2444
  155MPD2    H3 2418   4.077   0.008   0.187 -0.8453 -0.0684  0.2768
  155MPD2     N 2419   3.753   0.098   0.516 -0.3920  0.0029 -0.1271
  155MPD2    H5 2420   3.739   0.088   0.616 -0.0936 -0.4557 -0.1363
  155MPD2    N1 2421   4.170   4.591   0.583 -0.0407  0.1407  0.2099
  155MPD2    H7 2422   4.245   4.552   0.526  0.4693  0.0643  0.9317
  156TMC2    C1 2423   2.168   2.791  11.257  0.7481 -0.4586 -0.1781
  156TMC2    C2 2424   2.249   2.736  11.162  0.2479  0.6929 -0.0417
  156TMC2    C3 2425   2.252   2.792  11.032  0.0989  0.7812  0.4658
  156TMC2    C4 2426   2.080   2.898  11.238 -0.6482 -0.2799 -0.3614
  156TMC2    C5 2427   2.079   2.941  11.106 -0.3140  0.5118  0.5142
  156TMC2    C6 2428   2.157   2.890  11.006 -0.4352 -0.3310 -0.1715
  156TMC2     C 2429   2.199   2.771  11.397  0.2474 -0.4393  1.1433
  156TMC2     O 2430   2.168   2.859  11.474 -0.2444  0.0662 -0.2448
  156TMC2     H 2431   2.316   2.654  11.185 -0.3469  0.6330  1.4333
  156TMC2    H1 2432   2.027   2.951  11.316 -1.2904 -0.2104 -0.8478
  156TMC2    H2 2433   2.162   2.949  10.915  0.8776  1.6351  1.1547
  156TMC2    C7 2434   2.046   3.084  11.092 -0.2300 -0.5716 -0.2320
  156TMC2    C8 2435   2.317   2.717  10.928  0.2510  0.5437  0.0978
  156TMC2    O1 2436   2.122   3.155  11.033  0.2178  0.1381  0.1204
  156TMC2    O2 2437   2.262   2.671  10.827 -0.0696 -0.0934  0.2255
  156TMC2    O5 2438   2.440   2.689  10.977  0.2656 -0.1014 -0.1126
  156TMC2    H5 2439   2.459   2.728  11.065 -0.5995 -1.6320  0.7471
  157MPD2     C 2440   2.345   2.474  11.554 -0.3523 -0.5361  0.2038
  157MPD2    C1 2441   2.277   2.591  11.550  0.0928  0.1097  0.4732
  157MPD2    C2 2442   2.282   2.671  11.663 -0.5075  0.2005  1.0384
  157MPD2    C3 2443   2.359   2.643  11.775 -0.6800  0.1875  0.2306
  157MPD2    C4 2444   2.432   2.531  11.776  0.0917  0.1095 -0.6888
  157MPD2    C5 2445   2.419   2.447  11.664 -0.5647 -0.4546 -0.4689
  157MPD2     H 2446   2.235   2.768  11.656  2.4383  1.7539  2.9217
  157MPD2    H1 2447   2.507   2.505  11.849 -0.8935  0.6311  0.5038
  157MPD2    H2 2448   2.360   2.409  11.469  2.1554  0.1959  0.0811
  157MPD2    H3 2449   2.482   2.359  11.658 -0.0049 -0.1405  0.6405
  157MPD2     N 2450   2.373   2.742  11.874 -0.3165 -0.0699 -0.3422
  157MPD2    H5 2451   2.317   2.825  11.860  1.2458  0.8472 -1.1200
  157MPD2    N1 2452   2.236   2.641  11.426  0.2844 -0.2376 -0.3573
  157MPD2    H7 2453   2.240   2.573  11.351 -2.5207  2.3906 -2.9234
  158TMC2    C1 2454   3.025   1.647  13.478  0.6565 -0.6416 -0.1691
  158TMC2    C2 2455   3.053   1.705  13.357  0.2852  0.2013 -0.5001
  158TMC2    C3 2456   2.955   1.727  13.264  0.3276  0.2493 -0.1530
  158TMC2    C4 2457   2.901   1.600  13.509 -0.3151 -1.3568  0.0204
  158TMC2    C5 2458   2.802   1.644  13.422 -0.0783  0.2007  0.0303
  158TMC2    C6 2459   2.825   1.693  13.299 -0.2357 -0.1182 -0.2894
  158TMC2     C 2460   3.143   1.635  13.577 -0.0371  0.4284 -1.1468
  158TMC2     O 2461   3.249   1.700  13.563  0.0102  0.4738  0.2236
  158TMC2     H 2462   3.145   1.758  13.335  1.3828 -0.8774  1.5496
  158TMC2    H1 2463   2.867   1.573  13.609 -0.5743 -0.0898  0.2842
  158TMC2    H2 2464   2.759   1.724  13.219 -1.7015  1.6140  1.6425
  158TMC2    C7 2465   2.660   1.609  13.437  0.1432 -0.6035  0.4201
  158TMC2    C8 2466   2.972   1.810  13.148  0.4073 -1.0235  0.1835
  158TMC2    O1 2467   2.593   1.662  13.348 -0.1359 -0.0447 -0.5430
  158TMC2    O2 2468   3.081   1.864  13.126  0.4741  0.5399 -0.0595
  158TMC2    O5 2469   2.886   1.773  13.052 -0.5214 -0.1780  0.0920
  158TMC2    H5 2470   2.836   1.692  13.075 -1.0715  0.0774 -0.2141
  159MPD2     C 2471   3.350   1.468  14.015 -0.0941 -0.0758 -0.3783
  159MPD2    C1 2472   3.220   1.421  14.001 -0.7066  0.3519  0.4385
  159MPD2    C2 2473   3.143   1.453  13.893  0.3383 -0.2163 -0.7283
  159MPD2    C3 2474   3.189   1.536  13.796 -0.2953 -0.5412  0.0669
  159MPD2    C4 2475   3.316   1.588  13.812  0.3607  0.5910 -0.5011
  159MPD2    C5 2476   3.393   1.559  13.923  0.4911  0.0202  0.5127
  159MPD2     H 2477   3.038   1.425  13.887  0.0770  0.9789 -1.5488
  159MPD2    H1 2478   3.371   1.640  13.735  0.8737 -1.3899 -1.4735
  159MPD2    H2 2479   3.406   1.448  14.106  3.0365  1.0478 -2.0571
  159MPD2    H3 2480   3.493   1.600  13.936  0.5979 -0.5491  1.5118
  159MPD2     N 2481   3.109   1.553  13.678 -0.8029  0.4443  0.5224
  159MPD2    H5 2482   3.015   1.515  13.675 -0.0365 -1.3064 -0.9778
  159MPD2    N1 2483   3.173   1.325  14.091  0.2609  0.0062  0.9631
  159MPD2    H7 2484   3.228   1.295  14.171  3.9245 -0.4621 -1.7475
  160TMC2    C1 2485   2.432   3.661   1.495 -0.5910 -0.7257 -0.1323
  160TMC2    C2 2486   2.463   3.732   1.610  0.6037 -1.0341 -0.5680
  160TMC2    C3 2487   2.595   3.752   1.637  0.2822  0.2732  0.2229
  160TMC2    C4 2488   2.527   3.622   1.405  0.4884  0.1187  0.6574
  160TMC2    C5 2489   2.660   3.643   1.434  0.3875 -0.4851  0.3440
  160TMC2    C6 2490   2.701   3.709   1.551  0.4335  0.5034  0.0053
  160TMC2     C 2491   2.310   3.710   1.423  0.6141 -0.3613 -0.3758
  160TMC2     O 2492   2.259   3.814   1.453 -0.2594  0.0960 -0.0608
  160TMC2     H 2493   2.384   3.767   1.675  1.3664  0.4808 -0.4551
  160TMC2    H1 2494   2.498   3.566   1.317 -0.7112  0.2246  0.9849
  160TMC2    H2 2495   2.805   3.725   1.578  0.1846 -0.0198  1.2572
  160TMC2    C7 2496   2.722   3.686   1.306 -0.1196  0.3596 -0.3150
  160TMC2    C8 2497   2.647   3.791   1.765  0.2879 -0.2440 -0.8874
  160TMC2    O1 2498   2.675   3.643   1.201 -0.0543 -0.8190 -0.0007
  160TMC2    O2 2499   2.744   3.728   1.798 -0.0305 -0.3506  0.1128
  160TMC2    O5 2500   2.554   3.862   1.843 -0.2449 -0.2722 -0.2309
  160TMC2    H5 2501   2.493   3.912   1.786 -0.6708 -0.0315  0.4409
  161MPD2     C 2502   2.087   3.540   1.193  0.2376 -0.2520 -0.0131
  161MPD2    C1 2503   2.148   3.648   1.256  0.1591  0.8457 -0.6347
  161MPD2    C2 2504   2.098   3.779   1.240 -0.4234  0.3501  0.2260
  161MPD2    C3 2505   1.979   3.801   1.172  0.0721 -0.1558  0.4198
  161MPD2    C4 2506   1.923   3.691   1.106 -0.7282 -0.9498 -0.7744
  161MPD2    C5 2507   1.979   3.561   1.117  0.0150 -0.2391  0.0717
  161MPD2     H 2508   2.157   3.864   1.271 -2.0636  1.5956 -0.0902
  161MPD2    H1 2509   1.827   3.701   1.057 -1.2810 -0.6225  0.3738
  161MPD2    H2 2510   2.126   3.441   1.216  0.1921 -0.2285  0.1664
  161MPD2    H3 2511   1.942   3.473   1.066 -0.3014  1.4124 -2.5879
  161MPD2     N 2512   1.929   3.932   1.138  0.4254 -0.1564 -0.7918
  161MPD2    H5 2513   1.839   3.930   1.093  0.8038 -0.4867 -1.5271
  161MPD2    N1 2514   2.262   3.619   1.331  0.2054  0.9862  0.4650
  161MPD2    H7 2515   2.299   3.524   1.331 -2.2970  0.0038  0.4696
  162TMC2    C1 2516   1.019   1.101   1.584 -0.3471 -1.1789 -0.2411
  162TMC2    C2 2517   0.997   1.220   1.651  0.0924  0.1722  0.2609
  162TMC2    C3 2518   0.904   1.222   1.759 -1.3570 -0.4361  0.0059
  162TMC2    C4 2519   0.957   0.983   1.623 -0.5390 -0.2134 -0.0162
  162TMC2    C5 2520   0.886   0.986   1.745  0.3360  0.2758 -0.5933
  162TMC2    C6 2521   0.866   1.102   1.815 -0.1824  0.5738 -0.4790
  162TMC2     C 2522   1.082   1.103   1.451  0.0170 -0.4632 -0.1579
  162TMC2     O 2523   1.041   1.014   1.377  0.1947  0.3228 -0.2144
  162TMC2     H 2524   1.030   1.318   1.620  1.1014 -0.1159  0.4425
  162TMC2    H1 2525   0.985   0.888   1.579 -0.6336 -0.1024 -0.3166
  162TMC2    H2 2526   0.816   1.094   1.911  0.7166  0.1130 -0.0481
  162TMC2    C7 2527   0.881   0.859   1.828 -0.6242  0.0842  0.1296
  162TMC2    C8 2528   0.915   1.322   1.867 -1.1728  0.1217  0.5505
  162TMC2    O1 2529   0.860   0.869   1.946  1.0074 -0.4615  0.2712
  162TMC2    O2 2530   0.910   1.286   1.986 -0.9020 -0.0400 -0.2099
  162TMC2    O5 2531   0.958   1.438   1.815  0.7444 -0.1596 -0.7973
  162TMC2    H5 2532   0.935   1.442   1.720 -0.0931  1.3048 -0.5267
  163MPD2     C 2533   1.294   1.317   1.045  0.1717 -0.4915  0.0908
  163MPD2    C1 2534   1.195   1.227   1.056  0.0953  0.2680  0.4455
  163MPD2    C2 2535   1.148   1.191   1.180  0.8590 -0.1918 -0.2207
  163MPD2    C3 2536   1.202   1.246   1.295  0.4712 -0.3805  0.6869
  163MPD2    C4 2537   1.300   1.336   1.275 -0.0478  0.2204  1.0011
  163MPD2    C5 2538   1.351   1.374   1.152 -0.0318 -0.2818  0.5514
  163MPD2     H 2539   1.060   1.129   1.192 -0.0209  0.6809 -2.0115
  163MPD2    H1 2540   1.338   1.383   1.365  0.1956 -1.7513  1.9328
  163MPD2    H2 2541   1.338   1.349   0.952  0.2321 -0.6115  0.0781
  163MPD2    H3 2542   1.439   1.438   1.148 -0.8466  0.7277 -1.2486
  163MPD2     N 2543   1.162   1.207   1.422 -0.0358 -0.1252 -0.0306
  163MPD2    H5 2544   1.188   1.258   1.506  0.6155 -1.5974  0.6537
  163MPD2    N1 2545   1.143   1.178   0.938 -0.2684 -0.0294  0.0345
  163MPD2    H7 2546   1.192   1.201   0.852 -3.0977 -1.1489 -1.8788
  164TMC2    C1 2547   0.673   1.925  11.295 -0.2540  0.3518  0.2240
  164TMC2    C2 2548   0.780   1.957  11.220  0.0429 -1.0760  0.9405
  164TMC2    C3 2549   0.768   2.074  11.144 -0.1563  0.2809 -0.4772
  164TMC2    C4 2550   0.567   2.012  11.315  0.0585 -0.1179 -0.7252
  164TMC2    C5 2551   0.565   2.130  11.244  0.0858 -0.0834 -0.4400
  164TMC2    C6 2552   0.665   2.167  11.161  0.0707  0.0280  0.2679
  164TMC2     C 2553   0.682   1.816  11.394 -0.2152  0.0058  0.3299
  164TMC2     O 2554   0.610   1.810  11.495 -0.1406  0.5027  0.5953
  164TMC2     H 2555   0.863   1.892  11.192  0.2036 -0.0851 -0.9096
  164TMC2    H1 2556   0.482   1.975  11.373 -0.6664  0.3835 -1.4650
  164TMC2    H2 2557   0.658   2.260  11.107 -3.1163 -0.8876 -0.9192
  164TMC2    C7 2558   0.458   2.221  11.277  0.0205 -0.2926 -0.1432
  164TMC2    C8 2559   0.850   2.064  11.021 -0.1569 -0.3031 -0.9470
  164TMC2    O1 2560   0.423   2.292  11.184  0.0136 -0.1606  0.5359
  164TMC2    O2 2561   0.951   2.004  11.005 -0.2167  0.5364 -0.0029
  164TMC2    O5 2562   0.764   2.116  10.931  0.0695  0.5288  0.0759
  164TMC2    H5 2563   0.678   2.149  10.965 -0.0718  2.1736 -1.9261
  165TMC2    C1 2564   2.342   3.157   0.914  0.4762  0.5009  0.4495
  165TMC2    C2 2565   2.389   3.087   0.802  0.5273 -0.3687  0.0332
  165TMC2    C3 2566   2.523   3.101   0.772 -0.1860 -0.9879  1.0899
  165TMC2    C4 2567   2.424   3.227   1.000 -0.1515 -0.4114 -0.3055
  165TMC2    C5 2568   2.559   3.229   0.969 -0.6527 -0.7456 -0.5298
  165TMC2    C6 2569   2.610   3.169   0.855 -0.1615 -0.1409  0.4216
  165TMC2     C 2570   2.201   3.145   0.946  0.5851  0.2961 -0.5006
  165TMC2     O 2571   2.167   3.191   1.055  0.1249 -0.4869 -0.7881
  165TMC2     H 2572   2.332   3.005   0.760 -0.4241  0.4152 -0.2005
  165TMC2    H1 2573   2.377   3.260   1.092 -1.3567 -2.9588 -0.0184
  165TMC2    H2 2574   2.717   3.173   0.836 -0.4251 -2.7187 -1.4938
  165TMC2    C7 2575   2.659   3.266   1.068 -0.1528  0.5118  0.5110
  165TMC2    C8 2576   2.585   3.024   0.670  0.0589  0.3201 -0.1207
  165TMC2    O1 2577   2.776   3.260   1.039  0.1576  0.2309 -0.1032
  165TMC2    O2 2578   2.699   2.976   0.677 -0.1761  0.0210  0.0302
  165TMC2    O5 2579   2.490   2.997   0.572 -0.3852 -0.0399  0.5009
  165TMC2    H5 2580   2.407   3.048   0.580  1.2461  2.5746  1.0481
  166MPD2     C 2581   1.790   2.872   0.822 -0.8299 -0.6227  1.4131
  166MPD2    C1 2582   1.844   2.902   0.943 -0.5457 -0.8885  0.1715
  166MPD2    C2 2583   1.946   2.990   0.945 -0.0332  0.4649 -0.0140
  166MPD2    C3 2584   2.001   3.053   0.831  0.5050 -0.7288 -0.7836
  166MPD2    C4 2585   1.939   3.024   0.715  0.8276 -0.7615  0.7150
  166MPD2    C5 2586   1.838   2.928   0.709 -0.0650  0.5764 -0.0306
  166MPD2     H 2587   2.001   3.008   1.036 -1.1466 -0.6454  0.8807
  166MPD2    H1 2588   1.981   3.062   0.623  1.6688  0.3287  1.5477
  166MPD2    H2 2589   1.705   2.805   0.816  0.4449 -2.0622 -0.6950
  166MPD2    H3 2590   1.788   2.905   0.615 -1.1891 -0.2298  0.7639
  166MPD2     N 2591   2.133   3.108   0.835 -0.4720 -0.4089  0.7510
  166MPD2    H5 2592   2.190   3.104   0.751 -0.5552 -2.4257  0.7706
  166MPD2    N1 2593   1.775   2.864   1.059 -0.1039  0.5812  0.1397
  166MPD2    H7 2594   1.690   2.816   1.030 -1.3059  3.2516 -0.8155
  167TMC2    C1 2595   0.943   0.310  12.784  0.3708 -0.1204  0.2201
  167TMC2    C2 2596   1.045   0.281  12.702  0.4575 -0.2105  0.3310
  167TMC2    C3 2597   1.018   0.282  12.568 -0.4345 -0.5817 -0.4037
  167TMC2    C4 2598   0.825   0.341  12.731 -0.5132 -0.2156 -0.0182
  167TMC2    C5 2599   0.798   0.362  12.601 -0.4614 -0.2525 -0.3177
  167TMC2    C6 2600   0.899   0.327  12.514 -1.0051  0.0657 -0.0465
  167TMC2     C 2601   0.983   0.426  12.858 -0.1740  0.7869 -0.3737
  167TMC2     O 2602   1.104   0.428  12.879 -0.2271 -0.2212 -0.0114
  167TMC2     H 2603   1.144   0.265  12.744  1.5439  2.3504 -1.2336
  167TMC2    H1 2604   0.736   0.352  12.792  0.1287  0.6845  0.7410
  167TMC2    H2 2605   0.877   0.320  12.408 -1.4477 -1.1973  0.1327
  167TMC2    C7 2606   0.688   0.456  12.567 -0.2596 -0.5336 -0.0804
  167TMC2    C8 2607   1.123   0.257  12.474  0.4262 -0.2531  1.2487
  167TMC2    O1 2608   0.649   0.528  12.660 -0.3888  0.1730 -0.2072
  167TMC2    O2 2609   1.150   0.345  12.390 -0.2387  0.6713 -0.1942
  167TMC2    O5 2610   1.216   0.179  12.538  0.5402  0.0874  0.1728
  167TMC2    H5 2611   1.182   0.113  12.603 -0.2877  2.2534  1.9383
  168MPD2     C 2612   1.050   0.703  12.962  0.1221 -1.1128  0.4528
  168MPD2    C1 2613   0.942   0.673  12.876 -0.4915 -0.4035  0.2581
  168MPD2    C2 2614   0.871   0.781  12.818 -0.3728  0.0354  0.1727
  168MPD2    C3 2615   0.898   0.914  12.847  0.0420  0.6607  0.2854
  168MPD2    C4 2616   1.004   0.939  12.937 -0.8556 -0.0539  0.1813
  168MPD2    C5 2617   1.073   0.835  12.993  0.0850  0.0085 -0.5701
  168MPD2     H 2618   0.798   0.760  12.741  0.3377  1.5837 -0.9416
  168MPD2    H1 2619   1.026   1.040  12.970  0.9296 -0.6124  0.6994
  168MPD2    H2 2620   1.105   0.624  13.011 -0.2541 -1.1719  0.7865
  168MPD2    H3 2621   1.147   0.842  13.072 -2.5542  1.5220  1.7671
  168MPD2     N 2622   0.813   1.003  12.790  0.6061  0.7419  0.0540
  168MPD2    H5 2623   0.734   0.965  12.739  1.0275  2.3874 -1.8040
  168MPD2    N1 2624   0.907   0.539  12.840  0.2014 -0.4331 -0.3014
  168MPD2    H7 2625   0.825   0.537  12.780  0.3805 -3.1614 -0.4887
  169MPD1     C 2626   1.734   2.328  10.392  0.3743  0.4351 -0.0392
  169MPD1    C1 2627   1.856   2.296  10.330 -0.2164  0.2383 -0.1350
  169MPD1    C2 2628   1.877   2.176  10.279  0.0893 -0.5035  0.0655
  169MPD1    C3 2629   1.768   2.085  10.279 -0.0554  0.2387  0.0119
  169MPD1    C4 2630   1.641   2.115  10.327  0.4622 -0.4797  0.7726
  169MPD1    C5 2631   1.630   2.237  10.391  0.1328  0.3993  0.3338
  169MPD1     H 2632   1.978   2.150  10.251 -0.2388 -1.8030  0.0757
  169MPD1    H1 2633   1.557   2.047  10.328  2.7119 -3.2284 -0.4226
  169MPD1    H2 2634   1.713   2.420  10.444  0.1795 -0.2954  1.1815
  169MPD1    H3 2635   1.548   2.269  10.453 -0.3928 -2.9317  1.3681
  169MPD1     N 2636   1.794   1.956  10.235 -0.3269 -0.0532  0.3054
  169MPD1    H5 2637   1.892   1.937  10.219 -0.9255 -0.3196 -2.9976
  169MPD1    N1 2638   1.960   2.393  10.337 -0.3921 -0.6344  0.0984
  169MPD1    H6 2639   1.913   2.483  10.335  0.5991 -0.1743 -2.4720
  169MPD1    H7 2640   2.029   2.386  10.262 -1.2719  0.8058 -0.8457
  170MPD1     C 2641   2.021   3.651  13.162 -0.3053 -0.5140  0.0659
  170MPD1    C1 2642   2.020   3.547  13.257 -0.2412  0.0864 -0.0447
  170MPD1    C2 2643   1.918   3.543  13.349  0.6701 -0.2632 -0.4212
  170MPD1    C3 2644   1.811   3.629  13.338  0.0675 -0.7726  0.2436
  170MPD1    C4 2645   1.812   3.725  13.242  0.8805  0.4599  0.7219
  170MPD1    C5 2646   1.921   3.744  13.162  0.8964  0.3084  0.4879
  170MPD1     H 2647   1.914   3.471  13.429  0.1818  0.9252  0.6298
  170MPD1    H1 2648   1.736   3.799  13.220  2.9499  1.4581 -3.0381
  170MPD1    H2 2649   2.096   3.662  13.085  0.9905  0.8595  1.5389
  170MPD1    H3 2650   1.930   3.828  13.094 -0.9481  0.2208  0.1370
  170MPD1     N 2651   1.699   3.610  13.431 -1.0873  0.1117 -0.1329
  170MPD1    H5 2652   1.719   3.559  13.516 -1.2826 -0.0003 -0.1535
  170MPD1    N1 2653   2.126   3.460  13.273 -0.2826 -0.7866  0.0867
  170MPD1    H6 2654   2.097   3.367  13.300 -1.6048 -0.1240  0.9319
  170MPD1    H7 2655   2.162   3.441  13.179 -0.7785  0.4678 -0.3610
  171MPD1     C 2656   0.085   4.540  15.244 -0.0635  0.1586  0.0313
  171MPD1    C1 2657   0.131   4.406  15.248 -0.0791  0.6503  0.2411
  171MPD1    C2 2658   0.149   4.345  15.368  0.1006 -0.2385  0.4793
  171MPD1    C3 2659   0.094   4.394  15.487 -1.1014 -0.0905 -0.1384
  171MPD1    C4 2660   0.043   4.523  15.481  0.1459 -0.1555 -0.2796
  171MPD1    C5 2661   0.036   4.595  15.363  0.1011  0.1292  0.5471
  171MPD1     H 2662   0.180   4.241  15.365 -0.4023 -0.4010  0.9111
  171MPD1    H1 2663   0.007   4.574  15.569 -1.4056  0.9730 -1.5642
  171MPD1    H2 2664   0.080   4.601  15.155  1.4674  0.3288  0.0648
  171MPD1    H3 2665   4.735   4.696  15.361 -1.0008 -0.3113  0.7467
  171MPD1     N 2666   0.092   4.314  15.600  1.1064 -0.4809  0.0105
  171MPD1    H5 2667   0.134   4.222  15.598  0.3988 -0.7375 -2.1858
  171MPD1    N1 2668   0.174   4.347  15.128 -0.0885 -0.3022  0.0304
  171MPD1    H6 2669   0.173   4.247  15.146  3.5817 -0.1198  1.2388
  171MPD1    H7 2670   0.122   4.372  15.044 -2.3561  2.9021  2.3710
  172MPD1     C 2671   4.249   3.228  17.627 -0.7093 -0.1919  0.2159
  172MPD1    C1 2672   4.240   3.356  17.565  0.6793  0.1734 -0.3784
  172MPD1    C2 2673   4.216   3.469  17.647 -0.6889  0.3085  0.1025
  172MPD1    C3 2674   4.218   3.442   0.030  0.3901 -0.5784  0.1061
  172MPD1    C4 2675   4.226   3.318   0.083 -0.4647  0.5939  0.4959
  172MPD1    C5 2676   4.238   3.213   0.006 -0.5571 -1.0953 -0.2045
  172MPD1     H 2677   4.210   3.570  17.607 -0.1819  1.0761  1.9726
  172MPD1    H1 2678   4.214   3.310   0.191  0.7682 -0.2166  0.5845
  172MPD1    H2 2679   4.242   3.142  17.561  2.1267 -1.3539  1.4457
  172MPD1    H3 2680   4.230   3.115   0.054 -2.7150  0.4819  2.6797
  172MPD1     N 2681   4.222   3.549   0.124 -0.4434  0.1645 -0.4827
  172MPD1    H5 2682   4.242   3.528   0.221 -0.8243 -0.3823 -0.5264
  172MPD1    N1 2683   4.238   3.362  17.424 -0.6497  0.0034  0.6314
  172MPD1    H6 2684   4.220   3.459  17.399  0.8173 -0.0367 -0.5313
  172MPD1    H7 2685   4.332   3.339  17.393 -0.8729 -0.8697  0.5958
  173MPD1     C 2686   1.034   4.027  13.767  0.3562 -1.5737 -0.3824
  173MPD1    C1 2687   1.063   4.074  13.893  0.1695  0.0997  0.5496
  173MPD1    C2 2688   0.996   4.035  14.002  0.5911  0.0320  0.1666
  173MPD1    C3 2689   0.883   3.956  14.000  0.2183 -0.4403  0.3744
  173MPD1    C4 2690   0.846   3.917  13.869 -0.0871 -0.3130 -0.2002
  173MPD1    C5 2691   0.925   3.939  13.759  0.2944 -0.5403  0.3285
  173MPD1     H 2692   1.045   4.067  14.093  1.5540 -0.0827 -0.3141
  173MPD1    H1 2693   0.754   3.862  13.854 -0.2215  0.0572 -0.7439
  173MPD1    H2 2694   1.091   4.051  13.677 -1.6807 -1.2469 -1.5869
  173MPD1    H3 2695   0.899   3.887  13.668  0.4196 -1.2302  0.6862
  173MPD1     N 2696   0.823   3.918  14.119 -0.6409  0.4003  0.2813
  173MPD1    H5 2697   0.873   3.950  14.201  0.8022  0.4403 -0.6236
  173MPD1    N1 2698   1.187   4.143  13.907  0.5934  0.0794 -0.2641
  173MPD1    H6 2699   1.201   4.198  13.991 -1.9718  0.1623  0.1349
  173MPD1    H7 2700   1.218   4.189  13.822 -0.8606 -1.9157 -1.8694
  174MPD1     C 2701   1.134   3.334  14.881 -0.4228  0.7839  0.6088
  174MPD1    C1 2702   1.186   3.431  14.801  0.6530  0.1340  0.8591
  174MPD1    C2 2703   1.099   3.487  14.706  0.5722  0.1107 -0.9763
  174MPD1    C3 2704   0.972   3.445  14.689 -0.6459 -0.4793 -0.0361
  174MPD1    C4 2705   0.921   3.354  14.777 -0.3389  0.0631  0.5647
  174MPD1    C5 2706   1.004   3.299  14.869 -0.3406  0.6516  0.5807
  174MPD1     H 2707   1.148   3.549  14.632  1.6323  1.9651  1.2385
  174MPD1    H1 2708   0.815   3.330  14.768  0.1934 -1.0427 -2.6530
  174MPD1    H2 2709   1.197   3.285  14.954 -0.6386  1.9493  1.5928
  174MPD1    H3 2710   0.965   3.218  14.929 -0.7579  0.7865  0.4953
  174MPD1     N 2711   0.885   3.506  14.591  0.4752  0.5233 -0.4179
  174MPD1    H5 2712   0.793   3.462  14.590  0.7670 -0.1009  0.3858
  174MPD1    N1 2713   1.315   3.477  14.827 -0.3470  0.0179  0.0011
  174MPD1    H6 2714   1.340   3.568  14.790  0.7850  0.3170  1.4794
  174MPD1    H7 2715   1.350   3.454  14.920  0.0339 -2.0822 -0.6482
  175MPD1     C 2716   3.630   4.468  15.496 -0.4743 -0.2019  0.3287
  175MPD1    C1 2717   3.747   4.397  15.502  0.0515  0.3391 -0.2627
  175MPD1    C2 2718   3.788   4.367  15.630  0.0871  0.3193 -0.0593
  175MPD1    C3 2719   3.706   4.388  15.745  0.1348 -0.1142 -0.3948
  175MPD1    C4 2720   3.587   4.458  15.731  0.0687  0.1253 -0.3424
  175MPD1    C5 2721   3.556   4.496  15.607 -0.0909  0.4874 -0.4007
  175MPD1     H 2722   3.885   4.325  15.653  0.2037  1.5548  1.6751
  175MPD1    H1 2723   3.510   4.472  15.805  0.9440  1.2101  0.3592
  175MPD1    H2 2724   3.601   4.512  15.401 -2.7458  0.2950  1.2479
  175MPD1    H3 2725   3.467   4.559  15.600 -1.7339 -1.9454 -1.4819
  175MPD1     N 2726   3.738   4.350  15.875 -0.1149 -1.1625 -0.3818
  175MPD1    H5 2727   3.680   4.391  15.947  0.6475 -0.3952 -0.2045
  175MPD1    N1 2728   3.828   4.406  15.391 -0.5710  0.2715 -0.0175
  175MPD1    H6 2729   3.904   4.338  15.387 -1.1325 -0.3451 -0.1726
  175MPD1    H7 2730   3.781   4.393  15.301 -0.9061 -1.5682  0.4110
  176MPD1     C 2731   0.899   1.268  17.164  0.2324  0.8575  0.4085
  176MPD1    C1 2732   0.903   1.327  17.288 -0.6604  0.3400 -0.1282
  176MPD1    C2 2733   0.945   1.458  17.290  0.1142 -0.5416 -0.5340
  176MPD1    C3 2734   0.981   1.523  17.174 -0.4271 -0.1875  0.2631
  176MPD1    C4 2735   0.990   1.461  17.053 -0.0199 -0.4105  0.3714
  176MPD1    C5 2736   0.928   1.339  17.053 -0.2914 -0.0057  0.1900
  176MPD1     H 2737   0.953   1.509  17.385 -1.8457  0.3113 -0.8399
  176MPD1    H1 2738   1.018   1.509  16.960 -0.1992  1.9745  1.5449
  176MPD1    H2 2739   0.867   1.166  17.147  0.7386  0.6830  0.4904
  176MPD1    H3 2740   0.920   1.285  16.960  0.9949  0.7737 -0.3658
  176MPD1     N 2741   1.011   1.660  17.197 -0.1855 -0.3023  0.1736
  176MPD1    H5 2742   1.012   1.694  17.293 -0.4443  0.2149 -0.0058
  176MPD1    N1 2743   0.855   1.249  17.394  0.4166  0.0012 -0.9504
  176MPD1    H6 2744   0.901   1.259  17.485  1.4423  1.5155 -1.6283
  176MPD1    H7 2745   0.827   1.154  17.372 -0.3971  0.1852 -0.6966
  177MPD1     C 2746   3.454   2.086  10.395  0.3144 -0.1778 -0.5575
  177MPD1    C1 2747   3.489   2.179  10.302  1.1067 -0.2121  0.4028
  177MPD1    C2 2748   3.434   2.169  10.180 -0.6035 -0.2542  0.6032
  177MPD1    C3 2749   3.339   2.070  10.149 -0.4384  0.6966 -0.3370
  177MPD1    C4 2750   3.309   1.982  10.251  0.2872 -0.2602 -0.3038
  177MPD1    C5 2751   3.366   1.987  10.373  0.4611  0.0286  0.6073
  177MPD1     H 2752   3.451   2.244  10.104  0.6888 -1.2563 -0.0846
  177MPD1    H1 2753   3.222   1.919  10.240  0.9416 -0.7990 -2.3969
  177MPD1    H2 2754   3.496   2.078  10.495  0.5511  2.7516 -0.4214
  177MPD1    H3 2755   3.337   1.910  10.443 -2.4729  1.2465  0.7205
  177MPD1     N 2756   3.267   2.076  10.028  0.5067 -0.1390  0.0352
  177MPD1    H5 2757   3.275   2.156   9.966 -1.5992 -0.0349 -0.1141
  177MPD1    N1 2758   3.591   2.271  10.328  0.8543  0.3605 -0.0993
  177MPD1    H6 2759   3.583   2.352  10.268 -0.0672  0.4596  0.1600
  177MPD1    H7 2760   3.584   2.299  10.425  0.8609 -0.9009  0.2666
  178MPD1     C 2761   1.544   2.264   0.551 -0.0190  0.5398 -0.5714
  178MPD1    C1 2762   1.613   2.374   0.506  0.4914 -0.4777  0.3004
  178MPD1    C2 2763   1.632   2.373   0.368 -0.1191 -0.0751 -0.7764
  178MPD1    C3 2764   1.576   2.293   0.268  0.0146 -0.5442 -0.7921
  178MPD1    C4 2765   1.501   2.197   0.324  0.3926  0.0057  0.4281
  178MPD1    C5 2766   1.491   2.178   0.457  0.4002 -0.4097 -0.8578
  178MPD1     H 2767   1.707   2.446   0.338 -0.9340  1.0038 -0.1760
  178MPD1    H1 2768   1.454   2.120   0.264  1.0307  0.7472 -1.0128
  178MPD1    H2 2769   1.526   2.237   0.655  1.0082  1.9247 -0.0386
  178MPD1    H3 2770   1.429   2.095   0.489  1.1486 -0.2971  0.9255
  178MPD1     N 2771   1.588   2.302   0.128  0.4050  0.3591 -0.0535
  178MPD1    H5 2772   1.530   2.233   0.081  0.9060 -1.3156  1.8167
  178MPD1    N1 2773   1.684   2.460   0.589  0.0503 -0.8737 -0.5102
  178MPD1    H6 2774   1.635   2.479   0.676  0.5560  1.0749 -0.6369
  178MPD1    H7 2775   1.677   2.553   0.547  1.3694 -0.8285 -0.6350
  179MPD1     C 2776   0.602   1.092  15.462  0.0757  0.5003 -0.1553
  179MPD1    C1 2777   0.625   1.075  15.595 -0.0119  0.4410  0.1658
  179MPD1    C2 2778   0.659   0.950  15.644  0.3954 -0.2827 -0.1609
  179MPD1    C3 2779   0.705   0.850  15.563 -0.2678  0.4721  0.2432
  179MPD1    C4 2780   0.695   0.876  15.425 -0.6200 -0.6572  0.0594
  179MPD1    C5 2781   0.644   0.998  15.379 -0.4899  0.4310  0.8802
  179MPD1     H 2782   0.676   0.949  15.752 -0.3948 -0.0894 -0.0362
  179MPD1    H1 2783   0.719   0.801  15.351 -0.5468 -0.8007  0.2298
  179MPD1    H2 2784   0.572   1.187  15.419 -0.1320  0.7027  0.4383
  179MPD1    H3 2785   0.631   1.006  15.272 -1.2024  1.0863  1.0182
  179MPD1     N 2786   0.752   0.725  15.608  0.1644 -0.0433  0.4773
  179MPD1    H5 2787   0.766   0.654  15.536 -1.5442  0.9280 -0.8100
  179MPD1    N1 2788   0.591   1.174  15.687  0.1911 -0.2892  0.2344
  179MPD1    H6 2789   0.646   1.167  15.772  0.0935 -0.2715  0.2994
  179MPD1    H7 2790   0.612   1.264  15.643 -1.8749 -0.1341 -0.4369
  180MPD1     C 2791   1.336   2.169  15.160  0.3491 -0.0721  0.3647
  180MPD1    C1 2792   1.371   2.252  15.050  0.4216  1.0435  0.7334
  180MPD1    C2 2793   1.270   2.303  14.973  0.4176 -0.4419  0.4169
  180MPD1    C3 2794   1.138   2.263  14.986  0.7630  0.6309 -0.7317
  180MPD1    C4 2795   1.105   2.168  15.080 -0.6707  0.7291  0.0422
  180MPD1    C5 2796   1.206   2.125  15.166  0.1261  0.5435 -0.0791
  180MPD1     H 2797   1.290   2.378  14.898  2.9064  0.8909  2.4417
  180MPD1    H1 2798   1.004   2.131  15.090 -0.9077  0.8796 -1.7647
  180MPD1    H2 2799   1.400   2.146  15.244  3.5474  1.5105 -1.6376
  180MPD1    H3 2800   1.176   2.064  15.250  0.3976  0.2037 -0.2298
  180MPD1     N 2801   1.040   2.320  14.888 -0.0218  0.3552  0.3160
  180MPD1    H5 2802   1.078   2.399  14.838  0.7801 -0.7062 -0.7633
  180MPD1    N1 2803   1.499   2.309  15.049  0.2244  0.5819 -0.2297
  180MPD1    H6 2804   1.521   2.342  14.955 -0.6465  0.5439 -0.4491
  180MPD1    H7 2805   1.572   2.246  15.081  0.4711 -0.4994 -2.8669
  181MPD1     C 2806   2.366   0.496   9.644 -0.3860 -0.8397  0.3733
  181MPD1    C1 2807   2.345   0.395   9.554  0.0317 -0.2138 -0.2196
  181MPD1    C2 2808   2.347   0.263   9.605  0.4681 -0.2373 -0.6171
  181MPD1    C3 2809   2.349   0.236   9.740 -0.5040 -0.1417 -0.5478
  181MPD1    C4 2810   2.350   0.339   9.829  0.0461  0.2986 -0.0581
  181MPD1    C5 2811   2.365   0.473   9.780  0.2332  0.4915  0.2408
  181MPD1     H 2812   2.347   0.179   9.537  2.3107  0.9817 -2.1064
  181MPD1    H1 2813   2.318   0.330   9.932  1.2574 -1.0513  0.1960
  181MPD1    H2 2814   2.388   0.597   9.613  0.1529 -0.6629  1.3496
  181MPD1    H3 2815   2.372   0.559   9.846  0.0421  0.0418  0.8453
  181MPD1     N 2816   2.305   0.111   9.799 -0.0207 -0.1494  0.0018
  181MPD1    H5 2817   2.294   0.098   9.899  0.2316  2.0807  0.3191
  181MPD1    N1 2818   2.354   0.413   9.419 -0.1054  0.1628  0.1271
  181MPD1    H6 2819   2.299   0.345   9.368 -0.6759 -1.0901  2.3919
  181MPD1    H7 2820   2.327   0.509   9.395  0.4523  0.9849  2.7783
  182MPD1     C 2821   3.463   2.904   1.446 -0.0008 -0.5789  0.4303
  182MPD1    C1 2822   3.494   2.825   1.336  0.4263 -0.0502  0.3854
  182MPD1    C2 2823   3.405   2.796   1.236 -0.4443  0.0147 -0.0806
  182MPD1    C3 2824   3.276   2.839   1.238 -0.1987  0.0101 -0.0640
  182MPD1    C4 2825   3.240   2.913   1.351  0.0825 -0.0567 -0.9968
  182MPD1    C5 2826   3.332   2.940   1.455 -0.4574 -0.0244  0.3329
  182MPD1     H 2827   3.439   2.718   1.168 -1.6941  0.3681 -1.1205
  182MPD1    H1 2828   3.135   2.938   1.358  0.3749  0.5353  1.0365
  182MPD1    H2 2829   3.528   2.927   1.530 -1.5798 -2.5730  2.2126
  182MPD1    H3 2830   3.297   2.998   1.539  0.6370  1.7071 -0.4154
  182MPD1     N 2831   3.183   2.822   1.128 -0.3865  0.9296  0.7979
  182MPD1    H5 2832   3.093   2.869   1.129 -0.2241  1.1443  4.4902
  182MPD1    N1 2833   3.626   2.783   1.321  0.5004 -0.8918 -0.2004
  182MPD1    H6 2834   3.668   2.757   1.410 -0.4447  1.8662  1.0294
  182MPD1    H7 2835   3.640   2.703   1.259 -1.2871 -0.6270 -0.9513
  183MPD1     C 2836   3.942   4.458   9.328  0.5022 -0.6927  0.0326
  183MPD1    C1 2837   3.855   4.551   9.384 -0.3122  0.7448 -0.4034
  183MPD1    C2 2838   3.757   4.499   9.472 -0.2874 -0.6496 -0.7363
  183MPD1    C3 2839   3.739   4.365   9.485  0.1861  0.4418  0.1969
  183MPD1    C4 2840   3.816   4.274   9.413 -0.6597  0.7171 -0.1787
  183MPD1    C5 2841   3.912   4.323   9.331 -0.2830 -0.2116  0.1683
  183MPD1     H 2842   3.698   4.572   9.528 -1.3809 -1.5152 -0.7726
  183MPD1    H1 2843   3.791   4.169   9.414  1.7660  0.1552  1.7374
  183MPD1    H2 2844   4.020   4.489   9.259  0.1038 -1.1240 -0.6121
  183MPD1    H3 2845   3.982   4.267   9.271 -0.5865 -1.3285  0.8501
  183MPD1     N 2846   3.639   4.323   9.576 -0.0670  0.4974  0.5825
  183MPD1    H5 2847   3.603   4.388   9.645 -1.2982  0.8861 -0.4193
  183MPD1    N1 2848   3.887   4.690   9.379 -0.4313  0.0642  0.3784
  183MPD1    H6 2849   3.943   4.715   9.298 -0.8029  0.3715  0.2171
  183MPD1    H7 2850   3.799   0.001   9.387  1.4412  3.1812  0.8065
  184MPD1     C 2851   2.255   2.034  10.575 -0.3825 -0.4783  0.4330
  184MPD1    C1 2852   2.165   1.961  10.508  0.3162 -0.6713 -0.4426
  184MPD1    C2 2853   2.154   1.995  10.377  0.1115  0.2048  0.9252
  184MPD1    C3 2854   2.248   2.074  10.311 -0.0732  0.1050 -1.1932
  184MPD1    C4 2855   2.339   2.137  10.392  0.6112 -0.7457  0.7654
  184MPD1    C5 2856   2.346   2.117  10.522 -0.3295 -0.3751  0.5884
  184MPD1     H 2857   2.078   1.942  10.322  1.1899 -1.2524  0.8351
  184MPD1    H1 2858   2.418   2.197  10.349  0.7111 -1.9084 -0.6823
  184MPD1    H2 2859   2.262   2.026  10.682 -3.0089 -0.5925  0.6051
  184MPD1    H3 2860   2.423   2.169  10.578 -1.8496  1.8207  0.6290
  184MPD1     N 2861   2.259   2.093  10.170  0.3182 -0.5415 -0.0359
  184MPD1    H5 2862   2.341   2.145  10.139  1.6858 -1.6072  1.7996
  184MPD1    N1 2863   2.070   1.890  10.578 -0.1856 -0.5938  0.8885
  184MPD1    H6 2864   2.026   1.813  10.528 -0.1320  0.4497 -0.7808
  184MPD1    H7 2865   2.098   1.861  10.671  1.4705  1.1664  0.9440
  185MPD1     C 2866   1.963   1.986   9.134  0.2467 -0.0510  0.2338
  185MPD1    C1 2867   1.890   1.957   9.252  0.4243 -0.3927  0.6242
  185MPD1    C2 2868   1.942   1.999   9.376  0.3482 -0.1048 -0.1090
  185MPD1    C3 2869   2.071   2.058   9.388  0.8766  0.1877 -0.0366
  185MPD1    C4 2870   2.142   2.069   9.272  0.5816 -0.4140 -0.2717
  185MPD1    C5 2871   2.088   2.043   9.145 -0.3270 -0.5097  0.2240
  185MPD1     H 2872   1.871   1.993   9.458  0.3586  2.5079  0.0843
  185MPD1    H1 2873   2.244   2.106   9.281  0.7965 -0.5834 -1.9350
  185MPD1    H2 2874   1.926   1.954   9.038  1.3553  1.5098 -0.7104
  185MPD1    H3 2875   2.141   2.067   9.053  0.6110 -0.2799  0.8316
  185MPD1     N 2876   2.137   2.079   9.508  0.3210 -0.1018 -0.8878
  185MPD1    H5 2877   2.236   2.102   9.504 -0.0653  1.3337 -2.5021
  185MPD1    N1 2878   1.762   1.903   9.249 -0.5211  0.1539  0.9620
  185MPD1    H6 2879   1.734   1.861   9.338  0.3858 -0.3075  1.0245
  185MPD1    H7 2880   1.767   1.821   9.189 -0.0043  0.4819  0.5565
  186MPD1     C 2881   0.533   1.498  16.064  0.8159  0.2324  0.1051
  186MPD1    C1 2882   0.595   1.544  16.178 -0.8508  0.2878  0.9147
  186MPD1    C2 2883   0.715   1.491  16.210  0.0542 -0.3960 -0.1639
  186MPD1    C3 2884   0.754   1.376  16.149 -0.7133 -0.6008  0.6230
  186MPD1    C4 2885   0.689   1.323  16.043  0.0481 -0.7545  0.5774
  186MPD1    C5 2886   0.580   1.384  15.998  0.3490 -0.0809 -0.5734
  186MPD1     H 2887   0.764   1.539  16.294  1.5013  1.6095 -2.1739
  186MPD1    H1 2888   0.719   1.230  15.996 -0.4039 -0.5502 -0.1146
  186MPD1    H2 2889   0.450   1.547  16.013  0.6346 -0.7658 -0.5398
  186MPD1    H3 2890   0.546   1.354  15.900  1.4125 -2.3121 -0.2683
  186MPD1     N 2891   0.873   1.314  16.193 -0.5339  0.0211 -0.0849
  186MPD1    H5 2892   0.906   1.245  16.126 -0.7551 -0.7716  0.6174
  186MPD1    N1 2893   0.552   1.658  16.241 -0.3747  0.3037 -0.1707
  186MPD1    H6 2894   0.586   1.655  16.337  1.6237 -3.2938 -1.0117
  186MPD1    H7 2895   0.451   1.669  16.239 -0.2519  1.1532 -1.7601
  187MPD1     C 2896   1.307   2.418   0.106  0.3359  0.6276  0.0793
  187MPD1    C1 2897   1.234   2.341   0.023  0.5516 -0.4089  0.4653
  187MPD1    C2 2898   1.203   2.399  17.656  0.2756 -0.1381  0.5448
  187MPD1    C3 2899   1.231   2.531  17.616  0.0579 -0.1998 -0.1744
  187MPD1    C4 2900   1.298   2.602  17.710 -0.0053 -0.2019 -0.8508
  187MPD1    C5 2901   1.334   2.544   0.070 -0.0451  0.2032 -0.2353
  187MPD1     H 2902   1.155   2.338  17.581 -4.0934  2.6941  1.0659
  187MPD1    H1 2903   1.331   2.705  17.706 -0.5974 -0.0110 -0.8442
  187MPD1    H2 2904   1.332   2.388   0.207  1.2808  1.2841  0.0466
  187MPD1    H3 2905   1.391   2.609   0.136  1.9107 -1.4022 -0.3197
  187MPD1     N 2906   1.185   2.596  17.502  0.1581 -0.4798 -0.1456
  187MPD1    H5 2907   1.209   2.693  17.483  0.1535 -0.5356 -0.4444
  187MPD1    N1 2908   1.221   2.205   0.054  0.6588 -0.0094 -0.3625
  187MPD1    H6 2909   1.149   2.167  17.749  1.5948 -1.3622 -0.6016
  187MPD1    H7 2910   1.182   2.198   0.148 -2.2861 -2.3884 -1.7870
  188MPD1     C 2911   4.094   2.732  10.590  0.7433 -0.0875 -0.4803
  188MPD1    C1 2912   4.055   2.692  10.465  0.3670  0.2857  1.0084
  188MPD1    C2 2913   4.148   2.669  10.367  0.1381 -0.0203 -0.4871
  188MPD1    C3 2914   4.280   2.709  10.387 -0.2934  0.0240  0.7921
  188MPD1    C4 2915   4.314   2.758  10.515  0.1391  0.2489 -0.7893
  188MPD1    C5 2916   4.216   2.773  10.614 -0.3825  0.0824  0.3993
  188MPD1     H 2917   4.123   2.624  10.271 -3.2968 -0.2415  0.5054
  188MPD1    H1 2918   4.412   2.802  10.527 -0.1459  1.0231 -1.3145
  188MPD1    H2 2919   4.023   2.750  10.671  0.7371  3.6755 -1.3208
  188MPD1    H3 2920   4.242   2.807  10.713 -0.0426 -0.7207  0.5857
  188MPD1     N 2921   4.386   2.690  10.294 -0.4405 -0.0886 -0.0686
  188MPD1    H5 2922   4.480   2.703  10.330 -0.1403 -3.7709  0.4999
  188MPD1    N1 2923   3.918   2.654  10.448 -1.1192  0.4378  0.5629
  188MPD1    H6 2924   3.852   2.686  10.519 -1.1014  2.9059 -0.5325
  188MPD1    H7 2925   3.887   2.664  10.352  1.0740  3.0711  0.1380
  189MPD1     C 2926   2.360   3.204   0.283 -1.1868  0.3174  0.2127
  189MPD1    C1 2927   2.239   3.197   0.217 -0.0461  0.4070 -0.3554
  189MPD1    C2 2928   2.159   3.304   0.226 -1.0136  0.1167  0.1497
  189MPD1    C3 2929   2.196   3.421   0.301 -0.4002 -0.3822  0.4630
  189MPD1    C4 2930   2.320   3.424   0.369  0.3576  0.6541  0.1561
  189MPD1    C5 2931   2.402   3.316   0.354  0.3870  0.2745  0.1357
  189MPD1     H 2932   2.060   3.311   0.183 -1.4931  0.3577  1.2706
  189MPD1    H1 2933   2.365   3.507   0.421 -0.8211  0.7553  1.0091
  189MPD1    H2 2934   2.419   3.114   0.280 -0.2488  1.0361 -3.0678
  189MPD1    H3 2935   2.500   3.323   0.399 -0.6791  1.3860  2.2908
  189MPD1     N 2936   2.102   3.526   0.299 -0.0342 -0.1517 -0.3125
  189MPD1    H5 2937   2.015   3.510   0.250 -0.7375  2.6546  0.0196
  189MPD1    N1 2938   2.188   3.074   0.174 -0.3716 -0.4955  0.9535
  189MPD1    H6 2939   2.260   3.024   0.123 -2.6904 -1.2688 -1.6007
  189MPD1    H7 2940   2.117   3.087   0.102 -1.6000 -1.0316  2.0616
  190MPD1     C 2941   0.941   1.717  14.756 -0.8091 -0.5950  1.0326
  190MPD1    C1 2942   0.983   1.835  14.808 -0.2920  0.3377  0.6194
  190MPD1    C2 2943   1.070   1.835  14.905  0.2797  0.0923 -0.0762
  190MPD1    C3 2944   1.102   1.717  14.971  0.9620 -0.1156 -0.4066
  190MPD1    C4 2945   1.056   1.593  14.920  0.1370  0.4376  0.5193
  190MPD1    C5 2946   0.983   1.597  14.804  0.4828  0.5503 -0.6568
  190MPD1     H 2947   1.119   1.926  14.937 -0.5464 -0.8186  3.8710
  190MPD1    H1 2948   1.085   1.496  14.961 -0.4807  0.1728  0.3355
  190MPD1    H2 2949   0.876   1.716  14.669 -0.5958  0.4994  0.8676
  190MPD1    H3 2950   0.942   1.511  14.753 -1.7967  1.3271 -0.1115
  190MPD1     N 2951   1.180   1.730  15.087  0.1143  0.3626  0.6384
  190MPD1    H5 2952   1.188   1.824  15.125  2.2739  0.4927 -0.1215
  190MPD1    N1 2953   0.948   1.952  14.740 -0.1620 -0.5066  0.1521
  190MPD1    H6 2954   0.861   1.943  14.687  0.2453 -0.5786 -0.5012
  190MPD1    H7 2955   0.930   2.025  14.810 -0.2008  0.2715 -0.6645
  191MPD1     C 2956   4.507   0.287  13.141  0.6123  0.0297  0.5239
  191MPD1    C1 2957   4.487   0.341  13.015 -0.1961  0.7320  0.4591
  191MPD1    C2 2958   4.573   0.306  12.914 -0.1972  0.1000  0.3723
  191MPD1    C3 2959   4.662   0.208  12.937 -0.6116  0.0683 -0.1285
  191MPD1    C4 2960   4.678   0.154  13.059 -0.3920 -0.1382 -0.1973
  191MPD1    C5 2961   4.604   0.201  13.166  0.6124  0.1206 -1.0281
  191MPD1     H 2962   4.571   0.349  12.815  1.7770 -0.2108  0.1988
  191MPD1    H1 2963   0.010   0.075  13.079 -0.7690  0.0672  2.0258
  191MPD1    H2 2964   4.444   0.318  13.224  0.0910  1.6835 -0.4696
  191MPD1    H3 2965   4.630   0.159  13.262 -3.0156 -2.4555 -1.1624
  191MPD1     N 2966   4.734   0.168  12.828  0.1248 -0.0350  0.0861
  191MPD1    H5 2967   4.701   0.206  12.740 -1.3250 -0.5620  0.4038
  191MPD1    N1 2968   4.403   0.451  12.997  0.6072  0.2093 -0.1473
  191MPD1    H6 2969   4.351   0.453  12.909  1.2675  0.3740 -0.5308
  191MPD1    H7 2970   4.328   0.438  13.065 -0.9948  0.1245 -1.9244
  192MPD1     C 2971   0.046   0.144  11.836  0.9048  0.0620  0.1565
  192MPD1    C1 2972   0.045   0.244  11.931 -0.8645  0.1946 -0.5964
  192MPD1    C2 2973   0.075   0.218  12.066  0.2775  0.4781 -0.3172
  192MPD1    C3 2974   0.116   0.087  12.095 -0.2797 -0.2112  1.0002
  192MPD1    C4 2975   0.117   4.724  12.000 -0.0387  0.0613  1.1051
  192MPD1    C5 2976   0.086   0.021  11.869  0.1048  0.3443 -0.1439
  192MPD1     H 2977   0.059   0.295  12.141  0.1154 -0.7777  0.9532
  192MPD1    H1 2978   0.152   4.622  12.017 -1.7280 -0.6533  0.2806
  192MPD1    H2 2979   0.022   0.164  11.732  0.6282  1.3630  0.4682
  192MPD1    H3 2980   0.091   4.688  11.788 -2.3024 -2.0854  1.8729
  192MPD1     N 2981   0.157   0.050  12.224  0.2344  0.3241  0.0612
  192MPD1    H5 2982   0.186   4.693  12.238 -2.3167 -0.4015  0.2137
  192MPD1    N1 2983   4.738   0.369  11.899 -0.5381 -0.1612 -0.1508
  192MPD1    H6 2984   0.010   0.404  11.803 -0.8831  1.8426  0.5283
  192MPD1    H7 2985   0.014   0.441  11.969  0.9389 -0.4716 -0.1592
  193MPD1     C 2986   4.622   4.047  16.247 -0.1050  0.3409 -0.0934
  193MPD1    C1 2987   0.006   3.986  16.268 -0.1484 -0.1251 -0.1594
  193MPD1    C2 2988   0.102   4.071  16.321 -0.0422 -0.5901 -0.3597
  193MPD1    C3 2989   0.087   4.201  16.363  0.2677 -0.4067 -0.2559
  193MPD1    C4 2990   4.698   4.251  16.349  0.8091 -0.8722  0.6385
  193MPD1    C5 2991   4.602   4.183  16.289 -0.0046  0.6719 -0.3800
  193MPD1     H 2992   0.205   4.038  16.327 -0.0521 -0.9343 -2.1821
  193MPD1    H1 2993   4.666   4.347  16.387 -0.1903 -0.5377 -1.0570
  193MPD1    H2 2994   4.540   3.989  16.205 -0.4314  0.2013  0.7495
  193MPD1    H3 2995   4.503   4.224  16.270  0.4294  1.8534 -0.0612
  193MPD1     N 2996   0.185   4.281  16.429 -0.1036 -0.5641  0.0676
  193MPD1    H5 2997   0.151   4.374  16.452  1.6570 -0.1023  0.8055
  193MPD1    N1 2998   0.030   3.850  16.240  0.9663  0.2068 -0.2094
  193MPD1    H6 2999   4.704   3.791  16.291 -1.1436  1.8970 -0.9811
  193MPD1    H7 3000   0.122   3.829  16.279 -0.4823 -1.9776  2.0232
  194MPD1     C 3001   1.842   0.582  16.907 -0.0478  0.1388 -0.8113
  194MPD1    C1 3002   1.878   0.684  16.996  0.5435  0.5606 -0.2857
  194MPD1    C2 3003   2.012   0.706  17.010  0.1189 -0.8540 -0.0331
  194MPD1    C3 3004   2.112   0.636  16.946  0.5385  0.3447 -0.5041
  194MPD1    C4 3005   2.076   0.544  16.854 -0.5974 -0.2086  0.0419
  194MPD1    C5 3006   1.942   0.520  16.832 -0.0499  0.2394  1.0254
  194MPD1     H 3007   2.030   0.769  17.096 -0.4684  1.1543 -1.3997
  194MPD1    H1 3008   2.143   0.493  16.786  0.0022  0.8039 -0.1241
  194MPD1    H2 3009   1.739   0.550  16.897 -0.9537  2.0710  2.4802
  194MPD1    H3 3010   1.914   0.448  16.756  1.2496  1.2238 -0.3859
  194MPD1     N 3011   2.246   0.649  16.986  0.1688 -0.5160  0.4572
  194MPD1    H5 3012   2.312   0.604  16.923 -0.2617 -2.3047  1.2675
  194MPD1    N1 3013   1.783   0.728  17.089  0.4958 -0.3166  0.4226
  194MPD1    H6 3014   1.687   0.724  17.054  0.1085  2.0111  1.2457
  194MPD1    H7 3015   1.806   0.819  17.128 -0.9922 -0.2754  1.2059
  195MPD1     C 3016   0.498   3.216  17.496  0.2402  0.1519  0.1580
  195MPD1    C1 3017   0.431   3.111  17.424  0.1248  0.1095 -0.1319
  195MPD1    C2 3018   0.415   2.985  17.488 -0.4799  0.8522  0.6764
  195MPD1    C3 3019   0.463   2.970  17.621  0.4440 -0.1131  0.3741
  195MPD1    C4 3020   0.531   3.069  17.681 -0.5871 -0.4737 -0.0203
  195MPD1    C5 3021   0.556   3.188  17.619 -0.9260 -0.5781 -0.3409
  195MPD1     H 3022   0.362   2.910  17.431 -0.3784  1.0976  0.2638
  195MPD1    H1 3023   0.578   3.060   0.023 -0.6911  0.6213  0.1386
  195MPD1    H2 3024   0.514   3.314  17.452  1.8350 -0.3883 -0.4789
  195MPD1    H3 3025   0.618   3.254  17.678 -0.9923 -1.2662  0.5006
  195MPD1     N 3026   0.443   2.853  17.696 -0.3282  0.3312  0.7143
  195MPD1    H5 3027   0.485   2.861   0.033 -0.5920  1.0438  0.7726
  195MPD1    N1 3028   0.375   3.132  17.296 -0.2215  0.9763  0.1909
  195MPD1    H6 3029   0.426   3.201  17.242 -1.5944  0.4338 -1.7848
  195MPD1    H7 3030   0.366   3.046  17.242  1.6955 -1.5154  3.8581
  196MPD1     C 3031   3.741   2.944  17.420  0.0761 -0.6358 -0.7209
  196MPD1    C1 3032   3.702   3.034  17.511 -0.5084 -0.3729 -0.2745
  196MPD1    C2 3033   3.762   3.035  17.632 -0.2004 -0.3115 -0.1689
  196MPD1    C3 3034   3.858   2.942  17.668  0.1830 -0.0708  0.4448
  196MPD1    C4 3035   3.920   2.860  17.566 -0.0928  0.0480 -0.6103
  196MPD1    C5 3036   3.853   2.866  17.445 -0.2222  0.4285  0.0075
  196MPD1     H 3037   3.734   3.114  17.700 -3.2349 -0.7516 -0.9135
  196MPD1    H1 3038   4.008   2.800  17.584  0.3145  0.2872 -1.8318
  196MPD1    H2 3039   3.691   2.945  17.323 -2.4622  0.8213  0.6099
  196MPD1    H3 3040   3.878   2.797  17.365  4.3035  0.6610  1.2363
  196MPD1     N 3041   3.918   2.945   0.042 -0.2662 -0.0322  0.1456
  196MPD1    H5 3042   4.007   2.896   0.053 -1.1990 -1.8948 -0.7462
  196MPD1    N1 3043   3.607   3.125  17.475 -0.0886  0.0940  0.2314
  196MPD1    H6 3044   3.539   3.085  17.410  0.3628  0.4136 -0.4323
  196MPD1    H7 3045   3.557   3.155  17.559  0.4206  1.8593 -0.1028
  197MPD1     C 3046   3.891   3.872  17.461  0.0059  0.0195  0.0143
  197MPD1    C1 3047   3.973   3.972  17.512  0.2787  0.0424 -0.2614
  197MPD1    C2 3048   3.991   4.087  17.436 -0.5650  0.2685  0.4554
  197MPD1    C3 3049   3.929   4.113  17.315  0.5809 -0.2475 -0.5190
  197MPD1    C4 3050   3.868   4.003  17.259  1.3844 -0.7889  0.2687
  197MPD1    C5 3051   3.849   3.888  17.334 -0.0968  0.6553 -0.1678
  197MPD1     H 3052   4.043   4.165  17.491 -0.4064  0.2820  0.2882
  197MPD1    H1 3053   3.844   4.007  17.154  0.4235 -1.1835  0.4674
  197MPD1    H2 3054   3.883   3.773  17.505 -1.7989  0.2290  0.1571
  197MPD1    H3 3055   3.817   3.795  17.290  1.8763  0.0810 -0.3894
  197MPD1     N 3056   3.940   4.232  17.242  0.0425  0.1567 -0.4710
  197MPD1    H5 3057   3.889   4.225  17.155  0.6319 -2.4438 -0.6055
  197MPD1    N1 3058   4.015   3.968  17.650 -0.2695  0.0980 -0.1960
  197MPD1    H6 3059   4.107   4.009  17.666 -0.7394  0.3677  1.8163
  197MPD1    H7 3060   4.029   3.870  17.676  2.1510  0.0426 -1.6407
  198MPD1     C 3061   0.744   2.927  14.949  0.2543  0.6463  0.6169
  198MPD1    C1 3062   0.879   2.922  14.945 -0.1512  0.2951 -0.3534
  198MPD1    C2 3063   0.940   2.960  15.064 -0.9661  0.0725 -0.3631
  198MPD1    C3 3064   0.875   3.008  15.177  0.5735 -0.7290 -0.8129
  198MPD1    C4 3065   0.734   3.008  15.173  0.8917  0.3197  0.1298
  198MPD1    C5 3066   0.678   2.969  15.055 -0.4844  0.4560 -0.3295
  198MPD1     H 3067   1.048   2.945  15.073 -1.2579 -2.1251 -0.3904
  198MPD1    H1 3068   0.673   3.037  15.258  1.3522  0.8398  0.2914
  198MPD1    H2 3069   0.679   2.900  14.866  0.7768 -0.9110  0.7154
  198MPD1    H3 3070   0.572   2.971  15.032  0.1197  0.6043 -3.0828
  198MPD1     N 3071   0.963   3.051  15.278 -0.0799 -0.1819  0.1188
  198MPD1    H5 3072   1.062   3.044  15.256  0.2993 -0.6099  1.9486
  198MPD1    N1 3073   0.948   2.854  14.843  0.0060  0.0127  0.2105
  198MPD1    H6 3074   0.957   2.756  14.868 -1.3594 -0.9840 -3.1080
  198MPD1    H7 3075   1.041   2.893  14.836 -0.4168  1.3783  2.1518
  199MPD1     C 3076   2.693   0.585  10.779 -0.3200  0.5873  0.4176
  199MPD1    C1 3077   2.574   0.633  10.821 -0.3917  0.7292 -0.1347
  199MPD1    C2 3078   2.463   0.604  10.746  0.0438  0.5750  0.3307
  199MPD1    C3 3079   2.477   0.551  10.620  0.3066 -0.1064  0.3912
  199MPD1    C4 3080   2.590   0.498  10.572 -0.1335 -0.2806 -0.4038
  199MPD1    C5 3081   2.699   0.520  10.660 -0.6291 -0.1206  0.4262
  199MPD1     H 3082   2.367   0.632  10.788  0.0648  0.3450  0.5321
  199MPD1    H1 3083   2.603   0.457  10.472 -0.9318  2.2318 -1.5333
  199MPD1    H2 3084   2.783   0.599  10.839  0.3621  1.2502 -0.7505
  199MPD1    H3 3085   2.795   0.479  10.629 -1.4581 -0.9067 -1.1246
  199MPD1     N 3086   2.349   0.543  10.550  0.0991  0.6510 -0.3534
  199MPD1    H5 3087   2.265   0.557  10.605  1.2202  1.5409  1.1368
  199MPD1    N1 3088   2.556   0.671  10.957  0.0073 -0.1849  0.3683
  199MPD1    H6 3089   2.645   0.706  10.993  0.0576 -0.3513  0.4022
  199MPD1    H7 3090   2.482   0.741  10.960 -0.5974 -0.7768 -0.7668
  200MPD1     C 3091   1.948   4.127  15.124  0.3024 -0.7633  0.2220
  200MPD1    C1 3092   1.886   4.240  15.082 -0.4838  0.7302 -0.4139
  200MPD1    C2 3093   1.967   4.347  15.051  0.6266  0.5031  0.8201
  200MPD1    C3 3094   2.103   4.333  15.042 -0.5312 -0.4975  0.1762
  200MPD1    C4 3095   2.159   4.209  15.076 -0.2262  0.6727  0.1378
  200MPD1    C5 3096   2.081   4.108  15.119  0.4643  0.2558 -0.4703
  200MPD1     H 3097   1.923   4.441  15.021 -1.0659 -0.4460  0.3777
  200MPD1    H1 3098   2.267   4.196  15.077  0.1845  4.1441  1.1773
  200MPD1    H2 3099   1.905   4.033  15.157  1.4332 -0.8076  1.5696
  200MPD1    H3 3100   2.130   4.018  15.154 -0.9373  0.6245  2.4287
  200MPD1     N 3101   2.182   4.441  14.991 -0.3470 -0.5233  0.3785
  200MPD1    H5 3102   2.130   4.527  14.973  0.3630  0.3597  2.4959
  200MPD1    N1 3103   1.751   4.255  15.100  0.0048  0.2514  0.5665
  200MPD1    H6 3104   1.712   4.322  15.033 -1.7453 -1.2139  0.1489
  200MPD1    H7 3105   1.707   4.164  15.095  0.3919 -0.0246  2.2441
  201MPD1     C 3106   4.217   3.930  13.691  0.3644 -0.0742  0.0504
  201MPD1    C1 3107   4.128   3.853  13.609 -0.4756  0.1126  0.1679
  201MPD1    C2 3108   4.167   3.726  13.568  0.3333  0.2174  0.2347
  201MPD1    C3 3109   4.292   3.679  13.599 -0.4106 -0.3976 -0.0962
  201MPD1    C4 3110   4.388   3.759  13.664 -0.2784 -0.1981  0.2565
  201MPD1    C5 3111   4.349   3.881  13.710 -0.0365 -0.0956 -0.1938
  201MPD1     H 3112   4.111   3.654  13.509  0.1068 -0.2511  1.0295
  201MPD1    H1 3113   4.485   3.718  13.689 -0.6460 -1.4360 -0.3846
  201MPD1    H2 3114   4.198   4.030  13.729 -1.9481  0.4236 -2.4180
  201MPD1    H3 3115   4.420   3.949  13.755 -1.2223  0.4189  0.9016
  201MPD1     N 3116   4.327   3.551  13.546  1.4464  0.7668 -0.2207
  201MPD1    H5 3117   4.256   3.507  13.489  1.8185 -2.3593  1.7412
  201MPD1    N1 3118   3.993   3.892  13.598  0.6055  0.4664  0.0154
  201MPD1    H6 3119   3.940   3.826  13.654 -1.6231  1.0452 -1.3889
  201MPD1    H7 3120   3.986   3.986  13.638 -0.8733  0.8457 -1.1329
  202MPD1     C 3121   3.721   3.038   8.759 -0.7764 -0.0977  0.6997
  202MPD1    C1 3122   3.619   3.117   8.812 -0.5887  0.4353 -0.6294
  202MPD1    C2 3123   3.617   3.111   8.948 -0.4738  0.7441 -1.1056
  202MPD1    C3 3124   3.725   3.083   9.022 -0.5413 -0.9380  0.1013
  202MPD1    C4 3125   3.846   3.040   8.958 -0.0989 -0.3076 -0.3649
  202MPD1    C5 3126   3.830   3.005   8.829  0.0669  0.5243  0.4641
  202MPD1     H 3127   3.520   3.137   8.989 -0.7087 -0.4434 -0.8916
  202MPD1    H1 3128   3.940   3.016   9.006  0.2937 -2.6260 -2.3031
  202MPD1    H2 3129   3.719   3.010   8.654 -1.7527  0.8271  0.4684
  202MPD1    H3 3130   3.908   2.957   8.771 -0.6241  0.2671 -0.2598
  202MPD1     N 3131   3.729   3.105   9.166  0.1025 -0.3166 -0.4236
  202MPD1    H5 3132   3.819   3.089   9.210 -0.1951  2.4650  1.2005
  202MPD1    N1 3133   3.500   3.127   8.736 -0.2558  0.6879  0.3892
  202MPD1    H6 3134   3.521   3.155   8.640 -0.2877  0.8916  0.4423
  202MPD1    H7 3135   3.440   3.201   8.771 -1.7045 -0.1985 -0.1806
  203MPD1     C 3136   2.002   3.381  12.350 -0.0064  0.0063  0.3276
  203MPD1    C1 3137   2.068   3.266  12.321 -0.0475  0.6556 -0.9326
  203MPD1    C2 3138   2.205   3.266  12.343 -0.5837 -0.5813 -1.4318
  203MPD1    C3 3139   2.270   3.356  12.424  0.7248 -0.8941 -0.8364
  203MPD1    C4 3140   2.187   3.456  12.478  0.1961 -0.0453 -0.5535
  203MPD1    C5 3141   2.058   3.472  12.436 -0.1994 -0.0560 -1.0590
  203MPD1     H 3142   2.260   3.182  12.302  1.5454  1.0800 -1.9363
  203MPD1    H1 3143   2.219   3.523  12.556  1.8490 -2.6851  1.0323
  203MPD1    H2 3144   1.898   3.392  12.321 -0.4237 -0.3240  1.7276
  203MPD1    H3 3145   2.010   3.564  12.466  0.4099  0.2188 -0.9369
  203MPD1     N 3146   2.407   3.345  12.451  0.4964  0.2320 -0.5028
  203MPD1    H5 3147   2.451   3.262  12.411  1.2289  0.6892 -0.6263
  203MPD1    N1 3148   2.014   3.172  12.230 -0.4477  0.4427  0.4858
  203MPD1    H6 3149   1.922   3.140  12.259  0.5180 -2.6968  0.0319
  203MPD1    H7 3150   2.069   3.090  12.205 -3.8338 -0.9533 -2.4238
  204MPD1     C 3151   3.151   0.903  17.349  0.4430  1.1406 -0.2778
  204MPD1    C1 3152   3.118   0.851  17.228  0.0032  0.4652  0.4430
  204MPD1    C2 3153   3.104   0.709  17.220 -0.3262 -0.1212 -0.4177
  204MPD1    C3 3154   3.149   0.632  17.327  0.8980 -0.0161  0.8563
  204MPD1    C4 3155   3.193   0.696  17.443 -0.0324 -0.0304 -0.1277
  204MPD1    C5 3156   3.191   0.828  17.454  0.7590  0.7187  0.3722
  204MPD1     H 3157   3.066   0.663  17.129 -0.0170  0.9760 -1.0944
  204MPD1    H1 3158   3.227   0.646  17.533  0.3503 -0.3351 -0.4429
  204MPD1    H2 3159   3.161   1.011  17.361  1.7174  0.9329  0.4774
  204MPD1    H3 3160   3.221   0.877  17.546  1.2149 -0.0027  0.6137
  204MPD1     N 3161   3.135   0.485  17.319 -0.0710 -0.2170 -0.1408
  204MPD1    H5 3162   3.081   0.449  17.242 -0.2316 -1.7403  0.6813
  204MPD1    N1 3163   3.076   0.936  17.126  0.2351  0.2646 -0.0608
  204MPD1    H6 3164   3.067   0.887  17.037  0.9092  0.1939 -0.0848
  204MPD1    H7 3165   3.135   1.018  17.114  1.5647 -0.5593  0.8627
  205MPD1     C 3166   3.198   3.647  16.513  0.5641 -0.1086  0.9477
  205MPD1    C1 3167   3.220   3.556  16.608  0.3792  0.4878  0.5512
  205MPD1    C2 3168   3.223   3.601  16.736 -0.2388 -0.8986  0.1734
  205MPD1    C3 3169   3.186   3.728  16.770 -0.3484  0.0397  0.3298
  205MPD1    C4 3170   3.158   3.818  16.673  0.1806  0.6465  0.2927
  205MPD1    C5 3171   3.157   3.775  16.545 -0.0413 -0.2228 -0.0541
  205MPD1     H 3172   3.239   3.527  16.814  0.7023 -1.1232 -0.2311
  205MPD1    H1 3173   3.152   3.921  16.706  0.2633  0.4443  0.9303
  205MPD1    H2 3174   3.209   3.634  16.406  1.0922  1.1091  0.8547
  205MPD1    H3 3175   3.135   3.849  16.470  2.1365  1.1185  0.6161
  205MPD1     N 3176   3.175   3.778  16.900  0.4877  0.2673  1.0736
  205MPD1    H5 3177   3.139   3.872  16.913 -1.6783 -0.5903  1.3754
  205MPD1    N1 3178   3.268   3.425  16.577 -0.0896 -0.0361 -0.7852
  205MPD1    H6 3179   3.211   3.387  16.502 -1.4261 -2.2838  1.3535
  205MPD1    H7 3180   3.242   3.372  16.660 -1.2426  3.8285  1.3118
  206MPD1     C 3181   2.687   1.850  17.314 -0.4609  0.1417 -0.3418
  206MPD1    C1 3182   2.793   1.795  17.248 -0.4296 -0.3231  0.8417
  206MPD1    C2 3183   2.791   1.784  17.113 -0.1681  0.2614  0.4884
  206MPD1    C3 3184   2.684   1.833  17.040 -1.0028  0.1527  0.1794
  206MPD1    C4 3185   2.582   1.897  17.104 -0.6110  0.2759  0.5671
  206MPD1    C5 3186   2.582   1.896  17.238 -0.1465 -1.0594  0.0919
  206MPD1     H 3187   2.872   1.732  17.061  1.0855  2.2040  0.4909
  206MPD1    H1 3188   2.494   1.938  17.055 -1.1662 -0.5652  0.8520
  206MPD1    H2 3189   2.687   1.859  17.422 -0.6682 -1.3188 -0.2169
  206MPD1    H3 3190   2.513   1.962  17.288  0.1620 -1.5362  1.1504
  206MPD1     N 3191   2.667   1.825  16.901  1.4075 -0.6814 -0.0738
  206MPD1    H5 3192   2.585   1.877  16.871  3.4397  0.5268 -3.5193
  206MPD1    N1 3193   2.918   1.777  17.318 -0.0988 -0.4061  0.7366
  206MPD1    H6 3194   2.900   1.752  17.415  0.0033  1.5171  1.2545
  206MPD1    H7 3195   2.960   1.699  17.268  2.6470  1.6456 -0.2152
  207MPD1     C 3196   4.363   4.474   9.885  0.4061  0.0863 -0.2772
  207MPD1    C1 3197   4.368   4.615   9.891  0.0915 -0.2727 -0.1782
  207MPD1    C2 3198   4.430   4.677  10.004 -0.5898  0.5429  0.4963
  207MPD1    C3 3199   4.481   4.597  10.110  0.0048  0.0223  0.1634
  207MPD1    C4 3200   4.464   4.459  10.101 -0.0215  0.2519 -0.1426
  207MPD1    C5 3201   4.400   4.403   9.987  0.0705  0.6179  0.2833
  207MPD1     H 3202   4.439   0.046  10.006 -2.3504  0.6973 -0.2187
  207MPD1    H1 3203   4.504   4.398  10.181  1.2062 -1.8633 -2.3596
  207MPD1    H2 3204   4.346   4.424   9.791 -1.7677  1.7033 -0.7581
  207MPD1    H3 3205   4.403   4.295   9.973  1.5951  0.9253 -1.6572
  207MPD1     N 3206   4.562   4.652  10.209 -0.9749  0.3619 -0.6423
  207MPD1    H5 3207   4.623   4.578  10.242  0.4958  0.8185 -2.3293
  207MPD1    N1 3208   4.327   4.692   9.779  0.1294  0.3141  0.5161
  207MPD1    H6 3209   4.264   4.638   9.720  1.0898  0.5393 -0.7381
  207MPD1    H7 3210   4.287   0.044   9.800 -1.8397 -0.2339 -0.8526
  208MPD1     C 3211   2.431   2.196  17.204  0.4443  0.2449 -0.2712
  208MPD1    C1 3212   2.348   2.273  17.284 -0.1484 -0.1457  0.0662
  208MPD1    C2 3213   2.400   2.375  17.356 -0.9252 -0.5522  0.5393
  208MPD1    C3 3214   2.534   2.400  17.368  0.6884 -0.3801 -0.0830
  208MPD1    C4 3215   2.614   2.312  17.301 -0.0148  1.1892  0.1712
  208MPD1    C5 3216   2.566   2.216  17.219 -0.0463  0.0325 -0.0619
  208MPD1     H 3217   2.333   2.448  17.401 -0.6946 -1.2410  2.0010
  208MPD1    H1 3218   2.714   2.350  17.287  1.2525 -1.3423  2.5089
  208MPD1    H2 3219   2.402   2.118  17.134 -1.8880  0.1477  0.8167
  208MPD1    H3 3220   2.638   2.157  17.164  0.6966  1.0044 -0.1237
  208MPD1     N 3221   2.586   2.509  17.446  0.2144 -0.0314  0.4829
  208MPD1    H5 3222   2.529   2.582  17.487 -1.3573 -0.6549 -0.6200
  208MPD1    N1 3223   2.205   2.277  17.263 -0.6218  0.3862  0.0785
  208MPD1    H6 3224   2.159   2.310  17.348 -2.3557  1.1056 -1.1458
  208MPD1    H7 3225   2.172   2.185  17.236  1.2653 -0.9307  2.2074
  209MPD1     C 3226   0.264   3.357  10.118  0.0737  0.5706  0.1915
  209MPD1    C1 3227   0.290   3.310  10.246  0.1487 -0.6183 -0.7605
  209MPD1    C2 3228   0.289   3.407  10.343 -0.0330  0.1242  0.1518
  209MPD1    C3 3229   0.294   3.544  10.319  0.4709  0.2645  0.0611
  209MPD1    C4 3230   0.276   3.580  10.192 -0.8571 -0.1023 -0.3816
  209MPD1    C5 3231   0.257   3.486  10.092 -0.3501  0.7976 -0.0664
  209MPD1     H 3232   0.283   3.373  10.446 -1.4125 -1.4564 -0.4351
  209MPD1    H1 3233   0.263   3.684  10.161 -0.7292 -0.3951 -1.4160
  209MPD1    H2 3234   0.253   3.282  10.040 -0.3189 -0.9919  1.7244
  209MPD1    H3 3235   0.243   3.503   9.986 -2.0541  2.0207  0.3566
  209MPD1     N 3236   0.327   3.635  10.427 -0.0454 -0.3770 -0.8006
  209MPD1    H5 3237   0.338   3.597  10.520  0.8286  0.9746 -0.3557
  209MPD1    N1 3238   0.285   3.171  10.276 -0.8599 -0.4860  0.2078
  209MPD1    H6 3239   0.319   3.105  10.207  1.8057  1.4770 -0.3347
  209MPD1    H7 3240   0.320   3.142  10.367  3.4590  1.6021 -0.8164
  210MPD1     C 3241   0.431   3.355  11.186 -0.1242  0.6822  0.3696
  210MPD1    C1 3242   0.419   3.485  11.222  0.2094  0.2308 -0.2846
  210MPD1    C2 3243   0.411   3.582  11.129  0.0249 -0.5595 -0.9128
  210MPD1    C3 3244   0.423   3.548  10.996 -0.2446 -0.6944 -0.4708
  210MPD1    C4 3245   0.456   3.422  10.960  0.6937 -0.6737  0.0635
  210MPD1    C5 3246   0.459   3.327  11.059  0.1226 -0.5310 -0.4261
  210MPD1     H 3247   0.378   3.681  11.159  2.5831  0.6816 -2.2208
  210MPD1    H1 3248   0.468   3.395  10.856 -4.9544  1.3653 -1.1434
  210MPD1    H2 3249   0.436   3.274  11.258  0.6938  0.4882  0.0950
  210MPD1    H3 3250   0.477   3.224  11.033 -0.8927 -0.4374 -1.5427
  210MPD1     N 3251   0.401   3.647  10.891  0.1363 -0.0679  0.5402
  210MPD1    H5 3252   0.411   3.614  10.795 -1.8457  1.2626 -0.1205
  210MPD1    N1 3253   0.388   3.533  11.354  0.0810 -1.0261 -0.1970
  210MPD1    H6 3254   0.446   3.495  11.428  1.5516  0.9338 -0.3502
  210MPD1    H7 3255   0.398   3.634  11.363  0.7827 -1.2410  1.3482
  211MPD1     C 3256   2.717   3.392  15.272  0.2310 -0.0301  0.6947
  211MPD1    C1 3257   2.587   3.440  15.309  0.3904 -0.3986 -0.2030
  211MPD1    C2 3258   2.590   3.545  15.400 -1.0551 -0.1380 -0.6686
  211MPD1    C3 3259   2.710   3.592  15.463  0.0906 -0.4406  0.3654
  211MPD1    C4 3260   2.828   3.534  15.422  0.3973 -0.3836 -0.0511
  211MPD1    C5 3261   2.831   3.436  15.329 -0.2040  0.6960 -0.3141
  211MPD1     H 3262   2.497   3.583  15.441 -2.3205 -2.4911 -1.3767
  211MPD1    H1 3263   2.927   3.543  15.467  0.1069  1.0235  0.3016
  211MPD1    H2 3264   2.728   3.313  15.198 -1.9877  0.9728 -0.6993
  211MPD1    H3 3265   2.923   3.384  15.306 -0.8790 -0.2995 -0.7518
  211MPD1     N 3266   2.706   3.690  15.561 -0.2842  0.0565 -0.2005
  211MPD1    H5 3267   2.615   3.715  15.598 -0.5622 -0.6752 -0.4014
  211MPD1    N1 3268   2.471   3.408  15.241  0.6389  0.1926  0.9172
  211MPD1    H6 3269   2.385   3.419  15.293  0.6920 -1.0832  1.2758
  211MPD1    H7 3270   2.472   3.313  15.204 -1.4855 -0.6114  2.9413
  212MPD1     C 3271   2.209   1.957  16.167  0.3732  0.4618  0.1768
  212MPD1    C1 3272   2.092   1.946  16.233  0.1287 -0.3341  0.3512
  212MPD1    C2 3273   2.067   1.829  16.311 -0.0728 -0.7800  0.5878
  212MPD1    C3 3274   2.169   1.738  16.325  0.2789 -0.5860  0.4644
  212MPD1    C4 3275   2.288   1.755  16.257 -1.2522 -0.0500 -0.2311
  212MPD1    C5 3276   2.308   1.863  16.176 -0.5197 -0.8487 -0.7435
  212MPD1     H 3277   1.976   1.826  16.370 -1.4134  0.8015 -1.3784
  212MPD1    H1 3278   2.370   1.686  16.272 -0.3256  1.2172  0.5159
  212MPD1    H2 3279   2.234   2.040  16.101 -0.1428  0.5452  0.0871
  212MPD1    H3 3280   2.404   1.878  16.127  0.6447 -1.3305  1.3552
  212MPD1     N 3281   2.161   1.635  16.413 -0.8995  0.3059 -0.8212
  212MPD1    H5 3282   2.251   1.592  16.431 -1.4512 -0.8868 -0.9001
  212MPD1    N1 3283   1.986   2.037  16.203  0.1466 -0.2886 -0.3927
  212MPD1    H6 3284   2.010   2.131  16.172 -2.0646  1.7023  3.9176
  212MPD1    H7 3285   1.905   2.040  16.265  0.0344  1.0037 -0.5994
  213MPD1     C 3286   0.522   2.186  15.536  0.8559  0.6525  0.3825
  213MPD1    C1 3287   0.480   2.102  15.433  0.2456  0.2784 -0.5126
  213MPD1    C2 3288   0.363   2.150  15.370 -0.6308 -0.3237  0.1127
  213MPD1    C3 3289   0.306   2.274  15.383  0.2581  0.2925  0.4397
  213MPD1    C4 3290   0.360   2.351  15.483  0.3497 -0.2563 -0.3866
  213MPD1    C5 3291   0.469   2.311  15.555  0.0978 -0.5785  0.3845
  213MPD1     H 3292   0.321   2.086  15.294 -1.5403 -0.6270  0.8663
  213MPD1    H1 3293   0.331   2.456  15.485 -1.4261 -0.6809 -3.6001
  213MPD1    H2 3294   0.601   2.155  15.603  0.3643 -0.8050  0.2758
  213MPD1    H3 3295   0.502   2.367  15.641  2.0535 -0.0612 -0.6880
  213MPD1     N 3296   0.206   2.308  15.296  0.4406 -0.2652  0.1879
  213MPD1    H5 3297   0.173   2.249  15.219 -1.0338  0.5859  0.1589
  213MPD1    N1 3298   0.491   1.964  15.451  0.0198  0.3455  0.1549
  213MPD1    H6 3299   0.473   1.910  15.367 -0.6595 -1.3690  1.3931
  213MPD1    H7 3300   0.587   1.937  15.472 -0.2222 -0.5337  0.1588
  214MPD1     C 3301   4.525   1.939  14.512 -0.0240 -0.6683 -0.5687
  214MPD1    C1 3302   4.471   1.956  14.635  0.0346 -0.7676  0.2002
  214MPD1    C2 3303   4.520   2.067  14.706 -0.6548  1.1447 -0.7035
  214MPD1    C3 3304   4.614   2.155  14.660  0.3352 -0.2998  0.0616
  214MPD1    C4 3305   4.665   2.129  14.532 -0.4360  0.6777 -0.4112
  214MPD1    C5 3306   4.622   2.018  14.460  0.9302  0.7448  0.1294
  214MPD1     H 3307   4.475   2.088  14.802 -0.7427 -1.5111 -0.1616
  214MPD1    H1 3308   0.019   2.176  14.507 -0.5165  2.5519  2.6918
  214MPD1    H2 3309   4.489   1.852  14.458  1.8765 -1.2691 -0.8733
  214MPD1    H3 3310   4.669   2.000  14.364  2.5373 -1.8156  1.3781
  214MPD1     N 3311   4.680   2.247  14.744  0.3439 -0.5095  0.3741
  214MPD1    H5 3312   4.733   2.318  14.695 -1.9144  1.1246  0.2854
  214MPD1    N1 3313   4.352   1.884  14.677 -0.3990  0.2345 -0.1483
  214MPD1    H6 3314   4.330   1.883  14.777  2.1184  0.8928  0.4146
  214MPD1    H7 3315   4.371   1.790  14.643  0.7843  0.0766  0.9275
  215MPD1     C 3316   0.023   3.536  10.531  0.5991 -0.0364 -0.1389
  215MPD1    C1 3317   0.040   3.501  10.661  0.1825  0.0395 -0.3220
  215MPD1    C2 3318   0.042   3.598  10.762  0.0883 -0.3949 -0.5475
  215MPD1    C3 3319   0.018   3.733  10.735 -0.4452  0.4801  1.3222
  215MPD1    C4 3320   4.739   3.767  10.598 -0.5527  0.0752  0.2223
  215MPD1    C5 3321   0.013   3.672  10.500  0.4155 -0.2330  0.1506
  215MPD1     H 3322   0.062   3.569  10.864 -0.6066  1.3863  0.0985
  215MPD1    H1 3323   4.739   3.870  10.566 -1.5422  0.2627  0.8198
  215MPD1    H2 3324   0.031   3.465  10.450  0.7498 -1.4820  1.1468
  215MPD1    H3 3325   4.726   3.696  10.398 -0.0033 -1.7620 -0.0957
  215MPD1     N 3326   0.017   3.827  10.837  0.0010 -0.2011 -0.5873
  215MPD1    H5 3327   0.035   3.801  10.933  0.4274  1.6790 -0.1683
  215MPD1    N1 3328   0.062   3.366  10.689  0.7685  0.2389  0.3847
  215MPD1    H6 3329   4.736   3.306  10.639  0.6946  0.6110  0.0388
  215MPD1    H7 3330   0.058   3.349  10.789  1.7891  1.5904  0.6562
  216MPD1     C 3331   2.425   3.800  17.226 -0.0504  0.0086  0.7847
  216MPD1    C1 3332   2.380   3.924  17.186  1.0179  0.0254 -0.2798
  216MPD1    C2 3333   2.394   4.033  17.267 -0.3193 -0.3704  0.0467
  216MPD1    C3 3334   2.444   4.017  17.392  0.9677  0.1997  0.1923
  216MPD1    C4 3335   2.485   3.890  17.435 -0.3244  0.0536  0.5413
  216MPD1    C5 3336   2.471   3.784  17.353 -0.2620 -0.2692 -0.5562
  216MPD1     H 3337   2.359   4.131  17.238 -2.8422 -0.6126  2.3402
  216MPD1    H1 3338   2.528   3.869  17.533  0.7335  0.4245  0.1640
  216MPD1    H2 3339   2.392   3.720  17.161 -0.1914  1.7684 -1.3318
  216MPD1    H3 3340   2.506   3.687  17.386 -0.2801  0.3146  1.1858
  216MPD1     N 3341   2.470   4.135  17.470  0.2931 -0.3418  0.1127
  216MPD1    H5 3342   2.436   4.222  17.432 -1.2582 -1.1608 -0.3992
  216MPD1    N1 3343   2.296   3.936  17.072  0.7438 -0.7770 -0.4780
  216MPD1    H6 3344   2.234   3.856  17.059  1.8936 -1.3010 -2.6126
  216MPD1    H7 3345   2.247   4.026  17.072  3.0613  0.4722 -1.1262
  217MPD1     C 3346   2.440   3.232   7.874  0.1228 -0.2144 -0.3399
  217MPD1    C1 3347   2.387   3.357   7.915  0.6898  0.3133 -0.7277
  217MPD1    C2 3348   2.418   3.408   8.040 -0.0302 -0.4042 -0.1681
  217MPD1    C3 3349   2.511   3.348   8.122  0.2686 -0.4407 -0.0870
  217MPD1    C4 3350   2.572   3.232   8.079 -0.0175 -0.0317 -0.4371
  217MPD1    C5 3351   2.534   3.178   7.959 -0.3049 -0.1831  0.1732
  217MPD1     H 3352   2.361   3.494   8.074  1.1852 -0.1367  1.1484
  217MPD1    H1 3353   2.642   3.172   8.138  0.0967  0.8704  0.3442
  217MPD1    H2 3354   2.408   3.172   7.790 -1.0648 -0.8610  0.5770
  217MPD1    H3 3355   2.575   3.082   7.929  0.1688  1.0355 -3.0452
  217MPD1     N 3356   2.539   3.381   8.257  0.2258 -0.0139 -0.3071
  217MPD1    H5 3357   2.604   3.320   8.305  1.0262 -1.9429 -3.7938
  217MPD1    N1 3358   2.280   3.406   7.846 -0.0329  0.1112  0.4783
  217MPD1    H6 3359   2.300   3.389   7.747  1.5020  2.3048  0.4291
  217MPD1    H7 3360   2.281   3.506   7.865  0.2700  0.0693  0.6664
  218MPD1     C 3361   4.278   0.045  13.410  0.3867 -0.8082  0.1113
  218MPD1    C1 3362   4.237   4.715  13.299  0.0236 -0.9748 -0.1736
  218MPD1    C2 3363   4.321   4.623  13.237  0.0375 -0.1012 -0.3057
  218MPD1    C3 3364   4.445   4.597  13.297 -0.3549 -0.3843  0.2101
  218MPD1    C4 3365   4.487   4.670  13.410 -0.5417  0.5682 -0.3787
  218MPD1    C5 3366   4.403   0.027  13.466 -0.8795 -0.7410  0.0698
  218MPD1     H 3367   4.297   4.580  13.141  0.9159  0.8119 -0.9337
  218MPD1    H1 3368   4.577   4.653  13.468 -0.5882 -0.3502 -0.5718
  218MPD1    H2 3369   4.214   0.119  13.456  1.0436 -0.1979  0.0476
  218MPD1    H3 3370   4.435   0.085  13.553 -1.0599 -2.0369  0.9992
  218MPD1     N 3371   4.524   4.492  13.239 -0.4109 -0.8812 -0.1352
  218MPD1    H5 3372   4.491   4.448  13.154 -1.9897 -0.6199  0.3490
  218MPD1    N1 3373   4.118   0.012  13.240 -0.0576 -0.3825  0.2159
  218MPD1    H6 3374   4.061   0.072  13.299 -1.1236 -0.9193 -0.2814
  218MPD1    H7 3375   4.067   4.681  13.188  2.8463 -2.2859 -0.0713
  219MPD1     C 3376   0.226   4.398  12.335 -0.6190 -0.1091 -0.2482
  219MPD1    C1 3377   0.114   4.453  12.387  0.2440 -0.4705  0.2768
  219MPD1    C2 3378   0.102   4.444  12.522 -0.2696 -0.0835 -0.2074
  219MPD1    C3 3379   0.186   4.359  12.594 -0.2727 -0.1024  0.1843
  219MPD1    C4 3380   0.304   4.314  12.536  0.5274  0.1675 -0.0956
  219MPD1    C5 3381   0.323   4.327  12.407  0.0783 -0.4945 -0.2961
  219MPD1     H 3382   0.009   4.469  12.571  0.1432 -0.2882  0.6841
  219MPD1    H1 3383   0.374   4.259  12.599 -1.4129  1.6752  3.3779
  219MPD1    H2 3384   0.244   4.420  12.230 -1.6688 -0.7151 -0.5518
  219MPD1    H3 3385   0.410   4.291  12.352 -0.5377  1.3995 -2.4837
  219MPD1     N 3386   0.164   4.332  12.731  0.7918 -0.3147  0.5819
  219MPD1    H5 3387   0.219   4.258  12.771  2.3321 -0.0638 -1.0523
  219MPD1    N1 3388   0.032   4.539  12.301  0.1320  0.0646 -0.3276
  219MPD1    H6 3389   4.675   4.555  12.330 -1.2613  0.2957 -5.0360
  219MPD1    H7 3390   0.019   4.515  12.203  2.4731  0.3390 -0.6968
  220MPD1     C 3391   4.482   0.699  10.010  0.2566  0.3446 -0.3383
  220MPD1    C1 3392   4.547   0.623  10.101 -0.4986  0.1836  0.2094
  220MPD1    C2 3393   4.481   0.509  10.139  0.2634  0.0086 -0.3024
  220MPD1    C3 3394   4.370   0.461  10.073 -0.0276  0.4711 -0.1121
  220MPD1    C4 3395   4.309   0.538   9.976 -0.1424 -0.7810 -0.2614
  220MPD1    C5 3396   4.361   0.657   9.955  0.0006  0.3195  1.2906
  220MPD1     H 3397   4.531   0.454  10.217  0.6526  0.7739 -0.0121
  220MPD1    H1 3398   4.221   0.508   9.920 -1.1916  0.3440  0.7972
  220MPD1    H2 3399   4.507   0.798   9.976 -1.6767  0.6885 -0.7279
  220MPD1    H3 3400   4.314   0.720   9.880  3.0997 -0.2333 -1.0729
  220MPD1     N 3401   4.321   0.335  10.113  0.1870 -0.2437  0.8467
  220MPD1    H5 3402   4.384   0.277  10.169  0.7046 -0.9928 -0.4972
  220MPD1    N1 3403   4.653   0.673  10.168 -0.1797  0.0630  0.0756
  220MPD1    H6 3404   4.714   0.610  10.219  0.5768 -0.2894 -1.2561
  220MPD1    H7 3405   4.707   0.747  10.124  2.4466 -2.8397 -1.6301
  221MPD1     C 3406   2.274   3.564  16.861  0.0888  0.2363 -0.0718
  221MPD1    C1 3407   2.256   3.444  16.795  0.7058  0.1480 -0.3987
  221MPD1    C2 3408   2.350   3.345  16.811 -0.5346  0.4526  0.2376
  221MPD1    C3 3409   2.464   3.362  16.889 -0.1947 -0.5147  0.0920
  221MPD1    C4 3410   2.488   3.485  16.944 -0.2499 -0.3727  0.3236
  221MPD1    C5 3411   2.391   3.587  16.926 -0.0887 -0.6085 -0.0224
  221MPD1     H 3412   2.330   3.253  16.758 -1.2480  0.9365 -0.3199
  221MPD1    H1 3413   2.578   3.511  16.999 -0.2819  0.5094 -0.0406
  221MPD1    H2 3414   2.198   3.641  16.861 -0.8788 -0.7220  1.3201
  221MPD1    H3 3415   2.403   3.689  16.961 -0.3842 -0.7295  0.4367
  221MPD1     N 3416   2.568   3.264  16.901  0.0661 -0.5954  0.4282
  221MPD1    H5 3417   2.654   3.299  16.942 -0.6464 -1.5057  2.6846
  221MPD1    N1 3418   2.137   3.411  16.731 -0.2199 -0.3833 -0.3682
  221MPD1    H6 3419   2.099   3.492  16.683 -2.2760 -0.2625  1.4667
  221MPD1    H7 3420   2.157   3.338  16.662 -0.4135 -0.0961 -0.7269
  222MPD1     C 3421   2.408   1.688  16.682  0.2575  0.0324  0.8256
  222MPD1    C1 3422   2.335   1.796  16.721  0.3568  0.1345 -0.2563
  222MPD1    C2 3423   2.293   1.808  16.856  0.2543  0.9000  0.5131
  222MPD1    C3 3424   2.309   1.703  16.942  0.7495 -0.4938  0.1575
  222MPD1    C4 3425   2.377   1.590  16.893  0.5136 -0.0488 -0.2232
  222MPD1    C5 3426   2.425   1.586  16.765  0.1233 -0.2418  0.3902
  222MPD1     H 3427   2.232   1.892  16.889 -0.6121  1.5943 -2.8588
  222MPD1    H1 3428   2.385   1.508  16.963 -0.9192 -2.0024 -2.3634
  222MPD1    H2 3429   2.449   1.685  16.581 -0.3894 -1.5222  0.6077
  222MPD1    H3 3430   2.491   1.504  16.740 -2.0445 -1.9270  0.1507
  222MPD1     N 3431   2.247   1.692  17.067 -0.3521  0.5481 -0.1515
  222MPD1    H5 3432   2.243   1.603  17.116  0.9150  0.6796  0.2058
  222MPD1    N1 3433   2.331   1.907  16.636  0.8380 -0.0668  0.0277
  222MPD1    H6 3434   2.269   1.983  16.662  1.9684  1.4844 -1.7549
  222MPD1    H7 3435   2.315   1.864  16.545  0.3239 -1.1913  0.6549
  223MPD1     C 3436   2.155   1.088   0.094  0.4574 -0.3528  0.3382
  223MPD1    C1 3437   2.114   1.206   0.151 -0.4745  0.3415  0.3416
  223MPD1    C2 3438   2.097   1.307   0.058 -1.5549 -0.2860 -0.5918
  223MPD1    C3 3439   2.144   1.312  17.680  0.3002 -0.5727 -0.3208
  223MPD1    C4 3440   2.198   1.196  17.633  0.4976 -0.1468 -0.8821
  223MPD1    C5 3441   2.199   1.090  17.714  0.1790 -0.2881  0.5955
  223MPD1     H 3442   2.040   1.391   0.096 -1.2926  0.0256 -0.8892
  223MPD1    H1 3443   2.229   1.187  17.530 -1.6433 -1.0769 -1.4398
  223MPD1    H2 3444   2.154   1.000   0.157 -2.3364  1.0971  2.3478
  223MPD1    H3 3445   2.257   1.009  17.671 -1.7054 -0.4666 -1.6110
  223MPD1     N 3446   2.138   1.436  17.607  0.1892  0.0845 -0.1562
  223MPD1    H5 3447   2.100   1.516  17.656 -1.1770 -0.7523  0.1414
  223MPD1    N1 3448   2.088   1.220   0.292  0.2728  0.8457  0.0574
  223MPD1    H6 3449   2.086   1.315   0.328 -3.0689  1.0453 -0.6268
  223MPD1    H7 3450   2.147   1.163   0.352 -0.0641 -0.4547 -0.8652
  224MPD1     C 3451   3.351   4.530   9.157 -0.7595  0.3465 -0.0319
  224MPD1    C1 3452   3.446   4.434   9.200 -0.2872 -0.1841 -0.8269
  224MPD1    C2 3453   3.395   4.333   9.281 -0.2413 -0.6759  0.1182
  224MPD1    C3 3454   3.261   4.330   9.323 -0.2856  0.3710  0.3879
  224MPD1    C4 3455   3.176   4.429   9.280  0.3405  0.1476 -0.0551
  224MPD1    C5 3456   3.216   4.526   9.196 -0.3660  0.6929  0.3542
  224MPD1     H 3457   3.465   4.256   9.310  2.6046  1.0302 -2.2641
  224MPD1    H1 3458   3.072   4.421   9.310 -0.1881  4.6343 -0.7819
  224MPD1    H2 3459   3.391   4.603   9.088 -0.9544 -0.8230 -1.3735
  224MPD1    H3 3460   3.148   4.603   9.160 -2.2461 -0.2459  1.9151
  224MPD1     N 3461   3.203   4.230   9.399  0.5495 -0.0268 -0.2307
  224MPD1    H5 3462   3.102   4.236   9.413  0.8112  0.7164  1.3764
  224MPD1    N1 3463   3.578   4.439   9.153  0.3731 -0.1810  0.8473
  224MPD1    H6 3464   3.609   4.536   9.162  0.9784 -0.6193  3.7283
  224MPD1    H7 3465   3.641   4.384   9.211  1.9793  0.0645 -0.6495
  225MPD1     C 3466   4.430   4.634  12.866  0.0548  0.2728  0.6972
  225MPD1    C1 3467   4.388   4.538  12.778  0.7149  0.8409 -0.4752
  225MPD1    C2 3468   4.256   4.529  12.744  0.3287  0.3689 -0.3904
  225MPD1    C3 3469   4.159   4.614  12.795  0.4551 -0.2801  0.1365
  225MPD1    C4 3470   4.200   4.699  12.895 -0.2829  0.4082 -0.8467
  225MPD1    C5 3471   4.330   4.705  12.924 -0.5921 -0.4654 -0.8479
  225MPD1     H 3472   4.224   4.455  12.672 -0.9203 -0.9836  1.5276
  225MPD1    H1 3473   4.141   0.030  12.952 -0.1899  0.1957 -0.4867
  225MPD1    H2 3474   4.531   4.651  12.901  0.6535 -0.4030 -0.7186
  225MPD1    H3 3475   4.341   0.040  13.001  0.8983  0.3346 -1.8354
  225MPD1     N 3476   4.026   4.615  12.750  0.8741 -0.0654 -0.2957
  225MPD1    H5 3477   3.970   4.688  12.793 -0.6947  0.4668 -3.2693
  225MPD1    N1 3478   4.491   4.456  12.726  0.2721  0.0780 -0.1527
  225MPD1    H6 3479   4.579   4.473  12.773  0.1163  1.9297 -0.5268
  225MPD1    H7 3480   4.469   4.360  12.754 -2.7068  0.4019 -1.3228
  226MPD1     C 3481   2.629   3.501   9.728 -0.2233 -0.9486 -0.8734
  226MPD1    C1 3482   2.529   3.574   9.794 -0.0746  0.6838 -0.3521
  226MPD1    C2 3483   2.478   3.695   9.735 -0.3732 -0.7605  0.1920
  226MPD1    C3 3484   2.539   3.744   9.619  0.3336  0.1230 -0.0152
  226MPD1    C4 3485   2.634   3.665   9.557  0.1953  0.0919 -0.8867
  226MPD1    C5 3486   2.676   3.551   9.612 -0.0534  0.2359  0.0295
  226MPD1     H 3487   2.400   3.757   9.776  0.5866  0.0168  0.8400
  226MPD1    H1 3488   2.665   3.690   9.456  3.1291  1.2065  0.2879
  226MPD1    H2 3489   2.676   3.408   9.757  0.4422 -0.9546 -1.9672
  226MPD1    H3 3490   2.753   3.491   9.566 -1.0506  0.1399 -1.5079
  226MPD1     N 3491   2.499   3.871   9.572 -0.5649  0.5035 -0.4217
  226MPD1    H5 3492   2.417   3.912   9.616 -0.2611  0.7735 -0.1083
  226MPD1    N1 3493   2.463   3.520   9.906  0.3093 -0.6613  0.1921
  226MPD1    H6 3494   2.528   3.473   9.968  1.4841  0.4414 -0.2089
  226MPD1    H7 3495   2.415   3.588   9.964 -1.2562  0.1062 -1.9926
  227MPD1     C 3496   1.706   4.223   9.658  1.0081  0.1860 -0.0863
  227MPD1    C1 3497   1.753   4.095   9.624  0.5068  0.2938 -0.1422
  227MPD1    C2 3498   1.887   4.079   9.579  0.0802  0.5274  0.8011
  227MPD1    C3 3499   1.976   4.182   9.573  0.1068  0.8143  0.0845
  227MPD1    C4 3500   1.927   4.306   9.619 -0.6391  0.0578  0.0272
  227MPD1    C5 3501   1.797   4.327   9.649  0.1650  0.0510  0.5592
  227MPD1     H 3502   1.928   3.982   9.553  1.8940  1.6234 -0.3933
  227MPD1    H1 3503   1.984   4.398   9.619 -1.9518  0.8759  0.7711
  227MPD1    H2 3504   1.602   4.240   9.680  1.1993  0.6598  0.4553
  227MPD1    H3 3505   1.757   4.423   9.677  3.0094  1.6591 -0.8876
  227MPD1     N 3506   2.108   4.163   9.524  0.0413  0.0362 -0.7092
  227MPD1    H5 3507   2.140   4.067   9.526  2.5387  0.8551 -1.9823
  227MPD1    N1 3508   1.657   3.989   9.605  0.2472  0.4915  0.2958
  227MPD1    H6 3509   1.583   3.980   9.675  0.8382 -0.1578  0.8362
  227MPD1    H7 3510   1.700   3.899   9.584 -0.0069  0.3048  0.5816
  228MPD1     C 3511   1.790   2.821  13.630 -0.2103 -0.5436 -0.2401
  228MPD1    C1 3512   1.683   2.780  13.694  0.2232  0.0989  0.7607
  228MPD1    C2 3513   1.573   2.737  13.625  0.1737  0.2702 -0.0490
  228MPD1    C3 3514   1.583   2.715  13.483 -0.1747  0.7656  0.6921
  228MPD1    C4 3515   1.700   2.757  13.418 -0.0197 -0.4020 -0.4593
  228MPD1    C5 3516   1.801   2.813  13.494 -0.2539  0.0778  0.8058
  228MPD1     H 3517   1.481   2.709  13.674 -0.2920  0.0864 -1.0242
  228MPD1    H1 3518   1.719   2.752  13.312 -0.2624 -2.6439 -0.4023
  228MPD1    H2 3519   1.882   2.853  13.679  0.9098 -2.4471 -1.0744
  228MPD1    H3 3520   1.895   2.847  13.453  1.1482 -0.3145  3.6947
  228MPD1     N 3521   1.473   2.659  13.414 -0.3301  0.3659  0.6007
  228MPD1    H5 3522   1.387   2.643  13.466  0.0867  0.6262  1.3526
  228MPD1    N1 3523   1.678   2.808  13.835 -0.0718 -0.4326 -0.0309
  228MPD1    H6 3524   1.623   2.738  13.884 -1.1202  0.0142 -0.5920
  228MPD1    H7 3525   1.761   2.820  13.894 -0.1866  2.0407 -0.3424
  229MPD1     C 3526   0.845   4.462  15.028  0.3010  0.7895 -0.0827
  229MPD1    C1 3527   0.934   4.390  15.105 -0.1115 -0.9611  0.4811
  229MPD1    C2 3528   1.056   4.455  15.136 -0.0198 -0.2093  0.1662
  229MPD1    C3 3529   1.075   4.590  15.104  0.0985  0.0904 -0.1064
  229MPD1    C4 3530   0.983   4.656  15.022  0.1268  0.2117 -0.4338
  229MPD1    C5 3531   0.870   4.592  14.989  0.5566 -0.1463  0.2495
  229MPD1     H 3532   1.134   4.404  15.190  1.9123  1.7294 -0.7978
  229MPD1    H1 3533   1.000   0.021  15.000 -3.5946  0.7910 -0.5065
  229MPD1    H2 3534   0.747   4.424  15.004 -0.4829  2.7373  0.0445
  229MPD1    H3 3535   0.803   4.658  14.935  0.1505 -1.0620 -0.3721
  229MPD1     N 3536   1.192   4.659  15.148 -0.1303 -0.4058  0.3432
  229MPD1    H5 3537   1.187   0.019  15.131  0.8656  0.2693  3.9106
  229MPD1    N1 3538   0.902   4.270  15.165 -0.1717  0.2383 -0.6830
  229MPD1    H6 3539   0.861   4.216  15.088 -1.2157  2.3201 -1.5733
  229MPD1    H7 3540   0.984   4.218  15.194  0.8027  2.0864 -0.1652
  230MPD1     C 3541   1.442   0.462  15.883 -0.3894 -0.0300 -0.3873
  230MPD1    C1 3542   1.555   0.391  15.872 -0.8329  0.0688  0.9962
  230MPD1    C2 3543   1.575   0.330  15.750 -0.1483  0.2485  0.2451
  230MPD1    C3 3544   1.492   0.352  15.644 -0.4417  0.2447  0.0375
  230MPD1    C4 3545   1.383   0.438  15.654 -0.4273 -0.8610 -0.9617
  230MPD1    C5 3546   1.367   0.494  15.780  0.0693 -0.0617  0.0995
  230MPD1     H 3547   1.654   0.259  15.730  0.3014  0.5147  1.0716
  230MPD1    H1 3548   1.313   0.473  15.579  0.9853  0.8596 -1.4892
  230MPD1    H2 3549   1.402   0.492  15.979  2.5680  1.1578  0.4784
  230MPD1    H3 3550   1.298   0.577  15.793 -1.6759 -1.7073  1.1981
  230MPD1     N 3551   1.525   0.279  15.525 -0.3683  0.3669  0.1882
  230MPD1    H5 3552   1.596   0.210  15.545 -0.1751  0.3793 -0.4708
  230MPD1    N1 3553   1.631   0.360  15.986  0.1296  0.5657  0.1806
  230MPD1    H6 3554   1.731   0.353  15.969  0.0144 -2.7613  0.7681
  230MPD1    H7 3555   1.615   0.418  16.068  0.8562 -0.1912  0.8615
  231MPD1     C 3556   4.714   3.167  15.815 -0.3129  0.2606  0.1685
  231MPD1    C1 3557   0.088   3.211  15.747 -0.1373 -0.9734 -0.4588
  231MPD1    C2 3558   0.096   3.169  15.615 -0.8846 -0.8492 -0.6896
  231MPD1    C3 3559   4.728   3.125  15.551  0.3828 -0.3425  0.1569
  231MPD1    C4 3560   4.609   3.105  15.622  0.2892 -0.1077  0.3660
  231MPD1    C5 3561   4.602   3.118  15.757  0.2656  0.3925  0.1518
  231MPD1     H 3562   0.192   3.182  15.567  0.4400  0.4582  2.3157
  231MPD1    H1 3563   4.510   3.089  15.581 -0.1884  0.4838  1.2716
  231MPD1    H2 3564   4.717   3.188  15.922 -1.0553  0.9603  0.0549
  231MPD1    H3 3565   4.509   3.100  15.811  0.1030 -0.3848 -0.3699
  231MPD1     N 3566   4.723   3.118  15.412  0.6618 -0.7011  0.1379
  231MPD1    H5 3567   0.066   3.153  15.363 -0.2594  0.5144 -0.5245
  231MPD1    N1 3568   0.211   3.246  15.810 -0.0985  0.1539  0.3834
  231MPD1    H6 3569   0.275   3.298  15.749  2.2505 -0.3153  2.4449
  231MPD1    H7 3570   0.188   3.296  15.896  1.0328  0.6379  0.4126
  232MPD1     C 3571   1.224   0.710   0.827 -0.2633 -0.1969 -0.0066
  232MPD1    C1 3572   1.259   0.779   0.716 -0.1727  0.2431 -0.7174
  232MPD1    C2 3573   1.242   0.715   0.598 -0.2836  0.4897 -0.0561
  232MPD1    C3 3574   1.187   0.590   0.594  0.0323 -0.3145 -0.3106
  232MPD1    C4 3575   1.144   0.529   0.702 -0.0744 -0.5551  0.1977
  232MPD1    C5 3576   1.156   0.587   0.819  0.2840 -0.3126  0.1232
  232MPD1     H 3577   1.270   0.753   0.500 -0.1268 -0.9844 -0.5882
  232MPD1    H1 3578   1.080   0.442   0.696  0.2651 -1.0173  3.5821
  232MPD1    H2 3579   1.248   0.758   0.922  1.2259 -1.1486  0.0993
  232MPD1    H3 3580   1.124   0.533   0.908 -2.4583  2.3123  0.7615
  232MPD1     N 3581   1.171   0.530   0.463  0.7712 -0.1708  0.1506
  232MPD1    H5 3582   1.198   0.587   0.383  0.1064 -1.3701 -0.9242
  232MPD1    N1 3583   1.321   0.909   0.726  0.2400 -0.1179 -0.7238
  232MPD1    H6 3584   1.386   0.902   0.804 -0.2172  0.1094 -0.3207
  232MPD1    H7 3585   1.383   0.926   0.647 -1.0401  1.4506 -1.4141
  233MPD1     C 3586   1.687   2.433   1.811  0.3033  0.1678  0.4886
  233MPD1    C1 3587   1.764   2.393   1.697 -1.2989 -0.3425 -0.1829
  233MPD1    C2 3588   1.867   2.474   1.656  0.9486  0.4533  0.0931
  233MPD1    C3 3589   1.883   2.605   1.702 -0.3148 -0.9279 -0.2786
  233MPD1    C4 3590   1.815   2.640   1.816  0.3206  0.3408  0.0747
  233MPD1    C5 3591   1.713   2.557   1.863 -0.1507  0.2946 -0.2654
  233MPD1     H 3592   1.919   2.440   1.567  1.4137  2.8748 -0.5696
  233MPD1    H1 3593   1.834   2.739   1.857  1.4185  1.4465 -3.0678
  233MPD1    H2 3594   1.619   2.370   1.867  1.8297 -2.3429 -0.4390
  233MPD1    H3 3595   1.663   2.595   1.952 -0.3276  1.5530 -0.9001
  233MPD1     N 3596   1.969   2.711   1.653 -0.5948 -0.3181  0.2228
  233MPD1    H5 3597   1.967   2.805   1.692  0.1838 -0.1583 -0.1200
  233MPD1    N1 3598   1.739   2.267   1.643 -0.2161  0.3007  0.4298
  233MPD1    H6 3599   1.803   2.241   1.568 -0.6777  0.8154 -0.1405
  233MPD1    H7 3600   1.648   2.257   1.598 -1.0312  2.8282  1.4976
  234MPD1     C 3601   3.897   2.534   8.972 -0.0047 -0.1489 -0.1271
  234MPD1    C1 3602   3.827   2.601   8.874 -0.8230  0.2943 -0.3438
  234MPD1    C2 3603   3.719   2.678   8.916 -0.2852 -0.3087 -0.4506
  234MPD1    C3 3604   3.675   2.681   9.050 -0.2069 -0.2487  0.2444
  234MPD1    C4 3605   3.743   2.606   9.149  0.3858  0.8105  0.6036
  234MPD1    C5 3606   3.860   2.543   9.106  0.4759  0.4757  0.4430
  234MPD1     H 3607   3.665   2.743   8.848 -0.2602 -1.7496 -1.8463
  234MPD1    H1 3608   3.708   2.621   9.250  1.7093  0.7742  1.0589
  234MPD1    H2 3609   3.979   2.473   8.938  0.4393  0.0389  0.5992
  234MPD1    H3 3610   3.921   2.485   9.174 -2.1908 -1.9192  0.7821
  234MPD1     N 3611   3.560   2.762   9.069  0.1864 -0.3609 -0.2852
  234MPD1    H5 3612   3.510   2.784   8.984  2.6449  0.1718 -1.5906
  234MPD1    N1 3613   3.866   2.598   8.743 -0.5402  0.2876  0.5020
  234MPD1    H6 3614   3.915   2.512   8.720 -0.2113  0.4467  0.6174
  234MPD1    H7 3615   3.796   2.612   8.671 -1.3629 -0.8905  1.0554
  235MPD1     C 3616   4.416   0.498  11.184  0.4165 -0.3904  0.4069
  235MPD1    C1 3617   4.418   0.477  11.048 -0.1324  0.3500 -0.3111
  235MPD1    C2 3618   4.504   0.563  10.975  0.4722 -0.1958 -0.0234
  235MPD1    C3 3619   4.596   0.646  11.035  0.0912  0.3602  0.9676
  235MPD1    C4 3620   4.600   0.648  11.174 -0.2711  0.9642 -0.4390
  235MPD1    C5 3621   4.506   0.579  11.243  0.7697 -0.2966  0.2765
  235MPD1     H 3622   4.496   0.557  10.867  0.8852 -1.0227 -0.0107
  235MPD1    H1 3623   4.674   0.706  11.229 -0.4141 -1.5209  2.3129
  235MPD1    H2 3624   4.341   0.454  11.248 -1.0034  0.2741 -0.7994
  235MPD1    H3 3625   4.521   0.584  11.350 -4.3724  4.2236  0.7447
  235MPD1     N 3626   4.675   0.723  10.950 -0.0032 -0.5133 -0.4449
  235MPD1    H5 3627   4.661   0.719  10.849 -1.5162  1.7412 -0.3283
  235MPD1    N1 3628   4.318   0.405  10.978  0.1448 -0.1900 -0.4152
  235MPD1    H6 3629   4.279   0.320  11.017 -2.1242 -0.3705 -3.0858
  235MPD1    H7 3630   4.323   0.407  10.876 -0.5259  3.7197 -0.3902
  236MPD1     C 3631   3.864   1.498  10.210 -0.5511  0.3967 -0.2846
  236MPD1    C1 3632   3.975   1.572  10.173 -0.0908 -0.5276  0.2561
  236MPD1    C2 3633   4.077   1.571  10.260 -0.2519  0.0422  0.1611
  236MPD1    C3 3634   4.060   1.524  10.391 -0.3746  0.1021 -0.9141
  236MPD1    C4 3635   3.947   1.461  10.428  0.0193 -0.4648  0.1441
  236MPD1    C5 3636   3.848   1.451  10.338 -0.0952  0.0393 -0.2017
  236MPD1     H 3637   4.174   1.614  10.238 -0.3306 -0.6659 -1.5835
  236MPD1    H1 3638   3.920   1.422  10.526  0.6207  0.1013  0.5338
  236MPD1    H2 3639   3.773   1.489  10.153 -1.1872  0.3021  0.7352
  236MPD1    H3 3640   3.761   1.393  10.364 -0.7541  0.4514 -1.4682
  236MPD1     N 3641   4.151   1.541  10.499  1.0371 -0.2671 -0.3851
  236MPD1    H5 3642   4.122   1.496  10.585 -0.2247  0.5819 -0.3789
  236MPD1    N1 3643   3.991   1.618  10.043 -0.4348 -0.3597  0.4430
  236MPD1    H6 3644   4.053   1.698  10.034 -1.5148  0.1563 -2.3194
  236MPD1    H7 3645   3.904   1.633   9.993 -0.1934 -2.3032 -0.5779
  237MPD1     C 3646   0.176   4.170  14.704  0.7454  0.7076 -0.1674
  237MPD1    C1 3647   0.179   4.097  14.823 -0.1527 -0.6603  0.0810
  237MPD1    C2 3648   0.056   4.053  14.873 -0.0015 -0.2387  0.0598
  237MPD1    C3 3649   4.675   4.071  14.816 -0.0852 -0.9713 -0.1713
  237MPD1    C4 3650   4.669   4.157  14.698  0.0267  0.3614 -0.7155
  237MPD1    C5 3651   0.052   4.205  14.646  0.4173 -0.0566 -0.1652
  237MPD1     H 3652   0.057   4.020  14.977  2.2298  1.0217  0.4411
  237MPD1    H1 3653   4.577   4.189  14.651 -1.5227 -0.2952  1.8332
  237MPD1    H2 3654   0.262   4.203  14.647  0.0570  1.3607 -0.8263
  237MPD1    H3 3655   0.044   4.249  14.547  0.3867 -1.9885 -1.0189
  237MPD1     N 3656   4.552   4.022  14.866 -0.5136  0.2569  0.1163
  237MPD1    H5 3657   4.471   4.071  14.829 -0.4760  1.0518  1.0863
  237MPD1    N1 3658   0.302   4.067  14.888  0.1126 -0.0729 -0.6773
  237MPD1    H6 3659   0.280   4.056  14.987  1.0938  1.6177 -0.2683
  237MPD1    H7 3660   0.375   4.137  14.876  1.2263 -0.8313  1.5994
  238MPD1     C 3661   1.710   2.239  15.544 -0.4545 -0.3752 -0.2826
  238MPD1    C1 3662   1.590   2.220  15.601  1.0577  0.2045  0.5791
  238MPD1    C2 3663   1.489   2.290  15.540 -0.2037 -0.3658 -0.1085
  238MPD1    C3 3664   1.507   2.355  15.420 -0.2377 -0.6511 -0.0228
  238MPD1    C4 3665   1.628   2.354  15.350  0.2866 -0.1719  0.2550
  238MPD1    C5 3666   1.732   2.310  15.425 -0.0621  0.2945  0.4899
  238MPD1     H 3667   1.390   2.278  15.583 -0.2493 -2.4342 -0.8017
  238MPD1    H1 3668   1.643   2.388  15.248  0.2665 -1.7018 -0.2463
  238MPD1    H2 3669   1.796   2.189  15.588 -0.7443 -0.9299 -0.3502
  238MPD1    H3 3670   1.831   2.312  15.381  0.2590 -0.1364  1.1906
  238MPD1     N 3671   1.401   2.411  15.350  0.7085  0.3642  0.4474
  238MPD1    H5 3672   1.423   2.424  15.251 -0.1507  0.5838  0.2842
  238MPD1    N1 3673   1.572   2.176  15.732 -0.0972 -0.2770 -0.1226
  238MPD1    H6 3674   1.641   2.106  15.759  1.9312  1.7565 -0.0844
  238MPD1    H7 3675   1.478   2.140  15.749 -0.6630  0.1078 -2.5352
  239MPD1     C 3676   1.765   3.814  15.023  0.4478  0.4173 -0.0699
  239MPD1    C1 3677   1.656   3.727  15.013 -0.7897 -0.4020 -0.0590
  239MPD1    C2 3678   1.585   3.736  14.892  0.6484  0.3124 -0.0296
  239MPD1    C3 3679   1.625   3.824  14.790  0.4772  0.8957 -0.1577
  239MPD1    C4 3680   1.736   3.900  14.806  0.0460 -0.0162  0.4316
  239MPD1    C5 3681   1.810   3.889  14.920  0.3845 -0.2511  0.2173
  239MPD1     H 3682   1.492   3.679  14.886 -0.9704  2.7034  2.5206
  239MPD1    H1 3683   1.773   3.966  14.728  0.7539 -0.9257  0.0059
  239MPD1    H2 3684   1.815   3.819  15.119  0.8866 -0.2864 -0.2673
  239MPD1    H3 3685   1.900   3.949  14.925 -0.4755  1.0661 -0.0831
  239MPD1     N 3686   1.553   3.837  14.667 -0.4769 -0.6809  0.2826
  239MPD1    H5 3687   1.596   3.892  14.593 -0.2547 -0.0659  0.8674
  239MPD1    N1 3688   1.606   3.640  15.113 -0.3414 -0.1216  0.1295
  239MPD1    H6 3689   1.673   3.618  15.186  0.9608  0.3604 -0.9310
  239MPD1    H7 3690   1.554   3.558  15.081 -0.6895 -0.0265  0.4485
  240MPD1     C 3691   1.057   3.625  13.936 -0.2399  0.1413 -0.0309
  240MPD1    C1 3692   0.958   3.531  13.932  0.0089  0.1006  0.4229
  240MPD1    C2 3693   0.943   3.447  14.045  0.1721 -0.6670 -0.1853
  240MPD1    C3 3694   1.030   3.460  14.151  0.4186 -0.1167  0.4692
  240MPD1    C4 3695   1.136   3.547  14.146 -0.1351  0.0311 -0.5965
  240MPD1    C5 3696   1.139   3.636  14.046  0.8506  0.1521  0.0787
  240MPD1     H 3697   0.861   3.377  14.061 -1.4255  1.2251 -0.0127
  240MPD1    H1 3698   1.222   3.559  14.212  0.0685  0.4704 -0.9372
  240MPD1    H2 3699   1.076   3.696  13.857  1.2025 -0.6015 -0.3469
  240MPD1    H3 3700   1.224   3.704  14.038  0.5698  0.6273  1.1076
  240MPD1     N 3701   1.022   3.364  14.256  0.3378 -0.2736 -0.4290
  240MPD1    H5 3702   0.944   3.300  14.250 -0.5490  0.9384 -1.7029
  240MPD1    N1 3703   0.867   3.528  13.826 -0.6471 -0.0286  0.1163
  240MPD1    H6 3704   0.912   3.562  13.741 -1.3990 -0.4999 -0.4800
  240MPD1    H7 3705   0.824   3.437  13.809 -0.6948  0.0856 -0.3956
  241MPD1     C 3706   1.681   3.061  14.971 -0.0532  0.1748 -0.6616
  241MPD1    C1 3707   1.557   3.066  15.019 -0.2704  0.0076 -0.0305
  241MPD1    C2 3708   1.453   3.070  14.925 -0.1242  0.4376  0.3862
  241MPD1    C3 3709   1.488   3.084  14.791  0.7465  0.0153  0.0584
  241MPD1    C4 3710   1.620   3.096  14.751  0.2893 -0.1912 -0.9635
  241MPD1    C5 3711   1.711   3.085  14.846  1.1982  0.0218  0.1945
  241MPD1     H 3712   1.350   3.068  14.959  0.1036 -3.7051  0.8491
  241MPD1    H1 3713   1.654   3.097  14.648  0.6337 -1.6572 -0.8658
  241MPD1    H2 3714   1.759   3.035  15.042  0.0822  0.6869 -0.6241
  241MPD1    H3 3715   1.814   3.075  14.815  1.6333  0.9820  1.3217
  241MPD1     N 3716   1.392   3.085  14.695 -0.7022  0.4214 -0.2161
  241MPD1    H5 3717   1.416   3.104  14.599 -0.8883  0.5270 -0.2423
  241MPD1    N1 3718   1.525   3.036  15.151  0.2420  1.1820  0.5665
  241MPD1    H6 3719   1.603   3.069  15.209  0.6017  0.4570  0.4976
  241MPD1    H7 3720   1.445   3.096  15.171 -0.7100 -0.6534  2.2088
  242MPD1     C 3721   0.848   2.025  15.626 -0.2256 -1.0219  0.7804
  242MPD1    C1 3722   0.846   2.047  15.490 -0.7273  0.6405  0.1450
  242MPD1    C2 3723   0.832   1.943  15.407 -0.0597  0.1254 -0.0621
  242MPD1    C3 3724   0.824   1.814  15.453 -0.0718  0.6617  0.4417
  242MPD1    C4 3725   0.825   1.793  15.591  0.3063  0.5015 -0.0596
  242MPD1    C5 3726   0.834   1.898  15.677 -0.1581 -0.2679 -0.4188
  242MPD1     H 3727   0.849   1.949  15.300  1.5803 -0.1700  0.1822
  242MPD1    H1 3728   0.827   1.693  15.633  2.6902  0.1252 -1.0760
  242MPD1    H2 3729   0.862   2.103  15.701 -0.1477  0.1730 -0.4743
  242MPD1    H3 3730   0.851   1.873  15.781 -1.8280 -0.3498 -0.1617
  242MPD1     N 3731   0.817   1.696  15.369  0.3643  1.0412 -0.0838
  242MPD1    H5 3732   0.828   1.605  15.414  1.4759  0.0704 -2.3174
  242MPD1    N1 3733   0.892   2.174  15.446  0.0105  0.1906  0.3996
  242MPD1    H6 3734   0.854   2.248  15.503 -0.2168  0.0515  0.4284
  242MPD1    H7 3735   0.866   2.197  15.350  1.7514  0.8810  0.0894
  243MPD1     C 3736   3.001   3.759   0.207 -0.1222 -1.2715  0.2163
  243MPD1    C1 3737   2.936   3.686   0.111  0.1080  0.3119 -0.5806
  243MPD1    C2 3738   2.908   3.748  17.743 -0.4045 -0.2478  0.4699
  243MPD1    C3 3739   2.923   3.886  17.735  0.5904  0.6199 -0.4918
  243MPD1    C4 3740   2.975   3.960   0.085 -0.2598  0.1170  0.1614
  243MPD1    C5 3741   3.016   3.895   0.198  0.4763 -0.0803  0.0603
  243MPD1     H 3742   2.859   3.691  17.665 -2.7357  0.9569  1.0605
  243MPD1    H1 3743   2.971   4.069   0.086  1.1219  0.1568  1.1698
  243MPD1    H2 3744   3.039   3.711   0.297  0.4892  1.2602  1.2895
  243MPD1    H3 3745   3.055   3.954   0.281  0.9004  1.4789 -1.2438
  243MPD1     N 3746   2.879   3.940  17.610 -0.0598  0.3650 -0.0388
  243MPD1    H5 3747   2.836   3.871  17.550 -1.4429 -0.4070  1.8400
  243MPD1    N1 3748   2.935   3.545   0.132 -0.3205  0.5288 -0.0951
  243MPD1    H6 3749   2.857   3.495   0.090  1.1563 -3.3592  1.6972
  243MPD1    H7 3750   2.929   3.533   0.233 -0.7379  1.7985  0.0312
  244MPD1     C 3751   2.904   3.520  16.921 -0.4799 -0.4807 -0.1880
  244MPD1    C1 3752   2.869   3.501  17.046 -0.4073 -0.0589  0.0799
  244MPD1    C2 3753   2.824   3.616  17.107 -1.0882  0.8815  0.5064
  244MPD1    C3 3754   2.812   3.741  17.057  0.1553  0.5019 -0.0429
  244MPD1    C4 3755   2.840   3.747  16.922  0.0217  0.0119  0.1012
  244MPD1    C5 3756   2.889   3.639  16.859 -0.5584  0.2453  0.5067
  244MPD1     H 3757   2.796   3.609  17.212  2.2981 -1.6153  1.2659
  244MPD1    H1 3758   2.821   3.832  16.857 -0.7638  1.0745  1.7299
  244MPD1    H2 3759   2.951   3.442  16.862  1.3468  1.8834 -1.8208
  244MPD1    H3 3760   2.928   3.650  16.758 -0.6016  0.9089  0.5692
  244MPD1     N 3761   2.782   3.845  17.147  0.2867  0.3836  0.0087
  244MPD1    H5 3762   2.782   3.813  17.244 -2.6987  0.0257 -0.1117
  244MPD1    N1 3763   2.911   3.387  17.124  0.4761 -0.3613 -0.2611
  244MPD1    H6 3764   2.847   3.366  17.200  3.4286  0.1934  2.3753
  244MPD1    H7 3765   2.935   3.313  17.058 -0.1592  1.9395 -3.1115
  245MPD1     C 3766   3.599   0.901  12.723 -0.5885  0.3385  0.1098
  245MPD1    C1 3767   3.648   0.886  12.848  0.5506 -0.7483 -0.0404
  245MPD1    C2 3768   3.736   0.986  12.900  0.4345 -0.0559  0.2644
  245MPD1    C3 3769   3.779   1.090  12.821  0.1969 -0.5425 -0.4622
  245MPD1    C4 3770   3.725   1.105  12.689  0.0561  0.0310 -0.4195
  245MPD1    C5 3771   3.632   1.010  12.647 -0.1145  0.3870  0.0277
  245MPD1     H 3772   3.763   0.976  13.004  1.1141  0.0848  0.0985
  245MPD1    H1 3773   3.742   1.190  12.624 -2.1162  2.1731  1.8336
  245MPD1    H2 3774   3.508   0.850  12.693 -0.2871 -0.1391  0.0073
  245MPD1    H3 3775   3.570   1.031  12.560  0.0681  0.5728 -0.0559
  245MPD1     N 3776   3.856   1.190  12.880  0.0783 -0.6334  0.2249
  245MPD1    H5 3777   3.901   1.171  12.969  0.8001 -0.6613 -0.1481
  245MPD1    N1 3778   3.594   0.783  12.933 -0.7361 -0.1951 -0.1916
  245MPD1    H6 3779   3.643   0.784  13.022  1.0407  1.0414 -1.1872
  245MPD1    H7 3780   3.623   0.698  12.885  0.9865  1.2508 -1.6503
  246MPD1     C 3781   0.195   4.423   9.917 -0.4060 -0.0209 -0.8767
  246MPD1    C1 3782   0.309   4.494   9.954 -0.2620  0.0208 -0.1974
  246MPD1    C2 3783   0.303   4.628   9.981 -0.2113  0.3782 -0.3797
  246MPD1    C3 3784   0.190   4.699   9.947 -0.0128 -0.0388  0.3913
  246MPD1    C4 3785   0.079   4.628   9.910  0.0469  0.1129  0.1157
  246MPD1    C5 3786   0.079   4.494   9.903 -0.1939  0.9065  0.4745
  246MPD1     H 3787   0.388   4.675  10.030  0.6375 -1.9506  0.4157
  246MPD1    H1 3788   4.725   4.681   9.903  0.4918  0.3459 -3.6737
  246MPD1    H2 3789   0.197   4.314   9.924 -0.4604 -0.1496 -2.8169
  246MPD1    H3 3790   4.724   4.443   9.890  0.9632 -0.7035 -1.7923
  246MPD1     N 3791   0.190   0.091   9.979 -0.0096 -0.2432  0.2856
  246MPD1    H5 3792   0.272   0.129  10.025 -0.5083  2.2092 -0.7922
  246MPD1    N1 3793   0.424   4.423   9.997 -0.0390  0.7133 -0.2081
  246MPD1    H6 3794   0.427   4.335   9.947 -4.1567  0.7788 -0.6339
  246MPD1    H7 3795   0.512   4.472   9.982  0.5595 -0.4991 -0.5722
  247MPD1     C 3796   3.736   4.724  17.010 -0.5688  0.4625 -0.1670
  247MPD1    C1 3797   3.668   4.648  16.918  0.2985 -0.3819 -0.1537
  247MPD1    C2 3798   3.687   4.677  16.779 -0.2727 -0.2246 -0.7532
  247MPD1    C3 3799   3.734   0.060  16.741 -0.3580 -0.3994  0.4768
  247MPD1    C4 3800   3.791   0.141  16.839  0.0341  0.0228  1.0827
  247MPD1    C5 3801   3.789   0.102  16.970  0.2011  0.1218 -0.3857
  247MPD1     H 3802   3.660   4.603  16.704 -0.3447  0.0342 -0.9803
  247MPD1    H1 3803   3.835   0.236  16.811 -1.5155  1.0506  2.1498
  247MPD1    H2 3804   3.744   4.706  17.117  0.1578 -1.8379 -0.5934
  247MPD1    H3 3805   3.835   0.158  17.051 -0.2375  0.5057 -0.4019
  247MPD1     N 3806   3.737   0.100  16.601  0.2008 -0.0054  0.5825
  247MPD1    H5 3807   3.792   0.184  16.587  1.7247 -0.7831  1.8987
  247MPD1    N1 3808   3.597   4.530  16.952  0.0467 -0.2723 -0.2821
  247MPD1    H6 3809   3.513   4.509  16.900  0.8534 -0.8592 -1.3626
  247MPD1    H7 3810   3.556   4.522  17.044 -0.5587  1.5821 -0.3989
  248MPD1     C 3811   0.052   4.251   0.150 -0.2605 -0.6349  0.4786
  248MPD1    C1 3812   4.736   4.381   0.171 -0.6679 -0.1980  0.0019
  248MPD1    C2 3813   4.664   4.402   0.288 -0.1547  0.4307 -0.5994
  248MPD1    C3 3814   4.646   4.300   0.381  0.6507  0.3353 -0.5138
  248MPD1    C4 3815   4.710   4.179   0.363 -0.0524 -0.0308 -0.6606
  248MPD1    C5 3816   0.038   4.156   0.249 -0.5437  0.0043 -0.5702
  248MPD1     H 3817   4.620   4.496   0.316 -0.6073 -0.4523  1.6182
  248MPD1    H1 3818   4.702   4.085   0.417  0.4792  0.0840 -0.3836
  248MPD1    H2 3819   0.118   4.224   0.069  3.3578  0.2872  3.1366
  248MPD1    H3 3820   0.103   4.071   0.233 -1.6908 -1.3291  1.7939
  248MPD1     N 3821   4.566   4.334   0.494 -0.2517  0.3103 -0.2119
  248MPD1    H5 3822   4.523   4.426   0.504  0.6091  0.7998 -1.0799
  248MPD1    N1 3823   0.037   4.479   0.083  0.5835 -0.1204 -0.4272
  248MPD1    H6 3824   4.705   4.551   0.074  0.6404 -0.1176 -0.8779
  248MPD1    H7 3825   0.043   4.444  17.744  3.0576  0.3705 -0.4501
  249MPD1     C 3826   1.396   4.711  10.873 -0.2954  0.4727  0.4774
  249MPD1    C1 3827   1.326   4.698  10.754 -0.4069 -0.4275  0.5307
  249MPD1    C2 3828   1.312   4.574  10.703  0.7584  0.1281  0.1243
  249MPD1    C3 3829   1.364   4.466  10.767 -0.0896  1.2079 -0.1701
  249MPD1    C4 3830   1.438   4.480  10.880  0.1885 -0.0191 -0.0415
  249MPD1    C5 3831   1.451   4.602  10.936  0.0851 -0.0481  0.3462
  249MPD1     H 3832   1.248   4.563  10.616  1.5491  1.7081 -0.6376
  249MPD1    H1 3833   1.501   4.402  10.921 -0.3404  0.7132  2.1892
  249MPD1    H2 3834   1.411   0.073  10.909 -1.4831 -0.0948  2.5526
  249MPD1    H3 3835   1.520   4.604  11.019 -0.9459 -0.9761  1.2279
  249MPD1     N 3836   1.339   4.344  10.701  0.2225 -0.0430 -0.7116
  249MPD1    H5 3837   1.281   4.335  10.619 -1.4371 -0.2646  0.4880
  249MPD1    N1 3838   1.294   0.074  10.679 -0.0680 -0.0372 -0.7414
  249MPD1    H6 3839   1.306   0.164  10.724  0.9177 -0.2375 -0.5883
  249MPD1    H7 3840   1.211   0.057  10.623  0.5393 -0.8039 -1.4239
  250MPD2     C 3841   2.852   3.786  13.012  0.2381 -0.0430  0.4655
  250MPD2    C1 3842   2.745   3.876  13.015 -0.0784  0.1695 -0.0991
  250MPD2    C2 3843   2.620   3.827  12.971  0.6738 -0.3601  0.0007
  250MPD2    C3 3844   2.604   3.692  12.944 -0.4033 -0.3580  0.4579
  250MPD2    C4 3845   2.706   3.606  12.967 -0.2038  0.5876  0.7782
  250MPD2    C5 3846   2.831   3.650  12.995  0.8293 -0.1269 -0.0953
  250MPD2     H 3847   2.537   3.896  12.967  0.6930 -0.3764 -0.7385
  250MPD2    H1 3848   2.690   3.499  12.957 -1.2004  1.0293 -2.2748
  250MPD2    H2 3849   2.951   3.824  13.035  0.1913  0.6241 -0.4333
  250MPD2    H3 3850   2.917   3.584  12.990 -0.1290 -1.3413 -0.5232
  250MPD2     N 3851   2.477   3.641  12.911  0.0521 -0.2576 -0.0806
  250MPD2    H5 3852   2.459   3.541  12.913 -0.0551 -0.2031  1.4776
  250MPD2    N1 3853   2.775   4.009  13.035  0.2364 -0.0409  0.1351
  250MPD2    H7 3854   2.874   4.033  13.034  0.3999 -0.6664  1.4696
  251TMC3    C1 3855   2.717   4.246  13.023 -0.0936  0.0975  0.4064
  251TMC3    C2 3856   2.629   4.343  13.068  0.0916  0.7879 -0.0903
  251TMC3    C3 3857   2.678   4.467  13.094  0.8248  0.2003 -0.1929
  251TMC3    C4 3858   2.847   4.270  13.002 -0.4039  0.5219  0.2552
  251TMC3    C5 3859   2.891   4.401  13.024  0.1787 -1.1192  0.0267
  251TMC3    C6 3860   2.808   4.504  13.073 -0.0441 -0.0010  0.2349
  251TMC3     C 3861   2.677   4.107  13.039  0.0367  0.2617 -0.1669
  251TMC3     O 3862   2.561   4.089  13.065 -0.1222 -0.1784 -0.7377
  251TMC3     H 3863   2.524   4.328  13.089  0.1349  0.6586  0.0283
  251TMC3    H1 3864   2.911   4.200  12.951 -0.1972 -0.1831  1.4733
  251TMC3    H2 3865   2.853   4.595  13.110  2.5598 -1.3734  0.4561
  251TMC3    C7 3866   3.029   4.425  12.981  0.0973  0.5043  0.1281
  251TMC3    C8 3867   2.577   4.564  13.102 -0.4222 -0.0392 -0.5845
  251TMC3    O1 3868   3.098   4.323  12.967  0.3866  0.0290  0.2586
  251TMC3    O2 3869   2.471   4.532  13.158 -0.2121 -0.0176  0.6280
  252TMC3    C1 3870   1.772   1.714  10.214  0.6438  0.0614  0.5209
  252TMC3    C2 3871   1.894   1.686  10.159  0.9799  0.1721  0.2930
  252TMC3    C3 3872   1.928   1.555  10.119  0.2430  0.1554 -0.2802
  252TMC3    C4 3873   1.680   1.608  10.234 -0.2969  0.3475 -0.2501
  252TMC3    C5 3874   1.722   1.483  10.206 -0.3470  0.0829  0.5118
  252TMC3    C6 3875   1.847   1.451  10.153  0.1656 -0.3083  0.1976
  252TMC3     C 3876   1.709   1.845  10.233  0.1114  0.6692  0.4452
  252TMC3     O 3877   1.590   1.844  10.259 -0.7105  0.7168 -0.6919
  252TMC3     H 3878   1.970   1.762  10.145  2.1033 -1.0423 -0.1899
  252TMC3    H1 3879   1.580   1.622  10.275  0.2314  1.3105  0.7169
  252TMC3    H2 3880   1.878   1.348  10.143  0.7262 -0.0659 -0.4914
  252TMC3    C7 3881   1.636   1.373  10.227 -0.0677 -0.0290 -0.4609
  252TMC3    C8 3882   2.054   1.519  10.063  0.1325  0.3162  0.2244
  252TMC3    O1 3883   1.517   1.392  10.208  0.0368  0.6174 -0.0012
  252TMC3    O2 3884   2.122   1.618  10.033  0.2474  0.5886 -0.0589
  253MPD2     C 3885   4.117   4.153  15.299 -0.9783  0.3912  0.0254
  253MPD2    C1 3886   3.987   4.112  15.267  0.2976 -0.3553  0.5978
  253MPD2    C2 3887   3.896   4.066  15.372  0.5401 -0.3616  0.1266
  253MPD2    C3 3888   3.946   4.047  15.500 -0.0675 -0.7285 -0.2124
  253MPD2    C4 3889   4.080   4.077  15.520 -1.2340  0.4175  0.1218
  253MPD2    C5 3890   4.165   4.125  15.429  0.6785 -0.3275  0.0970
  253MPD2     H 3891   3.798   4.031  15.341 -0.5831  1.8459  1.1768
  253MPD2    H1 3892   4.138   4.042  15.605 -0.6873  1.8423  0.3353
  253MPD2    H2 3893   4.187   4.179  15.221 -0.5368 -3.1252 -0.7307
  253MPD2    H3 3894   4.269   4.146  15.450  0.3192 -0.0971  1.5943
  253MPD2     N 3895   3.871   3.997  15.606  0.5171 -0.4444  0.2311
  253MPD2    H5 3896   3.918   3.984  15.695 -0.0346 -0.5385  0.5056
  253MPD2    N1 3897   3.936   4.131  15.141  0.0166 -0.4816  0.5554
  253MPD2    H7 3898   3.841   4.100  15.122 -1.2162  2.1222  2.4756
  254TMC3    C1 3899   3.687   3.942  15.741 -0.6232  0.1633 -0.0762
  254TMC3    C2 3900   3.562   3.980  15.767 -0.1640  0.1277  0.6285
  254TMC3    C3 3901   3.521   3.956  15.892 -0.2123 -0.1722  0.1112
  254TMC3    C4 3902   3.778   3.891  15.830  0.9811  0.5042  0.1969
  254TMC3    C5 3903   3.723   3.853  15.950  0.6437 -0.6861 -0.7593
  254TMC3    C6 3904   3.597   3.887  15.987 -0.3704 -0.4622  0.6943
  254TMC3     C 3905   3.733   3.992  15.610 -0.4345  0.3176 -0.1473
  254TMC3     O 3906   3.651   4.018  15.520 -1.0424  0.3398  0.8365
  254TMC3     H 3907   3.499   4.029  15.694  0.7491 -0.6218 -0.6528
  254TMC3    H1 3908   3.880   3.862  15.807  0.5984 -0.6489 -0.0144
  254TMC3    H2 3909   3.538   3.862  16.074 -1.2320  1.3674  0.6351
  254TMC3    C7 3910   3.799   3.785  16.053 -1.3536 -0.5353  0.0320
  254TMC3    C8 3911   3.401   4.026  15.935  0.4391  0.0554  0.9790
  254TMC3    O1 3912   3.737   3.726  16.136 -0.0255 -0.4098  0.2758
  254TMC3    O2 3913   3.404   4.073  16.049 -0.1562  0.2423 -0.5147
  255MPD2     C 3914   1.227   2.643  10.442  0.0624  0.7223  0.5564
  255MPD2    C1 3915   1.308   2.710  10.359 -0.3414  0.2370 -0.1020
  255MPD2    C2 3916   1.399   2.645  10.276 -0.2082 -0.4062  0.2105
  255MPD2    C3 3917   1.388   2.502  10.264  0.0650  0.0471  0.1022
  255MPD2    C4 3918   1.298   2.432  10.344 -0.6728 -0.0709  0.3942
  255MPD2    C5 3919   1.215   2.504  10.424 -0.0041  0.0474  0.4220
  255MPD2     H 3920   1.468   2.695  10.208 -0.7506  0.5792  0.3744
  255MPD2    H1 3921   1.286   2.324  10.344 -1.1002 -0.0317  2.3649
  255MPD2    H2 3922   1.159   2.693  10.510  0.5479  1.7797  0.2601
  255MPD2    H3 3923   1.149   2.445  10.486  0.2045  0.2442  0.8323
  255MPD2     N 3924   1.481   2.442  10.170  0.0393  0.0441 -0.0343
  255MPD2    H5 3925   1.557   2.495  10.129  0.2287  0.7449  1.2086
  255MPD2    N1 3926   1.294   2.851  10.357 -0.2059  0.4569  0.2050
  255MPD2    H7 3927   1.224   2.905  10.408  0.4971  1.0688  0.5209
  256TMC3    C1 3928   1.326   3.060  10.255  0.1592 -0.1958  0.3688
  256TMC3    C2 3929   1.408   3.170  10.244 -0.1876  0.4108 -0.4886
  256TMC3    C3 3930   1.368   3.268  10.160  0.1872  0.6448 -0.2487
  256TMC3    C4 3931   1.213   3.046  10.178 -0.2655 -1.0405  0.2522
  256TMC3    C5 3932   1.174   3.144  10.094  0.2856  0.1153 -1.0196
  256TMC3    C6 3933   1.251   3.261  10.088 -0.1325  0.2954  0.2320
  256TMC3     C 3934   1.383   2.935  10.299  0.7959  0.1892 -0.4563
  256TMC3     O 3935   1.502   2.915  10.276  0.3912  0.0647  0.5252
  256TMC3     H 3936   1.492   3.186  10.310  1.6313  0.5393 -2.8463
  256TMC3    H1 3937   1.150   2.959  10.193 -1.7632  0.0274  0.1882
  256TMC3    H2 3938   1.233   3.355  10.039 -2.1584 -0.0595  0.2995
  256TMC3    C7 3939   1.063   3.123  10.004  0.2060 -0.3765 -0.3462
  256TMC3    C8 3940   1.440   3.388  10.152  0.4938 -0.4965 -0.2121
  256TMC3    O1 3941   0.993   3.025  10.020  0.2129  0.7361  0.0453
  256TMC3    O2 3942   1.498   3.436  10.246 -0.1407  0.0857  0.3516
  257MPD2     C 3943   0.864   3.948  13.228 -0.1772  0.3404 -0.7811
  257MPD2    C1 3944   0.978   4.016  13.253 -0.0298 -0.0572 -0.4989
  257MPD2    C2 3945   1.057   3.973  13.358  0.0441  0.6631  0.6190
  257MPD2    C3 3946   1.024   3.859  13.429 -0.1714 -0.7604 -0.9097
  257MPD2    C4 3947   0.911   3.787  13.399 -0.5067  0.9225  0.0501
  257MPD2    C5 3948   0.829   3.836  13.299  0.2109 -0.1117  0.2118
  257MPD2     H 3949   1.142   4.033  13.389 -0.8884  0.6749  3.1228
  257MPD2    H1 3950   0.863   3.723  13.472 -1.9100  3.7142  1.5845
  257MPD2    H2 3951   0.790   3.973  13.153 -1.1381  0.7986  0.3194
  257MPD2    H3 3952   0.741   3.780  13.270  1.3221 -1.1522 -1.1472
  257MPD2     N 3953   1.119   3.809  13.530 -0.2796  0.1582  0.0922
  257MPD2    H5 3954   1.206   3.861  13.543  0.1203 -0.3002 -0.7652
  257MPD2    N1 3955   1.003   4.130  13.171 -0.6370  0.6253 -0.6055
  257MPD2    H7 3956   0.929   4.141  13.103 -0.9784 -1.2721 -0.5531
  258TMC3    C1 3957   1.261   3.641  13.611  0.0199 -0.3935  0.6213
  258TMC3    C2 3958   1.352   3.669  13.510 -0.6206  0.2353 -0.2829
  258TMC3    C3 3959   1.479   3.627  13.526  0.4817  0.4997  0.0019
  258TMC3    C4 3960   1.286   3.551  13.707  0.4466  0.5766 -0.4214
  258TMC3    C5 3961   1.413   3.501  13.718  0.0105 -0.7420  0.0273
  258TMC3    C6 3962   1.509   3.536  13.631 -0.5853 -0.6740  0.6527
  258TMC3     C 3963   1.127   3.684  13.587 -0.3314 -0.2858 -0.0093
  258TMC3     O 3964   1.047   3.592  13.570  0.2956  0.8505  0.2344
  258TMC3     H 3965   1.323   3.714  13.416 -1.6673  0.2876  0.0625
  258TMC3    H1 3966   1.208   3.527  13.778  0.7192 -0.7927 -0.5733
  258TMC3    H2 3967   1.605   3.486  13.638  0.6088  1.1994 -2.2397
  258TMC3    C7 3968   1.447   3.464  13.858 -0.3197  0.4743  0.0317
  258TMC3    C8 3969   1.575   3.664  13.421  0.4389  0.7898  0.2458
  258TMC3    O1 3970   1.359   3.426  13.938  0.2570  0.0144  0.1214
  258TMC3    O2 3971   1.533   3.730  13.325  0.0761  0.2574  0.1503
  259MPD2     C 3972   0.013   0.669   0.865 -0.2001 -0.0039  0.6464
  259MPD2    C1 3973   0.079   0.555   0.822  0.0959 -0.5951  0.2693
  259MPD2    C2 3974   0.139   0.556   0.696  0.4069  0.2215 -0.0308
  259MPD2    C3 3975   0.134   0.672   0.625 -0.7209 -0.1017 -0.3183
  259MPD2    C4 3976   0.053   0.777   0.660  0.7070  0.0904 -0.6190
  259MPD2    C5 3977   4.730   0.772   0.785  0.0676 -0.4480 -0.1654
  259MPD2     H 3978   0.195   0.472   0.656  0.2759 -0.2313  0.7389
  259MPD2    H1 3979   0.049   0.868   0.602  2.0724  2.1829  2.5991
  259MPD2    H2 3980   4.706   0.673   0.963 -1.5852  0.2109 -0.0193
  259MPD2    H3 3981   4.671   0.855   0.823 -0.4200 -1.8181  2.0833
  259MPD2     N 3982   0.202   0.674   0.499 -0.4640 -0.2315 -0.0799
  259MPD2    H5 3983   0.234   0.587   0.457  1.7044  0.9681 -0.8845
  259MPD2    N1 3984   0.092   0.442   0.904 -0.6085  0.2084  0.6095
  259MPD2    H7 3985   0.054   0.460   0.996 -1.4211 -1.9433  0.7025
  260TMC3    C1 3986   0.276   0.768   0.289  0.4501  0.7041 -0.2317
  260TMC3    C2 3987   0.328   0.878   0.219  0.7398  0.5225 -0.1274
  260TMC3    C3 3988   0.385   0.860   0.091  0.2001  0.8711  0.6792
  260TMC3    C4 3989   0.285   0.642   0.232 -0.0209  0.0676 -0.6789
  260TMC3    C5 3990   0.327   0.631   0.104 -0.1389 -0.0219  0.1864
  260TMC3    C6 3991   0.383   0.730   0.037 -0.1424 -0.9025  0.3190
  260TMC3     C 3992   0.232   0.788   0.428  0.8800  0.1202  0.1452
  260TMC3     O 3993   0.239   0.901   0.471 -0.0191  0.6939 -0.3303
  260TMC3     H 3994   0.327   0.971   0.274  0.5977  1.2554 -1.3600
  260TMC3    H1 3995   0.231   0.561   0.280  0.9456 -0.8852 -1.2013
  260TMC3    H2 3996   0.400   0.715  17.686 -2.2273  1.6224 -0.3706
  260TMC3    C7 3997   0.371   0.499   0.062 -0.3963  0.3437 -0.7808
  260TMC3    C8 3998   0.503   0.934   0.058  0.4271  0.0879 -0.4609
  260TMC3    O1 3999   0.454   0.479  17.728 -0.2756 -0.0297 -0.0068
  260TMC3    O2 4000   0.526   1.037   0.125 -0.1085  0.7084  0.1456
  261MPD2     C 4001   1.657   3.785  12.783  0.5426  0.0017 -0.1471
  261MPD2    C1 4002   1.763   3.811  12.698  0.1298  0.5052 -0.3181
  261MPD2    C2 4003   1.756   3.916  12.607 -0.4964 -0.2306  0.4554
  261MPD2    C3 4004   1.643   3.995  12.594 -0.4205 -0.3573 -0.0727
  261MPD2    C4 4005   1.540   3.970  12.681 -0.1362  0.3642  0.5654
  261MPD2    C5 4006   1.541   3.863  12.768 -0.2650 -0.0455  0.0376
  261MPD2     H 4007   1.836   3.912  12.533 -1.1456 -0.2166 -0.2411
  261MPD2    H1 4008   1.443   4.019  12.682 -0.5625 -0.4276 -0.7558
  261MPD2    H2 4009   1.660   3.707  12.858 -0.7660 -0.5192 -0.6360
  261MPD2    H3 4010   1.460   3.853  12.839  0.1683  0.1841  0.5630
  261MPD2     N 4011   1.647   4.100  12.499  0.4808  0.1567  0.0532
  261MPD2    H5 4012   1.729   4.105  12.439 -0.0689 -1.4640 -0.8289
  261MPD2    N1 4013   1.879   3.735  12.706  0.0748 -0.5399  0.1270
  261MPD2    H7 4014   1.942   3.751  12.629  0.4220 -2.2973  0.0432
  262TMC3    C1 4015   1.577   4.302  12.385 -0.0729  0.4137  0.4345
  262TMC3    C2 4016   1.490   4.406  12.381  0.1903 -0.2661  0.0307
  262TMC3    C3 4017   1.533   4.525  12.325  0.9360 -0.0341 -0.8001
  262TMC3    C4 4018   1.712   4.321  12.353 -0.1757 -0.1986  0.1970
  262TMC3    C5 4019   1.754   4.445  12.308 -0.3444 -0.1058  0.2448
  262TMC3    C6 4020   1.667   4.545  12.290  0.4941 -0.0177 -0.6463
  262TMC3     C 4021   1.554   4.200  12.493 -0.1931 -0.2761 -0.3042
  262TMC3     O 4022   1.444   4.202  12.546 -0.0178  1.1450  0.1930
  262TMC3     H 4023   1.388   4.391  12.413  0.5515  0.0986  1.3547
  262TMC3    H1 4024   1.786   4.242  12.355 -0.3077 -0.3856 -2.7166
  262TMC3    H2 4025   1.705   4.642  12.259  1.4327 -0.7327 -1.7412
  262TMC3    C7 4026   1.888   4.446  12.245 -0.1794 -0.1658 -0.2547
  262TMC3    C8 4027   1.429   4.629  12.282  0.0766 -0.4397 -0.3823
  262TMC3    O1 4028   1.952   4.342  12.238  0.2687 -0.2161 -0.5900
  262TMC3    O2 4029   1.476   4.733  12.240 -0.0025 -0.4226  0.0107
  263MPD2     C 4030   2.540   3.455  11.387  0.0428  0.7363 -0.1330
  263MPD2    C1 4031   2.666   3.468  11.334 -0.1963 -0.5477  0.1689
  263MPD2    C2 4032   2.683   3.557  11.229  0.5843 -0.2816  0.4046
  263MPD2    C3 4033   2.569   3.619  11.169  0.1987 -0.6727 -0.3025
  263MPD2    C4 4034   2.443   3.607  11.228 -0.1182  0.2253 -0.2540
  263MPD2    C5 4035   2.433   3.533  11.344 -0.1439  0.3324  0.2064
  263MPD2     H 4036   2.780   3.582  11.189  0.6389  0.7469  1.1921
  263MPD2    H1 4037   2.363   3.667  11.186  0.0746  1.7779  1.6071
  263MPD2    H2 4038   2.523   3.396  11.477 -0.3770  0.6935 -0.2410
  263MPD2    H3 4039   2.334   3.519  11.385  0.2835  0.9570  1.4272
  263MPD2     N 4040   2.587   3.714  11.067  0.4337  0.2727  0.3684
  263MPD2    H5 4041   2.673   3.707  11.012  0.6313  0.5812  0.6359
  263MPD2    N1 4042   2.775   3.412  11.410  0.1592  0.2081  0.2127
  263MPD2    H7 4043   2.763   3.374  11.503 -3.2836  0.3865 -0.1652
  264TMC3    C1 4044   2.554   3.920  10.932 -0.8131 -0.5988  0.1580
  264TMC3    C2 4045   2.520   4.046  10.963 -0.2628 -0.2357  0.0047
  264TMC3    C3 4046   2.568   4.147  10.882 -0.5640  0.3457  0.5222
  264TMC3    C4 4047   2.634   3.882  10.832 -0.3388 -0.0689  0.2902
  264TMC3    C5 4048   2.660   3.977  10.738  0.5041  0.0399 -0.3856
  264TMC3    C6 4049   2.634   4.107  10.761  0.1438  0.5969 -0.4667
  264TMC3     C 4050   2.506   3.819  11.032  0.0517  0.1950 -0.1445
  264TMC3     O 4051   2.413   3.862  11.097  0.8136  0.7118 -0.3231
  264TMC3     H 4052   2.473   4.073  11.057  0.4795  0.1303  0.2736
  264TMC3    H1 4053   2.669   3.781  10.814  0.5064  0.7053 -2.5715
  264TMC3    H2 4054   2.676   4.186  10.700 -1.9784  2.0571 -0.0311
  264TMC3    C7 4055   2.758   3.945  10.634  0.6849  0.3903  0.8495
  264TMC3    C8 4056   2.603   4.280  10.931 -0.6263  0.6636 -0.4719
  264TMC3    O1 4057   2.821   3.838  10.635  0.2019 -0.4559 -0.3075
  264TMC3    O2 4058   2.706   4.320  10.887  0.4295 -0.2482 -0.3839
  265MPD2     C 4059   0.045   3.625  15.628  0.8016  0.9012  0.9051
  265MPD2    C1 4060   0.113   3.730  15.574  0.3770  0.0929  0.2707
  265MPD2    C2 4061   0.154   3.726  15.441 -0.6453 -0.2053 -0.1218
  265MPD2    C3 4062   0.128   3.619  15.364  0.2447  0.3038  0.0738
  265MPD2    C4 4063   0.049   3.528  15.417 -0.2258  0.2096 -0.0301
  265MPD2    C5 4064   0.025   3.522  15.546 -0.4526  0.7573 -0.2976
  265MPD2     H 4065   0.213   3.807  15.400  2.0853 -1.5333  1.1596
  265MPD2    H1 4066   0.014   3.441  15.362  3.2193  0.0953 -2.0999
  265MPD2    H2 4067   4.738   3.636  15.725 -1.7726 -0.0140 -0.2261
  265MPD2    H3 4068   4.704   3.441  15.583 -1.6724  1.4173 -0.8665
  265MPD2     N 4069   0.174   3.606  15.230  0.4431  0.6933 -0.4153
  265MPD2    H5 4070   0.132   3.524  15.187 -1.4713  0.7426  1.3794
  265MPD2    N1 4071   0.135   3.854  15.648 -0.3279  1.0398 -0.3336
  265MPD2    H7 4072   0.176   3.927  15.590 -1.3837  0.9105 -1.2501
  266TMC3    C1 4073   0.145   4.009  15.822 -0.6234  0.8784  0.1050
  266TMC3    C2 4074   0.198   4.034  15.941 -0.5959  0.0584 -0.6461
  266TMC3    C3 4075   0.193   4.166  15.985  0.2937 -0.3585  0.0988
  266TMC3    C4 4076   0.078   4.097  15.746  0.3258  0.3208  0.2433
  266TMC3    C5 4077   0.060   4.218  15.805  0.0910 -0.6382 -0.2563
  266TMC3    C6 4078   0.120   4.253  15.926 -0.1608  0.2372  0.5562
  266TMC3     C 4079   0.118   3.870  15.779  0.3515  0.0278  0.1001
  266TMC3     O 4080   0.112   3.786  15.865  0.7774  0.0043 -0.2399
  266TMC3     H 4081   0.256   3.960  15.996 -0.7893 -0.7054 -1.4630
  266TMC3    H1 4082   0.017   4.068  15.662  1.2940  0.9901 -0.6848
  266TMC3    H2 4083   0.111   4.356  15.960 -2.6209  0.6223 -1.2184
  266TMC3    C7 4084   0.031   4.331  15.719  0.8929  0.7443  0.2508
  266TMC3    C8 4085   0.309   4.208  16.059  0.3180 -0.3672  0.0715
  266TMC3    O1 4086   4.700   4.424  15.759 -0.3823 -0.2967 -0.3291
  266TMC3    O2 4087   0.401   4.125  16.067 -0.5248 -0.0632  0.0906
  267MPD2     C 4088   3.233   4.468   0.230 -0.1470 -0.0164  0.5759
  267MPD2    C1 4089   3.142   4.571   0.194  0.7294  0.5574 -0.2519
  267MPD2    C2 4090   3.009   4.542   0.184  0.1357 -0.5776  0.2946
  267MPD2    C3 4091   2.962   4.408   0.201  0.0535 -0.3483  0.5348
  267MPD2    C4 4092   3.054   4.304   0.232 -0.0207 -0.1638  0.4394
  267MPD2    C5 4093   3.189   4.339   0.251  0.0992 -0.4413 -0.1612
  267MPD2     H 4094   2.938   4.623   0.173  2.2165  1.1650 -0.1793
  267MPD2    H1 4095   3.018   4.203   0.245  0.6382 -0.3513  0.7727
  267MPD2    H2 4096   3.337   4.499   0.228 -0.4358  0.9359  0.4667
  267MPD2    H3 4097   3.265   4.264   0.267  1.6678  1.0463 -0.6847
  267MPD2     N 4098   2.830   4.369   0.167 -0.4592 -0.0117 -0.8976
  267MPD2    H5 4099   2.821   4.268   0.165 -1.8389  0.0540  1.9732
  267MPD2    N1 4100   3.193   4.704   0.190 -0.1994 -0.0353  0.2657
  267MPD2    H7 4101   3.294   4.712   0.194 -0.3131  2.3705 -1.8377
  268TMC3    C1 4102   3.178   0.202   0.192  0.4343  0.3578 -0.4965
  268TMC3    C2 4103   3.107   0.312   0.150 -0.1825  0.0791 -0.8822
  268TMC3    C3 4104   3.096   0.421   0.230 -0.0461 -0.9677 -0.1862
  268TMC3    C4 4105   3.217   0.193   0.326  0.5780  0.0802 -0.2618
  268TMC3    C5 4106   3.182   0.293   0.417  0.3553 -0.3915  0.1401
  268TMC3    C6 4107   3.123   0.405   0.364 -0.3312  0.7480 -0.9178
  268TMC3     C 4108   3.121   0.074   0.144  0.2908 -0.1513  0.0679
  268TMC3     O 4109   3.007   0.086   0.099  0.3198 -0.1296  0.2239
  268TMC3     H 4110   3.064   0.312   0.050 -0.9432 -0.1099 -0.5603
  268TMC3    H1 4111   3.279   0.113   0.365  1.9361  0.2741 -2.0352
  268TMC3    H2 4112   3.118   0.498   0.419  0.3522  0.1865  0.0734
  268TMC3    C7 4113   3.168   0.259   0.553  0.8396 -1.1930 -0.4531
  268TMC3    C8 4114   3.019   0.538   0.195  0.1607  0.4420 -0.3727
  268TMC3    O1 4115   3.215   0.147   0.584 -0.0056 -0.2637 -0.0264
  268TMC3    O2 4116   2.993   0.613   0.291 -0.2086 -0.2646 -0.5353
  269MPD2     C 4117   3.191   4.481  15.277 -0.0521  0.2143  0.0548
  269MPD2    C1 4118   3.058   4.501  15.307 -0.6635 -0.0487 -0.0914
  269MPD2    C2 4119   3.012   4.632  15.308  0.0189 -0.2228 -0.1881
  269MPD2    C3 4120   3.093   0.001  15.280 -0.4450 -0.4231 -0.3833
  269MPD2    C4 4121   3.229   4.718  15.260 -0.3361  0.1353 -0.0557
  269MPD2    C5 4122   3.275   4.590  15.255  0.1008  0.2057 -0.7293
  269MPD2     H 4123   2.907   4.656  15.303  0.2122  0.3191 -1.5594
  269MPD2    H1 4124   3.306   0.052  15.242  1.2591 -1.6164 -0.4326
  269MPD2    H2 4125   3.239   4.384  15.269  0.4718  0.4775  0.0287
  269MPD2    H3 4126   3.383   4.579  15.249  0.1227  0.9354 -1.6524
  269MPD2     N 4127   3.042   0.135  15.291 -0.6048  0.1577 -0.0907
  269MPD2    H5 4128   2.946   0.144  15.324 -0.5682 -2.6940  0.8444
  269MPD2    N1 4129   2.974   4.391  15.335 -0.1202  0.2080  0.3519
  269MPD2    H7 4130   3.026   4.304  15.331 -1.2785 -0.3517 -2.1908
  270TMC3    C1 4131   2.788   4.251  15.385  0.5901  0.1469 -0.2769
  270TMC3    C2 4132   2.656   4.228  15.347  1.1377  0.1393  1.0570
  270TMC3    C3 4133   2.630   4.103  15.300 -0.6015  0.5743  0.0319
  270TMC3    C4 4134   2.886   4.150  15.406 -0.2761  0.3514  0.1009
  270TMC3    C5 4135   2.841   4.024  15.365  0.5509 -0.2201  0.5180
  270TMC3    C6 4136   2.724   4.008  15.296 -0.0964 -0.4566  0.9436
  270TMC3     C 4137   2.837   4.387  15.358  0.4350 -0.8078 -0.8994
  270TMC3     O 4138   2.754   4.477  15.340  0.3137  0.4033  0.2183
  270TMC3     H 4139   2.581   4.306  15.356 -0.0984 -1.0090  0.6154
  270TMC3    H1 4140   2.982   4.163  15.453 -0.1610 -1.0756  0.2536
  270TMC3    H2 4141   2.697   3.908  15.267 -0.6524 -0.7827  2.5431
  270TMC3    C7 4142   2.947   3.935  15.345  0.1979 -0.0054  0.0019
  270TMC3    C8 4143   2.516   4.082  15.222  0.2379 -0.3678 -0.2893
  270TMC3    O1 4144   3.042   3.943  15.422  0.5771 -0.3709 -0.1789
  270TMC3    O2 4145   2.404   4.091  15.265  0.1854 -0.2620  0.2453
  271MPD2     C 4146   2.166   3.910  13.508 -0.1427 -0.1819 -0.8636
  271MPD2    C1 4147   2.184   3.998  13.609  0.3538  0.1524  1.0951
  271MPD2    C2 4148   2.081   4.085  13.640 -0.1252 -0.6500 -0.0794
  271MPD2    C3 4149   1.973   4.103  13.556  0.4010 -0.1684 -0.2148
  271MPD2    C4 4150   1.953   4.014  13.455 -0.6083  0.2404 -0.9211
  271MPD2    C5 4151   2.054   3.922  13.431 -0.2464 -0.3579  0.4607
  271MPD2     H 4152   2.098   4.163  13.713 -2.3188 -0.9319  0.7238
  271MPD2    H1 4153   1.871   4.021  13.385 -1.3277  1.2826  0.0447
  271MPD2    H2 4154   2.242   3.839  13.476 -0.2054 -0.7101  0.1703
  271MPD2    H3 4155   2.048   3.849  13.351  0.8195 -0.3075  0.3363
  271MPD2     N 4156   1.881   4.206  13.571  0.4298 -0.5604  0.0566
  271MPD2    H5 4157   1.824   4.233  13.491  1.1379  3.3496  0.9151
  271MPD2    N1 4158   2.288   3.995  13.707 -0.4794 -0.1641 -0.0148
  271MPD2    H7 4159   2.286   4.065  13.781 -0.0907  0.0384 -0.2005
  272TMC3    C1 4160   2.454   3.910  13.839  0.7001 -1.1189 -0.7598
  272TMC3    C2 4161   2.567   3.841  13.850  0.0064 -0.0712  0.4573
  272TMC3    C3 4162   2.612   3.799  13.971 -0.2401  0.0239 -0.2584
  272TMC3    C4 4163   2.378   3.947  13.947  0.1830  0.4258 -0.7442
  272TMC3    C5 4164   2.442   3.918  14.065 -0.0565 -0.9903  0.2129
  272TMC3    C6 4165   2.562   3.861  14.083 -0.2042 -0.5092  0.1069
  272TMC3     C 4166   2.392   3.918  13.709  0.3007  0.4419 -0.8539
  272TMC3     O 4167   2.438   3.838  13.624 -0.6962  0.8196  0.2035
  272TMC3     H 4168   2.618   3.820  13.757 -2.4577 -2.0639 -0.4420
  272TMC3    H1 4169   2.284   4.001  13.949  0.0492  0.1536  0.5442
  272TMC3    H2 4170   2.600   3.845  14.183 -2.0399  0.5470  0.9740
  272TMC3    C7 4171   2.370   3.948  14.189 -0.2570  0.0842  0.4744
  272TMC3    C8 4172   2.747   3.746  13.971  0.4142 -0.1307  0.2583
  272TMC3    O1 4173   2.251   3.924  14.195  0.2995 -0.3569  0.2473
  272TMC3    O2 4174   2.801   3.753  13.860 -0.1187 -0.4279  0.4218
  273MPD2     C 4175   2.881   2.995  11.446  1.1883 -0.1301 -0.5406
  273MPD2    C1 4176   2.991   2.922  11.467 -0.8071 -0.3055 -0.8453
  273MPD2    C2 4177   3.029   2.833  11.360  0.6733  0.0681  0.4538
  273MPD2    C3 4178   2.969   2.843  11.237  0.2184 -0.1395 -0.8050
  273MPD2    C4 4179   2.856   2.923  11.227 -0.2935 -0.6569  0.4183
  273MPD2    C5 4180   2.816   3.011  11.329 -0.2905 -0.1611  0.8323
  273MPD2     H 4181   3.104   2.755  11.367 -0.2333 -0.7297  1.1294
  273MPD2    H1 4182   2.804   2.946  11.135  0.5270  0.0212  0.1291
  273MPD2    H2 4183   2.847   3.062  11.525 -0.2396  0.6146 -1.8061
  273MPD2    H3 4184   2.729   3.075  11.325  0.2345  0.6654  2.9397
  273MPD2     N 4185   3.012   2.782  11.122 -0.6760 -0.6262  0.2704
  273MPD2    H5 4186   2.952   2.790  11.040 -1.2802 -0.2599  0.7473
  273MPD2    N1 4187   3.062   2.935  11.594  0.4886 -0.4787 -0.5640
  273MPD2    H7 4188   3.015   2.997  11.659  0.4640 -1.5541  0.4593
  274TMC3    C1 4189   3.155   2.652  10.984  0.8476 -0.3982  1.1531
  274TMC3    C2 4190   3.084   2.685  10.875 -0.4548  0.4375 -0.0155
  274TMC3    C3 4191   3.148   2.709  10.756 -0.0523 -0.2630 -0.0571
  274TMC3    C4 4192   3.297   2.661  10.965 -0.7045 -0.4761 -0.5410
  274TMC3    C5 4193   3.354   2.698  10.853 -1.1547  0.3013 -0.4064
  274TMC3    C6 4194   3.280   2.725  10.744  0.0199  0.0951 -0.0445
  274TMC3     C 4195   3.132   2.717  11.104 -0.4108 -0.1171  0.1153
  274TMC3     O 4196   3.222   2.702  11.188  0.4355 -0.1792  0.1450
  274TMC3     H 4197   2.977   2.699  10.872 -1.0953 -4.3116 -0.2510
  274TMC3    H1 4198   3.361   2.635  11.048  0.0527  0.0979 -0.9428
  274TMC3    H2 4199   3.322   2.736  10.644 -0.4342  0.5123 -0.1900
  274TMC3    C7 4200   3.457   2.801  10.880  0.4140 -0.3880 -0.4008
  274TMC3    C8 4201   3.068   2.703  10.634 -0.0737 -0.2763 -0.3162
  274TMC3    O1 4202   3.529   2.830  10.788 -0.1430  0.1588 -0.1660
  274TMC3    O2 4203   2.974   2.622  10.629 -0.0209  0.2518  0.1873
  275MPD2     C 4204   4.057   4.601  14.514 -0.5513 -0.8681  0.4269
  275MPD2    C1 4205   4.024   4.727  14.462  0.0794 -0.0412 -0.2007
  275MPD2    C2 4206   3.901   0.008  14.397 -0.3689  0.3037 -0.1194
  275MPD2    C3 4207   3.814   4.634  14.376  0.3367 -0.0085 -0.2033
  275MPD2    C4 4208   3.847   4.513  14.440  0.0307 -0.2019 -0.4253
  275MPD2    C5 4209   3.967   4.502  14.508  0.9175  0.2583 -0.6775
  275MPD2     H 4210   3.883   0.105  14.351 -1.3437 -0.0119 -0.4023
  275MPD2    H1 4211   3.795   4.420  14.425  0.3151 -0.3906 -0.2358
  275MPD2    H2 4212   4.150   4.575  14.562 -0.8377 -0.0459  1.4275
  275MPD2    H3 4213   3.992   4.402  14.541 -0.0058 -0.2472 -1.5080
  275MPD2     N 4214   3.694   4.647  14.293  0.3555 -0.0813 -0.2062
  275MPD2    H5 4215   3.634   4.565  14.295 -1.1049  0.9479 -1.8399
  275MPD2    N1 4216   4.117   0.099  14.460  0.1686 -0.4312  0.2134
  275MPD2    H7 4217   4.078   0.187  14.429  1.0106 -0.6050 -1.3548
  276TMC3    C1 4218   4.276   0.239  14.552 -0.4337 -0.1476 -0.2186
  276TMC3    C2 4219   4.165   0.318  14.525  0.9114  0.3304 -0.0114
  276TMC3    C3 4220   4.105   0.387  14.631 -1.1118 -0.6498 -0.0079
  276TMC3    C4 4221   4.339   0.242  14.674  0.2611  0.1429  0.0172
  276TMC3    C5 4222   4.276   0.311  14.775 -0.3349  0.3890  0.2272
  276TMC3    C6 4223   4.164   0.392  14.752 -0.7800 -0.2348  0.2317
  276TMC3     C 4224   4.238   0.105  14.530  0.4657  0.1847 -0.5578
  276TMC3     O 4225   4.292   0.015  14.591  0.1137 -0.2275  0.1183
  276TMC3     H 4226   4.138   0.331  14.421 -0.6312  0.1486  0.3662
  276TMC3    H1 4227   4.427   0.182  14.692  0.4871 -0.0238 -1.6193
  276TMC3    H2 4228   4.124   0.441  14.840 -3.2203  0.0873 -1.0605
  276TMC3    C7 4229   4.351   0.327  14.901  0.2953  0.3795  0.2308
  276TMC3    C8 4230   3.958   0.388  14.612  0.1387  0.6082 -0.1746
  276TMC3    O1 4231   4.329   0.433  14.959  0.8612 -0.2562  0.7350
  276TMC3    O2 4232   3.916   0.405  14.497  0.0519 -0.0592  0.7816
  277MPD2     C 4233   0.341   4.534  13.085 -0.2057 -0.1733 -0.1493
  277MPD2    C1 4234   0.296   4.583  13.207 -0.0562  0.3021  1.0948
  277MPD2    C2 4235   0.292   4.492  13.314  0.7935 -0.1497  0.6004
  277MPD2    C3 4236   0.329   4.361  13.299 -0.1081 -0.9730 -0.0543
  277MPD2    C4 4237   0.366   4.311  13.179 -0.1004  0.6050 -0.1469
  277MPD2    C5 4238   0.382   4.402  13.080  0.4242 -0.4079 -0.1687
  277MPD2     H 4239   0.246   4.527  13.405 -0.0717 -2.9971  1.2779
  277MPD2    H1 4240   0.406   4.211  13.166  2.7427  1.8420 -0.9699
  277MPD2    H2 4241   0.359   4.600  13.000  1.4024 -3.5308 -2.4423
  277MPD2    H3 4242   0.398   4.367  12.978  1.2234  0.3817 -0.3091
  277MPD2     N 4243   0.307   4.277  13.411  0.2883 -0.0511 -0.1730
  277MPD2    H5 4244   0.302   4.327  13.499 -0.8468  2.6927 -1.7688
  277MPD2    N1 4245   0.258   4.715  13.217 -0.5938  0.3543 -0.4374
  277MPD2    H7 4246   0.237   0.021  13.129  0.3282 -1.2319 -1.4785
  278TMC3    C1 4247   0.327   4.090  13.554 -0.2735 -0.7462  0.2311
  278TMC3    C2 4248   0.382   3.967  13.579  0.4172  0.2108  0.1814
  278TMC3    C3 4249   0.353   3.906  13.695 -0.6086 -0.3248  0.3728
  278TMC3    C4 4250   0.258   4.153  13.653  0.4314 -0.7166  0.0918
  278TMC3    C5 4251   0.222   4.085  13.763 -0.0126  0.0815  0.4384
  278TMC3    C6 4252   0.266   3.956  13.785 -0.0233 -0.6343  0.5450
  278TMC3     C 4253   0.341   4.145  13.424 -0.3588  0.4921  0.1595
  278TMC3     O 4254   0.382   4.070  13.338  0.0005  0.2649 -0.0832
  278TMC3     H 4255   0.423   3.909  13.498 -0.1761  0.0382  0.0083
  278TMC3    H1 4256   0.210   4.250  13.643 -2.4055 -2.2185 -1.1134
  278TMC3    H2 4257   0.247   3.900  13.876 -1.9703  0.5700  0.8580
  278TMC3    C7 4258   0.120   4.147  13.843  0.1807 -0.5225  0.7586
  278TMC3    C8 4259   0.390   3.764  13.709  1.0521  0.3228  0.6527
  278TMC3    O1 4260   0.117   4.267  13.850 -1.0472  0.4192  0.3366
  278TMC3    O2 4261   0.488   3.739  13.641 -0.0073  0.3550 -0.5908
  279MPD2     C 4262   4.732   3.482   0.272 -0.5545 -0.3915 -0.3834
  279MPD2    C1 4263   4.674   3.602   0.285 -0.0358 -0.8337  0.4126
  279MPD2    C2 4264   4.679   3.690   0.172 -0.3189 -0.2129 -0.9150
  279MPD2    C3 4265   4.730   3.643   0.044  0.4370  0.1341  0.1442
  279MPD2    C4 4266   0.039   3.518   0.040 -0.1996 -0.6125  0.5244
  279MPD2    C5 4267   0.041   3.435   0.155  0.0818  0.5356 -0.4867
  279MPD2     H 4268   4.642   3.792   0.175  1.4365  0.3971 -0.5394
  279MPD2    H1 4269   0.091   3.489  17.706 -1.5552 -0.0615 -0.4348
  279MPD2    H2 4270   4.728   3.410   0.354  0.7359 -0.0585 -0.0325
  279MPD2    H3 4271   0.097   3.343   0.140 -1.0565 -0.3502  0.7875
  279MPD2     N 4272   4.731   3.713  17.680 -0.1767  0.0262 -0.1833
  279MPD2    H5 4273   0.020   3.656  17.601  2.5713 -0.8272  1.4159
  279MPD2    N1 4274   4.627   3.635   0.411 -0.4485  0.6425 -0.3143
  279MPD2    H7 4275   4.679   3.585   0.482  1.9534  2.3530 -0.8488
  280TMC3    C1 4276   4.443   3.793   0.347 -0.3326  1.3153 -0.5280
  280TMC3    C2 4277   4.364   3.714   0.266  0.3090 -0.3997  0.3712
  280TMC3    C3 4278   4.262   3.761   0.195 -0.6676  0.0543  0.4989
  280TMC3    C4 4279   4.398   3.916   0.374  0.5475 -0.7750 -0.4655
  280TMC3    C5 4280   4.305   3.975   0.301  0.3729 -0.0372 -0.6259
  280TMC3    C6 4281   4.234   3.898   0.205  0.4390 -0.2146 -0.5263
  280TMC3     C 4282   4.543   3.744   0.442  0.1519 -0.2766 -0.2640
  280TMC3     O 4283   4.531   3.793   0.548  0.4423  0.1165 -0.3963
  280TMC3     H 4284   4.402   3.613   0.259  3.3677  0.6611  1.2938
  280TMC3    H1 4285   4.456   3.979   0.440 -0.5945  0.9558 -1.1001
  280TMC3    H2 4286   4.162   3.939   0.135 -0.5054 -0.6615  0.1811
  280TMC3    C7 4287   4.246   4.094   0.353  0.3481 -0.0348  0.0399
  280TMC3    C8 4288   4.205   3.681   0.087  0.2027 -0.0193 -0.1573
  280TMC3    O1 4289   4.242   4.104   0.476  0.0617  0.0347  0.2293
  280TMC3    O2 4290   4.136   3.732   0.001 -0.1912  0.3272  0.3799
  281TMC3    C1 4291   3.382   4.230  13.227  0.3631  1.3537 -0.5253
  281TMC3    C2 4292   3.422   4.326  13.136 -0.6083 -0.6790  0.4233
  281TMC3    C3 4293   3.464   4.284  13.007  0.1821 -0.4344  0.4564
  281TMC3    C4 4294   3.395   4.096  13.202 -0.6801  0.3721 -0.2883
  281TMC3    C5 4295   3.438   4.058  13.076 -0.1402  0.3395 -0.2082
  281TMC3    C6 4296   3.471   4.151  12.982  0.2039  0.2715  0.1773
  281TMC3     C 4297   3.248   4.247  13.294 -0.8681  0.1319 -0.6095
  281TMC3     O 4298   3.187   4.144  13.306 -0.0022  0.7051  0.6456
  281TMC3     H 4299   3.435   4.430  13.164 -0.0664 -0.1686 -1.7059
  281TMC3    H1 4300   3.368   4.013  13.266 -1.0190  0.2599 -0.5725
  281TMC3    H2 4301   3.511   4.129  12.884  1.4396  0.8789  0.5407
  281TMC3    C7 4302   3.397   3.934  13.022  0.8874  0.2599 -0.6831
  281TMC3    C8 4303   3.558   4.370  12.929  0.2819  0.0059  0.4576
  281TMC3    O1 4304   3.413   3.925  12.901 -0.1775 -0.1897  0.1589
  281TMC3    O2 4305   3.656   4.306  12.888  0.1278  0.2905  0.2338
  282MPD2     C 4306   0.414   0.667  14.935  0.0214 -0.4932  0.5900
  282MPD2    C1 4307   0.319   0.754  14.983  0.9271  0.0820  0.2424
  282MPD2    C2 4308   0.224   0.811  14.893 -0.2907  0.7876  0.1132
  282MPD2    C3 4309   0.224   0.788  14.755  0.3094 -0.3921 -0.6109
  282MPD2    C4 4310   0.327   0.712  14.706  0.2901 -0.3819  0.1493
  282MPD2    C5 4311   0.419   0.656  14.800  0.1705 -0.0714  0.1909
  282MPD2     H 4312   0.143   0.870  14.934  0.2834  2.1578 -0.7482
  282MPD2    H1 4313   0.333   0.667  14.607 -1.9180  0.8845 -0.5559
  282MPD2    H2 4314   0.480   0.613  15.002  0.8175 -0.4275 -0.1448
  282MPD2    H3 4315   0.498   0.590  14.768 -0.5725 -1.3250  0.9244
  282MPD2     N 4316   0.112   0.838  14.678  0.1638 -0.1662 -0.2101
  282MPD2    H5 4317   0.037   0.884  14.730  1.2629 -1.7475  2.8155
  282MPD2    N1 4318   0.309   0.782  15.121  0.0555  0.2924 -0.1955
  282MPD2    H7 4319   0.240   0.851  15.149 -0.6189 -0.1314 -0.8075
  283TMC3    C1 4320   0.361   0.788  15.358  0.5914 -0.4393 -0.3796
  283TMC3    C2 4321   0.327   0.921  15.354  0.6277  0.1283 -0.0185
  283TMC3    C3 4322   0.256   0.972  15.458 -0.9723 -0.0369  0.0627
  283TMC3    C4 4323   0.304   0.703  15.450  0.1533  0.1881 -0.6092
  283TMC3    C5 4324   0.217   0.756  15.546  0.0715  0.1699 -0.1439
  283TMC3    C6 4325   0.196   0.894  15.555  0.2822  0.2449 -0.4056
  283TMC3     C 4326   0.373   0.717  15.226  0.1150  0.0011  0.0422
  283TMC3     O 4327   0.435   0.614  15.224  0.1762  0.0738 -0.1351
  283TMC3     H 4328   0.380   0.987  15.285  1.9163 -0.4043  0.4552
  283TMC3    H1 4329   0.322   0.598  15.431  0.7352  0.1372  0.2386
  283TMC3    H2 4330   0.139   0.937  15.636  0.5952 -0.6973  0.3131
  283TMC3    C7 4331   0.139   0.675  15.638  0.3973  0.3316 -0.6654
  283TMC3    C8 4332   0.243   1.120  15.484  0.1714 -0.5034 -0.0908
  283TMC3    O1 4333   0.070   0.721  15.727  0.4533 -0.1643  0.3131
  283TMC3    O2 4334   0.195   1.142  15.595 -0.1534 -0.2508 -0.0266
  284MPD2     C 4335   2.783   0.352  12.282  0.3396  0.5530  0.0825
  284MPD2    C1 4336   2.916   0.371  12.256 -0.3042 -0.4935 -0.4162
  284MPD2    C2 4337   3.008   0.268  12.260 -0.0362  0.5787  0.0193
  284MPD2    C3 4338   2.967   0.142  12.299 -0.3600 -0.0532  0.6818
  284MPD2    C4 4339   2.832   0.125  12.333  0.3957 -0.2336  0.6452
  284MPD2    C5 4340   2.745   0.224  12.322 -0.6935 -0.4481  0.3735
  284MPD2     H 4341   3.110   0.295  12.237 -0.3428  1.7634  0.0584
  284MPD2    H1 4342   2.788   0.030  12.359  1.3982 -0.9962 -0.4980
  284MPD2    H2 4343   2.710   0.431  12.271  0.2521  0.7170  1.8951
  284MPD2    H3 4344   2.641   0.210  12.349 -0.7675 -2.8515 -1.0897
  284MPD2     N 4345   3.046   0.031  12.316 -0.0845 -0.1043  0.2512
  284MPD2    H5 4346   2.998   4.684  12.340 -0.6677  0.6704  1.8381
  284MPD2    N1 4347   2.971   0.483  12.194 -0.6900 -0.5847  0.0636
  284MPD2    H7 4348   3.060   0.481  12.146  0.0013 -0.9300  1.3902
  285TMC3    C1 4349   2.963   0.688  12.084 -0.3802  0.4045 -0.3122
  285TMC3    C2 4350   3.042   0.628  11.992  0.4410  0.0010  0.2502
  285TMC3    C3 4351   3.068   0.701  11.882  0.2504  0.3813  0.0406
  285TMC3    C4 4352   2.896   0.802  12.057 -0.1877  0.2098  0.4643
  285TMC3    C5 4353   2.912   0.859  11.939 -0.2092 -0.4923  0.6208
  285TMC3    C6 4354   2.989   0.803  11.842 -0.5196  0.3742  0.2390
  285TMC3     C 4355   2.902   0.601  12.183 -0.0740  0.5049  0.0125
  285TMC3     O 4356   2.793   0.633  12.232 -0.3805 -0.1215 -0.3124
  285TMC3     H 4357   3.085   0.528  11.992 -1.2535 -0.7215  0.3618
  285TMC3    H1 4358   2.844   0.857  12.135 -0.5931 -1.7804  1.5937
  285TMC3    H2 4359   2.997   0.852  11.745 -0.5078  0.9948  0.5490
  285TMC3    C7 4360   2.832   0.977  11.909  0.1173 -0.3037  0.3278
  285TMC3    C8 4361   3.125   0.620  11.776  0.2093  1.0612 -0.2078
  285TMC3    O1 4362   2.874   1.047  11.816  0.0183  0.2520 -0.2499
  285TMC3    O2 4363   3.097   0.499  11.777  0.3175 -0.2049  0.3730
  286MPD2     C 4364   3.764   3.508   1.668 -0.7853 -0.4065  0.8081
  286MPD2    C1 4365   3.705   3.511   1.541  0.2487 -0.4823  0.4729
  286MPD2    C2 4366   3.760   3.428   1.441  0.1189 -0.2382  0.1437
  286MPD2    C3 4367   3.877   3.343   1.471  0.1676 -0.4323  0.0014
  286MPD2    C4 4368   3.937   3.354   1.599 -0.0919 -0.1963 -0.9885
  286MPD2    C5 4369   3.885   3.444   1.688  0.6074  0.1550  0.3120
  286MPD2     H 4370   3.715   3.439   1.344 -0.0230  1.8130  0.4436
  286MPD2    H1 4371   4.026   3.294   1.608  0.8929  1.5819  1.2292
  286MPD2    H2 4372   3.730   3.568   1.752 -0.8145 -1.0641  1.2687
  286MPD2    H3 4373   3.931   3.449   1.786  2.2220 -0.2408 -0.4245
  286MPD2     N 4374   3.935   3.258   1.374  0.0211  0.8030 -0.2531
  286MPD2    H5 4375   4.016   3.202   1.395 -0.3459 -0.4891 -2.3168
  286MPD2    N1 4376   3.590   3.592   1.511 -0.2138  0.8999  0.4031
  286MPD2    H7 4377   3.554   3.584   1.416  1.3299 -0.7530 -0.0484
  287TMC3    C1 4378   3.958   3.149   1.156  0.7363  0.1429 -0.1930
  287TMC3    C2 4379   3.905   3.115   1.039  0.2806 -0.3713 -0.3190
  287TMC3    C3 4380   3.960   3.016   0.960 -0.6608 -0.1529  0.0554
  287TMC3    C4 4381   4.082   3.105   1.184 -1.0004 -0.1234  0.5215
  287TMC3    C5 4382   4.144   3.011   1.105  0.2221 -0.3439  0.4536
  287TMC3    C6 4383   4.079   2.967   0.994  0.5365  0.2334 -0.1133
  287TMC3     C 4384   3.887   3.245   1.245  0.7851  0.3168 -0.7718
  287TMC3     O 4385   3.778   3.279   1.202 -0.2981 -0.5823  0.8431
  287TMC3     H 4386   3.803   3.146   1.025  0.2730  0.1847  0.9431
  287TMC3    H1 4387   4.129   3.138   1.276  1.5991  0.6476 -1.1122
  287TMC3    H2 4388   4.123   2.890   0.932 -2.1798 -1.4332  0.0372
  287TMC3    C7 4389   4.277   2.960   1.150 -0.3445 -0.5178 -0.1588
  287TMC3    C8 4390   3.908   2.975   0.833 -0.4716  0.7261  0.0655
  287TMC3    O1 4391   4.325   3.014   1.252 -0.2168 -0.4363 -0.6013
  287TMC3    O2 4392   3.944   2.868   0.784  0.3792  0.2595 -0.2250
  288TMC3    C1 4393   0.783   3.649  14.429 -0.4586 -0.3583 -0.3084
  288TMC3    C2 4394   0.655   3.634  14.485 -0.1789  0.2089  0.1223
  288TMC3    C3 4395   0.551   3.706  14.434  0.7486 -0.6259  0.0755
  288TMC3    C4 4396   0.799   3.735  14.323  0.1859  0.2008  0.4733
  288TMC3    C5 4397   0.690   3.802  14.274  0.0230 -1.0367 -0.5445
  288TMC3    C6 4398   0.567   3.791  14.329 -0.4062 -0.1186  0.8536
  288TMC3     C 4399   0.904   3.608  14.495  0.3311 -0.4495  0.4558
  288TMC3     O 4400   1.006   3.667  14.474  0.2959  0.3113  0.3880
  288TMC3     H 4401   0.637   3.573  14.572 -2.5133  1.3304  0.4247
  288TMC3    H1 4402   0.897   3.736  14.277  0.5885 -3.3620  1.2710
  288TMC3    H2 4403   0.481   3.830  14.275 -0.5633  3.2236  3.5567
  288TMC3    C7 4404   0.701   3.853  14.134  0.4019  0.4898 -0.1551
  288TMC3    C8 4405   0.430   3.732  14.511  0.3426  0.6694  0.4401
  288TMC3    O1 4406   0.605   3.841  14.059  0.4436 -0.2118  0.3593
  288TMC3    O2 4407   0.383   3.847  14.509 -0.0156  0.3866  0.5344
  289MPD2     C 4408   0.681   2.704  14.684  0.3205  0.0914 -0.4641
  289MPD2    C1 4409   0.695   2.796  14.577  0.7213 -0.2043 -0.0560
  289MPD2    C2 4410   0.588   2.806  14.489  0.5361  0.5397  0.3721
  289MPD2    C3 4411   0.480   2.724  14.490  1.4037 -0.9701 -0.1082
  289MPD2    C4 4412   0.471   2.623  14.583  0.4023 -0.5810  0.4476
  289MPD2    C5 4413   0.566   2.620  14.684  0.6071 -0.0260 -0.2576
  289MPD2     H 4414   0.588   2.888  14.418  2.5622  1.3951  1.3609
  289MPD2    H1 4415   0.386   2.556  14.584  0.6830 -0.9294  1.1541
  289MPD2    H2 4416   0.749   2.697  14.768  1.6751 -1.1984 -1.6568
  289MPD2    H3 4417   0.555   2.546  14.762  0.0354  1.2208  0.8583
  289MPD2     N 4418   0.380   2.733  14.387 -0.0549 -0.0672  0.6051
  289MPD2    H5 4419   0.312   2.659  14.371  0.2869  0.0472 -1.3483
  289MPD2    N1 4420   0.809   2.882  14.576  0.0142  0.3643 -0.3490
  289MPD2    H7 4421   0.868   2.876  14.659  0.1036  2.0038 -0.2944
  290TMC3    C1 4422   0.271   2.786  14.194 -0.1388 -0.6379 -0.0931
  290TMC3    C2 4423   0.205   2.880  14.117  0.4963  0.0711 -0.2291
  290TMC3    C3 4424   0.099   2.826  14.042  1.1310  0.0215 -0.2851
  290TMC3    C4 4425   0.250   2.652  14.174  0.3251 -0.5399  0.6902
  290TMC3    C5 4426   0.153   2.609  14.088 -0.5138 -0.2353 -0.0988
  290TMC3    C6 4427   0.066   2.695  14.031 -0.3613 -0.0530 -0.1191
  290TMC3     C 4428   0.363   2.827  14.291 -0.2912 -0.4206  0.2886
  290TMC3     O 4429   0.407   2.942  14.274 -0.2585  0.6165  0.9341
  290TMC3     H 4430   0.211   2.986  14.137  0.1117  0.4867 -2.2880
  290TMC3    H1 4431   0.305   2.579  14.232 -0.0961 -0.3341  1.3451
  290TMC3    H2 4432   4.734   2.658  13.959  0.6443  1.3312 -1.8280
  290TMC3    C7 4433   0.095   2.478  14.107 -0.4909  0.3310  0.1814
  290TMC3    C8 4434   0.002   2.922  13.986  0.6499 -0.0128  0.2883
  290TMC3    O1 4435   0.173   2.384  14.109  0.2169 -0.0270 -0.2402
  290TMC3    O2 4436   4.628   2.883  13.984  1.1024 -0.0756 -0.5717
  291MPD2     C 4437   4.606   2.222   0.572 -0.8784 -1.1777 -0.2125
  291MPD2    C1 4438   4.581   2.257   0.441 -0.1411 -0.7703  0.6752
  291MPD2    C2 4439   4.682   2.319   0.360  0.5652  0.1577  0.1268
  291MPD2    C3 4440   0.060   2.350   0.414 -0.2943  0.1711 -0.1779
  291MPD2    C4 4441   0.090   2.314   0.547  0.4518  0.3675 -0.3739
  291MPD2    C5 4442   4.730   2.260   0.629 -0.0247 -0.6040 -0.1505
  291MPD2     H 4443   4.661   2.347   0.257 -0.0327 -0.7908 -0.0117
  291MPD2    H1 4444   0.186   2.334   0.593 -1.3736  2.1789  2.6762
  291MPD2    H2 4445   4.534   2.180   0.641 -0.6169  2.0721  2.0745
  291MPD2    H3 4446   0.009   2.235   0.733  1.4737  1.3802  0.0734
  291MPD2     N 4447   0.161   2.417   0.345  0.5795 -0.3591  0.0397
  291MPD2    H5 4448   0.251   2.426   0.392  0.7997 -1.5805 -0.1493
  291MPD2    N1 4449   4.456   2.216   0.390  0.1123  0.5315 -0.1301
  291MPD2    H7 4450   4.389   2.179   0.456  0.0912  4.0555  1.8326
  292TMC3    C1 4451   4.281   2.161   0.246  0.9579  0.3809  0.0491
  292TMC3    C2 4452   4.188   2.187   0.341 -0.6677 -0.2256 -0.2556
  292TMC3    C3 4453   4.067   2.123   0.333  0.0364 -0.0640 -0.3684
  292TMC3    C4 4454   4.256   2.079   0.139 -0.1329 -0.2382  0.1458
  292TMC3    C5 4455   4.140   2.020   0.143  0.4696 -0.3230 -0.0616
  292TMC3    C6 4456   4.040   2.038   0.234 -0.9296 -0.9925 -0.3371
  292TMC3     C 4457   4.409   2.224   0.263 -0.1909  0.2814  0.3370
  292TMC3     O 4458   4.468   2.265   0.161  0.3420  0.1269  0.1611
  292TMC3     H 4459   4.197   2.259   0.421  1.5209  1.3041 -1.8901
  292TMC3    H1 4460   4.335   2.052   0.070  1.2393  1.5497  1.0120
  292TMC3    H2 4461   3.942   1.993   0.228 -1.2483 -0.5844  1.6644
  292TMC3    C7 4462   4.151   1.887   0.084 -0.0272  0.3559  0.4959
  292TMC3    C8 4463   3.977   2.130   0.448  0.1077  0.4015  0.0851
  292TMC3    O1 4464   4.257   1.836   0.063 -0.0904  0.1634  0.8876
  292TMC3    O2 4465   3.964   2.235   0.515  0.0522 -0.0591 -0.4980
  293MPD2     C 4466   0.927   3.675  12.944 -0.3956  0.5719 -0.0403
  293MPD2    C1 4467   0.969   3.799  12.903 -0.7082  0.3667 -0.6260
  293MPD2    C2 4468   1.088   3.854  12.945 -0.6258 -0.6815 -0.7354
  293MPD2    C3 4469   1.176   3.774  13.026 -0.3184 -0.2155 -0.5085
  293MPD2    C4 4470   1.132   3.646  13.064 -0.0286  0.0046  0.6202
  293MPD2    C5 4471   1.007   3.597  13.027 -1.1710 -0.4825 -0.2091
  293MPD2     H 4472   1.115   3.956  12.924 -1.9141 -0.5229 -1.6196
  293MPD2    H1 4473   1.201   3.589  13.125 -0.4848 -0.4441  0.7257
  293MPD2    H2 4474   0.831   3.633  12.916  0.9957 -1.9722 -0.9983
  293MPD2    H3 4475   0.976   3.494  13.040  1.0539 -1.1514 -0.3320
  293MPD2     N 4476   1.297   3.837  13.079 -0.3934 -0.2810  0.2563
  293MPD2    H5 4477   1.354   3.774  13.134 -0.4738  0.1273  0.8068
  293MPD2    N1 4478   0.872   3.878  12.832 -0.6986 -0.1815  1.1065
  293MPD2    H7 4479   0.783   3.830  12.821 -0.2728 -0.6001 -0.4637
  294TMC3    C1 4480   0.782   4.036  12.691  0.5665  0.4487 -0.2358
  294TMC3    C2 4481   0.656   3.991  12.733  0.7672 -0.0797  0.3315
  294TMC3    C3 4482   0.561   4.004  12.637  0.3446 -0.3701 -0.3093
  294TMC3    C4 4483   0.812   4.077  12.563  0.0951  0.8726 -0.0700
  294TMC3    C5 4484   0.705   4.103  12.482 -0.4502 -0.0049 -0.4370
  294TMC3    C6 4485   0.578   4.067  12.521  0.1797 -0.3164  0.3931
  294TMC3     C 4486   0.901   3.992  12.766  1.0189  0.2744  0.5278
  294TMC3     O 4487   1.012   4.048  12.749  0.0847  0.4866  0.2359
  294TMC3     H 4488   0.635   3.947  12.830  3.0241 -0.1393  0.7953
  294TMC3    H1 4489   0.915   4.100  12.536  1.2011 -0.8142  2.7019
  294TMC3    H2 4490   0.492   4.086  12.457 -0.8682 -0.7193  1.6720
  294TMC3    C7 4491   0.720   4.133  12.334 -0.3769 -0.0858  0.9172
  294TMC3    C8 4492   0.449   3.910  12.643 -0.0883 -0.3328  0.1241
  294TMC3    O1 4493   0.619   4.178  12.278 -0.2377 -0.1682  0.2109
  294TMC3    O2 4494   0.419   3.864  12.754  0.6462 -0.4255  0.2249
  295MPD2     C 4495   2.597   2.390   0.878  0.3156  1.2016  0.9696
  295MPD2    C1 4496   2.547   2.312   0.774 -0.1661 -0.3353  0.7264
  295MPD2    C2 4497   2.465   2.205   0.812  1.0523  0.8148  0.2934
  295MPD2    C3 4498   2.417   2.206   0.942  0.6162  0.0193 -0.2356
  295MPD2    C4 4499   2.465   2.291   1.042 -0.2444  0.0874  0.7508
  295MPD2    C5 4500   2.551   2.393   1.004  0.5174  0.7649  0.5223
  295MPD2     H 4501   2.428   2.140   0.734  1.3601  1.4985 -0.4238
  295MPD2    H1 4502   2.429   2.290   1.144 -1.4619 -0.5370  0.3213
  295MPD2    H2 4503   2.668   2.469   0.854  0.9448 -0.8062 -3.7390
  295MPD2    H3 4504   2.593   2.454   1.082  0.6111  0.2694  0.8585
  295MPD2     N 4505   2.316   2.116   0.982 -0.6766  0.0564  0.6063
  295MPD2    H5 4506   2.278   2.132   1.074  0.5242  1.8828  0.7954
  295MPD2    N1 4507   2.570   2.327   0.631 -0.1128  0.0451  0.1038
  295MPD2    H7 4508   2.514   2.271   0.568  0.9975  0.3916 -1.1993
  296TMC3    C1 4509   2.217   1.906   0.998 -0.2879  0.0221  0.3529
  296TMC3    C2 4510   2.124   1.955   1.085 -1.3283 -0.0945 -0.7669
  296TMC3    C3 4511   2.061   1.875   1.176 -1.1513  0.7064 -0.5614
  296TMC3    C4 4512   2.245   1.775   1.001  0.6826 -1.4736 -0.2370
  296TMC3    C5 4513   2.187   1.695   1.097 -0.0131 -0.7473 -0.4368
  296TMC3    C6 4514   2.087   1.739   1.186 -0.8166  0.3438  0.0195
  296TMC3     C 4515   2.305   1.990   0.925  0.0971  0.5285  0.6470
  296TMC3     O 4516   2.369   1.942   0.828 -0.4673 -0.0596  0.5331
  296TMC3     H 4517   2.095   2.059   1.086 -0.7745  0.0674 -1.4760
  296TMC3    H1 4518   2.310   1.732   0.926  1.0108  0.7848 -1.2482
  296TMC3    H2 4519   2.056   1.686   1.276  0.7950  1.3796  1.1987
  296TMC3    C7 4520   2.247   1.562   1.103  0.5250  0.7073  0.4912
  296TMC3    C8 4521   1.924   1.916   1.217 -0.2411 -0.4390 -0.3777
  296TMC3    O1 4522   2.344   1.539   1.032  0.0964 -0.2711 -0.0582
  296TMC3    O2 4523   1.862   1.826   1.274 -0.4253  0.1481 -0.3817
  297MPD2     C 4524   4.242   4.174  16.515  0.3365 -0.0924 -0.5618
  297MPD2    C1 4525   4.210   4.249  16.410  0.0564  0.0587  0.5224
  297MPD2    C2 4526   4.279   4.366  16.380 -0.2306 -0.7224  0.5100
  297MPD2    C3 4527   4.376   4.418  16.464  0.6560 -0.2152  0.1587
  297MPD2    C4 4528   4.412   4.335  16.561  0.1055  0.4087  0.1818
  297MPD2    C5 4529   4.348   4.214  16.588 -0.6860  0.1467 -0.7688
  297MPD2     H 4530   4.242   4.419  16.293  0.2935 -2.2592 -0.6548
  297MPD2    H1 4531   4.493   4.359  16.629 -0.5688 -1.3468  1.6255
  297MPD2    H2 4532   4.199   4.075  16.524 -3.3751  1.4310 -1.6065
  297MPD2    H3 4533   4.382   4.162  16.677 -3.1857 -0.2710 -0.0656
  297MPD2     N 4534   4.441   4.538  16.426  0.3343 -0.1832  0.4465
  297MPD2    H5 4535   4.418   4.577  16.335 -0.2329 -0.7024  0.3702
  297MPD2    N1 4536   4.102   4.211  16.324  0.1598 -0.5414  1.0943
  297MPD2    H7 4537   4.080   4.287  16.261  0.7782 -0.8352  0.5204
  298TMC3    C1 4538   3.907   4.108  16.241  0.0001  0.0193  0.0185
  298TMC3    C2 4539   3.931   4.152  16.114  0.3982  0.3070  0.3491
  298TMC3    C3 4540   3.822   4.206  16.054  0.1355 -0.1668 -1.3718
  298TMC3    C4 4541   3.786   4.118  16.299  0.9000 -0.1094  0.5777
  298TMC3    C5 4542   3.679   4.163  16.235 -0.3241 -0.7775  0.2055
  298TMC3    C6 4543   3.697   4.202  16.103  0.0226 -0.5992 -0.2196
  298TMC3     C 4544   4.012   4.102  16.338  0.3783 -0.0465  0.6025
  298TMC3     O 4545   3.996   4.019  16.431  0.7656  0.2562 -0.0733
  298TMC3     H 4546   4.029   4.137  16.069  0.4599 -1.6264  1.1297
  298TMC3    H1 4547   3.775   4.112  16.407  0.0133  0.6891  0.5283
  298TMC3    H2 4548   3.617   4.263  16.064  0.6897  0.5546  0.2399
  298TMC3    C7 4549   3.604   4.258  16.314 -0.0254 -0.0806  0.0794
  298TMC3    C8 4550   3.836   4.260  15.919  0.4149  1.0045  0.2119
  298TMC3    O1 4551   3.655   4.325  16.399  0.3520 -0.7319 -0.1774
  298TMC3    O2 4552   3.927   4.201  15.863  0.2123 -0.9167  0.5527
  299MPD2     C 4553   4.546   4.501  11.643 -0.0097  0.7394  0.4034
  299MPD2    C1 4554   4.509   4.613  11.583 -0.5510  0.2019 -0.2429
  299MPD2    C2 4555   4.454   4.606  11.452  0.0101 -0.5849  0.6560
  299MPD2    C3 4556   4.443   4.484  11.394  0.7009  0.3593 -0.3514
  299MPD2    C4 4557   4.493   4.374  11.455  0.9487 -0.2030  0.1229
  299MPD2    C5 4558   4.544   4.385  11.584  0.1609 -0.3366  0.2475
  299MPD2     H 4559   4.433   4.698  11.398 -0.0566  0.7586  2.9654
  299MPD2    H1 4560   4.478   4.276  11.412 -1.1055  0.2322 -0.1535
  299MPD2    H2 4561   4.587   4.516  11.742  1.0664  0.5493 -0.0147
  299MPD2    H3 4562   4.576   4.297  11.638 -0.1461  0.1624  1.2581
  299MPD2     N 4563   4.394   4.462  11.263  0.2012 -0.3504  0.1710
  299MPD2    H5 4564   4.387   4.366  11.231 -2.6497 -0.4938  1.1358
  299MPD2    N1 4565   4.504   4.729  11.667 -0.3537 -0.3116  0.0884
  299MPD2    H7 4566   4.523   4.723  11.766  2.1428 -1.0014 -0.4437
  300TMC3    C1 4567   4.259   4.499  11.076  0.5444  0.4039  0.3448
  300TMC3    C2 4568   4.241   4.584  10.976 -0.1054  0.3148  0.1506
  300TMC3    C3 4569   4.130   4.544  10.900 -0.2590  0.5868 -0.2939
  300TMC3    C4 4570   4.172   4.397  11.123  0.3960 -0.0939 -0.1718
  300TMC3    C5 4571   4.074   4.364  11.038  0.6540 -0.0297 -0.2296
  300TMC3    C6 4572   4.054   4.433  10.924  0.6301 -0.4795 -0.1068
  300TMC3     C 4573   4.343   4.557  11.179  0.4473 -0.4239  0.7695
  300TMC3     O 4574   4.352   4.679  11.186  0.2031  0.1302 -0.4462
  300TMC3     H 4575   4.299   4.673  10.957  0.8764  0.0313  1.8899
  300TMC3    H1 4576   4.179   4.350  11.221 -1.8416 -3.0612 -1.4315
  300TMC3    H2 4577   3.966   4.416  10.862 -0.9984  0.3458  1.9981
  300TMC3    C7 4578   3.950   4.316  11.099 -0.3740  0.2294  0.1295
  300TMC3    C8 4579   4.082   4.614  10.786  0.4117 -0.0072  0.1339
  300TMC3    O1 4580   3.950   4.197  11.129 -0.0739  0.2081 -0.4327
  300TMC3    O2 4581   4.049   4.554  10.687 -0.4038 -0.5635 -0.0741
  301MPD2     C 4582   2.188   0.177   1.341 -0.2302  0.1203  0.2654
  301MPD2    C1 4583   2.069   0.174   1.262  0.3572 -0.0533 -0.2504
  301MPD2    C2 4584   2.011   0.051   1.230  0.5082 -0.2243 -0.1015
  301MPD2    C3 4585   2.055   4.670   1.291 -0.7145  0.3532  0.4805
  301MPD2    C4 4586   2.180   4.673   1.357  0.3099 -0.1540 -0.6417
  301MPD2    C5 4587   2.246   0.057   1.379  0.3226 -0.2827  0.1477
  301MPD2     H 4588   1.918   0.057   1.174  1.2107  1.2539 -1.1354
  301MPD2    H1 4589   2.222   4.581   1.396  0.4174  0.9367  1.7839
  301MPD2    H2 4590   2.239   0.267   1.372 -1.3095  0.4805  1.0066
  301MPD2    H3 4591   2.338   0.065   1.435  0.1874  1.8186  0.0372
  301MPD2     N 4592   1.992   4.541   1.280  0.4710  0.3761 -0.5081
  301MPD2    H5 4593   2.029   4.465   1.336  1.4435  2.2933  1.4620
  301MPD2    N1 4594   2.010   0.285   1.221 -0.4882  0.3497  0.3701
  301MPD2    H7 4595   1.941   0.268   1.149  0.3984  1.8229 -0.8521
  302TMC3    C1 4596   1.854   4.382   1.145  0.5085 -0.4750  0.3477
  302TMC3    C2 4597   1.903   4.274   1.205 -0.0599  0.1788  0.9685
  302TMC3    C3 4598   1.902   4.158   1.130 -0.2910 -0.9888  0.3639
  302TMC3    C4 4599   1.785   4.380   1.022 -0.2590 -0.9173 -0.0048
  302TMC3    C5 4600   1.795   4.261   0.954  0.5830 -0.0150  0.2013
  302TMC3    C6 4601   1.850   4.150   1.006  0.4682 -0.2515  0.0139
  302TMC3     C 4602   1.877   4.521   1.203 -0.2492  0.2109  0.2861
  302TMC3     O 4603   1.803   4.605   1.152 -0.1088 -0.5942  0.1246
  302TMC3     H 4604   1.936   4.275   1.308 -1.6939  0.3174  1.4891
  302TMC3    H1 4605   1.747   4.465   0.966  2.0710  1.2105  1.6789
  302TMC3    H2 4606   1.858   4.059   0.948 -3.0184 -0.2366 -0.4888
  302TMC3    C7 4607   1.732   4.258   0.822  0.3126  0.4727  0.0763
  302TMC3    C8 4608   1.972   4.046   1.188 -0.9270 -0.1158  0.3086
  302TMC3    O1 4609   1.753   4.167   0.744 -0.0434  0.4707  0.0687
  302TMC3    O2 4610   2.044   4.075   1.282 -0.2918  0.0937 -0.6553
  303MPD2     C 4611   1.845   4.269  10.843  0.0457  0.1253  0.1419
  303MPD2    C1 4612   1.820   4.149  10.788  0.1623  1.2071 -0.2010
  303MPD2    C2 4613   1.817   4.134  10.645  0.3033  0.2588  0.8148
  303MPD2    C3 4614   1.826   4.253  10.572 -0.1851 -0.7255 -0.4737
  303MPD2    C4 4615   1.853   4.377  10.628 -0.5285  0.0047  0.0570
  303MPD2    C5 4616   1.855   4.383  10.769  0.9370 -0.2885 -0.3274
  303MPD2     H 4617   1.793   4.041  10.596 -0.8598  0.4130  1.0934
  303MPD2    H1 4618   1.844   4.466  10.566 -1.1620 -0.2630 -0.2325
  303MPD2    H2 4619   1.848   4.282  10.950  1.0553 -1.0006  0.2469
  303MPD2    H3 4620   1.860   4.481  10.815 -2.3679 -0.7181  0.9502
  303MPD2     N 4621   1.811   4.252  10.428  0.0310 -0.5681 -0.4268
  303MPD2    H5 4622   1.813   4.341  10.379 -2.1761 -1.2089 -1.6963
  303MPD2    N1 4623   1.785   4.042  10.878  0.0669  1.1588 -0.4745
  303MPD2    H7 4624   1.777   4.063  10.977 -1.4792 -0.5286 -0.2499
  304TMC3    C1 4625   1.709   3.830  10.954  0.0272 -0.3547  0.8471
  304TMC3    C2 4626   1.648   3.891  11.063  0.0383  0.5088  0.0001
  304TMC3    C3 4627   1.567   3.814  11.137 -0.1879 -0.0591  0.6226
  304TMC3    C4 4628   1.699   3.694  10.933 -0.1160  0.3183 -0.0892
  304TMC3    C5 4629   1.621   3.616  11.017 -0.1289 -0.1814 -0.0891
  304TMC3    C6 4630   1.560   3.678  11.123 -0.3247 -0.0656 -0.9237
  304TMC3     C 4631   1.752   3.911  10.840 -0.1681 -0.3572  0.2680
  304TMC3     O 4632   1.746   3.855  10.731  0.0543 -0.1893  0.1189
  304TMC3     H 4633   1.649   3.999  11.070  1.2778  0.4489  0.6687
  304TMC3    H1 4634   1.739   3.657  10.839 -1.5801 -0.8776 -0.2347
  304TMC3    H2 4635   1.499   3.612  11.183  1.5973 -0.6470  0.3976
  304TMC3    C7 4636   1.537   3.516  10.958 -0.2200  0.7052 -0.1226
  304TMC3    C8 4637   1.441   3.876  11.123 -0.1573 -0.5911 -0.5075
  304TMC3    O1 4638   1.418   3.536  10.961 -0.5299 -0.5623 -0.2509
  304TMC3    O2 4639   1.433   3.997  11.150 -0.3371  0.0337  0.5977
  305MPD2     C 4640   0.151   1.376  13.951  0.4078 -0.1026  0.0812
  305MPD2    C1 4641   0.155   1.245  13.921 -0.1958  0.3995 -0.3244
  305MPD2    C2 4642   0.155   1.198  13.793  0.5689 -0.7736  0.1060
  305MPD2    C3 4643   0.146   1.295  13.688  0.5209 -0.0753 -0.5541
  305MPD2    C4 4644   0.138   1.430  13.712 -0.5858  0.0946  0.4735
  305MPD2    C5 4645   0.137   1.467  13.849  0.2329  0.1706 -0.1188
  305MPD2     H 4646   0.164   1.092  13.772  1.4708 -0.9187  1.2129
  305MPD2    H1 4647   0.111   1.504  13.638 -1.3262  1.3242  1.9613
  305MPD2    H2 4648   0.160   1.415  14.052  0.1558  0.9782 -0.3045
  305MPD2    H3 4649   0.125   1.572  13.873 -0.8148 -0.1310  0.6753
  305MPD2     N 4650   0.132   1.255  13.556 -0.1781 -0.2598 -0.3783
  305MPD2    H5 4651   0.115   1.334  13.493  1.0937  0.7238  0.5204
  305MPD2    N1 4652   0.182   1.163  14.029 -0.3180 -0.0341  0.0208
  305MPD2    H7 4653   0.157   1.200  14.120  0.5244 -0.3263  0.3685
  306TMC3    C1 4654   0.248   0.990  14.165  0.6939  0.6709  0.2902
  306TMC3    C2 4655   0.356   0.918  14.204 -0.7378 -0.4444  0.1552
  306TMC3    C3 4656   0.387   0.936  14.339  0.7010 -0.1081 -0.2728
  306TMC3    C4 4657   0.175   1.061  14.250 -0.0417  0.7037 -0.0771
  306TMC3    C5 4658   0.210   1.083  14.377 -0.3085 -0.4352  0.4925
  306TMC3    C6 4659   0.322   1.021  14.426 -0.3236 -0.4195 -0.6830
  306TMC3     C 4660   0.239   1.039  14.024  0.6187 -0.0808  0.0515
  306TMC3     O 4661   0.301   0.982  13.935 -0.4484  0.1288  1.0614
  306TMC3     H 4662   0.411   0.858  14.132 -1.5639 -0.1613 -0.7064
  306TMC3    H1 4663   0.079   1.095  14.213  0.5239  2.4744  0.0992
  306TMC3    H2 4664   0.334   1.025  14.533 -0.6991 -2.2051 -0.5676
  306TMC3    C7 4665   0.190   1.224  14.422 -0.0574  1.2434  0.7925
  306TMC3    C8 4666   0.528   0.914  14.368  0.7438 -0.7735 -0.1655
  306TMC3    O1 4667   0.130   1.295  14.343 -0.1981 -0.3626  0.0913
  306TMC3    O2 4668   0.605   0.879  14.279  0.6856  0.2822 -0.6270
  307MPD2     C 4669   3.100   3.861   0.591  0.3071 -0.7156 -0.0955
  307MPD2    C1 4670   3.007   3.948   0.637  0.4215  0.4686 -0.7597
  307MPD2    C2 4671   2.890   3.892   0.681  0.8068  0.0869 -0.2603
  307MPD2    C3 4672   2.868   3.755   0.688 -0.2665  1.2434 -0.6408
  307MPD2    C4 4673   2.967   3.667   0.655  0.3411 -0.3321 -0.0089
  307MPD2    C5 4674   3.078   3.724   0.601 -0.0978  0.6633  1.2261
  307MPD2     H 4675   2.801   3.952   0.701  1.1233  0.9189 -1.3049
  307MPD2    H1 4676   2.945   3.562   0.644 -0.8382 -0.0426 -0.4520
  307MPD2    H2 4677   3.187   3.887   0.531  0.1448  1.0785  0.4254
  307MPD2    H3 4678   3.142   3.645   0.564 -1.8345 -1.2975  2.3988
  307MPD2     N 4679   2.737   3.725   0.740  0.2423 -0.1141 -0.0502
  307MPD2    H5 4680   2.662   3.793   0.736  0.4973  0.0875 -1.4863
  307MPD2    N1 4681   3.012   4.089   0.634 -0.3838 -0.1991  0.3180
  307MPD2    H7 4682   2.922   4.130   0.659 -0.8231  0.4753 -2.3382
  308TMC3    C1 4683   2.343   3.555   0.800  0.1926  0.4284  0.5037
  308TMC3    C2 4684   2.304   3.638   0.900  0.5625 -0.3268 -0.3948
  308TMC3    C3 4685   2.403   3.698   0.972  0.2218  0.5177  0.1329
  308TMC3    C4 4686   2.469   3.536   0.763 -0.6377 -0.2245  0.3133
  308TMC3    C5 4687   2.565   3.605   0.837  0.1823  0.3496 -0.1160
  308TMC3    C6 4688   2.538   3.687   0.938  0.0446  0.1135  0.2074
  308TMC3     C 4689   2.245   3.476   0.731 -0.0585 -0.4616 -0.5550
  308TMC3     O 4690   2.267   3.360   0.694  0.1661  0.4729 -0.5955
  308TMC3     H 4691   2.201   3.656   0.929  0.4650  0.8569 -1.4864
  308TMC3    H1 4692   2.487   3.454   0.694  0.9806  1.1624 -0.9102
  308TMC3    H2 4693   2.620   3.739   0.986  1.2308 -1.4277 -0.1276
  308TMC3    C7 4694   2.694   3.603   0.777 -0.3998  0.1699 -0.6071
  308TMC3    C8 4695   2.365   3.822   1.028 -0.2656 -0.4159 -0.4835
  308TMC3    O1 4696   2.763   3.503   0.788  0.1413 -0.2148 -0.1863
  308TMC3    O2 4697   2.267   3.873   0.977  0.7524  0.3957 -0.3480
  309MPD2     C 4698   2.053   4.229  17.130 -0.6065 -0.1254 -0.3064
  309MPD2    C1 4699   1.976   4.204  17.017 -0.3066 -0.2366 -0.9554
  309MPD2    C2 4700   1.838   4.188  17.020  0.4376  0.1192  0.3996
  309MPD2    C3 4701   1.775   4.183  17.141  0.0072 -0.0679  0.4015
  309MPD2    C4 4702   1.851   4.196  17.255 -0.1502  0.0862  0.1788
  309MPD2    C5 4703   1.986   4.220  17.249  0.0959 -0.2617  0.2513
  309MPD2     H 4704   1.778   4.193  16.929  1.7429  1.2196 -0.3964
  309MPD2    H1 4705   1.809   4.197  17.354  1.3073 -0.6341  0.8064
  309MPD2    H2 4706   2.154   4.266  17.142 -0.6588  0.1967 -0.8971
  309MPD2    H3 4707   2.037   4.253  17.339  0.1859 -0.7256  0.3697
  309MPD2     N 4708   1.638   4.175  17.156  0.0767  0.0325 -0.1587
  309MPD2    H5 4709   1.586   4.189  17.070  1.7917 -1.6334 -1.4735
  309MPD2    N1 4710   2.045   4.214  16.893  0.1504  0.5549 -0.5082
  309MPD2    H7 4711   1.992   4.200  16.807 -0.1921  2.2000 -0.5613
  310TMC3    C1 4712   2.209   4.204  16.731 -0.3263 -0.0993 -0.2668
  310TMC3    C2 4713   2.123   4.241  16.631 -0.7638  0.0342  0.2933
  310TMC3    C3 4714   2.179   4.260  16.504 -0.2301  0.2438  0.9853
  310TMC3    C4 4715   2.340   4.189  16.702  0.1416  0.6352  0.6167
  310TMC3    C5 4716   2.391   4.236  16.578  0.1408  0.3285 -0.0549
  310TMC3    C6 4717   2.311   4.279  16.476  0.8986 -0.1809 -0.5231
  310TMC3     C 4718   2.178   4.200  16.877  0.5266  0.7711  0.6558
  310TMC3     O 4719   2.270   4.191  16.957  0.2377  0.6459 -0.0037
  310TMC3     H 4720   2.018   4.256  16.649 -0.5515 -0.4960  1.9419
  310TMC3    H1 4721   2.408   4.156  16.780  1.3356  1.0595 -0.2333
  310TMC3    H2 4722   2.348   4.288  16.374  1.7294 -0.6119 -0.2565
  310TMC3    C7 4723   2.531   4.212  16.549 -0.0666 -0.1179 -0.1989
  310TMC3    C8 4724   2.083   4.270  16.394  0.3951  0.2348 -0.4822
  310TMC3    O1 4725   2.579   4.279  16.459 -0.1475 -0.2861  0.2351
  310TMC3    O2 4726   2.132   4.295  16.284  0.3435  0.3538  0.0969
  311MPD2     C 4727   3.791   1.741  12.259  0.2478 -0.0117  0.2891
  311MPD2    C1 4728   3.864   1.676  12.349 -1.1777 -0.7775  0.1278
  311MPD2    C2 4729   3.796   1.598  12.445  0.6281 -0.4826 -0.5414
  311MPD2    C3 4730   3.668   1.578  12.446  0.0682 -0.1701  0.0566
  311MPD2    C4 4731   3.593   1.633  12.348  0.1098  0.6179 -0.6893
  311MPD2    C5 4732   3.654   1.722  12.263  0.0955 -0.1860  1.1640
  311MPD2     H 4733   3.843   1.537  12.522  0.2434  1.6750  1.4086
  311MPD2    H1 4734   3.487   1.611  12.345  0.2381 -0.2336  1.3524
  311MPD2    H2 4735   3.837   1.792  12.176 -1.2516  1.6610  0.5088
  311MPD2    H3 4736   3.592   1.762  12.183  1.5968  0.3825  0.2758
  311MPD2     N 4737   3.619   1.492  12.547  0.7222 -0.4801  0.0486
  311MPD2    H5 4738   3.682   1.453  12.616  0.2750 -0.2133  0.6012
  311MPD2    N1 4739   4.007   1.665  12.329 -0.4097  0.1722  0.0144
  311MPD2    H7 4740   4.047   1.720  12.254 -1.5425  1.8846  0.6696
  312TMC3    C1 4741   3.467   1.389  12.691  0.3018 -0.0996  0.3257
  312TMC3    C2 4742   3.361   1.310  12.702  0.2082  1.2724  0.6537
  312TMC3    C3 4743   3.332   1.256  12.823  0.4088  0.0318  0.4654
  312TMC3    C4 4744   3.541   1.427  12.799 -0.0701 -0.4174  0.2076
  312TMC3    C5 4745   3.507   1.384  12.925 -0.2821 -0.1631  0.9535
  312TMC3    C6 4746   3.396   1.306  12.935  0.1639  0.5857 -0.2184
  312TMC3     C 4747   3.486   1.458  12.565 -0.4781  0.1488  0.2963
  312TMC3     O 4748   3.382   1.485  12.499 -0.6007  0.1467  0.2301
  312TMC3     H 4749   3.309   1.270  12.616 -0.0391 -0.1354  1.4513
  312TMC3    H1 4750   3.620   1.501  12.791 -0.9910  0.2907 -2.1173
  312TMC3    H2 4751   3.370   1.271  13.034 -2.4393  0.1397 -1.0829
  312TMC3    C7 4752   3.600   1.416  13.026 -1.1767 -0.1778 -0.1658
  312TMC3    C8 4753   3.195   1.222  12.852  0.6376 -0.4517  0.2949
  312TMC3    O1 4754   3.668   1.517  13.019  0.0714 -0.2170  0.2724
  312TMC3    O2 4755   3.184   1.155  12.955  0.2133  0.0128  0.1377
  313MPD2     C 4756   2.653   0.564  11.530 -0.1714 -0.2357 -0.4169
  313MPD2    C1 4757   2.603   0.649  11.440 -1.2020 -0.0604  0.4898
  313MPD2    C2 4758   2.578   0.601  11.306  0.0749 -0.6505  0.4313
  313MPD2    C3 4759   2.606   0.471  11.279  0.6812 -0.5841  0.4640
  313MPD2    C4 4760   2.638   0.381  11.377  0.0022 -1.4842 -0.1923
  313MPD2    C5 4761   2.666   0.430  11.506 -0.5787  0.4338  0.5839
  313MPD2     H 4762   2.563   0.674  11.228  1.0823 -2.3536 -1.3665
  313MPD2    H1 4763   2.653   0.275  11.361 -0.0473 -1.1585 -2.3626
  313MPD2    H2 4764   2.674   0.594  11.632 -0.1883  0.3869 -0.5955
  313MPD2    H3 4765   2.700   0.368  11.587 -0.0448 -2.1175 -1.5864
  313MPD2     N 4766   2.602   0.437  11.144  0.5957 -0.4040 -0.0435
  313MPD2    H5 4767   2.565   0.498  11.072  1.7851  2.2024  1.5810
  313MPD2    N1 4768   2.585   0.787  11.463 -0.1312 -0.0994  0.3078
  313MPD2    H7 4769   2.588   0.853  11.386 -2.8215 -0.8246 -0.4169
  314TMC3    C1 4770   2.569   0.980  11.575 -0.7335  0.4981 -0.1641
  314TMC3    C2 4771   2.693   1.030  11.550  0.4022  0.2730  0.1876
  314TMC3    C3 4772   2.699   1.152  11.489 -0.5634 -0.2076 -0.1506
  314TMC3    C4 4773   2.465   1.036  11.500 -0.2728 -0.5118 -0.3393
  314TMC3    C5 4774   2.480   1.151  11.437  0.1467  0.1478  0.0123
  314TMC3    C6 4775   2.595   1.215  11.434 -0.3693 -0.0143  0.2310
  314TMC3     C 4776   2.563   0.840  11.589 -0.2060  0.3701  0.0458
  314TMC3     O 4777   2.558   0.792  11.705 -0.8085 -0.2658  0.0541
  314TMC3     H 4778   2.784   0.981  11.579  0.3723  1.1123  1.7379
  314TMC3    H1 4779   2.365   0.997  11.516 -0.3390 -0.2949 -0.2326
  314TMC3    H2 4780   2.609   1.303  11.372  0.9134 -1.0411 -0.9387
  314TMC3    C7 4781   2.375   1.179  11.341  1.0675  0.0343 -0.4743
  314TMC3    C8 4782   2.828   1.222  11.473 -0.0500 -0.2077  0.2294
  314TMC3    O1 4783   2.262   1.174  11.380  0.1164  0.0439 -0.2232
  314TMC3    O2 4784   2.824   1.348  11.477 -0.0392 -0.1422  1.3098
  315MPD2     C 4785   3.481   3.810  17.303 -0.5023  0.3902 -0.5948
  315MPD2    C1 4786   3.519   3.830  17.433 -0.1085  0.2554 -0.7131
  315MPD2    C2 4787   3.557   3.953  17.471 -0.3035 -0.5721 -0.7699
  315MPD2    C3 4788   3.562   4.057  17.383  0.8166 -0.3476 -0.3530
  315MPD2    C4 4789   3.522   4.038  17.253  0.4178 -0.0523 -0.1262
  315MPD2    C5 4790   3.481   3.912  17.212 -0.2346 -0.1888 -0.5554
  315MPD2     H 4791   3.583   3.974  17.574 -0.6021  3.5382 -1.5209
  315MPD2    H1 4792   3.505   4.115  17.178  2.3815 -0.2788 -0.7847
  315MPD2    H2 4793   3.453   3.711  17.266  0.4862  0.1380 -0.6551
  315MPD2    H3 4794   3.451   3.900  17.109 -1.0543  0.3306 -0.3782
  315MPD2     N 4795   3.603   4.185  17.429 -0.0259  0.2518 -0.0348
  315MPD2    H5 4796   3.636   4.192  17.525  1.6192 -2.3701 -0.3931
  315MPD2    N1 4797   3.514   3.728  17.534  0.3372 -0.5380 -0.1250
  315MPD2    H7 4798   3.556   3.758  17.621  0.2862 -0.9238  0.0313
  316TMC3    C1 4799   3.628   4.414  17.450  0.1160  0.2465  1.1071
  316TMC3    C2 4800   3.666   4.392  17.585 -0.1356 -0.4181  0.0194
  316TMC3    C3 4801   3.650   4.504  17.669 -0.2761 -0.2371  0.8524
  316TMC3    C4 4802   3.573   4.530  17.409  0.4971  0.2083 -0.7113
  316TMC3    C5 4803   3.555   4.637  17.494 -0.3400 -0.2329 -0.3798
  316TMC3    C6 4804   3.601   4.626  17.627  0.4703  0.2288  0.4071
  316TMC3     C 4805   3.608   4.303  17.357  0.9018  0.2512 -0.2739
  316TMC3     O 4806   3.587   4.328  17.240  0.0565 -0.0290 -0.4156
  316TMC3     H 4807   3.709   4.295  17.607  0.8910 -0.2148 -1.1079
  316TMC3    H1 4808   3.542   4.545  17.307  1.0047  0.2224 -0.8636
  316TMC3    H2 4809   3.596   4.713  17.692  1.4244  0.4975  0.1260
  316TMC3    C7 4810   3.534   0.036  17.453 -0.3444 -0.1047  0.9064
  316TMC3    C8 4811   3.723   4.510   0.040  0.0755  0.0380  0.9209
  316TMC3    O1 4812   3.581   0.120  17.526  0.2586  0.0622 -0.2252
  316TMC3    O2 4813   3.689   4.605   0.110  1.1177  0.0380  1.2350
  317MPD2     C 4814   0.328   3.245  13.046 -0.5321  0.0077  0.0008
  317MPD2    C1 4815   0.418   3.148  12.999  0.3771 -0.3245  0.4049
  317MPD2    C2 4816   0.487   3.077  13.096  0.2664 -0.5446 -0.3525
  317MPD2    C3 4817   0.479   3.097  13.231  0.0249  0.2229  0.5031
  317MPD2    C4 4818   0.381   3.188  13.276  0.6081  0.1371  0.1912
  317MPD2    C5 4819   0.308   3.259  13.179  0.2774  0.1827  0.0901
  317MPD2     H 4820   0.547   2.992  13.064  0.4452 -0.9812  1.1483
  317MPD2    H1 4821   0.364   3.195  13.383  0.4122  2.0355  0.0313
  317MPD2    H2 4822   0.237   3.263  12.991 -0.9887 -2.2729 -0.0237
  317MPD2    H3 4823   0.223   3.318  13.214  0.5807  1.3211 -1.0711
  317MPD2     N 4824   0.545   3.008  13.317 -0.3471  0.0570  0.3915
  317MPD2    H5 4825   0.599   2.930  13.280  1.8009  1.0210  1.4806
  317MPD2    N1 4826   0.433   3.107  12.864 -0.2256  0.1850  0.5012
  317MPD2    H7 4827   0.489   3.024  12.847 -0.8587 -0.3941  1.2570
  318TMC3    C1 4828   0.555   2.883  13.506 -0.5501  0.2834 -0.4062
  318TMC3    C2 4829   0.525   2.777  13.432  0.0961  0.6009  0.4079
  318TMC3    C3 4830   0.589   2.654  13.455 -0.4917 -0.2489  0.1985
  318TMC3    C4 4831   0.655   2.879  13.601 -0.5653  0.0493  0.5323
  318TMC3    C5 4832   0.703   2.756  13.623 -0.6930 -0.0749 -0.1947
  318TMC3    C6 4833   0.665   2.637  13.567 -0.2174 -0.0217 -0.7297
  318TMC3     C 4834   0.527   3.008  13.451 -0.4735 -0.5784  0.0066
  318TMC3     O 4835   0.520   3.107  13.525 -0.6357 -0.4443  0.6455
  318TMC3     H 4836   0.461   2.789  13.345 -3.1391 -1.8603  2.4527
  318TMC3    H1 4837   0.679   2.969  13.655 -0.4567  0.0023  0.5632
  318TMC3    H2 4838   0.728   2.549  13.567 -0.0318  0.1113 -1.1026
  318TMC3    C7 4839   0.800   2.764  13.728 -0.3661  0.4147 -0.3761
  318TMC3    C8 4840   0.540   2.532  13.383 -0.2820  0.2690 -0.1877
  318TMC3    O1 4841   0.829   2.875  13.772 -0.2625  0.2744 -0.3335
  318TMC3    O2 4842   0.561   2.420  13.430  0.0851  0.4964 -0.5539
  319MPD2     C 4843   1.525   3.875  16.701 -0.1791 -0.2226  0.3499
  319MPD2    C1 4844   1.461   3.768  16.761 -0.0796  0.4714 -0.5044
  319MPD2    C2 4845   1.369   3.697  16.685  0.6229 -0.4691 -0.0813
  319MPD2    C3 4846   1.340   3.727  16.555 -0.2729 -0.2171  0.5852
  319MPD2    C4 4847   1.408   3.824  16.492  0.2010 -0.2267 -0.8598
  319MPD2    C5 4848   1.500   3.897  16.567  0.5490  0.2468 -0.2778
  319MPD2     H 4849   1.327   3.608  16.731 -1.7722  1.2579  1.0407
  319MPD2    H1 4850   1.406   3.850  16.386  2.5773  1.7547 -0.4187
  319MPD2    H2 4851   1.602   3.934  16.749 -0.4152  1.8835 -1.8403
  319MPD2    H3 4852   1.555   3.981  16.525  0.8447  0.3937  0.4147
  319MPD2     N 4853   1.241   3.668  16.470  0.4730 -0.2699  0.4326
  319MPD2    H5 4854   1.254   3.685  16.371 -2.3400  2.2150  0.4996
  319MPD2    N1 4855   1.489   3.732  16.897  0.4598 -0.0018 -0.1197
  319MPD2    H7 4856   1.438   3.655  16.937  1.8532 -1.3024 -0.8353
  320TMC3    C1 4857   1.065   3.538  16.402 -0.0398 -0.0667 -0.0601
  320TMC3    C2 4858   1.004   3.645  16.335 -0.1836 -0.2513 -0.1495
  320TMC3    C3 4859   0.912   3.615  16.240 -0.2598  0.4970  0.1990
  320TMC3    C4 4860   1.024   3.410  16.375  0.1445 -0.5629 -0.3900
  320TMC3    C5 4861   0.936   3.380  16.279  0.2617  0.2563  0.6975
  320TMC3    C6 4862   0.870   3.486  16.214  0.3946 -0.1583  0.2796
  320TMC3     C 4863   1.165   3.559  16.503  0.8683 -0.6018  0.0641
  320TMC3     O 4864   1.152   3.490  16.609  0.5589  0.2440  0.4738
  320TMC3     H 4865   1.033   3.746  16.361  3.7070 -1.3211 -0.3180
  320TMC3    H1 4866   1.086   3.330  16.414 -1.9291 -1.4747  1.0520
  320TMC3    H2 4867   0.797   3.459  16.139 -1.8927  0.9351  2.1024
  320TMC3    C7 4868   0.930   3.246  16.212  0.1558  0.5334  0.9999
  320TMC3    C8 4869   0.845   3.720  16.168  0.0484  0.3733 -0.6478
  320TMC3    O1 4870   0.900   3.245  16.097  0.1893  0.5798  0.5392
  320TMC3    O2 4871   0.842   3.827  16.229  0.1041 -0.3905  0.1454
  321TMC3    C1 4872   1.592   3.739  17.110 -0.8957  0.3771 -0.2090
  321TMC3    C2 4873   1.549   3.614  17.128  0.2250  0.5310 -0.4030
  321TMC3    C3 4874   1.523   3.555  17.245 -0.0248  0.4094  0.3295
  321TMC3    C4 4875   1.620   3.811  17.227  0.0848  0.1640  0.9965
  321TMC3    C5 4876   1.585   3.757  17.348 -0.6593 -0.0346  0.3618
  321TMC3    C6 4877   1.532   3.630  17.362 -0.1093  0.2316 -0.2820
  321TMC3     C 4878   1.584   3.801  16.982 -0.3114  0.1688  0.4438
  321TMC3     O 4879   1.630   3.909  16.969  0.0011 -0.1820 -0.4059
  321TMC3     H 4880   1.546   3.549  17.041 -0.2042  0.9071 -0.6643
  321TMC3    H1 4881   1.657   3.912  17.213  1.6811 -0.6736 -0.8992
  321TMC3    H2 4882   1.495   3.598  17.459 -2.4182 -2.1701 -1.9282
  321TMC3    C7 4883   1.698   3.757  17.440 -0.3469 -0.6305 -0.4875
  321TMC3    C8 4884   1.576   3.414  17.242  0.0984  0.3867  0.2542
  321TMC3    O1 4885   1.719   3.648  17.493  0.0006  0.0706 -0.2088
  321TMC3    O2 4886   1.540   3.343  17.145 -0.3945 -0.1091 -0.9874
  322MPD2     C 4887   0.461   0.611  13.338  0.2051 -0.1091  0.3670
  322MPD2    C1 4888   0.464   0.517  13.444 -0.4430  0.5204  0.3342
  322MPD2    C2 4889   0.486   0.385  13.400  0.1974 -0.0403  0.4433
  322MPD2    C3 4890   0.535   0.359  13.270 -0.0780  0.1125  0.1481
  322MPD2    C4 4891   0.535   0.465  13.177  0.0006 -0.3985 -0.5009
  322MPD2    C5 4892   0.494   0.588  13.206 -0.1586 -0.4156 -0.0876
  322MPD2     H 4893   0.481   0.293  13.458 -0.3184  1.4669  2.7574
  322MPD2    H1 4894   0.571   0.441  13.077  1.2220  0.9779 -0.3913
  322MPD2    H2 4895   0.451   0.715  13.367  1.4945  0.3663 -0.8630
  322MPD2    H3 4896   0.498   0.674  13.140 -0.9155 -0.6860 -0.4929
  322MPD2     N 4897   0.569   0.227  13.232 -0.2051  0.3293  0.4177
  322MPD2    H5 4898   0.590   0.160  13.306  1.4261  0.7524  0.3211
  322MPD2    N1 4899   0.429   0.571  13.564  0.0003 -0.7835  0.7738
  322MPD2    H7 4900   0.414   0.670  13.574  1.9018 -0.2431 -1.8874
  323TMC3    C1 4901   0.449   0.569  13.805  0.1358  0.4868 -1.1550
  323TMC3    C2 4902   0.486   0.703  13.803  1.3864 -0.6314 -0.2414
  323TMC3    C3 4903   0.552   0.759  13.902 -0.1486  0.7269 -0.2943
  323TMC3    C4 4904   0.460   0.496  13.913 -0.0928  0.8576  0.5729
  323TMC3    C5 4905   0.514   0.557  14.025  0.1223  0.3912  0.1248
  323TMC3    C6 4906   0.581   0.682  14.015  0.7520 -0.3790 -0.4199
  323TMC3     C 4907   0.419   0.493  13.684 -0.1469 -0.3072 -0.4278
  323TMC3     O 4908   0.420   0.374  13.687  0.0280 -0.6767  0.1430
  323TMC3     H 4909   0.473   0.761  13.713 -0.7934  0.2455  0.6437
  323TMC3    H1 4910   0.401   0.406  13.927 -0.3192  1.1667  1.6443
  323TMC3    H2 4911   0.635   0.723  14.100  0.1164 -0.7268  0.1519
  323TMC3    C7 4912   0.510   0.484  14.151  0.4164  0.9432  0.6904
  323TMC3    C8 4913   0.639   0.866  13.874 -0.1620  0.0161  0.1573
  323TMC3    O1 4914   0.464   0.370  14.147  0.1600  0.4619 -0.0594
  323TMC3    O2 4915   0.755   0.850  13.910 -0.1860  0.1706 -0.4451
  324MPD2     C 4916   1.824   1.116  14.809  0.0639 -0.4292  0.8667
  324MPD2    C1 4917   1.879   1.217  14.737  0.3971 -0.6442 -1.0236
  324MPD2    C2 4918   1.802   1.294  14.652 -0.3370  0.5789 -0.4703
  324MPD2    C3 4919   1.662   1.274  14.647 -0.0096  0.6582 -0.4220
  324MPD2    C4 4920   1.604   1.175  14.726  0.1984  0.1609 -0.8148
  324MPD2    C5 4921   1.687   1.089  14.795  0.2210 -0.3755 -0.6756
  324MPD2     H 4922   1.856   1.372  14.599 -2.1506  1.4595 -1.0136
  324MPD2    H1 4923   1.498   1.152  14.728  0.1376  0.5119  0.1707
  324MPD2    H2 4924   1.891   1.050  14.863 -1.4573 -0.1982  3.0227
  324MPD2    H3 4925   1.642   1.010  14.855 -0.7961 -1.1469 -2.4716
  324MPD2     N 4926   1.574   1.351  14.562  0.1782 -0.4192 -0.6113
  324MPD2    H5 4927   1.474   1.338  14.575  0.7526 -1.4144  2.8887
  324MPD2    N1 4928   2.011   1.257  14.757 -0.3008  0.6142 -0.1249
  324MPD2    H7 4929   2.056   1.311  14.684  1.2700 -0.9613 -0.3132
  325TMC3    C1 4930   1.497   1.524  14.422  0.1075  0.9973 -0.0547
  325TMC3    C2 4931   1.372   1.462  14.427 -0.4810 -0.3825 -0.0397
  325TMC3    C3 4932   1.268   1.544  14.399  0.0912 -0.2135  0.0022
  325TMC3    C4 4933   1.522   1.656  14.394 -0.0104 -0.2281  0.3756
  325TMC3    C5 4934   1.412   1.735  14.380 -0.0872  0.0732  0.2895
  325TMC3    C6 4935   1.284   1.679  14.374  0.4408  0.1866  0.2403
  325TMC3     C 4936   1.609   1.458  14.490 -0.2792  0.5262  0.0061
  325TMC3     O 4937   1.720   1.504  14.472 -0.2236  0.1489 -0.0955
  325TMC3     H 4938   1.354   1.356  14.440  0.0163 -0.7560 -2.4623
  325TMC3    H1 4939   1.623   1.687  14.370 -0.0269  0.0979  0.7279
  325TMC3    H2 4940   1.197   1.740  14.351  0.5883 -0.1706 -1.2102
  325TMC3    C7 4941   1.443   1.874  14.342  0.0038  0.2188  0.7260
  325TMC3    C8 4942   1.132   1.487  14.408 -0.0405  0.1156  0.3496
  325TMC3    O1 4943   1.562   1.892  14.310  0.1732  0.2493  0.7101
  325TMC3    O2 4944   1.130   1.364  14.409 -0.5468  0.1448  0.8212
  326MPD2     C 4945   2.435   3.157  10.912  0.3881 -0.0146  0.5534
  326MPD2    C1 4946   2.514   3.056  10.862 -0.8578  0.3528 -0.9226
  326MPD2    C2 4947   2.646   3.050  10.902 -0.3811 -0.2223  0.6773
  326MPD2    C3 4948   2.703   3.146  10.983 -0.0867 -0.1679  0.8831
  326MPD2    C4 4949   2.620   3.242  11.037  0.4375  0.5333  0.0204
  326MPD2    C5 4950   2.487   3.245  11.001 -0.8650  0.9492  0.8914
  326MPD2     H 4951   2.706   2.975  10.852 -0.9985  0.0138 -0.4106
  326MPD2    H1 4952   2.665   3.307  11.112 -3.0116  0.4827  2.1465
  326MPD2    H2 4953   2.328   3.154  10.898  0.4923  2.5584 -0.7766
  326MPD2    H3 4954   2.430   3.328  11.041 -0.8671  2.3255 -2.0217
  326MPD2     N 4955   2.846   3.159  10.989 -0.5651  0.0396 -0.0724
  326MPD2    H5 4956   2.888   3.243  11.026  0.5990 -0.1935 -0.8500
  326MPD2    N1 4957   2.473   2.971  10.760  0.1419 -0.3236 -0.6769
  326MPD2    H7 4958   2.545   2.906  10.730  1.5041  0.7531  0.2728
  327TMC3    C1 4959   2.358   2.920  10.558  0.0959 -0.0332  0.7411
  327TMC3    C2 4960   2.235   2.949  10.490 -0.0945 -0.3160 -0.4544
  327TMC3    C3 4961   2.248   2.964  10.350 -0.7076  0.2176  0.4248
  327TMC3    C4 4962   2.481   2.913  10.494 -0.0374  0.6111 -0.3494
  327TMC3    C5 4963   2.482   2.943  10.358  0.6321  0.3179  0.1855
  327TMC3    C6 4964   2.368   2.966  10.283 -0.4693 -0.5300  0.0287
  327TMC3     C 4965   2.355   2.982  10.691 -0.2642  0.2176 -0.2036
  327TMC3     O 4966   2.263   3.061  10.710  0.9134  0.2208  0.1993
  327TMC3     H 4967   2.143   2.933  10.544 -1.2414  1.6175 -1.8537
  327TMC3    H1 4968   2.577   2.905  10.544 -1.3391 -0.0367  2.0213
  327TMC3    H2 4969   2.371   2.981  10.176  1.4649 -0.4742  0.1029
  327TMC3    C7 4970   2.605   2.953  10.289 -0.1371  0.2985 -0.5481
  327TMC3    C8 4971   2.155   3.057  10.293  0.8964 -0.6018 -0.3459
  327TMC3    O1 4972   2.610   3.054  10.219 -0.2647 -0.3822  0.3270
  327TMC3    O2 4973   2.197   3.120  10.198  0.1807 -0.5595  0.1350
  328MPD2     C 4974   1.316   2.541  17.075 -0.3167  0.4094  0.3608
  328MPD2    C1 4975   1.215   2.455  17.036  0.0819  0.3843 -0.1410
  328MPD2    C2 4976   1.136   2.499  16.932  0.6428 -0.0232  0.3679
  328MPD2    C3 4977   1.138   2.630  16.881  0.3956  0.0621  0.9274
  328MPD2    C4 4978   1.232   2.723  16.937 -0.3648 -0.0497 -0.2258
  328MPD2    C5 4979   1.328   2.669  17.019  0.9764  0.0263 -1.1912
  328MPD2     H 4980   1.071   2.427  16.885  0.0189  1.1943 -0.6159
  328MPD2    H1 4981   1.236   2.823  16.895 -1.1850 -0.2404 -0.7582
  328MPD2    H2 4982   1.397   2.493  17.130 -0.1207  0.9792  0.5626
  328MPD2    H3 4983   1.419   2.720  17.046  1.1334  0.2983 -2.2434
  328MPD2     N 4984   1.044   2.683  16.790 -0.3777 -0.1023  0.1620
  328MPD2    H5 4985   1.029   2.783  16.789 -0.0181 -0.0479 -0.0416
  328MPD2    N1 4986   1.198   2.327  17.103  0.6211  0.1083  0.0238
  328MPD2    H7 4987   1.255   2.303  17.184  1.7486 -0.9536 -1.0989
  329TMC3    C1 4988   1.117   2.110  17.145  0.1234  0.1311  0.5124
  329TMC3    C2 4989   1.111   2.125  17.281  0.1028 -0.4466 -0.6317
  329TMC3    C3 4990   1.061   2.021  17.353 -0.5516 -0.2915 -0.3600
  329TMC3    C4 4991   1.086   1.994  17.078  0.0956  0.1095  0.2604
  329TMC3    C5 4992   1.045   1.888  17.160  0.1474 -0.0528 -0.3590
  329TMC3    C6 4993   1.028   1.900  17.298  0.3176 -0.3901  1.2308
  329TMC3     C 4994   1.117   2.228  17.059 -0.6634 -0.3248 -0.0041
  329TMC3     O 4995   1.048   2.209  16.957  0.0939  0.2742 -0.4044
  329TMC3     H 4996   1.143   2.214  17.333 -0.8168 -1.7047  2.0582
  329TMC3    H1 4997   1.081   2.001  16.970  0.7363  0.6212  0.2610
  329TMC3    H2 4998   0.977   1.827  17.361 -0.4908 -1.4865 -0.6818
  329TMC3    C7 4999   1.050   1.750  17.098 -0.4428  0.2205  0.0872
  329TMC3    C8 5000   1.032   2.031  17.490  1.0533  0.1892 -0.6794
  329TMC3    O1 5001   1.057   1.747  16.975 -0.1355  0.0474  0.2923
  329TMC3    O2 5002   1.065   1.934  17.552  0.2629  0.2710 -0.4603
  330TMC3    C1 5003   3.097   2.167   9.682 -0.3843 -0.1004 -0.4885
  330TMC3    C2 5004   2.967   2.122   9.655  0.6006  0.5231 -0.4032
  330TMC3    C3 5005   2.918   2.023   9.732  0.7217 -0.4300  0.5231
  330TMC3    C4 5006   3.171   2.117   9.790 -0.2503  0.2521  0.0714
  330TMC3    C5 5007   3.109   2.022   9.868  0.0714  0.1731  0.2323
  330TMC3    C6 5008   2.991   1.963   9.832 -0.5905  0.2337  0.6745
  330TMC3     C 5009   3.151   2.272   9.603 -0.2540 -0.1688 -0.1816
  330TMC3     O 5010   3.257   2.316   9.648  0.5864 -0.3026 -0.0613
  330TMC3     H 5011   2.909   2.157   9.571  0.6029  1.6163  0.0539
  330TMC3    H1 5012   3.266   2.164   9.812  0.2291 -0.1724 -1.1196
  330TMC3    H2 5013   2.964   1.882   9.898  2.3927 -0.6744  0.7653
  330TMC3    C7 5014   3.170   1.987   9.992  1.0909  0.8132 -0.2476
  330TMC3    C8 5015   2.781   1.985   9.703  0.0207 -0.0152 -0.2755
  330TMC3    O1 5016   3.132   1.876  10.032  0.3887 -1.0005  0.5082
  330TMC3    O2 5017   2.732   2.029   9.599 -0.4230  0.4663 -0.1589
  331MPD2     C 5018   1.480   1.746  12.863  0.0172  0.6085  0.4538
  331MPD2    C1 5019   1.415   1.692  12.751  0.4788 -0.4835  0.4954
  331MPD2    C2 5020   1.413   1.555  12.740  0.1888 -0.4244  0.6177
  331MPD2    C3 5021   1.460   1.478  12.841  0.1869 -0.0830  0.5356
  331MPD2    C4 5022   1.533   1.532  12.944  0.1707 -0.0776 -0.2704
  331MPD2    C5 5023   1.538   1.668  12.957  0.3479  0.3111  0.5283
  331MPD2     H 5024   1.360   1.514  12.656 -0.1146  1.5532 -0.1642
  331MPD2    H1 5025   1.579   1.471  13.022  1.9574 -0.4007 -1.5678
  331MPD2    H2 5026   1.484   1.855  12.871  0.0478  0.6058  0.4754
  331MPD2    H3 5027   1.588   1.710  13.043  0.0337 -1.3927  1.5338
  331MPD2     N 5028   1.430   1.337  12.836 -0.1770  0.1220 -0.0325
  331MPD2    H5 5029   1.380   1.313  12.751  1.0475  0.2876 -0.7941
  331MPD2    N1 5030   1.371   1.777  12.648  0.3658 -0.3733  0.1066
  331MPD2    H7 5031   1.345   1.732  12.561 -1.5496 -0.8269  0.8979
  332TMC3    C1 5032   1.400   1.112  12.895 -0.5632 -0.0944  0.2895
  332TMC3    C2 5033   1.322   1.099  12.781  0.3444 -0.3965  0.2316
  332TMC3    C3 5034   1.293   0.975  12.734 -0.1741  0.3385  0.2536
  332TMC3    C4 5035   1.444   1.000  12.952 -0.1029 -0.1600 -0.2784
  332TMC3    C5 5036   1.425   0.880  12.900  0.4642  0.1124  0.0514
  332TMC3    C6 5037   1.347   0.861  12.791  0.3023  0.0052 -0.5323
  332TMC3     C 5038   1.459   1.235  12.932 -0.1321 -0.2026  0.1493
  332TMC3     O 5039   1.523   1.238  13.035  0.1607 -0.0222 -0.1283
  332TMC3     H 5040   1.265   1.181  12.740  1.2562 -0.3679 -0.9771
  332TMC3    H1 5041   1.506   1.005  13.041 -1.0289 -1.2520  0.4254
  332TMC3    H2 5042   1.326   0.765  12.747 -0.9730  1.1282 -2.3779
  332TMC3    C7 5043   1.500   0.770  12.953 -0.0969  0.2812 -0.6754
  332TMC3    C8 5044   1.202   0.984  12.620 -0.0803  0.7237  0.7244
  332TMC3    O1 5045   1.454   0.660  12.935 -0.3572  0.1597  0.4282
  332TMC3    O2 5046   1.216   1.081  12.548 -0.0630  0.0985 -0.0719
  333MPD2     C 5047   1.134   1.805  11.429  1.3284 -1.3172 -0.4571
  333MPD2    C1 5048   1.216   1.765  11.328  0.5658 -0.7989  0.7696
  333MPD2    C2 5049   1.292   1.648  11.345 -0.6342 -0.1110  0.2789
  333MPD2    C3 5050   1.287   1.576  11.466  1.0990 -0.2078  0.7888
  333MPD2    C4 5051   1.207   1.620  11.559 -0.5637  0.3110 -0.4443
  333MPD2    C5 5052   1.135   1.734  11.543 -0.6618  0.5789 -0.9200
  333MPD2     H 5053   1.358   1.616  11.264  1.1657  1.3491  1.1816
  333MPD2    H1 5054   1.181   1.554  11.641  0.9322 -0.5208 -0.6393
  333MPD2    H2 5055   1.055   1.878  11.421  0.3588 -2.2514  0.7850
  333MPD2    H3 5056   1.063   1.758  11.620  0.3662  3.2900 -0.8076
  333MPD2     N 5057   1.365   1.455  11.472  0.1193 -0.7301  0.2740
  333MPD2    H5 5058   1.428   1.441  11.394  0.6722  0.4331  0.5116
  333MPD2    N1 5059   1.235   1.842  11.213  0.2015  0.0198 -0.1044
  333MPD2    H7 5060   1.226   1.942  11.228 -0.7299 -0.0900  0.0995
  334TMC3    C1 5061   1.309   1.874  10.999 -0.0649  0.4309  0.0358
  334TMC3    C2 5062   1.414   1.830  10.923 -0.6855  0.5281 -0.0615
  334TMC3    C3 5063   1.509   1.923  10.878 -0.4297  0.3721 -0.3452
  334TMC3    C4 5064   1.281   2.007  11.002 -0.6497 -0.0410  0.3728
  334TMC3    C5 5065   1.364   2.093  10.934 -0.7995 -0.0381 -0.1723
  334TMC3    C6 5066   1.483   2.058  10.876 -0.5802 -0.1006 -0.9772
  334TMC3     C 5067   1.258   1.779  11.086 -0.4664  0.5650 -0.1611
  334TMC3     O 5068   1.275   1.660  11.062  0.5819 -0.2420 -0.0956
  334TMC3     H 5069   1.439   1.724  10.914 -0.1428  0.3572  3.3752
  334TMC3    H1 5070   1.204   2.052  11.063 -1.0367  1.2819 -1.0743
  334TMC3    H2 5071   1.555   2.131  10.842  0.0979 -0.5359 -0.5000
  334TMC3    C7 5072   1.324   2.230  10.932 -0.2613 -0.2703 -0.5719
  334TMC3    C8 5073   1.646   1.869  10.867 -0.2658  0.1115 -0.8266
  334TMC3    O1 5074   1.408   2.320  10.938 -0.3209  0.1309 -0.3154
  334TMC3    O2 5075   1.646   1.748  10.844  0.8319  0.7629  0.0336
  335TMC3    C1 5076   1.638   2.404  17.666  0.0076 -0.1035  0.3460
  335TMC3    C2 5077   1.534   2.329  17.611  0.0828  0.8054  0.1982
  335TMC3    C3 5078   1.502   2.361  17.479  0.7661 -0.4174 -0.1509
  335TMC3    C4 5079   1.717   2.489  17.595 -0.2140 -1.0621 -0.1001
  335TMC3    C5 5080   1.691   2.508  17.462  1.1192 -0.2326 -0.3013
  335TMC3    C6 5081   1.579   2.451  17.408 -0.5101  0.1194 -0.1702
  335TMC3     C 5082   1.657   2.395   0.055 -0.3424 -0.6041  0.8062
  335TMC3     O 5083   1.745   2.462   0.104 -0.0507  0.2758 -0.1752
  335TMC3     H 5084   1.468   2.263  17.667  1.3239  0.9721  1.8528
  335TMC3    H1 5085   1.809   2.522  17.641  0.6353 -1.8415 -1.2346
  335TMC3    H2 5086   1.572   2.462  17.300  3.6544 -1.3820 -0.6150
  335TMC3    C7 5087   1.800   2.544  17.371  0.4492  0.2794  0.2506
  335TMC3    C8 5088   1.432   2.259  17.396 -0.3623 -0.2971 -0.2325
  335TMC3    O1 5089   1.808   2.484  17.265  0.8546  0.5931 -0.1949
  335TMC3    O2 5090   1.403   2.296  17.284 -0.7724  0.5888  0.6454
  336MPD2     C 5091   1.267   0.209  16.084 -0.0252 -1.0685  0.2840
  336MPD2    C1 5092   1.204   0.153  15.976 -0.0906 -0.3327  0.5615
  336MPD2    C2 5093   1.209   0.013  15.967 -0.0994  0.1877  0.1612
  336MPD2    C3 5094   1.287   4.674  16.048 -0.3685 -0.1549 -0.5107
  336MPD2    C4 5095   1.359   4.735  16.147  0.1681  0.2844  0.2265
  336MPD2    C5 5096   1.352   0.132  16.165 -0.4953  0.4090 -0.0788
  336MPD2     H 5097   1.150   4.705  15.889 -0.7926  0.0543  0.7698
  336MPD2    H1 5098   1.420   4.686  16.222  0.9327 -0.9532 -1.2183
  336MPD2    H2 5099   1.247   0.313  16.102 -0.6064 -0.8169 -1.7951
  336MPD2    H3 5100   1.397   0.175  16.253 -0.2107  0.3953 -0.2182
  336MPD2     N 5101   1.304   4.533  16.034  0.2589  0.5589  0.0559
  336MPD2    H5 5102   1.370   4.491  16.098  0.0291 -1.7618 -1.2255
  336MPD2    N1 5103   1.104   0.213  15.892  0.0609 -0.3233 -0.0438
  336MPD2    H7 5104   1.058   0.151  15.826 -1.7033  1.6010 -0.6117
  337TMC3    C1 5105   0.936   0.371  15.838  0.1273 -0.2773  0.0508
  337TMC3    C2 5106   0.873   0.278  15.763 -0.0044 -0.3664  0.3294
  337TMC3    C3 5107   0.768   0.328  15.682  1.3341  0.5524 -0.5008
  337TMC3    C4 5108   0.907   0.505  15.835  0.0013  0.5294 -0.3093
  337TMC3    C5 5109   0.814   0.544  15.745  0.0067 -0.4297  0.0233
  337TMC3    C6 5110   0.746   0.460  15.662  0.6913 -0.6258  0.3124
  337TMC3     C 5111   1.062   0.340  15.908 -0.6596  0.5553  0.3086
  337TMC3     O 5112   1.107   0.429  15.982  0.3327 -0.0616 -0.3312
  337TMC3     H 5113   0.890   0.171  15.760  1.3504 -0.2156  3.3619
  337TMC3    H1 5114   0.970   0.576  15.888  0.1207 -1.8495  2.7156
  337TMC3    H2 5115   0.659   0.499  15.610  1.6437  0.7539 -0.2223
  337TMC3    C7 5116   0.775   0.685  15.736  0.3499  0.7469  0.1037
  337TMC3    C8 5117   0.676   0.228  15.628 -0.5002  0.5587  0.6780
  337TMC3    O1 5118   0.781   0.746  15.844 -0.1478  0.1017 -0.3266
  337TMC3    O2 5119   0.660   0.124  15.690  0.1923  0.4848 -0.0457
  338MPD2     C 5120   1.219   4.169   0.972 -0.2909  0.7372  0.0460
  338MPD2    C1 5121   1.221   4.165   0.834 -0.1224  0.6226 -0.1079
  338MPD2    C2 5122   1.097   4.190   0.775 -0.5695  0.2166 -0.6336
  338MPD2    C3 5123   0.978   4.190   0.849 -0.1025 -0.0115  0.3018
  338MPD2    C4 5124   0.979   4.190   0.986 -0.6841 -0.5487 -1.4025
  338MPD2    C5 5125   1.100   4.181   1.044 -0.0143  0.4369  0.2625
  338MPD2     H 5126   1.105   4.197   0.668  0.4263 -1.6402 -0.6689
  338MPD2    H1 5127   0.885   4.184   1.040 -0.2095  0.7547 -0.4196
  338MPD2    H2 5128   1.310   4.160   1.029 -0.7692  1.8127  0.9852
  338MPD2    H3 5129   1.113   4.184   1.151 -1.3664 -1.0403  0.4566
  338MPD2     N 5130   0.865   4.196   0.769  0.0761 -0.3268 -0.4159
  338MPD2    H5 5131   0.868   4.194   0.668  0.8910  0.4476 -0.4088
  338MPD2    N1 5132   1.337   4.148   0.756 -0.2906  0.1911 -0.0575
  338MPD2    H7 5133   1.324   4.152   0.656  0.0948 -0.2115 -0.1237
  339TMC3    C1 5134   0.647   4.155   0.711  0.4188  0.5350  0.2239
  339TMC3    C2 5135   0.646   4.043   0.639  0.2779 -0.4081 -0.0768
  339TMC3    C3 5136   0.607   4.047   0.509 -0.3025 -0.2505 -0.1777
  339TMC3    C4 5137   0.631   4.280   0.654 -0.7396 -0.5117  0.7322
  339TMC3    C5 5138   0.594   4.288   0.520 -0.9945  0.0927 -0.6639
  339TMC3    C6 5139   0.579   4.168   0.445 -0.6403 -0.2379 -0.6870
  339TMC3     C 5140   0.740   4.168   0.824 -0.6799 -1.0936 -0.6672
  339TMC3     O 5141   0.697   4.109   0.923  0.1990 -0.5112  0.1062
  339TMC3     H 5142   0.678   3.951   0.687  0.8987 -0.6357 -0.9418
  339TMC3    H1 5143   0.633   4.368   0.718 -3.7128 -1.0870  1.5784
  339TMC3    H2 5144   0.538   4.171   0.344 -0.6996  0.4959 -0.6396
  339TMC3    C7 5145   0.656   4.393   0.443  1.0829 -0.1330 -0.1575
  339TMC3    C8 5146   0.674   3.960   0.413  0.2651  0.2922 -0.2664
  339TMC3    O1 5147   0.686   4.498   0.502  0.1775  0.1408  0.1993
  339TMC3    O2 5148   0.740   4.022   0.325 -0.0018 -0.2540  0.1889
  340MPD2     C 5149   0.735   3.211   9.610 -0.6715  0.7677  0.3332
  340MPD2    C1 5150   0.754   3.102   9.692  0.4107  0.2156  0.4469
  340MPD2    C2 5151   0.854   3.099   9.781  0.1759 -0.6987 -0.3918
  340MPD2    C3 5152   0.946   3.209   9.798 -0.0029 -0.1776 -0.1334
  340MPD2    C4 5153   0.926   3.320   9.723  0.1355  0.1818  0.5452
  340MPD2    C5 5154   0.818   3.321   9.631  1.2341 -0.2264 -0.1909
  340MPD2     H 5155   0.874   3.003   9.826 -0.6183 -0.5379  0.3022
  340MPD2    H1 5156   0.977   3.415   9.738 -1.9692  1.4072  0.0023
  340MPD2    H2 5157   0.658   3.209   9.533 -0.8277 -0.0791  0.5119
  340MPD2    H3 5158   0.809   3.410   9.571  1.6033 -0.2675 -0.3081
  340MPD2     N 5159   1.046   3.218   9.905 -0.6118  0.2246  0.2162
  340MPD2    H5 5160   1.112   3.295   9.896 -2.9191  2.2360  0.4897
  340MPD2    N1 5161   0.672   2.989   9.664 -0.1806  0.1994 -0.2799
  340MPD2    H7 5162   0.606   3.005   9.589 -0.9767 -2.0261 -0.0489
  341TMC3    C1 5163   0.614   2.760   9.650  1.4465  0.4049 -0.8422
  341TMC3    C2 5164   0.597   2.642   9.719  0.0540 -0.0868 -0.0341
  341TMC3    C3 5165   0.614   2.519   9.657 -0.0563 -0.0752  0.0356
  341TMC3    C4 5166   0.627   2.756   9.509  0.3379  0.0576 -0.0134
  341TMC3    C5 5167   0.619   2.631   9.450  0.2141  0.4374 -0.4665
  341TMC3    C6 5168   0.619   2.512   9.521  0.3969 -0.7194 -0.3638
  341TMC3     C 5169   0.673   2.866   9.727  1.1930 -0.0105  0.4131
  341TMC3     O 5170   0.712   2.842   9.838 -0.1478 -0.2773 -0.6720
  341TMC3     H 5171   0.574   2.649   9.825 -1.8178 -1.2528 -0.3513
  341TMC3    H1 5172   0.669   2.842   9.458  0.3053  0.3437  0.4418
  341TMC3    H2 5173   0.614   2.419   9.465 -1.6258 -0.7808 -0.0732
  341TMC3    C7 5174   0.674   2.621   9.313  0.1305  0.0279  0.3932
  341TMC3    C8 5175   0.584   2.398   9.731 -0.5970  0.1433  0.1832
  341TMC3    O1 5176   0.735   2.516   9.277  0.3595 -0.3176  0.1797
  341TMC3    O2 5177   0.541   2.299   9.667  0.1386  0.2479 -0.1416
  342MPD2     C 5178   4.133   0.361  17.611 -0.0139  0.3429 -0.5493
  342MPD2    C1 5179   4.250   0.405  17.557  0.8015  0.7996  0.7384
  342MPD2    C2 5180   4.284   0.534  17.596  0.4115  0.6031 -0.6353
  342MPD2    C3 5181   4.205   0.619  17.680 -0.2634 -0.1753 -0.1028
  342MPD2    C4 5182   4.082   0.576  17.722 -0.0873 -0.6326  0.4069
  342MPD2    C5 5183   4.049   0.445  17.687 -0.5757 -0.7039 -0.2602
  342MPD2     H 5184   4.375   0.577  17.556  1.5145 -0.0844  1.1405
  342MPD2    H1 5185   4.016   0.643   0.021  0.1491  1.7653 -2.2130
  342MPD2    H2 5186   4.091   0.263  17.591 -0.1405 -0.2095  2.3736
  342MPD2    H3 5187   3.951   0.411  17.719 -0.4725 -0.1607  0.6648
  342MPD2     N 5188   4.245   0.752  17.706  0.0732  0.2472  0.2482
  342MPD2    H5 5189   4.176   0.803   0.004  2.0235  0.8258  2.1724
  342MPD2    N1 5190   4.341   0.328  17.477  0.1295  0.5664 -0.1546
  342MPD2    H7 5191   4.421   0.381  17.444 -0.6214  1.9030  0.1826
  343TMC3    C1 5192   4.417   0.133  17.368 -0.7292 -0.2890 -0.5049
  343TMC3    C2 5193   4.469   0.211  17.271 -0.2629 -0.1458 -0.6160
  343TMC3    C3 5194   4.517   0.151  17.159 -0.8331 -0.0086 -0.5934
  343TMC3    C4 5195   4.401   4.730  17.356 -0.8001  0.5406  0.2187
  343TMC3    C5 5196   4.438   4.676  17.236  0.1677  0.3171 -0.5732
  343TMC3    C6 5197   4.494   0.012  17.134 -0.4892  0.4256  0.5299
  343TMC3     C 5198   4.332   0.193  17.467  0.5255  0.3316 -0.4003
  343TMC3     O 5199   4.277   0.118  17.546  0.1012 -0.1539 -0.3453
  343TMC3     H 5200   4.469   0.319  17.279 -0.0092 -0.1875 -0.0220
  343TMC3    H1 5201   4.328   4.673  17.413 -0.4700  0.4452  0.5471
  343TMC3    H2 5202   4.537   4.703  17.047 -0.5768 -0.9107  1.2366
  343TMC3    C7 5203   4.430   4.534  17.208 -0.6863 -0.2915  0.4964
  343TMC3    C8 5204   4.618   0.214  17.080  0.0609 -0.7340  0.5208
  343TMC3    O1 5205   4.414   4.507  17.090  0.2859 -0.0640  0.0066
  343TMC3    O2 5206   4.621   0.334  17.073  0.6299  0.1769  0.8661
  344MPD2     C 5207   4.274   0.798  11.574  0.5004  0.0700 -0.1775
  344MPD2    C1 5208   4.405   0.749  11.561  0.2125  0.7563 -0.0531
  344MPD2    C2 5209   4.499   0.817  11.484 -0.4547 -0.2807  0.1979
  344MPD2    C3 5210   4.461   0.935  11.424 -0.0756  0.9025 -0.4473
  344MPD2    C4 5211   4.338   0.983  11.441 -0.2838  0.5013  0.2513
  344MPD2    C5 5212   4.243   0.924  11.518  0.6710  0.2048  0.5277
  344MPD2     H 5213   4.602   0.781  11.480 -0.5694 -0.5982  0.1217
  344MPD2    H1 5214   4.293   1.067  11.390 -0.7619  0.0454 -0.0875
  344MPD2    H2 5215   4.196   0.749  11.632  1.2481 -0.1452  0.6643
  344MPD2    H3 5216   4.141   0.959  11.529  0.5089  0.0430 -0.4619
  344MPD2     N 5217   4.553   1.010  11.343  1.1076  0.1548  0.2307
  344MPD2    H5 5218   4.514   1.092  11.297 -1.8235 -0.8048  0.9944
  344MPD2    N1 5219   4.429   0.619  11.618  0.1623  0.0214 -0.0488
  344MPD2    H7 5220   4.522   0.584  11.597 -1.4235 -3.2906 -1.6257
  345TMC3    C1 5221   0.012   1.085  11.234  0.5687  0.1620  0.7639
  345TMC3    C2 5222   0.119   1.158  11.271  0.4201 -0.3982  0.0262
  345TMC3    C3 5223   0.135   1.274  11.203  0.6595  0.0835 -0.3682
  345TMC3    C4 5224   4.692   1.101  11.116 -0.6670  0.1309 -0.4486
  345TMC3    C5 5225   4.704   1.224  11.052  0.1013 -0.4471 -0.4633
  345TMC3    C6 5226   0.051   1.314  11.103  0.0812 -0.1849  0.2753
  345TMC3     C 5227   4.693   0.995  11.322 -0.4159  0.1601  0.0423
  345TMC3     O 5228   0.023   0.933  11.399 -0.4483  0.5403  0.1891
  345TMC3     H 5229   0.185   1.129  11.351 -0.5775 -1.1543  0.5810
  345TMC3    H1 5230   4.620   1.032  11.074  0.1729 -0.8981 -0.1780
  345TMC3    H2 5231   0.059   1.401  11.038  3.5874 -0.3643  0.4331
  345TMC3    C7 5232   4.656   1.252  10.920  0.6631 -0.4152 -0.2651
  345TMC3    C8 5233   0.268   1.339  11.183  0.3737 -0.5538  0.4612
  345TMC3    O1 5234   4.735   1.303  10.846  0.3446 -0.5105  0.2356
  345TMC3    O2 5235   0.261   1.458  11.154  0.3744 -0.9256  0.1259
  346MPD2     C 5236   0.251   1.982  14.249  0.4231  0.2404  0.4015
  346MPD2    C1 5237   0.286   2.100  14.192  0.3926 -0.1225 -1.4023
  346MPD2    C2 5238   0.351   2.193  14.272 -0.1585  0.2885  0.3959
  346MPD2    C3 5239   0.400   2.157  14.396  0.2401  0.3753  0.3146
  346MPD2    C4 5240   0.362   2.035  14.451  0.3844  0.7451  0.6373
  346MPD2    C5 5241   0.288   1.951  14.371 -0.3479  0.6604  0.3345
  346MPD2     H 5242   0.366   2.291  14.229  1.3242  0.0696  0.4162
  346MPD2    H1 5243   0.407   1.985  14.536  1.3359 -1.4874 -1.1843
  346MPD2    H2 5244   0.187   1.910  14.199  2.8120 -0.5390 -1.5241
  346MPD2    H3 5245   0.250   1.854  14.401  0.3003 -0.1139 -1.3394
  346MPD2     N 5246   0.496   2.244  14.454  0.1143 -0.3165 -0.0598
  346MPD2    H5 5247   0.523   2.331  14.409 -0.0787 -0.4271 -0.3953
  346MPD2    N1 5248   0.262   2.124  14.049 -0.0563 -0.2634  0.5554
  346MPD2    H7 5249   0.273   2.220  14.019 -0.0579 -0.1477  0.9306
  347TMC3    C1 5250   0.682   2.284  14.592  0.2994  0.0050  0.8116
  347TMC3    C2 5251   0.757   2.325  14.484  0.8051  0.0169  0.3513
  347TMC3    C3 5252   0.884   2.382  14.515 -0.0310 -0.3785 -1.0660
  347TMC3    C4 5253   0.727   2.287  14.721 -0.3363  0.2121  0.5133
  347TMC3    C5 5254   0.847   2.340  14.749 -0.1406 -0.4124 -0.0797
  347TMC3    C6 5255   0.924   2.390  14.649 -0.4215  0.2444 -0.4866
  347TMC3     C 5256   0.561   2.214  14.570  1.1318 -0.4106  0.2829
  347TMC3     O 5257   0.536   2.121  14.645  0.1888 -0.3882 -0.4696
  347TMC3     H 5258   0.730   2.313  14.380 -1.7027 -2.2259  1.2757
  347TMC3    H1 5259   0.669   2.239  14.798  0.5223 -2.8583 -0.7295
  347TMC3    H2 5260   1.021   2.431  14.674  0.2083 -0.8745 -1.0949
  347TMC3    C7 5261   0.917   2.266  14.857 -0.4760 -0.1103 -0.5179
  347TMC3    C8 5262   0.992   2.334  14.430  0.0205 -0.0243  0.0441
  347TMC3    O1 5263   0.852   2.177  14.909  0.7089 -1.1297  0.4020
  347TMC3    O2 5264   0.958   2.256  14.339  0.0563  0.1084 -0.3542
  348MPD2     C 5265   4.069   2.024  11.679  0.1626  0.4033 -0.6382
  348MPD2    C1 5266   3.933   2.040  11.694  0.2689  0.1560  0.2671
  348MPD2    C2 5267   3.874   2.143  11.628  0.4221  0.1460 -0.2818
  348MPD2    C3 5268   3.951   2.241  11.557 -0.0059 -0.0524 -0.4439
  348MPD2    C4 5269   4.092   2.226  11.562 -0.0885 -0.2120 -0.2706
  348MPD2    C5 5270   4.147   2.108  11.609  0.1589 -0.1736  0.4659
  348MPD2     H 5271   3.766   2.141  11.618  0.6417  1.7734 -3.0930
  348MPD2    H1 5272   4.161   2.282  11.501  1.3306 -1.0050  0.6000
  348MPD2    H2 5273   4.118   1.941  11.728  1.2169 -0.4659 -3.1771
  348MPD2    H3 5274   4.252   2.088  11.593 -0.0237  1.0296 -2.1769
  348MPD2     N 5275   3.885   2.334  11.471  0.1559  0.5561 -0.8703
  348MPD2    H5 5276   3.791   2.306  11.448 -0.0271  1.1193 -0.8156
  348MPD2    N1 5277   3.846   1.941  11.758  0.0139  0.3602 -0.4746
  348MPD2    H7 5278   3.750   1.972  11.767  0.1528 -0.3344  3.3225
  349TMC3    C1 5279   3.775   1.743  11.863 -0.2669  0.3074 -0.0769
  349TMC3    C2 5280   3.804   1.619  11.924  0.6026 -0.6742  0.7629
  349TMC3    C3 5281   3.694   1.536  11.957 -0.2401  0.0176  0.5727
  349TMC3    C4 5282   3.638   1.775  11.833 -0.2022  0.5238 -0.3200
  349TMC3    C5 5283   3.542   1.687  11.860 -0.3466  0.1599 -0.2914
  349TMC3    C6 5284   3.568   1.567  11.920  0.5106 -0.1392 -0.3057
  349TMC3     C 5285   3.885   1.823  11.823 -0.0103  0.5749  0.0466
  349TMC3     O 5286   3.994   1.766  11.814  0.1659  0.6692 -0.1320
  349TMC3     H 5287   3.907   1.594  11.946  0.6891 -0.8475  0.1580
  349TMC3    H1 5288   3.618   1.864  11.775  0.4578  0.4887 -0.5969
  349TMC3    H2 5289   3.478   1.517  11.954 -0.2329  1.7167  0.4355
  349TMC3    C7 5290   3.403   1.709  11.825  0.3831 -0.1378  0.5296
  349TMC3    C8 5291   3.720   1.411  12.024  1.0522  0.1007  0.1225
  349TMC3    O1 5292   3.330   1.614  11.803 -0.2176  0.0358 -0.6075
  349TMC3    O2 5293   3.825   1.398  12.087  0.1267  0.1890 -0.0893
  350MPD2     C 5294   2.095   4.626  10.428  0.1189 -0.3686  0.5598
  350MPD2    C1 5295   2.194   4.682  10.356  0.0392  0.1137 -0.4305
  350MPD2    C2 5296   2.277   0.032  10.415 -0.1860  0.2722 -0.1446
  350MPD2    C3 5297   2.261   0.070  10.549 -0.5633  0.3572  0.2131
  350MPD2    C4 5298   2.155   0.014  10.624 -0.5161 -0.0467  0.0621
  350MPD2    C5 5299   2.078   4.660  10.558 -0.0580  0.7649 -0.0670
  350MPD2     H 5300   2.352   0.079  10.352 -0.5754 -0.1284 -0.9089
  350MPD2    H1 5301   2.135   0.043  10.726 -2.2274 -0.6304 -0.1044
  350MPD2    H2 5302   2.032   4.544  10.396  0.3003 -0.5557  0.6794
  350MPD2    H3 5303   1.997   4.613  10.612  1.4578 -2.3314 -0.5039
  350MPD2     N 5304   2.352   0.163  10.604 -0.2944 -0.3372  0.2744
  350MPD2    H5 5305   2.432   0.196  10.551 -0.3158 -1.9269 -0.7493
  350MPD2    N1 5306   2.212   4.649  10.213  0.0291 -0.3653  0.1474
  350MPD2    H7 5307   2.285   4.696  10.160 -2.3243 -1.6927 -4.2845
  351TMC3    C1 5308   2.188   4.531  10.008  0.0558 -0.3480 -0.1683
  351TMC3    C2 5309   2.236   4.405   9.968 -0.6260  0.6302  0.6039
  351TMC3    C3 5310   2.305   4.401   9.851  0.2572  0.3826 -0.2664
  351TMC3    C4 5311   2.190   4.639   9.922  0.2096  1.0067  0.0764
  351TMC3    C5 5312   2.257   4.623   9.802 -0.2026  0.3340 -0.2766
  351TMC3    C6 5313   2.321   4.508   9.771  0.3505 -0.2578 -0.0300
  351TMC3     C 5314   2.146   4.549  10.143  0.3288  0.4732  0.3365
  351TMC3     O 5315   2.066   4.465  10.185  0.0913  0.2888 -0.1712
  351TMC3     H 5316   2.228   4.325  10.041 -0.7939  0.4534  0.3919
  351TMC3    H1 5317   2.145   4.729   9.962 -1.6302  0.6741 -1.2426
  351TMC3    H2 5318   2.360   4.495   9.671  1.5182  0.8729  0.2780
  351TMC3    C7 5319   2.284   0.001   9.724  0.5286  0.2097  0.0808
  351TMC3    C8 5320   2.401   4.296   9.827 -0.0591  0.3619  0.8674
  351TMC3    O1 5321   2.313   4.718   9.608 -0.8714 -0.2784  0.1002
  351TMC3    O2 5322   2.473   4.318   9.731  0.3121 -0.1286 -0.2863
  352MPD2     C 5323   2.058   1.213   0.902  0.0220 -0.4181 -0.5284
  352MPD2    C1 5324   1.957   1.225   0.985  0.0461 -0.2423  0.1956
  352MPD2    C2 5325   1.907   1.111   1.053  0.3873  0.6399  0.0414
  352MPD2    C3 5326   1.970   0.983   1.035 -0.7136 -0.3041  1.3760
  352MPD2    C4 5327   2.079   0.983   0.953  0.1198 -0.6562 -0.3082
  352MPD2    C5 5328   2.117   1.090   0.882 -0.2133 -0.8263 -0.1080
  352MPD2     H 5329   1.824   1.117   1.122  0.9452  0.1733  0.7446
  352MPD2    H1 5330   2.137   0.891   0.951  2.1039  0.6070 -1.3274
  352MPD2    H2 5331   2.102   1.290   0.839 -1.0435  0.7934  0.2366
  352MPD2    H3 5332   2.203   1.084   0.816 -2.5750  0.0515 -3.3029
  352MPD2     N 5333   1.936   0.864   1.096 -0.7245 -0.5822 -0.3586
  352MPD2    H5 5334   1.990   0.783   1.065  1.0519  0.3234  0.3407
  352MPD2    N1 5335   1.905   1.354   1.015  0.4253  0.0606 -0.8259
  352MPD2    H7 5336   1.942   1.430   0.959  1.3693  0.1153 -0.1207
  353TMC3    C1 5337   1.810   0.701   1.188  0.3698 -0.2623  0.2052
  353TMC3    C2 5338   1.922   0.626   1.210 -0.0046  0.0562 -0.0685
  353TMC3    C3 5339   1.912   0.496   1.224  0.5431  0.4003  0.6512
  353TMC3    C4 5340   1.682   0.645   1.187  0.1785  0.3054  0.5818
  353TMC3    C5 5341   1.678   0.511   1.196  0.5496 -0.1067  0.0888
  353TMC3    C6 5342   1.790   0.436   1.220  0.1317  0.9781  0.4472
  353TMC3     C 5343   1.826   0.844   1.170  0.9938  0.2040  0.6622
  353TMC3     O 5344   1.737   0.917   1.202  0.3603  0.2003  0.1717
  353TMC3     H 5345   2.023   0.664   1.201  0.3498 -1.3868 -1.9790
  353TMC3    H1 5346   1.599   0.712   1.163 -0.5329 -0.7753  0.0445
  353TMC3    H2 5347   1.763   0.332   1.240 -0.6621  1.3197  1.1463
  353TMC3    C7 5348   1.562   0.447   1.152  0.0436  0.0214 -0.2346
  353TMC3    C8 5349   2.021   0.412   1.270  0.3342  0.6061 -0.3584
  353TMC3    O1 5350   1.569   0.333   1.102 -0.2831 -0.2749 -0.0391
  353TMC3    O2 5351   2.094   0.460   1.351 -0.4725  0.4406  0.3798
  354TMC3    C1 5352   2.915   2.602  13.465  0.4323  0.0993 -0.4761
  354TMC3    C2 5353   2.948   2.734  13.463 -0.4884 -0.2477 -0.4081
  354TMC3    C3 5354   2.896   2.817  13.366 -0.3343  0.4341  0.5343
  354TMC3    C4 5355   2.832   2.549  13.371  0.2840  0.9789  0.2219
  354TMC3    C5 5356   2.782   2.633  13.281  0.0425 -0.2153 -0.0761
  354TMC3    C6 5357   2.805   2.765  13.279  0.1562 -0.4025  0.4283
  354TMC3     C 5358   2.993   2.512  13.558  0.0483  0.5624  0.2386
  354TMC3     O 5359   3.014   2.396  13.517  0.1044  0.1124 -0.0170
  354TMC3     H 5360   3.030   2.768  13.525 -1.4592 -0.6941  1.1125
  354TMC3    H1 5361   2.834   2.446  13.338 -2.2682  1.0480 -0.1160
  354TMC3    H2 5362   2.755   2.823  13.202  1.8886  2.0133  1.1295
  354TMC3    C7 5363   2.792   2.573  13.143 -0.3771  0.2899  0.4924
  354TMC3    C8 5364   2.988   2.924  13.330  0.0730  0.2690 -0.8308
  354TMC3    O1 5365   2.743   2.463  13.117  0.0555 -0.0098  0.0260
  354TMC3    O2 5366   3.100   2.924  13.376  0.3013  0.0009 -0.6661
  355MPD2     C 5367   2.575   3.689  11.637  0.1910  0.3611 -0.2175
  355MPD2    C1 5368   2.685   3.753  11.581  0.2349  0.7611  0.0699
  355MPD2    C2 5369   2.810   3.744  11.638  0.7024  0.4382 -0.1487
  355MPD2    C3 5370   2.821   3.671  11.760 -0.4827  0.5622 -0.2905
  355MPD2    C4 5371   2.710   3.620  11.820 -0.9952 -0.2672  0.2210
  355MPD2    C5 5372   2.589   3.619  11.757  0.1087  0.1666  0.5360
  355MPD2     H 5373   2.898   3.793  11.597 -0.5429  1.4612 -1.5653
  355MPD2    H1 5374   2.717   3.564  11.913 -0.8667 -2.5987 -1.1898
  355MPD2    H2 5375   2.477   3.698  11.591 -0.1598 -0.3896  0.3717
  355MPD2    H3 5376   2.500   3.581  11.806 -0.2714 -1.5867 -1.5052
  355MPD2     N 5377   2.941   3.652  11.835 -0.3303 -0.2046 -0.2254
  355MPD2    H5 5378   2.925   3.601  11.921 -2.0089  0.3230 -0.2187
  355MPD2    N1 5379   2.666   3.833  11.466  0.2369 -0.7771  0.2118
  355MPD2    H7 5380   2.576   3.871  11.438 -0.0521 -0.1744  2.0110
  356TMC3    C1 5381   3.161   3.714  11.900  0.3009  0.5423 -0.2865
  356TMC3    C2 5382   3.295   3.704  11.865  0.0467  0.1704  0.2716
  356TMC3    C3 5383   3.394   3.758  11.944  0.3075  0.3059  1.0923
  356TMC3    C4 5384   3.133   3.768  12.019  0.2858  0.0915 -0.3589
  356TMC3    C5 5385   3.233   3.825  12.102  0.4207 -0.3608  0.7391
  356TMC3    C6 5386   3.367   3.814  12.069  0.7826 -0.3906  0.1748
  356TMC3     C 5387   3.063   3.698  11.794  0.3755 -0.2223 -0.0098
  356TMC3     O 5388   3.101   3.736  11.682  0.2653  0.4160 -0.1382
  356TMC3     H 5389   3.325   3.673  11.766  1.9216  0.2565  0.8131
  356TMC3    H1 5390   3.034   3.767  12.063  0.6256 -1.4743  0.3644
  356TMC3    H2 5391   3.443   3.820  12.146  1.0037  0.7321 -0.1344
  356TMC3    C7 5392   3.205   3.858  12.238  1.3774  0.7904  0.3123
  356TMC3    C8 5393   3.527   3.763  11.894  0.1679 -1.0074  0.0776
  356TMC3    O1 5394   3.125   3.785  12.298  0.0177  0.0784  1.0279
  356TMC3    O2 5395   3.547   3.693  11.796  0.2023 -0.0929 -0.3490
  357MPD2     C 5396   2.403   2.656   0.821 -0.2619  0.6327  0.0723
  357MPD2    C1 5397   2.488   2.737   0.892  0.3058 -0.9373 -0.0890
  357MPD2    C2 5398   2.437   2.824   0.986  1.4879  0.2217 -0.2093
  357MPD2    C3 5399   2.302   2.830   1.011 -0.4985  0.2311 -0.0812
  357MPD2    C4 5400   2.214   2.753   0.942 -0.4645  0.6975 -1.1722
  357MPD2    C5 5401   2.273   2.658   0.856 -0.7997  0.2782  0.2926
  357MPD2     H 5402   2.506   2.881   1.047 -1.1203  0.9740  2.0194
  357MPD2    H1 5403   2.107   2.747   0.958 -0.5227 -2.1217 -2.4380
  357MPD2    H2 5404   2.444   2.596   0.740  0.7295  2.2950 -0.6616
  357MPD2    H3 5405   2.208   2.597   0.794  1.5024 -1.3595 -0.5440
  357MPD2     N 5406   2.255   2.881   1.136  0.2145 -0.8327 -0.2553
  357MPD2    H5 5407   2.159   2.866   1.165  0.1151 -0.3667 -0.3578
  357MPD2    N1 5408   2.629   2.721   0.863 -0.3684  0.8961 -0.2617
  357MPD2    H7 5409   2.657   2.662   0.785  1.0433  0.9182  0.2137
  358TMC3    C1 5410   2.861   2.747   0.888 -0.3332 -0.0680  0.7530
  358TMC3    C2 5411   2.876   2.718   0.752 -0.1471 -0.1017  0.0194
  358TMC3    C3 5412   3.004   2.698   0.714 -0.2894 -0.7874  0.0354
  358TMC3    C4 5413   2.964   2.765   0.976  0.1400 -0.5876  0.6802
  358TMC3    C5 5414   3.092   2.743   0.923 -0.8278 -0.4484  0.1764
  358TMC3    C6 5415   3.116   2.713   0.790 -0.5022 -0.1346  0.1951
  358TMC3     C 5416   2.730   2.772   0.946  0.2501  0.3092 -0.1414
  358TMC3     O 5417   2.716   2.824   1.056  0.0975  0.2974  0.2009
  358TMC3     H 5418   2.797   2.718   0.679  1.5480 -2.3799 -1.8322
  358TMC3    H1 5419   2.950   2.776   1.083  1.3692  1.9905  0.5737
  358TMC3    H2 5420   3.214   2.673   0.766  0.1565  0.9682  1.0785
  358TMC3    C7 5421   3.207   2.750   1.014 -0.0355  0.8835 -0.1454
  358TMC3    C8 5422   3.025   2.720   0.575 -0.2958 -0.4708  0.4370
  358TMC3    O1 5423   3.313   2.700   0.978  0.8017 -0.0090 -0.7671
  358TMC3    O2 5424   2.929   2.700   0.502  0.4438 -0.0592  0.8086
  359MPD2     C 5425   2.945   2.905  12.321  0.7286  0.4372  0.0846
  359MPD2    C1 5426   2.924   2.860  12.192  0.1579  0.2430  0.1677
  359MPD2    C2 5427   2.843   2.751  12.172 -0.5402  0.2301 -0.2212
  359MPD2    C3 5428   2.798   2.671  12.276  0.3601  0.1937 -0.1262
  359MPD2    C4 5429   2.828   2.716  12.406 -0.1611  0.1007 -0.5923
  359MPD2    C5 5430   2.906   2.826  12.426  0.4005 -0.0074 -0.1285
  359MPD2     H 5431   2.834   2.708  12.073 -2.4616 -0.7251  0.3635
  359MPD2    H1 5432   2.809   2.656  12.495 -0.1380  0.4271 -0.3668
  359MPD2    H2 5433   3.008   2.991  12.341 -0.1049  0.8196  1.0570
  359MPD2    H3 5434   2.911   2.856  12.530  2.6617 -0.5537 -0.0895
  359MPD2     N 5435   2.725   2.551  12.250 -0.3678 -0.7561  0.0444
  359MPD2    H5 5436   2.689   2.520  12.160 -3.0501 -0.0734  0.8828
  359MPD2    N1 5437   2.982   2.928  12.080 -0.1615  0.0007  0.2787
  359MPD2    H7 5438   2.949   2.912  11.986  0.8190  2.0786 -0.4239
  360TMC3    C1 5439   3.161   3.035  11.950  0.9451  0.2077 -0.2023
  360TMC3    C2 5440   3.287   3.093  11.954 -0.8722  0.2143  0.5197
  360TMC3    C3 5441   3.376   3.052  11.857 -0.2287  0.0547  0.1589
  360TMC3    C4 5442   3.119   2.960  11.846  0.4101 -0.4857 -0.7161
  360TMC3    C5 5443   3.217   2.920  11.764  0.0054 -0.2620  0.0565
  360TMC3    C6 5444   3.346   2.951  11.778 -0.6015  0.5359 -0.1092
  360TMC3     C 5445   3.100   3.007  12.085  0.5729 -0.3127 -0.2304
  360TMC3     O 5446   3.170   3.023  12.183  0.4983 -0.3548  0.5932
  360TMC3     H 5447   3.323   3.119  12.052  0.3633 -0.2807  0.1945
  360TMC3    H1 5448   3.019   2.919  11.836 -0.0486  0.6702 -0.8130
  360TMC3    H2 5449   3.418   2.921  11.703  0.6616  0.4217  1.1313
  360TMC3    C7 5450   3.170   2.864  11.638 -0.3153 -0.0650  0.3982
  360TMC3    C8 5451   3.511   3.118  11.855 -0.3028 -0.5381 -0.3046
  360TMC3    O1 5452   3.230   2.779  11.578 -0.0519 -0.0546 -0.5481
  360TMC3    O2 5453   3.513   3.237  11.880 -0.0955 -0.0572 -0.0964
  361MPD2     C 5454   0.611   1.176  16.861  0.1102 -0.5813 -0.4678
  361MPD2    C1 5455   0.568   1.135  16.983 -0.0842  0.1334  0.1955
  361MPD2    C2 5456   0.646   1.049  17.057  0.0460  0.0396 -0.7145
  361MPD2    C3 5457   0.759   0.988  16.996 -0.2398 -0.0266  0.4196
  361MPD2    C4 5458   0.790   1.019  16.868 -0.0134  0.2872 -0.0702
  361MPD2    C5 5459   0.718   1.110  16.805 -0.1853 -0.0142  0.0726
  361MPD2     H 5460   0.627   1.015  17.158  0.3453  2.7059  0.2203
  361MPD2    H1 5461   0.877   0.966  16.831 -2.4676 -3.4892 -0.4251
  361MPD2    H2 5462   0.560   1.256  16.808  0.6524  1.5023  2.1306
  361MPD2    H3 5463   0.747   1.144  16.707 -1.9064  1.7754  0.1787
  361MPD2     N 5464   0.838   0.887  17.058  0.1246  0.0843  0.2318
  361MPD2    H5 5465   0.910   0.844  16.999  0.6515 -0.5509  1.3334
  361MPD2    N1 5466   0.447   1.179  17.030 -1.0848  0.1476 -0.3854
  361MPD2    H7 5467   0.400   1.248  16.972 -1.0692  0.9413  0.5486
  362TMC3    C1 5468   0.258   1.201  17.150  0.5299 -0.3447  0.3949
  362TMC3    C2 5469   0.153   1.137  17.212 -0.6379  0.6999 -0.0925
  362TMC3    C3 5470   0.029   1.196  17.212 -0.2467 -0.1106  0.3849
  362TMC3    C4 5471   0.236   1.323  17.083  0.0030  0.5865 -0.1277
  362TMC3    C5 5472   0.111   1.373  17.077 -0.4939 -0.1133 -0.3220
  362TMC3    C6 5473   0.007   1.303  17.132 -0.9647  0.2464  0.0358
  362TMC3     C 5474   0.380   1.135  17.138 -0.6942 -0.2645  0.2409
  362TMC3     O 5475   0.406   1.038  17.211 -0.0762 -0.2763  0.3034
  362TMC3     H 5476   0.163   1.035  17.249 -1.7269  1.1568  1.4726
  362TMC3    H1 5477   0.317   1.378  17.035 -0.7454  0.4491 -1.5297
  362TMC3    H2 5478   4.647   1.346  17.126 -0.4626  1.5728  1.2551
  362TMC3    C7 5479   0.080   1.446  16.953  0.0632  0.4989 -0.1579
  362TMC3    C8 5480   4.657   1.114  17.241 -0.0749 -0.9240 -0.3748
  362TMC3    O1 5481   0.159   1.526  16.905  0.4967  0.2689 -0.1007
  362TMC3    O2 5482   4.656   0.995  17.210 -0.1067 -0.0843 -0.0945
  363TMC3    C1 5483   3.499   4.171   9.698  0.5992  0.2003  0.7386
  363TMC3    C2 5484   3.477   4.044   9.747 -0.0970  0.3118  0.0899
  363TMC3    C3 5485   3.369   4.018   9.824 -0.2146 -0.0966 -0.6827
  363TMC3    C4 5486   3.406   4.268   9.699 -0.0470 -0.2673 -0.7664
  363TMC3    C5 5487   3.294   4.237   9.772 -0.3440  0.1532 -0.2283
  363TMC3    C6 5488   3.278   4.116   9.835  0.0462 -0.0698  0.0676
  363TMC3     C 5489   3.616   4.191   9.619 -0.5842 -0.2306  0.0997
  363TMC3     O 5490   3.682   4.093   9.591 -0.1915 -0.0988  0.0766
  363TMC3     H 5491   3.558   3.973   9.742  0.8537  1.2660  1.8188
  363TMC3    H1 5492   3.415   4.358   9.639  0.3543 -0.6533 -1.2776
  363TMC3    H2 5493   3.188   4.097   9.894  0.0284  1.4138  0.5088
  363TMC3    C7 5494   3.176   4.331   9.764  0.5384  0.9513  0.9242
  363TMC3    C8 5495   3.338   3.888   9.869  0.0968  0.4617  0.0749
  363TMC3    O1 5496   3.077   4.296   9.823 -0.1425 -0.1424 -0.8094
  363TMC3    O2 5497   3.238   3.883   9.935 -0.3877  0.4711 -0.5307
  364MPD2     C 5498   1.778   3.404  10.335  0.5770 -0.2539  0.0912
  364MPD2    C1 5499   1.892   3.394  10.255  0.3643 -0.1707 -0.0647
  364MPD2    C2 5500   1.968   3.280  10.256 -0.3883  1.0429 -0.1079
  364MPD2    C3 5501   1.943   3.179  10.346 -0.2385  0.6612 -0.0768
  364MPD2    C4 5502   1.833   3.183  10.433  1.0314  0.1089  0.0756
  364MPD2    C5 5503   1.756   3.297  10.424  0.3906 -0.2274  0.4718
  364MPD2     H 5504   2.043   3.273  10.178  0.7708  1.0791  1.0097
  364MPD2    H1 5505   1.814   3.114  10.514  2.1563  2.8803  2.6908
  364MPD2    H2 5506   1.723   3.497  10.346  0.4766 -0.2364 -0.6004
  364MPD2    H3 5507   1.680   3.310  10.500  0.3550  1.3523  0.1583
  364MPD2     N 5508   2.032   3.074  10.360 -0.1411  0.7439  0.3634
  364MPD2    H5 5509   2.019   3.000  10.428 -1.0855 -0.2191 -0.8642
  364MPD2    N1 5510   1.928   3.507  10.178 -0.9419  0.1324  0.1103
  364MPD2    H7 5511   1.894   3.598  10.206 -0.7050  0.3100 -0.1801
  365TMC3    C1 5512   2.038   3.624   9.992 -0.3993  0.3660  0.4034
  365TMC3    C2 5513   2.054   3.627   9.855 -0.3839 -0.1031  0.8849
  365TMC3    C3 5514   2.077   3.755   9.805  0.4018  0.4368 -0.4622
  365TMC3    C4 5515   2.045   3.740  10.068 -0.4333 -0.0584  0.3258
  365TMC3    C5 5516   2.064   3.864  10.012  0.5218  0.0805 -0.7862
  365TMC3    C6 5517   2.074   3.873   9.875  0.2264 -0.2284 -0.5810
  365TMC3     C 5518   2.000   3.496  10.059 -0.2444  0.2753 -0.2227
  365TMC3     O 5519   2.032   3.396   9.997  0.1397  0.0632  0.3887
  365TMC3     H 5520   2.077   3.534   9.803 -1.3685 -1.0408  2.1210
  365TMC3    H1 5521   2.041   3.730  10.176  0.6639 -1.1254  0.2608
  365TMC3    H2 5522   2.112   3.965   9.833  0.2822 -0.1594 -0.3781
  365TMC3    C7 5523   2.122   3.970  10.096  0.5950  0.0129  0.0440
  365TMC3    C8 5524   2.111   3.769   9.664  0.0400 -0.2363  0.4394
  365TMC3    O1 5525   2.157   4.064  10.031 -0.0786  0.3110 -0.4083
  365TMC3    O2 5526   2.184   3.866   9.639 -0.4559  0.0961  0.2903
  366MPD2     C 5527   0.558   3.914  15.402 -0.3101 -0.9364 -0.4032
  366MPD2    C1 5528   0.652   3.988  15.325 -0.2651  0.5758  0.0568
  366MPD2    C2 5529   0.750   3.920  15.254 -0.8962  0.2451  0.5730
  366MPD2    C3 5530   0.739   3.784  15.235 -0.6053  0.3123  0.5928
  366MPD2    C4 5531   0.640   3.717  15.303 -0.1589  0.1135 -0.0672
  366MPD2    C5 5532   0.555   3.777  15.391  0.2071  0.0723  0.4028
  366MPD2     H 5533   0.825   3.977  15.201 -0.3470  1.0429  2.1980
  366MPD2    H1 5534   0.630   3.610  15.294 -3.6436  0.4207  0.2232
  366MPD2    H2 5535   0.487   3.966  15.463  1.4422  1.1732 -0.1646
  366MPD2    H3 5536   0.486   3.721  15.453 -1.3991  2.0438  0.3810
  366MPD2     N 5537   0.841   3.720  15.165 -0.4358 -0.2301 -0.2069
  366MPD2    H5 5538   0.909   3.778  15.117 -1.1813  0.5681 -0.2886
  366MPD2    N1 5539   0.656   4.128  15.326 -0.1150 -0.6082 -0.6750
  366MPD2    H7 5540   0.747   4.169  15.307  0.5220 -2.7598 -2.2386
  367TMC3    C1 5541   0.585   4.353  15.366 -0.0582 -0.2047 -0.2764
  367TMC3    C2 5542   0.711   4.378  15.418  0.7001  0.3475  0.5108
  367TMC3    C3 5543   0.773   4.491  15.382  0.6557 -0.2495  0.1133
  367TMC3    C4 5544   0.519   4.443  15.290  0.7823 -0.1942 -0.5405
  367TMC3    C5 5545   0.592   4.547  15.242  0.2160 -0.3563  0.6437
  367TMC3    C6 5546   0.717   4.579  15.296 -0.6632  0.0217  0.1363
  367TMC3     C 5547   0.545   4.209  15.350  0.0095 -0.2926  0.2371
  367TMC3     O 5548   0.427   4.179  15.339 -0.1736  0.5409 -0.0346
  367TMC3     H 5549   0.756   4.309  15.489  1.2765  0.6062  0.3967
  367TMC3    H1 5550   0.420   4.420  15.251  0.6410  4.6761 -3.0104
  367TMC3    H2 5551   0.780   4.652  15.247 -1.7834  0.7266 -0.2455
  367TMC3    C7 5552   0.542   4.631  15.136 -1.1898 -0.5106 -0.4614
  367TMC3    C8 5553   0.900   4.513  15.447  0.1121  0.6967 -0.0002
  367TMC3    O1 5554   0.597   4.739  15.116  0.1536  0.0305  0.3383
  367TMC3    O2 5555   0.960   4.426  15.513  0.5812  0.0795  0.7097
  368MPD2     C 5556   1.720   1.570  13.533  0.8188  0.7524 -0.5354
  368MPD2    C1 5557   1.660   1.673  13.453  0.5707  0.0370  0.2032
  368MPD2    C2 5558   1.721   1.697  13.326 -1.8969 -0.4252 -0.7065
  368MPD2    C3 5559   1.842   1.637  13.288  0.2190 -0.3129  0.2708
  368MPD2    C4 5560   1.887   1.538  13.372  0.2118  0.3318  0.0893
  368MPD2    C5 5561   1.832   1.506  13.488  0.5599 -0.4228 -0.6731
  368MPD2     H 5562   1.678   1.775  13.265  0.4038 -0.3978 -2.2898
  368MPD2    H1 5563   1.980   1.485  13.352  0.0636  0.5768 -1.2002
  368MPD2    H2 5564   1.681   1.539  13.629 -0.8322  0.1328 -1.4273
  368MPD2    H3 5565   1.882   1.431  13.549  0.9435 -1.4649 -2.2521
  368MPD2     N 5566   1.912   1.666  13.165 -0.2507 -0.0512 -0.3561
  368MPD2    H5 5567   1.991   1.603  13.154 -0.6022 -0.6509  0.5924
  368MPD2    N1 5568   1.547   1.743  13.499 -0.4991  0.5975 -0.1451
  368MPD2    H7 5569   1.497   1.692  13.572 -0.3812  0.1934 -0.3437
  369TMC3    C1 5570   1.394   1.923  13.510 -0.1753 -0.2859  0.6663
  369TMC3    C2 5571   1.367   2.045  13.457 -0.8776  0.9230  0.3555
  369TMC3    C3 5572   1.250   2.088  13.417  0.3439  0.1708 -0.3552
  369TMC3    C4 5573   1.291   1.841  13.539 -0.3242  0.7943  0.3821
  369TMC3    C5 5574   1.167   1.881  13.488  0.1669  0.0772  0.6782
  369TMC3    C6 5575   1.139   2.007  13.427 -0.7441 -0.3436 -0.0909
  369TMC3     C 5576   1.524   1.870  13.467  0.1542 -0.0612  0.8201
  369TMC3     O 5577   1.593   1.942  13.400  0.7404 -0.3433  0.4741
  369TMC3     H 5578   1.452   2.109  13.436 -1.7589  2.2378  0.8031
  369TMC3    H1 5579   1.307   1.738  13.571 -1.2044  0.8432  0.9946
  369TMC3    H2 5580   1.040   2.040  13.399 -0.1855  0.2896 -1.2978
  369TMC3    C7 5581   1.056   1.793  13.532 -0.9814 -0.0711 -0.0112
  369TMC3    C8 5582   1.251   2.177  13.301  0.4752  0.3456  0.3601
  369TMC3    O1 5583   1.080   1.682  13.578  0.1748  0.1767 -0.3877
  369TMC3    O2 5584   1.361   2.240  13.294  0.1882  0.1674 -0.2459
  370TMC3    C1 5585   1.451   1.867  16.181 -0.5857  0.5081  0.5573
  370TMC3    C2 5586   1.423   1.777  16.278  0.1551 -0.3753 -0.1580
  370TMC3    C3 5587   1.439   1.644  16.247 -1.1318 -0.3458  0.3563
  370TMC3    C4 5588   1.482   1.832  16.051 -0.0298 -0.5504 -0.1178
  370TMC3    C5 5589   1.483   1.701  16.021  0.5465 -0.3051  0.4270
  370TMC3    C6 5590   1.461   1.602  16.115  0.3044 -0.3217 -0.5149
  370TMC3     C 5591   1.429   2.002  16.213 -0.2002 -0.0566  0.3410
  370TMC3     O 5592   1.373   2.020  16.321 -0.0220  0.1931 -0.0061
  370TMC3     H 5593   1.416   1.814  16.380  1.1129 -0.5720 -0.0216
  370TMC3    H1 5594   1.493   1.907  15.974  3.2348 -2.0011 -1.0514
  370TMC3    H2 5595   1.448   1.500  16.082  1.2252  0.1609 -2.3336
  370TMC3    C7 5596   1.522   1.661  15.886  0.0836  0.2395  0.7161
  370TMC3    C8 5597   1.423   1.543  16.338 -0.0028  0.5108 -0.2857
  370TMC3    O1 5598   1.509   1.738  15.793 -0.1750  0.3857 -0.1033
  370TMC3    O2 5599   1.464   1.436  16.301 -0.1390 -0.5222 -0.1860
  371TMC3    C1 5600   3.023   0.367  15.250  0.6876 -0.0577  0.5843
  371TMC3    C2 5601   2.893   0.351  15.215  0.4161  0.3150  0.2656
  371TMC3    C3 5602   2.819   0.465  15.234 -0.9884 -0.2680 -0.5198
  371TMC3    C4 5603   3.084   0.486  15.280 -0.6046  0.0508  0.2035
  371TMC3    C5 5604   3.008   0.603  15.269 -0.4262 -0.2257 -0.9533
  371TMC3    C6 5605   2.869   0.588  15.261  0.3711  0.1539  0.5627
  371TMC3     C 5606   3.112   0.245  15.262 -0.3565  0.5168  0.4787
  371TMC3     O 5607   3.234   0.261  15.269 -0.2795 -0.7336  0.0981
  371TMC3     H 5608   2.854   0.254  15.187 -1.0498  0.8831  0.3452
  371TMC3    H1 5609   3.190   0.491  15.297 -0.3105 -0.4159 -1.4547
  371TMC3    H2 5610   2.808   0.677  15.269  1.7625  1.1934 -0.3939
  371TMC3    C7 5611   3.053   0.728  15.335  0.0268 -0.3560 -0.2480
  371TMC3    C8 5612   2.680   0.458  15.184  0.1829  0.3033 -0.5227
  371TMC3    O1 5613   2.964   0.810  15.354  0.0011  0.8307 -0.2010
  371TMC3    O2 5614   2.654   0.372  15.101 -0.6062  0.0280 -0.4057
  372MPD2     C 5615   2.386   1.540  13.497  0.0621  0.1322  0.5712
  372MPD2    C1 5616   2.494   1.465  13.540  0.6394 -0.0891 -0.3431
  372MPD2    C2 5617   2.463   1.348  13.615  0.1931  0.9798  0.4778
  372MPD2    C3 5618   2.333   1.290  13.622 -0.2512  0.1654 -0.1582
  372MPD2    C4 5619   2.237   1.360  13.553 -0.5785 -0.4547  0.0941
  372MPD2    C5 5620   2.258   1.487  13.500  0.0661 -0.1981 -0.5450
  372MPD2     H 5621   2.546   1.299  13.664 -1.3883 -2.1870  0.0085
  372MPD2    H1 5622   2.136   1.321  13.553  0.4654 -3.1704 -0.7978
  372MPD2    H2 5623   2.394   1.637  13.449 -1.5300 -1.1582 -2.3464
  372MPD2    H3 5624   2.186   1.553  13.453 -1.5156 -1.2798  0.3567
  372MPD2     N 5625   2.305   1.168  13.689 -0.2018  0.8362 -0.2324
  372MPD2    H5 5626   2.385   1.122  13.732 -0.9032 -0.3777 -0.2301
  372MPD2    N1 5627   2.628   1.509  13.525  0.1776 -0.0620 -1.3148
  372MPD2    H7 5628   2.699   1.448  13.563 -1.9698 -0.5979  1.7950
  373TMC3    C1 5629   2.185   0.975  13.760 -0.9343  0.1486  0.1585
  373TMC3    C2 5630   2.255   0.971  13.874 -1.0443  0.8435 -0.1972
  373TMC3    C3 5631   2.255   0.851  13.945 -0.2850  0.6919 -0.7564
  373TMC3    C4 5632   2.132   0.861  13.705 -0.3462 -0.4030 -0.0270
  373TMC3    C5 5633   2.148   0.738  13.773  0.0569  0.8413 -0.8281
  373TMC3    C6 5634   2.206   0.733  13.895  0.2696 -0.3966  0.2549
  373TMC3     C 5635   2.182   1.094  13.678  0.7477 -0.7393 -0.6306
  373TMC3     O 5636   2.075   1.118  13.620  0.2159  0.4939  0.9071
  373TMC3     H 5637   2.299   1.060  13.918 -0.2088  0.3940 -0.1058
  373TMC3    H1 5638   2.104   0.862  13.600  2.6554 -1.8254 -0.8591
  373TMC3    H2 5639   2.205   0.639  13.949  1.3966 -0.1636  0.6872
  373TMC3    C7 5640   2.196   0.640  13.679 -0.4739  0.3181 -0.1893
  373TMC3    C8 5641   2.355   0.842  14.059  0.8819  0.4193  0.2708
  373TMC3    O1 5642   2.269   0.690  13.594 -0.4048  0.4246  0.3078
  373TMC3    O2 5643   2.438   0.931  14.055  0.4481  0.0592 -0.1811
  374TMC3    C1 5644   2.217   2.099   9.951 -0.4127  1.0765  0.9790
  374TMC3    C2 5645   2.353   2.132   9.928 -0.0615 -0.2408  0.4198
  374TMC3    C3 5646   2.379   2.177   9.800 -0.1484 -0.5413 -1.1464
  374TMC3    C4 5647   2.126   2.105   9.854 -0.1103 -0.4510 -0.0846
  374TMC3    C5 5648   2.163   2.149   9.730 -0.2829 -0.4594  0.1421
  374TMC3    C6 5649   2.289   2.184   9.696  0.2752  0.7139 -0.8525
  374TMC3     C 5650   2.180   2.042  10.071  0.1462 -0.1110 -0.3892
  374TMC3     O 5651   2.081   1.973  10.079  0.0905 -0.0810 -0.3928
  374TMC3     H 5652   2.436   2.117   9.995 -0.0138  0.7071  0.5637
  374TMC3    H1 5653   2.022   2.076   9.869  0.1988 -1.3004  0.4419
  374TMC3    H2 5654   2.307   2.251   9.613 -0.1866  0.4006 -1.2105
  374TMC3    C7 5655   2.078   2.097   9.624 -0.2680  0.7331 -0.5431
  374TMC3    C8 5656   2.512   2.248   9.770  0.3121 -0.5818  0.1141
  374TMC3    O1 5657   1.959   2.078   9.655  0.2360 -0.5734  0.1179
  374TMC3    O2 5658   2.516   2.307   9.662  1.3323 -0.3302  0.4699
  375MPD2     C 5659   2.955   2.183  16.935  0.4860 -0.2331 -1.2640
  375MPD2    C1 5660   2.898   2.225  16.822 -0.0794  0.6951 -0.0150
  375MPD2    C2 5661   2.963   2.177  16.705 -0.1617  0.4228  0.4623
  375MPD2    C3 5662   3.077   2.097  16.709  0.2384  1.0517  0.4487
  375MPD2    C4 5663   3.125   2.052  16.827  0.0078 -0.0445 -0.8514
  375MPD2    C5 5664   3.062   2.095  16.944 -0.0600  0.5867  0.1457
  375MPD2     H 5665   2.933   2.219  16.610  0.6435  1.1122  0.5105
  375MPD2    H1 5666   3.216   1.995  16.835 -0.1604 -0.2967 -0.7499
  375MPD2    H2 5667   2.915   2.212  17.031 -1.0084  0.8410 -2.2030
  375MPD2    H3 5668   3.110   2.076  17.039 -1.3572  0.0248  0.6932
  375MPD2     N 5669   3.162   2.072  16.598 -0.0083  0.0205  0.0945
  375MPD2    H5 5670   3.237   2.009  16.624  0.6075  0.4637 -0.6208
  375MPD2    N1 5671   2.786   2.311  16.819 -0.0273 -0.2738  0.5826
  375MPD2    H7 5672   2.733   2.303  16.733  0.6970 -2.6955  0.3751
  376TMC3    C1 5673   3.233   2.041  16.384 -0.8689 -0.0415  0.3547
  376TMC3    C2 5674   3.355   1.999  16.426 -0.0276  0.3821  0.3523
  376TMC3    C3 5675   3.437   1.935  16.340  0.3011  0.5791 -0.2183
  376TMC3    C4 5676   3.208   2.037  16.252  0.6401 -0.1108 -0.3965
  376TMC3    C5 5677   3.298   1.988  16.163 -0.3743 -0.0801  0.2375
  376TMC3    C6 5678   3.416   1.934  16.213  0.9881 -0.1179 -0.1630
  376TMC3     C 5679   3.126   2.088  16.463  0.0504 -0.4308  0.4500
  376TMC3     O 5680   3.014   2.100  16.413  0.1998 -0.5026  0.4156
  376TMC3     H 5681   3.377   1.989  16.531  1.5361 -0.0166 -0.0201
  376TMC3    H1 5682   3.118   2.087  16.216  0.7749  0.4836  0.0872
  376TMC3    H2 5683   3.497   1.897  16.151  0.6505 -0.5258 -0.3573
  376TMC3    C7 5684   3.293   2.028  16.021 -0.1687  0.5477 -1.1455
  376TMC3    C8 5685   3.569   1.918  16.391 -0.4128  0.3535  0.0049
  376TMC3    O1 5686   3.186   2.065  15.982 -0.6067  0.0424 -0.2797
  376TMC3    O2 5687   3.607   2.005  16.467 -0.2285  0.0630  0.7430
  377MPD2     C 5688   0.835   2.427  12.898 -0.5217 -0.0927 -0.6597
  377MPD2    C1 5689   0.798   2.443  12.771 -0.5626  0.1652 -0.2312
  377MPD2    C2 5690   0.676   2.383  12.733  0.4643 -0.0080  1.0375
  377MPD2    C3 5691   0.610   2.306  12.832  0.1308 -0.2792  0.2475
  377MPD2    C4 5692   0.654   2.293  12.954 -0.3416 -0.3434 -0.2838
  377MPD2    C5 5693   0.771   2.356  12.994  0.5616 -0.2177 -0.4849
  377MPD2     H 5694   0.646   2.380  12.629 -0.4870 -0.7943  1.3384
  377MPD2    H1 5695   0.601   2.236  13.029 -0.2918 -0.1463 -0.0973
  377MPD2    H2 5696   0.930   2.470  12.927 -1.9637  0.2377  3.6098
  377MPD2    H3 5697   0.816   2.342  13.091 -2.1963  1.2629  0.9915
  377MPD2     N 5698   0.498   2.224  12.795 -0.5703  0.2728  0.2070
  377MPD2    H5 5699   0.475   2.145  12.854  1.7366  0.5717  1.4931
  377MPD2    N1 5700   0.884   2.513  12.682 -0.0206 -0.2483 -0.0141
  377MPD2    H7 5701   0.977   2.536  12.715  0.7637 -0.2212 -2.2269
  378TMC3    C1 5702   1.035   2.649  12.260  0.3683  0.2256 -0.2493
  378TMC3    C2 5703   0.936   2.650  12.358  0.0524  0.2223  0.1926
  378TMC3    C3 5704   0.958   2.582  12.476  0.4092  0.9505 -1.4450
  378TMC3    C4 5705   1.157   2.589  12.283  0.2224 -0.7059  0.3352
  378TMC3    C5 5706   1.189   2.545  12.412 -0.5596 -0.6460  0.0075
  378TMC3    C6 5707   1.081   2.529  12.497  0.1102  0.5983 -0.3770
  378TMC3     C 5708   1.007   2.701  12.125 -0.7687 -0.6616 -0.4734
  378TMC3     O 5709   1.069   2.645  12.037 -0.2912 -0.2516 -0.7308
  378TMC3     H 5710   0.838   2.691  12.335 -0.5068  0.3215  2.8030
  378TMC3    H1 5711   1.233   2.594  12.206  0.0612 -0.1303  0.2164
  378TMC3    H2 5712   1.106   2.492  12.596  2.0633  0.5432 -0.8836
  378TMC3    C7 5713   1.298   2.453  12.433  0.0209  0.1929  0.6385
  378TMC3    C8 5714   0.844   2.556  12.556  0.1852 -0.2511 -0.1930
  378TMC3    O1 5715   1.334   2.434  12.551  0.3296  0.3555  0.2037
  378TMC3    O2 5716   0.735   2.562  12.501  0.4483  0.1220 -0.2445
  379MPD2     C 5717   1.653   4.134  16.148  0.2419 -0.2904 -0.1364
  379MPD2    C1 5718   1.765   4.208  16.099  0.6157 -0.7266  0.2450
  379MPD2    C2 5719   1.873   4.231  16.175 -0.0305  0.3679 -0.0360
  379MPD2    C3 5720   1.865   4.193  16.312  0.2198 -0.8640  0.1587
  379MPD2    C4 5721   1.753   4.119  16.360  0.5092 -0.3735 -0.1381
  379MPD2    C5 5722   1.647   4.095  16.278 -0.2459 -0.6497 -0.2078
  379MPD2     H 5723   1.958   4.289  16.143  0.8079  0.0882  1.6947
  379MPD2    H1 5724   1.752   4.081  16.462  1.8538 -0.6462 -0.2211
  379MPD2    H2 5725   1.568   4.106  16.087  0.1417  0.0034 -0.1290
  379MPD2    H3 5726   1.562   4.042  16.318  1.5887 -1.9494  1.9880
  379MPD2     N 5727   1.961   4.213  16.420  0.0761  0.8826 -0.0557
  379MPD2    H5 5728   1.936   4.186  16.514  0.9510 -0.3264 -0.1738
  379MPD2    N1 5729   1.770   4.267  15.970 -0.1051 -0.2582 -0.1214
  379MPD2    H7 5730   1.855   4.319  15.951 -0.0353 -0.5445 -0.6064
  380TMC3    C1 5731   1.696   4.353  15.768  0.6431  0.2856  0.2497
  380TMC3    C2 5732   1.823   4.372  15.727 -0.3462 -0.0356  0.4556
  380TMC3    C3 5733   1.846   4.483  15.648  0.5639 -0.7375  0.1163
  380TMC3    C4 5734   1.592   4.428  15.730 -0.8033  0.2858  0.0175
  380TMC3    C5 5735   1.617   4.534  15.642 -0.6176 -0.5848  0.2065
  380TMC3    C6 5736   1.742   4.566  15.604 -0.1045  0.6881 -0.8187
  380TMC3     C 5737   1.679   4.255  15.871  0.0228  0.2750  0.6725
  380TMC3     O 5738   1.569   4.212  15.876  0.2231  0.2944 -0.0727
  380TMC3     H 5739   1.903   4.310  15.766 -2.1888 -2.0497  1.0093
  380TMC3    H1 5740   1.500   4.422  15.786 -0.1817 -2.8342  0.7506
  380TMC3    H2 5741   1.778   4.655  15.555  2.1056 -0.1223 -0.6495
  380TMC3    C7 5742   1.516   4.637  15.637  0.3207  0.2646  0.4785
  380TMC3    C8 5743   1.981   4.541  15.658 -0.0171  0.9352 -0.2958
  380TMC3    O1 5744   1.571   0.008  15.634 -0.4227 -0.1344  0.1085
  380TMC3    O2 5745   1.998   4.640  15.731  0.3298 -0.1289  0.0951
  381TMC3    C1 5746   1.056   1.233  16.327  0.3720 -0.3525 -0.2159
  381TMC3    C2 5747   1.149   1.245  16.227  0.1867  0.7284  0.2335
  381TMC3    C3 5748   1.271   1.174  16.248  0.1623 -1.0382  0.7038
  381TMC3    C4 5749   1.070   1.162  16.446  0.4989  0.8986 -0.4115
  381TMC3    C5 5750   1.195   1.109  16.464 -0.1104  0.3060  0.3080
  381TMC3    C6 5751   1.296   1.109  16.365  0.6333  0.6414 -0.2042
  381TMC3     C 5752   0.933   1.312  16.318 -0.0634 -0.3482 -0.1849
  381TMC3     O 5753   0.897   1.384  16.412 -0.5558  0.2195 -0.2021
  381TMC3     H 5754   1.110   1.295  16.138  3.5457  0.6802 -1.2670
  381TMC3    H1 5755   0.995   1.186  16.520 -0.6378  2.1835 -1.9856
  381TMC3    H2 5756   1.392   1.064  16.388 -0.1333 -0.4748  0.7911
  381TMC3    C7 5757   1.208   1.020  16.575  0.2902  0.7601 -0.2543
  381TMC3    C8 5758   1.375   1.168  16.153  0.2771 -0.1902 -0.1560
  381TMC3    O1 5759   1.280   0.923  16.550 -0.2590 -0.4783 -0.5981
  381TMC3    O2 5760   1.378   1.249  16.057  0.4424 -0.1483  0.3704
  382MPD2     C 5761   1.258   3.424  17.431  0.5275  0.9294 -1.0508
  382MPD2    C1 5762   1.162   3.410  17.331 -0.2242 -0.0642  0.2402
  382MPD2    C2 5763   1.135   3.281  17.291  0.0267  0.3995 -0.0929
  382MPD2    C3 5764   1.175   3.164  17.360  0.8768  0.0541 -0.0746
  382MPD2    C4 5765   1.260   3.185  17.469  0.9449 -0.4732  0.1820
  382MPD2    C5 5766   1.303   3.311  17.498  0.6188 -0.2185 -0.7448
  382MPD2     H 5767   1.090   3.276  17.193 -0.9808  1.9131  0.2790
  382MPD2    H1 5768   1.306   3.102  17.520  1.1178 -0.9851 -0.8101
  382MPD2    H2 5769   1.304   3.519  17.455 -0.7204  1.0928  0.7277
  382MPD2    H3 5770   1.383   3.323  17.570 -1.5150  0.7388  1.4610
  382MPD2     N 5771   1.132   3.026  17.329 -0.3850  0.1139 -0.8691
  382MPD2    H5 5772   1.169   2.950  17.384  0.0783  1.9723  1.3748
  382MPD2    N1 5773   1.110   3.516  17.257 -0.3029 -0.0836 -0.7426
  382MPD2    H7 5774   1.046   3.488  17.184 -0.0649 -0.8656 -0.6535
  383TMC3    C1 5775   1.011   2.849  17.225 -0.6903  0.0815 -0.1859
  383TMC3    C2 5776   0.910   2.811  17.147 -0.9612  0.4828  0.9047
  383TMC3    C3 5777   0.871   2.680  17.159 -0.7321  0.1524 -0.1757
  383TMC3    C4 5778   1.085   2.766  17.292  0.2665  0.2177  0.2497
  383TMC3    C5 5779   1.045   2.632  17.305  0.4462  0.6016 -0.5416
  383TMC3    C6 5780   0.936   2.587  17.237 -0.1817 -0.2836  0.3659
  383TMC3     C 5781   1.045   2.991  17.227  0.0731 -0.3148 -1.0125
  383TMC3     O 5782   0.999   3.070  17.140 -0.4588  0.7249 -0.5397
  383TMC3     H 5783   0.853   2.893  17.102  0.7389  0.9863 -0.3268
  383TMC3    H1 5784   1.177   2.791  17.343  0.1949  1.2029 -0.1192
  383TMC3    H2 5785   0.901   2.485  17.249  1.0561 -0.3002  3.8962
  383TMC3    C7 5786   1.094   2.541  17.413 -0.5627  0.2105 -0.5008
  383TMC3    C8 5787   0.766   2.633  17.071  0.3318  0.0885 -0.5472
  383TMC3    O1 5788   1.044   2.432  17.428 -0.3782 -0.5362 -0.1047
  383TMC3    O2 5789   0.697   2.723  17.025 -0.2427 -0.1932  0.0507
  384MPD2     C 5790   2.346   0.161  12.318 -0.3383 -0.2530  0.6630
  384MPD2    C1 5791   2.393   0.033  12.319 -0.6966 -0.1875  0.5343
  384MPD2    C2 5792   2.481   0.006  12.217 -0.7605  0.4968 -0.0130
  384MPD2    C3 5793   2.510   0.101  12.118 -0.0717 -0.2242  0.1273
  384MPD2    C4 5794   2.466   0.236  12.123 -0.1521 -0.1231  0.3064
  384MPD2    C5 5795   2.388   0.260  12.229 -1.0039 -0.4316 -0.5149
  384MPD2     H 5796   2.525   4.647  12.205 -1.1680  0.2255  0.6905
  384MPD2    H1 5797   2.467   0.305  12.039 -2.2421  0.4489  0.7505
  384MPD2    H2 5798   2.268   0.194  12.386 -1.8793 -0.7457 -0.8650
  384MPD2    H3 5799   2.345   0.360  12.239 -1.0845 -0.4235 -0.9161
  384MPD2     N 5800   2.568   0.047  12.006  0.6599  0.0255 -0.2190
  384MPD2    H5 5801   2.608   4.697  12.032  1.2754  0.2236 -0.4979
  384MPD2    N1 5802   2.342   4.681  12.414  0.4593  0.0604  0.0634
  384MPD2    H7 5803   2.277   4.720  12.481 -0.0848  1.3592 -1.2235
  385TMC3    C1 5804   2.669   0.019  11.786 -0.4326  0.1934 -0.2132
  385TMC3    C2 5805   2.587   4.736  11.673 -0.6631 -0.1756  0.6652
  385TMC3    C3 5806   2.560   4.602  11.636 -0.0752  0.0577 -0.6780
  385TMC3    C4 5807   2.716   4.646  11.847  0.8303  0.0629  0.3320
  385TMC3    C5 5808   2.697   4.516  11.805 -0.2594  0.4171 -0.1383
  385TMC3    C6 5809   2.609   4.491  11.700 -0.5426  0.2977 -0.1229
  385TMC3     C 5810   2.598   0.109  11.883 -0.0812 -0.0039  0.0472
  385TMC3     O 5811   2.560   0.220  11.839  0.0068  0.6201 -0.1796
  385TMC3     H 5812   2.544   0.078  11.617 -1.0288 -0.5303  0.4305
  385TMC3    H1 5813   2.787   4.663  11.928 -0.0331 -0.9484  1.2983
  385TMC3    H2 5814   2.584   4.390  11.671 -1.1580 -0.4521  3.0043
  385TMC3    C7 5815   2.649   4.441  11.917 -0.9476  0.5853 -0.3430
  385TMC3    C8 5816   2.426   4.592  11.609  0.3113  0.0558 -0.1606
  385TMC3    O1 5817   2.625   4.508  12.013 -0.0413  0.1819  0.1574
  385TMC3    O2 5818   2.352   4.688  11.623  0.3490 -0.0257  0.3977
  386TMC3    C1 5819   1.854   2.285  11.717 -0.2335 -0.3632 -0.3477
  386TMC3    C2 5820   1.783   2.315  11.605  0.0879 -0.6522 -0.5643
  386TMC3    C3 5821   1.666   2.384  11.607  0.0275 -0.0598 -0.4365
  386TMC3    C4 5822   1.802   2.326  11.835 -0.5276 -0.2237  0.6459
  386TMC3    C5 5823   1.677   2.387  11.839 -0.2594  0.6393 -0.0639
  386TMC3    C6 5824   1.608   2.418  11.727  0.0320  0.3948 -0.0603
  386TMC3     C 5825   1.987   2.238  11.706  0.8902 -0.0098 -0.1539
  386TMC3     O 5826   2.048   2.268  11.606 -0.0795  0.1498  0.1122
  386TMC3     H 5827   1.827   2.273  11.515 -2.0111 -3.2198 -0.3705
  386TMC3    H1 5828   1.850   2.305  11.930  1.6312  0.0028 -0.3893
  386TMC3    H2 5829   1.520   2.481  11.734  0.0857  0.5425 -0.7234
  386TMC3    C7 5830   1.643   2.452  11.965 -0.2553 -0.3730 -0.3087
  386TMC3    C8 5831   1.635   2.473  11.491 -0.2151 -0.1137 -0.3049
  386TMC3    O1 5832   1.710   2.416  12.058 -0.4401 -0.4931  0.3545
  386TMC3    O2 5833   1.527   2.523  11.476 -0.2063  0.0085 -0.4965
  387MPD2     C 5834   4.438   2.121   9.707 -0.6631 -0.8790  0.1385
  387MPD2    C1 5835   4.451   2.150   9.836  0.4018  0.0395 -0.4445
  387MPD2    C2 5836   4.444   2.058   9.934  0.8827  0.0209 -0.3019
  387MPD2    C3 5837   4.421   1.928   9.898 -0.7069  0.5657 -0.5963
  387MPD2    C4 5838   4.402   1.898   9.764 -0.0211 -0.5114 -0.0979
  387MPD2    C5 5839   4.405   1.994   9.672  0.3650  0.1606  0.1279
  387MPD2     H 5840   4.462   2.086  10.037  1.5992  0.1379 -0.4600
  387MPD2    H1 5841   4.368   1.802   9.725  1.1423 -0.4571 -1.2348
  387MPD2    H2 5842   4.433   2.194   9.628 -2.1627 -0.9139  0.1949
  387MPD2    H3 5843   4.402   1.967   9.567  0.1995 -2.6844  0.8531
  387MPD2     N 5844   4.435   1.830   9.993 -0.0320 -0.6330 -0.1223
  387MPD2    H5 5845   4.453   1.865  10.086 -0.9306 -1.4468  0.3580
  387MPD2    N1 5846   4.466   2.284   9.876 -0.1021  0.3075 -0.3776
  387MPD2    H7 5847   4.476   2.299   9.975 -1.4577 -1.3935  0.0179
  388TMC3    C1 5848   4.536   2.501   9.881 -0.0552  0.1524  0.0023
  388TMC3    C2 5849   4.453   2.584   9.953 -0.4557  0.3660  0.3712
  388TMC3    C3 5850   4.481   2.616  10.085  0.6440  0.9050 -0.5258
  388TMC3    C4 5851   4.648   2.460   9.941 -0.5511  0.0416 -0.2970
  388TMC3    C5 5852   4.676   2.496  10.069 -0.6852  0.3748 -0.4392
  388TMC3    C6 5853   4.592   2.571  10.149  0.6024 -0.2136 -0.3783
  388TMC3     C 5854   4.487   2.395   9.796 -0.0397 -0.1193  0.1542
  388TMC3     O 5855   4.472   2.407   9.676  0.2185 -0.1753 -0.4752
  388TMC3     H 5856   4.363   2.627   9.909 -0.0450  2.7819  1.8844
  388TMC3    H1 5857   4.717   2.401   9.882 -0.6318 -0.2324 -0.1158
  388TMC3    H2 5858   4.607   2.571  10.256  1.5228 -1.0073 -0.5062
  388TMC3    C7 5859   0.031   2.412  10.134 -0.3344 -0.7476  0.8928
  388TMC3    C8 5860   4.362   2.660  10.162  0.5116 -0.0138  0.1211
  388TMC3    O1 5861   0.121   2.461  10.203 -0.0617  0.1933 -0.2943
  388TMC3    O2 5862   4.255   2.685  10.109  0.8804  0.0564 -0.3884
  389MPD2     C 5863   3.631   0.603  11.435 -0.3056 -0.2160  0.7204
  389MPD2    C1 5864   3.658   0.534  11.322 -0.4245  0.8166 -0.4408
  389MPD2    C2 5865   3.657   0.397  11.327  0.1227 -0.1009 -0.2236
  389MPD2    C3 5866   3.623   0.331  11.446  0.4302 -0.5657  0.8999
  389MPD2    C4 5867   3.583   0.402  11.555  0.2562 -0.1188  0.0982
  389MPD2    C5 5868   3.584   0.535  11.546 -0.1434 -0.2574  0.2090
  389MPD2     H 5869   3.691   0.336  11.244  1.6107 -1.3132  1.2637
  389MPD2    H1 5870   3.563   0.354  11.650  2.1277  0.9382  1.0452
  389MPD2    H2 5871   3.629   0.711  11.444  0.4080 -0.0776 -0.7477
  389MPD2    H3 5872   3.539   0.584  11.632  0.2279 -0.4718  0.5274
  389MPD2     N 5873   3.626   0.189  11.459  0.1178 -0.2465  0.1124
  389MPD2    H5 5874   3.581   0.150  11.542 -1.9776  0.8645 -0.5146
  389MPD2    N1 5875   3.688   0.603  11.208 -0.1973 -0.0379  0.9386
  389MPD2    H7 5876   3.675   0.703  11.212  2.1559  0.3382 -0.3300
  390TMC3    C1 5877   3.669   4.704  11.415 -0.2077  0.0364  0.4127
  390TMC3    C2 5878   3.537   4.677  11.453  0.1061 -0.2748  0.4219
  390TMC3    C3 5879   3.514   4.546  11.479  0.3532  0.4619 -0.2347
  390TMC3    C4 5880   3.767   4.616  11.417 -0.9901  0.2095 -0.2447
  390TMC3    C5 5881   3.738   4.488  11.458 -0.1004  0.9411 -1.0677
  390TMC3    C6 5882   3.608   4.449  11.476 -0.1168  0.0645 -0.2966
  390TMC3     C 5883   3.687   0.099  11.368 -0.4545  0.2595  0.0174
  390TMC3     O 5884   3.790   0.122  11.301 -0.4015  0.3359 -0.2995
  390TMC3     H 5885   3.464   0.017  11.441 -1.2917 -2.1648 -3.4726
  390TMC3    H1 5886   3.869   4.649  11.401 -0.3037 -2.0483 -0.5615
  390TMC3    H2 5887   3.588   4.343  11.479  2.5499 -0.4362 -0.6203
  390TMC3    C7 5888   3.822   4.435  11.556 -0.1001 -0.1076  0.0902
  390TMC3    C8 5889   3.377   4.488  11.480  0.2646  0.5132  0.3144
  390TMC3    O1 5890   3.939   4.468  11.547  0.4020  0.7680 -0.0732
  390TMC3    O2 5891   3.368   4.370  11.442  0.3067  0.4967 -0.1690
  391MPD2     C 5892   3.348   2.179  11.117 -0.1022  0.3446  0.0922
  391MPD2    C1 5893   3.420   2.283  11.057  0.5518  0.0193  0.0832
  391MPD2    C2 5894   3.385   2.314  10.932 -0.1060  0.1735 -0.1258
  391MPD2    C3 5895   3.284   2.244  10.863  0.4151 -0.5275  0.8568
  391MPD2    C4 5896   3.220   2.142  10.928 -0.2626 -0.2517 -0.1565
  391MPD2    C5 5897   3.250   2.114  11.054  0.4402  0.2543  0.5027
  391MPD2     H 5898   3.440   2.387  10.873  0.2901  0.5828  0.7533
  391MPD2    H1 5899   3.144   2.077  10.885  0.1095  0.0877 -1.3273
  391MPD2    H2 5900   3.378   2.152  11.218 -0.6310 -0.0266  0.1451
  391MPD2    H3 5901   3.207   2.028  11.105  4.0970 -1.2749  1.0210
  391MPD2     N 5902   3.258   2.281  10.728  0.8729 -0.6631  0.0458
  391MPD2    H5 5903   3.323   2.350  10.692  1.1721 -1.3916 -0.8129
  391MPD2    N1 5904   3.524   2.348  11.129 -0.8864  0.5912 -0.5990
  391MPD2    H7 5905   3.541   2.330  11.227  2.0994 -0.2269 -1.2542
  392TMC3    C1 5906   3.153   2.314  10.526  0.1240  0.0466 -0.9135
  392TMC3    C2 5907   3.107   2.250  10.413  0.2152 -0.0498 -0.5196
  392TMC3    C3 5908   3.126   2.314  10.297  0.7695 -0.1490 -1.0771
  392TMC3    C4 5909   3.215   2.440  10.525 -0.3810 -0.3204 -0.2782
  392TMC3    C5 5910   3.234   2.491  10.400  0.3802 -0.1383 -0.1299
  392TMC3    C6 5911   3.201   2.426  10.283  0.2396 -0.2465  1.2743
  392TMC3     C 5912   3.158   2.235  10.645  0.1079  0.2895  0.1505
  392TMC3     O 5913   3.077   2.152  10.670  0.2362  0.4718  0.4074
  392TMC3     H 5914   3.065   2.150  10.412  3.1150 -1.2536 -1.4125
  392TMC3    H1 5915   3.239   2.487  10.620 -0.5919 -2.0841  0.6555
  392TMC3    H2 5916   3.233   2.474  10.192  0.8432 -0.0539  1.5889
  392TMC3    C7 5917   3.331   2.604  10.391 -0.0437  0.5558 -0.0781
  392TMC3    C8 5918   3.026   2.274  10.188 -0.2728  0.0857 -0.5748
  392TMC3    O1 5919   3.419   2.601  10.473 -0.3009 -1.1229 -1.0063
  392TMC3    O2 5920   2.942   2.191  10.215  0.2534 -0.5957 -0.1798
  393TMC3    C1 5921   2.079   0.031  11.113  0.4467  0.0155  0.1685
  393TMC3    C2 5922   1.972   4.710  11.165  0.2610 -0.4931 -0.6161
  393TMC3    C3 5923   1.950   4.583  11.132 -0.0639 -0.7726  0.5821
  393TMC3    C4 5924   2.165   4.705  11.035  0.0052  0.6869 -0.0672
  393TMC3    C5 5925   2.138   4.576  11.003  0.0092  0.5214 -0.4349
  393TMC3    C6 5926   2.020   4.517  11.045 -0.4296  0.0431  0.1487
  393TMC3     C 5927   2.040   0.170  11.080  0.1672 -0.1991 -0.5802
  393TMC3     O 5928   1.923   0.189  11.059 -0.4370  0.1464 -0.4687
  393TMC3     H 5929   1.898   0.032  11.215  1.0226  0.7271 -1.0086
  393TMC3    H1 5930   2.248   0.026  11.003  2.3480 -0.9562  2.9178
  393TMC3    H2 5931   1.996   4.415  11.015 -2.6114 -0.2196  2.8227
  393TMC3    C7 5932   2.220   4.513  10.908 -0.3163  0.3677 -0.0518
  393TMC3    C8 5933   1.833   4.518  11.183  0.4119 -0.1228  0.3109
  393TMC3    O1 5934   2.180   4.411  10.856  0.0639  0.7155  0.5239
  393TMC3    O2 5935   1.778   4.439  11.110 -0.3338  0.1315  0.2688
  394TMC3    C1 5936   3.725   0.650  10.977  0.7561 -0.2078 -0.3498
  394TMC3    C2 5937   3.740   0.587  10.858  0.0190  0.4413 -0.0761
  394TMC3    C3 5938   3.812   0.649  10.757 -0.3173 -0.8811  0.4651
  394TMC3    C4 5939   3.784   0.770  11.005 -0.6261  0.4658 -0.0499
  394TMC3    C5 5940   3.854   0.832  10.901 -0.1524 -0.8842  0.2308
  394TMC3    C6 5941   3.859   0.772  10.779 -0.0173  0.4597  0.8091
  394TMC3     C 5942   3.710   0.551  11.082  0.1079 -0.2369 -0.1693
  394TMC3     O 5943   3.706   0.431  11.054  0.3258  0.7357 -0.1383
  394TMC3     H 5944   3.709   0.485  10.840 -1.8089  1.0424 -0.2964
  394TMC3    H1 5945   3.793   0.804  11.107  0.9644  1.5324 -0.5370
  394TMC3    H2 5946   3.925   0.815  10.704 -0.1152  1.0153  1.0434
  394TMC3    C7 5947   3.908   0.964  10.914 -0.2411 -0.2476 -0.2638
  394TMC3    C8 5948   3.887   0.569  10.670  0.0033  0.1438  0.8278
  394TMC3    O1 5949   3.931   1.024  10.809  0.1958  0.0341 -0.2107
  394TMC3    O2 5950   3.873   0.589  10.552  0.2127  0.4866 -0.3130
  395TMC3    C1 5951   4.222   2.144  15.391 -1.1505 -0.1917 -0.0994
  395TMC3    C2 5952   4.265   2.020  15.349 -0.1609  1.1442  0.3746
  395TMC3    C3 5953   4.323   2.011  15.221 -0.3497 -0.4501  0.1247
  395TMC3    C4 5954   4.252   2.256  15.314  0.4309 -0.0549  0.7139
  395TMC3    C5 5955   4.296   2.245  15.189  0.4808 -0.3557 -0.0641
  395TMC3    C6 5956   4.347   2.125  15.144 -0.0120  0.0514 -0.3750
  395TMC3     C 5957   4.169   2.170  15.515  0.7521  0.2863 -0.3310
  395TMC3     O 5958   4.114   2.276  15.515  0.8736 -0.0575 -0.2667
  395TMC3     H 5959   4.248   1.935  15.413  1.3223  0.2185 -0.4624
  395TMC3    H1 5960   4.228   2.356  15.350 -0.1976  0.7466 -1.9320
  395TMC3    H2 5961   4.380   2.126  15.040 -0.2697 -0.3623 -0.4595
  395TMC3    C7 5962   4.345   2.374  15.136  1.0520  0.4023 -0.5754
  395TMC3    C8 5963   4.344   1.882  15.159 -0.2215  0.0381 -0.1683
  395TMC3    O1 5964   4.367   2.468  15.212 -0.4529  0.3893 -0.2588
  395TMC3    O2 5965   4.425   1.800  15.198 -0.6975  0.2905 -0.1597
  396MPD2     C 5966   3.802   2.699  17.049  0.3082 -0.0991  0.6836
  396MPD2    C1 5967   3.937   2.735  17.065 -0.7383 -0.3982  0.3608
  396MPD2    C2 5968   3.992   2.840  16.994  0.1061 -0.0586 -0.5854
  396MPD2    C3 5969   3.919   2.899  16.890 -0.7029  0.4034 -1.0728
  396MPD2    C4 5970   3.791   2.851  16.863 -0.3773  0.4989  0.0909
  396MPD2    C5 5971   3.731   2.754  16.944  0.4969  0.3371  0.6403
  396MPD2     H 5972   4.096   2.867  17.010 -0.1935  0.7511 -0.0378
  396MPD2    H1 5973   3.728   2.891  16.785 -1.3116  0.8009  0.9932
  396MPD2    H2 5974   3.745   2.623  17.102 -1.3581  0.0871 -0.8277
  396MPD2    H3 5975   3.629   2.724  16.921  0.3931 -1.1839  3.1464
  396MPD2     N 5976   3.986   3.004  16.819  0.2174 -0.7024  0.5980
  396MPD2    H5 5977   4.077   3.029  16.856 -0.3528  1.1910  0.7201
  396MPD2    N1 5978   4.005   2.669  17.165  0.1667  0.3172 -0.2878
  396MPD2    H7 5979   3.960   2.593  17.216 -2.4167  1.7691 -0.4339
  397TMC3    C1 5980   4.180   2.572  17.278 -0.4495 -0.0971  0.0149
  397TMC3    C2 5981   4.216   2.474  17.187  0.7282 -0.9956 -0.1348
  397TMC3    C3 5982   4.147   2.359  17.166  0.3382  0.1384  0.0413
  397TMC3    C4 5983   4.069   2.538  17.357 -0.0785  0.1892 -0.8104
  397TMC3    C5 5984   4.000   2.423  17.348 -0.2087  0.4216 -0.4162
  397TMC3    C6 5985   4.041   2.331  17.250 -0.3984 -0.1384  0.0337
  397TMC3     C 5986   4.145   2.679  17.188 -0.1996  0.4538 -0.0709
  397TMC3     O 5987   4.236   2.747  17.144 -0.2736  0.2987 -1.0574
  397TMC3     H 5988   4.262   2.519  17.100 -1.0113  1.8909  0.4300
  397TMC3    H1 5989   4.035   2.617  17.424  0.3558 -1.1873  1.0266
  397TMC3    H2 5990   3.983   2.241  17.235  2.4349 -2.1142  0.9717
  397TMC3    C7 5991   3.890   2.401  17.446 -0.6022  0.1861 -0.1417
  397TMC3    C8 5992   4.100   2.338  17.027  0.0939  0.0493  0.2332
  397TMC3    O1 5993   3.866   2.499  17.518 -0.1465  1.1582 -0.5247
  397TMC3    O2 5994   3.984   2.361  17.004 -0.1937 -0.0638 -0.4213
  398MPD2     C 5995   1.891   4.368   0.397  0.0705  0.2270  0.4578
  398MPD2    C1 5996   1.979   4.286   0.465  0.3650  0.3379  0.4603
  398MPD2    C2 5997   2.040   4.334   0.578  0.9750 -0.2946 -0.6745
  398MPD2    C3 5998   2.005   4.458   0.630 -0.5778 -0.2778 -0.1165
  398MPD2    C4 5999   1.919   4.538   0.558  0.2621 -0.6171 -0.1919
  398MPD2    C5 6000   1.865   4.493   0.444 -0.7912  0.8282  1.1036
  398MPD2     H 6001   2.107   4.264   0.627 -1.9513 -1.4849  1.5725
  398MPD2    H1 6002   1.887   4.636   0.593  1.0585 -0.2398 -0.5208
  398MPD2    H2 6003   1.842   4.340   0.305 -0.3470  0.5221  0.5894
  398MPD2    H3 6004   1.787   4.557   0.404 -1.1936 -0.8489 -0.8132
  398MPD2     N 6005   2.055   4.502   0.749  0.2258  0.2932 -0.4489
  398MPD2    H5 6006   2.139   4.460   0.786  0.0758  1.6384  1.4008
  398MPD2    N1 6007   1.987   4.143   0.433  0.1008 -0.2023  0.2223
  398MPD2    H7 6008   2.042   4.077   0.487 -1.5416 -1.6556  0.1096
  399TMC3    C1 6009   1.904   3.945   0.372  0.0553 -0.2243 -0.3863
  399TMC3    C2 6010   2.018   3.871   0.370  0.1783 -0.1380  0.0950
  399TMC3    C3 6011   1.999   3.739   0.362 -0.0217 -0.0971 -0.0757
  399TMC3    C4 6012   1.778   3.896   0.354  0.2439 -0.0852 -0.4231
  399TMC3    C5 6013   1.766   3.761   0.343 -0.3209  0.4737 -0.0199
  399TMC3    C6 6014   1.875   3.677   0.351  0.4540  0.4915  0.5414
  399TMC3     C 6015   1.911   4.082   0.340  0.1538 -0.0580 -0.8672
  399TMC3     O 6016   1.821   4.121   0.269 -0.2795 -0.2818 -0.5488
  399TMC3     H 6017   2.117   3.914   0.357  0.1460 -0.0533  0.1300
  399TMC3    H1 6018   1.688   3.955   0.362  0.3220  0.2395 -1.9073
  399TMC3    H2 6019   1.855   3.571   0.364  0.5904  0.3817 -0.1002
  399TMC3    C7 6020   1.670   3.722   0.242  0.0209 -0.2592 -0.7651
  399TMC3    C8 6021   2.117   3.654   0.351 -0.1623 -0.1956  0.2443
  399TMC3    O1 6022   1.616   3.612   0.248 -0.0113 -0.2683  0.1364
  399TMC3    O2 6023   2.223   3.705   0.390  0.3016 -0.2523  0.2827
  400TMC3    C1 6024   0.850   2.702  16.669 -0.2728 -0.5516  0.3977
  400TMC3    C2 6025   0.722   2.654  16.680 -0.2132 -0.3451  0.7394
  400TMC3    C3 6026   0.618   2.747  16.690 -0.5286 -0.0886  0.2886
  400TMC3    C4 6027   0.884   2.834  16.669 -0.5301  0.7896  0.1098
  400TMC3    C5 6028   0.773   2.921  16.681  0.1920 -0.0817  0.1907
  400TMC3    C6 6029   0.646   2.881  16.694  0.2692 -0.2547 -0.0319
  400TMC3     C 6030   0.957   2.611  16.712 -0.4647  0.0958  0.1309
  400TMC3     O 6031   0.953   2.491  16.704  0.1586  0.4601  0.2180
  400TMC3     H 6032   0.709   2.549  16.657 -2.3657 -0.1362  1.0084
  400TMC3    H1 6033   0.984   2.868  16.644  0.3656 -2.2402 -0.4287
  400TMC3    H2 6034   0.561   2.948  16.705  2.0063  2.1732 -1.2512
  400TMC3    C7 6035   0.806   3.063  16.660 -0.2831  1.6687 -0.0888
  400TMC3    C8 6036   0.475   2.710  16.683  0.2926 -0.5343  0.2852
  400TMC3    O1 6037   0.920   3.091  16.633 -0.6810  0.0896  0.1237
  400TMC3    O2 6038   0.396   2.788  16.736 -0.4174 -0.0107  0.1923
  401MPD2     C 6039   3.344   1.047   0.666 -0.2708  1.1172 -0.0025
  401MPD2    C1 6040   3.454   1.005   0.727 -0.4013 -0.3292  0.0349
  401MPD2    C2 6041   3.483   0.868   0.729  0.0888  0.7248 -0.2919
  401MPD2    C3 6042   3.404   0.773   0.665 -0.2142 -0.1779 -0.3139
  401MPD2    C4 6043   3.301   0.821   0.584  0.6993  0.3964 -0.5239
  401MPD2    C5 6044   3.271   0.954   0.602 -0.4836  0.3178 -0.0343
  401MPD2     H 6045   3.566   0.829   0.787  0.0201  2.1542  0.7653
  401MPD2    H1 6046   3.231   0.755   0.534 -1.0312  2.6255 -1.0361
  401MPD2    H2 6047   3.317   1.152   0.663  2.8105  2.0031  2.3325
  401MPD2    H3 6048   3.185   1.001   0.555 -0.5710  1.5088  1.3296
  401MPD2     N 6049   3.441   0.635   0.683  0.2334  0.0841  0.4454
  401MPD2    H5 6050   3.515   0.618   0.750  0.5558 -1.7572 -0.3802
  401MPD2    N1 6051   3.538   1.094   0.800  0.3014  0.6965  0.1374
  401MPD2    H7 6052   3.624   1.054   0.836 -1.3294 -0.2359  2.9871
  402TMC3    C1 6053   3.463   0.406   0.627  0.3270  0.0249 -0.4237
  402TMC3    C2 6054   3.463   0.355   0.757  0.5565  0.4038  0.6505
  402TMC3    C3 6055   3.496   0.225   0.773 -0.2883  0.4037 -0.3394
  402TMC3    C4 6056   3.495   0.332   0.523 -0.6202 -0.3703  0.2739
  402TMC3    C5 6057   3.534   0.202   0.540  0.6696  0.1179 -0.4498
  402TMC3    C6 6058   3.538   0.153   0.668 -0.2705  0.3114  0.1124
  402TMC3     C 6059   3.406   0.533   0.592  0.9003 -0.5026 -0.0509
  402TMC3     O 6060   3.362   0.542   0.477  0.0556 -0.5586  0.0618
  402TMC3     H 6061   3.442   0.417   0.843  1.4593  2.2460 -0.4676
  402TMC3    H1 6062   3.502   0.368   0.422  1.0329 -0.4129  0.3698
  402TMC3    H2 6063   3.584   0.057   0.692 -1.2885 -0.7124 -1.9179
  402TMC3    C7 6064   3.646   0.161   0.448 -0.5163 -0.1106  0.1355
  402TMC3    C8 6065   3.484   0.160   0.903  0.4118 -0.6084 -0.4708
  402TMC3    O1 6066   3.647   0.198   0.330 -0.1264  0.0672  0.3255
  402TMC3    O2 6067   3.537   0.047   0.913  0.1794 -0.9023 -0.0321
  403MPD2     C 6068   1.987   4.082  12.960  0.6055  0.2347 -0.2585
  403MPD2    C1 6069   1.950   4.143  13.079  0.0134 -0.9584  0.3719
  403MPD2    C2 6070   2.047   4.201  13.163 -0.6489 -0.7820 -0.0437
  403MPD2    C3 6071   2.178   4.176  13.139 -0.4220 -0.0819  0.7383
  403MPD2    C4 6072   2.218   4.108  13.031 -0.3048 -0.2029 -0.1955
  403MPD2    C5 6073   2.126   4.064  12.939 -0.7002 -0.1624  0.4822
  403MPD2     H 6074   2.024   4.261  13.251  3.5209  0.7841  0.0085
  403MPD2    H1 6075   2.324   4.092  13.013 -0.4525 -0.6802 -0.6590
  403MPD2    H2 6076   1.913   4.047  12.890  0.4880  1.6641 -0.8414
  403MPD2    H3 6077   2.164   4.006  12.856 -0.1702 -2.0907  2.0378
  403MPD2     N 6078   2.284   4.213  13.228  0.2973  0.1634  0.1711
  403MPD2    H5 6079   2.363   4.150  13.223 -0.1492 -0.4962  1.2951
  403MPD2    N1 6080   1.809   4.141  13.103 -0.0526  0.6125 -0.6774
  403MPD2    H7 6081   1.751   4.115  13.023 -0.6865 -0.9204  0.2848
  404TMC3    C1 6082   1.603   4.157  13.221 -0.1963 -0.0513  0.5554
  404TMC3    C2 6083   1.567   4.126  13.350  0.3076 -0.0871 -0.4680
  404TMC3    C3 6084   1.461   4.049  13.380  0.4776  0.3270 -0.2689
  404TMC3    C4 6085   1.546   4.080  13.120  0.2637 -0.3477  0.1393
  404TMC3    C5 6086   1.446   3.996  13.151 -0.1189  0.0062 -0.0560
  404TMC3    C6 6087   1.405   3.969  13.282  0.1308 -0.2220 -0.5323
  404TMC3     C 6088   1.745   4.197  13.209  0.1132 -0.6452  0.2445
  404TMC3     O 6089   1.779   4.248  13.317  0.1429  0.7065 -0.4879
  404TMC3     H 6090   1.600   4.191  13.431 -0.7722 -1.8951  1.4153
  404TMC3    H1 6091   1.568   4.094  13.015 -0.4316  1.2051  0.1992
  404TMC3    H2 6092   1.319   3.906  13.301 -0.2678  0.5425  0.1937
  404TMC3    C7 6093   1.351   3.960  13.052  0.5784 -0.8799 -0.4496
  404TMC3    C8 6094   1.430   4.011  13.518  0.3127  0.2014  0.6014
  404TMC3    O1 6095   1.326   4.035  12.958  0.0665 -0.9656 -0.1296
  404TMC3    O2 6096   1.324   3.973  13.558 -0.0455 -0.0191  0.4954
  405MPD2     C 6097   2.099   0.299  15.172 -0.1783  0.3689 -0.3399
  405MPD2    C1 6098   2.114   0.249  15.046  0.1062 -0.2513 -0.3116
  405MPD2    C2 6099   1.997   0.248  14.970 -0.0827 -0.6727  0.0468
  405MPD2    C3 6100   1.869   0.279  15.019  0.0893 -0.5390  0.2441
  405MPD2    C4 6101   1.854   0.330  15.150 -0.1928 -0.7845 -0.1615
  405MPD2    C5 6102   1.973   0.344  15.222 -0.3478 -0.2015  0.8678
  405MPD2     H 6103   1.995   0.209  14.869  1.5654 -2.3032  0.6410
  405MPD2    H1 6104   1.755   0.348  15.189  0.3551  1.3505  0.2422
  405MPD2    H2 6105   2.184   0.311  15.239 -0.8634 -2.3021  0.9779
  405MPD2    H3 6106   1.952   0.393  15.316  0.4272  1.6222  0.0731
  405MPD2     N 6107   1.752   0.235  14.954 -0.1380  0.2910  0.3057
  405MPD2    H5 6108   1.776   0.197  14.863  0.8349  0.5813  0.4451
  405MPD2    N1 6109   2.239   0.190  15.011 -0.0593 -0.4559  0.1751
  405MPD2    H7 6110   2.306   0.152  15.077 -2.0684 -0.0635  2.4033
  406TMC3    C1 6111   1.331   0.082  14.845 -0.1552 -0.5306 -0.1051
  406TMC3    C2 6112   1.382   4.699  14.822  0.5081 -0.0587  0.3095
  406TMC3    C3 6113   1.515   4.677  14.852  0.5766  0.4318 -0.8432
  406TMC3    C4 6114   1.409   0.183  14.896 -0.0674 -0.4054 -0.0687
  406TMC3    C5 6115   1.543   0.151  14.915 -0.1797 -0.1918 -0.1607
  406TMC3    C6 6116   1.604   0.030  14.901 -0.1042  0.8867  0.3215
  406TMC3     C 6117   1.227   0.118  14.746  0.7864 -0.3932 -0.2048
  406TMC3     O 6118   1.142   0.027  14.728 -0.0534  0.3909 -0.6646
  406TMC3     H 6119   1.319   4.616  14.793  0.2151  0.2495  0.0680
  406TMC3    H1 6120   1.373   0.285  14.903 -1.6670 -0.9336 -0.6291
  406TMC3    H2 6121   1.694   0.001  14.954 -0.1849 -0.5227 -0.2994
  406TMC3    C7 6122   1.619   0.242  15.000  0.3176  0.3120  0.0912
  406TMC3    C8 6123   1.574   4.546  14.817  0.1215 -0.0432 -0.1976
  406TMC3    O1 6124   1.569   0.322  15.081 -0.3379 -0.3812 -0.4403
  406TMC3    O2 6125   1.519   4.443  14.845  0.1905  0.1324 -0.0557
  407MPD2     C 6126   4.014   1.638   9.586 -0.0325 -0.3185 -0.4594
  407MPD2    C1 6127   4.116   1.651   9.679 -0.1447 -0.3380  0.8028
  407MPD2    C2 6128   4.114   1.754   9.769  0.2938 -1.1556 -0.8750
  407MPD2    C3 6129   4.011   1.845   9.766 -0.4382  0.0867 -0.1806
  407MPD2    C4 6130   3.910   1.827   9.676 -0.3202  0.1265 -0.7267
  407MPD2    C5 6131   3.912   1.724   9.591 -1.0885  0.6827  0.7040
  407MPD2     H 6132   4.198   1.765   9.837 -0.2000  2.3931 -0.8460
  407MPD2    H1 6133   3.821   1.889   9.677  1.6170  2.9133  1.6976
  407MPD2    H2 6134   4.016   1.550   9.523 -0.3389  0.4590 -1.5464
  407MPD2    H3 6135   3.832   1.716   9.519 -0.8280 -0.5453  0.5503
  407MPD2     N 6136   4.006   1.963   9.858  0.2019  0.5961 -0.9848
  407MPD2    H5 6137   3.935   2.033   9.840 -1.4877 -1.2497 -1.4780
  407MPD2    N1 6138   4.238   1.580   9.663 -0.0790 -0.2835  0.2265
  407MPD2    H7 6139   4.309   1.600   9.732 -0.9915  0.5148  0.9368
  408TMC3    C1 6140   4.423   1.455   9.581  0.4651 -0.2511  0.8700
  408TMC3    C2 6141   4.511   1.551   9.633 -0.0991 -0.5084 -0.0000
  408TMC3    C3 6142   4.629   1.505   9.681 -0.1839  0.3284 -0.3181
  408TMC3    C4 6143   4.445   1.318   9.588  0.5706  0.0939  0.5906
  408TMC3    C5 6144   4.573   1.281   9.637 -0.5001 -0.6914 -0.1886
  408TMC3    C6 6145   4.658   1.373   9.687  0.1575  0.3483  0.2149
  408TMC3     C 6146   4.279   1.497   9.562  0.0469  0.4483  0.8236
  408TMC3     O 6147   4.214   1.452   9.465  0.1238 -0.2034 -0.3573
  408TMC3     H 6148   4.484   1.656   9.626 -0.2959 -0.7478 -2.8899
  408TMC3    H1 6149   4.364   1.252   9.562 -0.4646  0.3102  3.2959
  408TMC3    H2 6150   0.010   1.337   9.733 -0.4585 -2.0542 -0.3988
  408TMC3    C7 6151   4.588   1.136   9.677  0.2670 -0.4451 -0.6523
  408TMC3    C8 6152   4.697   1.589   9.775  0.1420  0.6797  0.1848
  408TMC3    O1 6153   4.677   1.109   9.752  0.5326  0.2977  0.1239
  408TMC3    O2 6154   0.011   1.538   9.871  0.5182 -0.0095 -0.1392
  409MPD2     C 6155   4.420   1.805  16.854 -0.1630  0.0919 -0.2739
  409MPD2    C1 6156   4.355   1.891  16.936  0.1711  0.4158  0.0899
  409MPD2    C2 6157   4.416   2.010  16.980 -0.1692 -0.5824 -0.3538
  409MPD2    C3 6158   4.543   2.043  16.930  0.3968  0.5666 -0.1960
  409MPD2    C4 6159   4.609   1.952  16.852 -0.3062  0.1059  0.1381
  409MPD2    C5 6160   4.550   1.836  16.818  0.0355  0.3007  1.0527
  409MPD2     H 6161   4.361   2.072  17.050  2.3559 -0.7175  1.7700
  409MPD2    H1 6162   4.711   1.956  16.816 -0.5284 -0.2183 -0.5363
  409MPD2    H2 6163   4.381   1.709  16.820 -0.4301  0.5716 -1.3485
  409MPD2    H3 6164   4.611   1.765  16.764  0.7014  0.5496  1.4722
  409MPD2     N 6165   4.612   2.162  16.959 -0.4095 -0.0863  0.3150
  409MPD2    H5 6166   4.704   2.175  16.918 -0.6096 -1.8583 -0.6991
  409MPD2    N1 6167   4.231   1.851  16.998 -0.1431 -0.6032  0.5159
  409MPD2    H7 6168   4.203   1.921  17.066 -2.2801 -0.8753 -0.0896
  410TMC3    C1 6169   4.646   2.387  17.014 -0.5012  0.7104 -0.2341
  410TMC3    C2 6170   0.037   2.374  16.976 -0.0440  0.3550  0.5345
  410TMC3    C3 6171   0.099   2.490  16.946  0.4340  0.1841 -0.1868
  410TMC3    C4 6172   4.588   2.512  17.032 -0.7198 -0.4717 -0.7294
  410TMC3    C5 6173   4.647   2.621  16.978  0.7341  0.1939 -0.6119
  410TMC3    C6 6174   0.037   2.612  16.941 -0.3499 -0.6745  0.3743
  410TMC3     C 6175   4.558   2.268  17.024  0.5505  0.3440  0.5248
  410TMC3     O 6176   4.448   2.279  17.073  0.6854  0.0493 -0.2453
  410TMC3     H 6177   0.101   2.289  16.994  0.2824  0.4806 -0.0251
  410TMC3    H1 6178   4.484   2.521  17.063 -0.7758 -0.9640 -0.7652
  410TMC3    H2 6179   0.096   2.702  16.930 -1.2678 -0.3018 -1.6940
  410TMC3    C7 6180   4.556   2.709  16.904 -0.4789 -0.5188 -0.4850
  410TMC3    C8 6181   0.244   2.499  16.947 -0.7275 -0.5551  0.4348
  410TMC3    O1 6182   4.439   2.696  16.936 -0.2326 -0.2257  0.2587
  410TMC3    O2 6183   0.286   2.609  16.974 -0.2520 -0.0028  0.5030
  411MPD2     C 6184   4.715   3.352  14.446 -0.3170  0.5893 -0.1254
  411MPD2    C1 6185   4.605   3.323  14.530 -0.0879 -0.2521 -0.4152
  411MPD2    C2 6186   4.552   3.196  14.514  0.1768 -0.5108 -0.0910
  411MPD2    C3 6187   4.600   3.105  14.420  0.4053 -0.8622 -0.1572
  411MPD2    C4 6188   4.712   3.138  14.340  0.0446 -0.2878 -0.3631
  411MPD2    C5 6189   0.021   3.268  14.349 -0.4747  0.5460 -1.1060
  411MPD2     H 6190   4.461   3.172  14.569 -0.3683  0.8666 -0.4058
  411MPD2    H1 6191   0.006   3.075  14.258  1.3541 -0.3133  0.1893
  411MPD2    H2 6192   0.023   3.448  14.460  0.3623  0.2979 -0.4218
  411MPD2    H3 6193   0.091   3.314  14.280 -0.2487 -0.8315 -1.7875
  411MPD2     N 6194   4.538   2.987  14.391  0.2963 -0.0676  0.1709
  411MPD2    H5 6195   4.583   2.918  14.332  0.2607  0.0438  0.0156
  411MPD2    N1 6196   4.549   3.431  14.602 -0.2736  0.6173  0.2413
  411MPD2    H7 6197   4.585   3.524  14.586 -0.1079  0.5809  0.3942
  412TMC3    C1 6198   4.364   2.825  14.360 -0.4040 -0.2484  0.1286
  412TMC3    C2 6199   4.283   2.746  14.429  0.0429  0.1142 -0.2202
  412TMC3    C3 6200   4.237   2.642  14.354 -0.3209  0.1896  0.4301
  412TMC3    C4 6201   4.393   2.819  14.228  0.1081  0.1977  0.1675
  412TMC3    C5 6202   4.354   2.710  14.158  0.8188  1.0268  0.0233
  412TMC3    C6 6203   4.276   2.621  14.223 -0.1642 -0.5897 -0.1904
  412TMC3     C 6204   4.417   2.942  14.434 -0.1610  0.0405 -0.1199
  412TMC3     O 6205   4.341   2.981  14.518  0.8301 -0.3850  0.2064
  412TMC3     H 6206   4.250   2.759  14.531 -1.4218 -3.2889 -0.2414
  412TMC3    H1 6207   4.463   2.884  14.176 -0.7394 -0.0180 -1.2532
  412TMC3    H2 6208   4.242   2.533  14.170  1.1352 -0.9082 -0.4896
  412TMC3    C7 6209   4.282   2.746  14.034  0.0676 -0.1226 -0.1893
  412TMC3    C8 6210   4.101   2.622  14.377  0.0806  0.1334  1.0184
  412TMC3    O1 6211   4.171   2.691  14.009  0.3684 -0.2228 -0.1007
  412TMC3    O2 6212   4.059   2.629  14.494  0.5460 -0.4083  0.1152
  413MPD2     C 6213   0.947   1.100  15.534  0.1777 -0.3556  0.2376
  413MPD2    C1 6214   0.987   1.113  15.400 -0.5084 -0.3710 -0.6200
  413MPD2    C2 6215   1.076   1.013  15.353 -0.1684 -0.5285 -0.1976
  413MPD2    C3 6216   1.143   0.932  15.445  0.9254 -0.1278 -0.2553
  413MPD2    C4 6217   1.090   0.917  15.580 -0.0143 -0.3008  0.1159
  413MPD2    C5 6218   0.989   1.002  15.618 -0.6847  0.2963  0.3930
  413MPD2     H 6219   1.114   1.028  15.253 -0.0579  1.4142  0.1211
  413MPD2    H1 6220   1.122   0.839  15.647 -0.8499 -0.4189  0.3805
  413MPD2    H2 6221   0.882   1.172  15.581 -0.9027 -1.0476 -0.1819
  413MPD2    H3 6222   0.939   1.000  15.715 -0.9007  3.4728  0.3643
  413MPD2     N 6223   1.248   0.856  15.404  0.1043 -0.7258 -0.5050
  413MPD2    H5 6224   1.276   0.870  15.307  1.0416 -2.2978 -0.4672
  413MPD2    N1 6225   0.939   1.224  15.333 -0.0475 -0.1270  0.3245
  413MPD2    H7 6226   0.892   1.292  15.392 -0.6984 -0.1078 -0.2226
  414TMC3    C1 6227   1.444   0.727  15.424 -0.8283 -0.0095  0.0178
  414TMC3    C2 6228   1.547   0.684  15.508  0.0145  0.1415  0.2405
  414TMC3    C3 6229   1.650   0.623  15.450 -0.2372 -0.2684 -0.3700
  414TMC3    C4 6230   1.447   0.728  15.288 -0.3866  0.5505  0.0613
  414TMC3    C5 6231   1.549   0.650  15.236 -0.3045 -0.2517  0.3239
  414TMC3    C6 6232   1.645   0.593  15.313 -0.2241  0.4540 -0.3490
  414TMC3     C 6233   1.335   0.787  15.487  0.2043  0.2745  0.2814
  414TMC3     O 6234   1.323   0.770  15.608 -0.0685  0.2212 -0.1217
  414TMC3     H 6235   1.532   0.678  15.615 -0.2854  2.3136  0.3217
  414TMC3    H1 6236   1.369   0.762  15.220 -1.4135  0.6487  1.2782
  414TMC3    H2 6237   1.724   0.539  15.263 -0.8691 -1.0832  0.2716
  414TMC3    C7 6238   1.604   0.697  15.113 -0.1953 -0.6040  0.0753
  414TMC3    C8 6239   1.773   0.588  15.526  0.2010 -0.3010 -0.3660
  414TMC3    O1 6240   1.575   0.810  15.078  0.3075  0.5669 -0.2532
  414TMC3    O2 6241   1.841   0.493  15.485  0.2155  0.7673 -0.4466
  415TMC3    C1 6242   1.768   4.165  10.213 -0.8534 -0.2326 -0.0531
  415TMC3    C2 6243   1.774   4.292  10.158 -0.6451  0.1412  0.0887
  415TMC3    C3 6244   1.699   4.327  10.047  0.4317 -0.7139  0.7576
  415TMC3    C4 6245   1.693   4.069  10.149 -0.2688  0.2070 -0.4431
  415TMC3    C5 6246   1.611   4.101  10.046  0.4483 -0.5706 -0.1130
  415TMC3    C6 6247   1.612   4.229   9.994  0.4490 -0.0405  0.3998
  415TMC3     C 6248   1.815   4.137  10.348 -0.6650 -1.1614 -0.0862
  415TMC3     O 6249   1.816   4.017  10.373  0.4886  0.8399 -0.0673
  415TMC3     H 6250   1.843   4.365  10.201 -1.1740  0.1127  0.9833
  415TMC3    H1 6251   1.697   3.969  10.191  1.2106  0.0407 -0.9534
  415TMC3    H2 6252   1.557   4.259   9.906 -1.2772  1.3948  1.9539
  415TMC3    C7 6253   1.525   4.008   9.981  0.1862 -0.1025  0.1233
  415TMC3    C8 6254   1.720   4.453   9.982  0.0507  0.7062 -0.1396
  415TMC3    O1 6255   1.491   4.038   9.865  0.1376 -0.4949  0.1999
  415TMC3    O2 6256   1.653   4.468   9.884  0.0345  0.5210 -0.2437
  416MPD2     C 6257   3.546   3.251  11.127  0.4091  0.5321  0.0558
  416MPD2    C1 6258   3.451   3.180  11.198 -0.1776 -0.1211 -0.1463
  416MPD2    C2 6259   3.436   3.046  11.166  0.0577  0.1310 -0.1917
  416MPD2    C3 6260   3.488   2.989  11.056 -0.0229  0.4477 -0.4575
  416MPD2    C4 6261   3.587   3.061  10.990 -0.4504  0.1093 -0.1851
  416MPD2    C5 6262   3.611   3.193  11.019 -0.2477 -0.2362 -0.4544
  416MPD2     H 6263   3.364   2.985  11.220 -0.0545  1.4699  1.1651
  416MPD2    H1 6264   3.637   3.025  10.900  1.0371  0.2258  0.5901
  416MPD2    H2 6265   3.577   3.352  11.151  0.4725  0.5452 -0.0790
  416MPD2    H3 6266   3.688   3.249  10.967  0.7330 -1.7203 -0.6127
  416MPD2     N 6267   3.424   2.870  10.999 -1.3283 -0.0826  0.1075
  416MPD2    H5 6268   3.340   2.839  11.048  0.4955  0.9620  3.8972
  416MPD2    N1 6269   3.376   3.239  11.297  0.8000  0.4919 -0.2493
  416MPD2    H7 6270   3.368   3.340  11.304  3.0016  0.4824  2.2047
  417TMC3    C1 6271   3.216   3.247  11.471 -0.2429 -0.1874 -0.3438
  417TMC3    C2 6272   3.201   3.239  11.605 -0.3145 -0.4007 -0.4475
  417TMC3    C3 6273   3.088   3.305  11.649 -0.2461  0.5911  0.1796
  417TMC3    C4 6274   3.119   3.297  11.385 -0.5308 -0.1737 -0.4650
  417TMC3    C5 6275   3.007   3.350  11.439  0.6199 -0.5280 -0.2975
  417TMC3    C6 6276   2.988   3.355  11.573 -0.1951  0.1109 -0.0070
  417TMC3     C 6277   3.327   3.173  11.409 -0.7106  0.1410 -0.0502
  417TMC3     O 6278   3.356   3.062  11.457 -0.0258  0.3858 -0.0667
  417TMC3     H 6279   3.284   3.203  11.664 -0.6789  1.0468  0.9503
  417TMC3    H1 6280   3.131   3.296  11.277  0.2489 -0.2004 -0.3782
  417TMC3    H2 6281   2.926   3.431  11.617  0.3266 -0.1425  1.1631
  417TMC3    C7 6282   2.898   3.395  11.353 -0.1275 -0.3263 -0.0012
  417TMC3    C8 6283   3.066   3.335  11.792 -0.2782  0.5992  0.1264
  417TMC3    O1 6284   2.922   3.402  11.229 -0.5706 -0.1452  0.3140
  417TMC3    O2 6285   2.952   3.353  11.826  0.5993 -0.0143  0.3835
  418TMC3    C1 6286   2.286   0.071   0.984  0.1499  0.1504 -0.2867
  418TMC3    C2 6287   2.168   0.039   0.915  0.1448 -0.3455 -0.0492
  418TMC3    C3 6288   2.127   4.650   0.916  0.1061  0.3227  0.1581
  418TMC3    C4 6289   2.354   4.709   1.053 -0.3204 -1.1673  0.2275
  418TMC3    C5 6290   2.302   4.582   1.054 -0.3157  0.4750 -0.5434
  418TMC3    C6 6291   2.190   4.556   0.988 -0.0549 -1.0217  0.2452
  418TMC3     C 6292   2.366   0.162   0.904  0.2000 -0.1068 -0.5192
  418TMC3     O 6293   2.318   0.260   0.846 -0.2135 -0.8562 -0.6456
  418TMC3     H 6294   2.123   0.105   0.842  1.3127  1.2133  0.6327
  418TMC3    H1 6295   2.436   0.005   1.115  0.4139 -2.9691  0.2645
  418TMC3    H2 6296   2.140   4.460   1.000 -2.2870  0.0470 -0.4601
  418TMC3    C7 6297   2.378   4.481   1.121  0.4654  0.7848  0.8032
  418TMC3    C8 6298   2.029   4.621   0.813 -0.4506 -0.1649 -0.0039
  418TMC3    O1 6299   2.445   4.534   1.206 -0.2823 -0.0348  0.5304
  418TMC3    O2 6300   1.944   4.705   0.798 -0.0565  0.1793 -0.2764
  419MPD2     C 6301   0.971   3.235  12.623 -0.0635 -0.1345  0.0163
  419MPD2    C1 6302   0.843   3.283  12.606 -0.0050  0.5443  1.0452
  419MPD2    C2 6303   0.773   3.314  12.723 -0.2550  0.0763 -0.1539
  419MPD2    C3 6304   0.823   3.297  12.847  0.4511 -0.4874 -0.1315
  419MPD2    C4 6305   0.954   3.248  12.865  0.2553 -0.0706 -0.1417
  419MPD2    C5 6306   1.030   3.225  12.749 -0.2362 -0.2986  0.4086
  419MPD2     H 6307   0.686   3.376  12.707 -0.4454  0.0174  0.6576
  419MPD2    H1 6308   1.005   3.262  12.960 -0.8698 -1.2607  0.6340
  419MPD2    H2 6309   1.034   3.191  12.546 -1.9436 -0.1755 -1.5126
  419MPD2    H3 6310   1.130   3.183  12.758 -0.9282 -1.8221  0.9706
  419MPD2     N 6311   0.746   3.336  12.962  0.2726 -0.2080 -0.1466
  419MPD2    H5 6312   0.665   3.393  12.939 -0.2906 -1.5100 -1.4161
  419MPD2    N1 6313   0.786   3.301  12.477  0.0429  0.6923  0.1237
  419MPD2    H7 6314   0.696   3.349  12.476  0.4863  1.5232 -0.2787
  420TMC3    C1 6315   0.701   3.360  13.205  0.1372  0.6022  0.4458
  420TMC3    C2 6316   0.635   3.478  13.185 -0.3792  0.7071 -0.0068
  420TMC3    C3 6317   0.578   3.528  13.295 -0.8394 -0.2596 -0.3551
  420TMC3    C4 6318   0.721   3.298  13.323 -0.1799 -0.4525 -0.5865
  420TMC3    C5 6319   0.681   3.364  13.435  0.2021 -0.3364 -0.6202
  420TMC3    C6 6320   0.610   3.480  13.420 -0.2325 -0.2136 -0.3655
  420TMC3     C 6321   0.779   3.303  13.094 -0.1542  0.2207  0.1434
  420TMC3     O 6322   0.860   3.220  13.129  0.3802 -0.0420  0.4107
  420TMC3     H 6323   0.634   3.517  13.084 -3.7428 -0.7097 -0.5438
  420TMC3    H1 6324   0.778   3.206  13.329 -0.1591 -0.3833  0.1993
  420TMC3    H2 6325   0.584   3.540  13.506  0.1254 -1.3819  0.5679
  420TMC3    C7 6326   0.751   3.327  13.558  0.2304  0.1346 -0.3217
  420TMC3    C8 6327   0.479   3.637  13.284 -0.5039 -0.2319  0.0051
  420TMC3    O1 6328   0.699   3.340  13.666  0.4786 -0.5848 -0.4176
  420TMC3    O2 6329   0.512   3.733  13.216  0.1321  0.4332 -0.0145
  421TMC3    C1 6330   2.391   4.321  13.410 -0.5716  0.2454 -0.3604
  421TMC3    C2 6331   2.394   4.425  13.501  0.0318  0.3954  0.4904
  421TMC3    C3 6332   2.460   4.409  13.617 -0.9908  0.0242  0.6268
  421TMC3    C4 6333   2.483   4.216  13.425 -0.2087 -0.3671 -0.4211
  421TMC3    C5 6334   2.539   4.198  13.545 -0.6049 -0.4422  0.3586
  421TMC3    C6 6335   2.527   4.291  13.646  0.3912 -0.2313  0.0059
  421TMC3     C 6336   2.282   4.318  13.319  0.7842  0.4404  0.6309
  421TMC3     O 6337   2.210   4.412  13.325 -0.7615  0.4649 -0.2964
  421TMC3     H 6338   2.334   4.514  13.482  0.8999  0.4887 -1.7705
  421TMC3    H1 6339   2.487   4.144  13.344  0.0392  0.8931 -1.5185
  421TMC3    H2 6340   2.587   4.282  13.736 -0.1383 -1.0354  0.2792
  421TMC3    C7 6341   2.657   4.109  13.566  0.0783 -0.2128 -0.4233
  421TMC3    C8 6342   2.487   4.517  13.715 -0.1151 -0.1759  0.5169
  421TMC3    O1 6343   2.724   4.112  13.672 -0.5531  0.0696  0.6888
  421TMC3    O2 6344   2.542   4.613  13.665 -0.2030 -0.0983  0.3487
  422TMC3    C1 6345   4.464   1.589  12.389  0.0244 -0.2423 -0.4327
  422TMC3    C2 6346   4.492   1.719  12.356  0.4909 -0.0514  0.2217
  422TMC3    C3 6347   4.383   1.803  12.333  0.7636 -0.2691  0.3968
  422TMC3    C4 6348   4.335   1.544  12.413 -0.0771  0.5162 -0.1099
  422TMC3    C5 6349   4.237   1.632  12.385  0.7230  0.2407  0.3193
  422TMC3    C6 6350   4.256   1.762  12.343 -0.2588 -0.6529 -1.0087
  422TMC3     C 6351   4.577   1.522  12.445 -0.4194 -0.0817 -0.6761
  422TMC3     O 6352   4.672   1.596  12.469  0.5267 -0.0956 -0.4317
  422TMC3     H 6353   4.593   1.753  12.335  0.1297  2.2443  2.1942
  422TMC3    H1 6354   4.321   1.444  12.452  0.6986  0.0933 -0.9231
  422TMC3    H2 6355   4.179   1.838  12.352 -1.4066 -1.8243 -0.7353
  422TMC3    C7 6356   4.096   1.604  12.415  0.2306 -0.1541  0.5012
  422TMC3    C8 6357   4.419   1.944  12.322  0.3550 -0.6181 -0.0838
  422TMC3    O1 6358   4.077   1.544  12.520  0.0178  0.2897 -0.0569
  422TMC3    O2 6359   4.534   1.971  12.301 -0.7008  0.1221  0.3955
  423MPD2     C 6360   1.661   1.861   0.583  0.2291 -0.0159 -0.3611
  423MPD2    C1 6361   1.666   1.725   0.608  0.3628  0.1017  0.0383
  423MPD2    C2 6362   1.693   1.641   0.504  0.3044  0.5440 -0.8164
  423MPD2    C3 6363   1.699   1.687   0.378  0.1530 -0.3655 -0.2622
  423MPD2    C4 6364   1.699   1.824   0.355  0.3014 -0.0909 -0.3521
  423MPD2    C5 6365   1.677   1.909   0.459 -0.2443 -0.2063  0.0649
  423MPD2     H 6366   1.690   1.536   0.529 -2.2762  0.3227 -2.0438
  423MPD2    H1 6367   1.704   1.856   0.252 -0.1861 -1.3720 -0.7688
  423MPD2    H2 6368   1.666   1.936   0.661  3.2047 -0.0004 -0.5710
  423MPD2    H3 6369   1.676   2.014   0.433  0.5409  0.0654  1.1220
  423MPD2     N 6370   1.718   1.609   0.259 -0.1138  0.3977 -0.4513
  423MPD2    H5 6371   1.721   1.662   0.173 -0.2882 -0.4872 -1.0075
  423MPD2    N1 6372   1.637   1.675   0.740 -0.5307 -0.8131 -0.9117
  423MPD2    H7 6373   1.633   1.577   0.766  0.5713 -0.3061  1.1878
  424TMC3    C1 6374   1.655   1.679   0.961 -0.2614 -0.2061 -0.6374
  424TMC3    C2 6375   1.740   1.577   0.967 -0.7663 -0.0796  0.5615
  424TMC3    C3 6376   1.762   1.526   1.093 -0.5243  0.0434  0.5721
  424TMC3    C4 6377   1.598   1.734   1.075  0.6089 -0.1211 -0.8253
  424TMC3    C5 6378   1.626   1.675   1.195 -0.2137  0.2431  0.0988
  424TMC3    C6 6379   1.702   1.575   1.208 -0.5284  0.3736  0.2596
  424TMC3     C 6380   1.629   1.760   0.849 -0.4286 -0.1709 -0.0701
  424TMC3     O 6381   1.592   1.876   0.865  0.4832 -0.5634 -0.1695
  424TMC3     H 6382   1.785   1.539   0.876 -0.8533 -1.3863  1.0526
  424TMC3    H1 6383   1.521   1.810   1.065 -0.0243 -0.5619  0.7180
  424TMC3    H2 6384   1.718   1.526   1.304  0.4845 -1.3934 -0.8030
  424TMC3    C7 6385   1.546   1.705   1.313  0.6998  0.1606 -0.9362
  424TMC3    C8 6386   1.810   1.391   1.111  0.3259  0.2966 -1.1209
  424TMC3    O1 6387   1.596   1.699   1.425  0.1311 -0.3788 -0.1543
  424TMC3    O2 6388   1.750   1.319   1.190 -0.1424 -0.4458  0.4532
  425MPD2     C 6389   0.357   1.112  17.510  0.0214  0.1124  0.5099
  425MPD2    C1 6390   0.282   0.995  17.514  0.1249  0.6231 -0.2297
  425MPD2    C2 6391   0.153   0.998  17.559  0.1968 -0.4233  0.2762
  425MPD2    C3 6392   0.091   1.115  17.594  0.0853  0.4494  1.0676
  425MPD2    C4 6393   0.163   1.229  17.611 -1.0022  0.2340 -0.7803
  425MPD2    C5 6394   0.299   1.224  17.569  0.7067  0.2748 -0.0621
  425MPD2     H 6395   0.091   0.909  17.556 -0.4173 -0.0082  0.6659
  425MPD2    H1 6396   0.130   1.328  17.640  0.6882  0.5767  0.0081
  425MPD2    H2 6397   0.460   1.120  17.478 -0.3143 -1.0678 -0.8911
  425MPD2    H3 6398   0.354   1.317  17.571  1.1754  0.0233 -1.4818
  425MPD2     N 6399   4.695   1.104  17.618 -0.1534  0.3991  0.6988
  425MPD2    H5 6400   4.662   1.008  17.611  1.8258 -0.2764  0.7886
  425MPD2    N1 6401   0.346   0.887  17.457 -0.3446 -0.4817 -0.1833
  425MPD2    H7 6402   0.431   0.912  17.408  0.2567  0.5210  1.4093
  426TMC3    C1 6403   0.377   0.665  17.367 -0.1631  0.0049  0.3112
  426TMC3    C2 6404   0.411   0.716  17.240 -0.7331 -0.0702  0.5854
  426TMC3    C3 6405   0.443   0.616  17.147  0.0454 -0.5863  0.2339
  426TMC3    C4 6406   0.332   0.536  17.372  0.0571 -0.2293  0.0541
  426TMC3    C5 6407   0.355   0.445  17.275 -0.2711 -0.4666  0.4409
  426TMC3    C6 6408   0.430   0.478  17.160  0.0656  0.0045 -0.0966
  426TMC3     C 6409   0.293   0.756  17.442 -0.1990  0.4161 -0.3087
  426TMC3     O 6410   0.179   0.716  17.468 -0.0407  0.5551 -0.4779
  426TMC3     H 6411   0.442   0.820  17.233  1.1082 -0.6318  0.4352
  426TMC3    H1 6412   0.274   0.508  17.459  0.6884 -1.1738  0.1680
  426TMC3    H2 6413   0.453   0.416  17.074 -0.1806 -0.8817  0.4797
  426TMC3    C7 6414   0.264   0.334  17.249  0.2082  0.5250 -0.0763
  426TMC3    C8 6415   0.503   0.653  17.020 -1.0725 -0.3328 -0.3525
  426TMC3    O1 6416   0.299   0.247  17.174 -0.4474  0.2129  0.0841
  426TMC3    O2 6417   0.565   0.568  16.958 -0.2352 -0.1556 -0.5127
  427MPD2     C 6418   3.758   3.272  14.664 -0.2054  0.0013 -0.0257
  427MPD2    C1 6419   3.695   3.186  14.743 -1.0700  0.4644  0.0225
  427MPD2    C2 6420   3.560   3.152  14.716 -0.2059 -0.3513  0.1524
  427MPD2    C3 6421   3.490   3.216  14.613 -0.4270 -0.1580  0.0460
  427MPD2    C4 6422   3.553   3.314  14.543  0.0772 -0.2339 -0.3260
  427MPD2    C5 6423   3.690   3.329  14.557 -0.7036  0.2296 -0.7360
  427MPD2     H 6424   3.525   3.076  14.785  1.3221 -1.6300 -0.4656
  427MPD2    H1 6425   3.506   3.361  14.457 -2.5721  1.3374  1.9643
  427MPD2    H2 6426   3.866   3.282  14.671 -0.5260  1.4427  3.0363
  427MPD2    H3 6427   3.748   3.401  14.501  1.6467 -2.1039 -1.2240
  427MPD2     N 6428   3.368   3.170  14.572  0.2345  0.1977  0.0034
  427MPD2    H5 6429   3.328   3.217  14.492  0.3852  0.4134  0.0555
  427MPD2    N1 6430   3.761   3.110  14.841 -0.1164 -0.4166 -0.0485
  427MPD2    H7 6431   3.705   3.046  14.896  1.8849 -1.9865  0.1443
  428TMC3    C1 6432   3.936   3.047  15.001 -0.3538  0.1226 -0.4297
  428TMC3    C2 6433   3.859   2.952  15.052  0.5829 -0.2405 -0.4395
  428TMC3    C3 6434   3.909   2.888  15.164  0.3747  0.2471 -0.4102
  428TMC3    C4 6435   4.064   3.076  15.042  0.0520 -0.3436  0.1928
  428TMC3    C5 6436   4.110   3.010  15.152  0.6581 -0.4856 -0.3357
  428TMC3    C6 6437   4.031   2.919  15.220 -0.8063 -0.1030 -0.0032
  428TMC3     C 6438   3.897   3.109  14.874  0.3499 -0.2375 -0.1477
  428TMC3     O 6439   3.991   3.149  14.806 -1.1704 -0.7179 -0.2704
  428TMC3     H 6440   3.777   2.900  15.004  0.4731  1.0996 -1.6832
  428TMC3    H1 6441   4.110   3.167  15.006  1.5420 -1.7740 -1.4952
  428TMC3    H2 6442   4.057   2.880  15.318 -2.4032  0.2388  0.5609
  428TMC3    C7 6443   4.201   3.085  15.234 -0.0218 -0.4817  0.1092
  428TMC3    C8 6444   3.818   2.806  15.252  0.2759 -0.6145 -0.1964
  428TMC3    O1 6445   4.173   3.079  15.348 -0.5453  0.4146 -0.3566
  428TMC3    O2 6446   3.865   2.731  15.332 -0.0598  0.3037  0.1629
  429MPD2     C 6447   4.608   3.032  17.580 -0.0018 -0.2592 -0.1297
  429MPD2    C1 6448   4.713   2.984  17.495 -0.0751  0.6807 -0.6113
  429MPD2    C2 6449   0.061   3.075  17.444  0.0167  0.5314  0.3151
  429MPD2    C3 6450   0.043   3.209  17.467 -1.0682  0.0549  0.0873
  429MPD2    C4 6451   4.678   3.255  17.542 -0.1478 -0.0374  0.5443
  429MPD2    C5 6452   4.593   3.163  17.593  0.2019 -0.2594  0.3203
  429MPD2     H 6453   0.147   3.030  17.394 -0.0636 -0.1069  0.7538
  429MPD2    H1 6454   4.666   3.358  17.571 -2.2632 -0.0184 -0.3916
  429MPD2    H2 6455   4.536   2.969  17.630  0.5755 -0.6214  0.2492
  429MPD2    H3 6456   4.510   3.201  17.652 -0.5636 -0.5939 -0.5397
  429MPD2     N 6457   0.120   3.305  17.396 -0.5445  0.3338  0.1390
  429MPD2    H5 6458   0.184   3.263  17.329 -0.7429 -0.9238  0.7430
  429MPD2    N1 6459   4.716   2.853  17.443 -0.2253  0.5890  0.1917
  429MPD2    H7 6460   0.039   2.832  17.365 -0.4943 -2.6006  0.8329
  430TMC3    C1 6461   0.192   3.514  17.302  0.2173  0.0732  0.3999
  430TMC3    C2 6462   0.137   3.623  17.232 -0.8491 -0.0645  0.0137
  430TMC3    C3 6463   0.198   3.665  17.119  0.4953 -0.1113  0.7492
  430TMC3    C4 6464   0.303   3.452  17.254 -0.0143 -0.6217  0.2431
  430TMC3    C5 6465   0.368   3.507  17.149  0.0954  0.4387 -0.6442
  430TMC3    C6 6466   0.307   3.602  17.070 -0.2271  0.1632  0.0417
  430TMC3     C 6467   0.113   3.445  17.400  0.6469 -0.1275 -0.0168
  430TMC3     O 6468   0.049   3.519  17.476 -0.5526  0.1627  0.2357
  430TMC3     H 6469   0.047   3.677  17.260 -1.4100 -1.7048  1.3689
  430TMC3    H1 6470   0.359   3.383  17.315 -1.8880 -3.0084 -0.7524
  430TMC3    H2 6471   0.363   3.658  16.997  0.2667 -0.7918 -0.3095
  430TMC3    C7 6472   0.486   3.436  17.089  0.1419 -0.1216 -0.2284
  430TMC3    C8 6473   0.117   3.740  17.021 -0.2786 -0.8072  0.4583
  430TMC3    O1 6474   0.503   3.319  17.115 -0.5988  0.3801  0.1276
  430TMC3    O2 6475   0.021   3.801  17.071 -0.1679 -0.1020 -0.2669
  431MPD2     C 6476   0.292   3.666  12.583 -0.3153 -0.2183 -0.8244
  431MPD2    C1 6477   0.361   3.737  12.489  0.4705 -0.1296 -0.0570
  431MPD2    C2 6478   0.373   3.687  12.360  0.3641 -0.2816 -0.3360
  431MPD2    C3 6479   0.332   3.552  12.334 -0.1872  0.5998  0.5757
  431MPD2    C4 6480   0.259   3.486  12.422 -1.0341 -0.1927 -0.0932
  431MPD2    C5 6481   0.231   3.546  12.544 -0.5487 -0.7072  0.1823
  431MPD2     H 6482   0.421   3.750  12.285  0.1591 -0.4889 -0.6441
  431MPD2    H1 6483   0.225   3.383  12.415 -1.2726 -0.0274 -1.2732
  431MPD2    H2 6484   0.268   3.694  12.685 -1.3943 -2.6409 -0.4121
  431MPD2    H3 6485   0.176   3.486  12.616 -1.5975  1.1501  0.9067
  431MPD2     N 6486   0.392   3.477  12.236 -0.8292  0.0329 -0.4340
  431MPD2    H5 6487   0.348   3.386  12.223 -0.4550 -0.2088  0.0065
  431MPD2    N1 6488   0.424   3.857  12.517 -0.3844 -0.4008 -0.1985
  431MPD2    H7 6489   0.474   3.909  12.445 -1.3812  0.4433 -0.2746
  432TMC3    C1 6490   0.586   3.389  12.132 -0.2818  0.4956  0.1955
  432TMC3    C2 6491   0.656   3.412  12.014  0.3918 -0.3366 -0.4322
  432TMC3    C3 6492   0.792   3.381  12.015 -0.4189  0.4589  0.7310
  432TMC3    C4 6493   0.648   3.345  12.251  0.0804  0.1091 -0.5772
  432TMC3    C5 6494   0.779   3.312  12.243 -0.6537 -0.2182  0.1424
  432TMC3    C6 6495   0.856   3.325  12.123  0.3865  0.3108  0.0602
  432TMC3     C 6496   0.505   3.503  12.168  0.1163  0.2283  0.0813
  432TMC3     O 6497   0.558   3.610  12.144  0.5495  0.0535 -0.0754
  432TMC3     H 6498   0.615   3.475  11.936 -2.9702 -0.2630  1.3917
  432TMC3    H1 6499   0.582   3.336  12.336  1.0594  0.8488  0.2718
  432TMC3    H2 6500   0.952   3.274  12.122  0.0636 -0.3392  3.4531
  432TMC3    C7 6501   0.854   3.278  12.364  0.4241 -0.4707  0.6027
  432TMC3    C8 6502   0.875   3.431  11.903 -0.1270  0.5275 -0.6023
  432TMC3    O1 6503   0.974   3.260  12.347  0.2831  0.1598  0.2499
  432TMC3    O2 6504   0.824   3.448  11.789 -0.0213  0.2031 -0.4556
  433MPD2     C 6505   4.200   2.542  10.870 -0.6138  0.3389 -0.2898
  433MPD2    C1 6506   4.126   2.482  10.968  0.3680  0.1477  0.7135
  433MPD2    C2 6507   4.140   2.518  11.101  0.6940 -0.0819 -0.3229
  433MPD2    C3 6508   4.225   2.618  11.136 -0.3146 -0.4545  0.2750
  433MPD2    C4 6509   4.297   2.678  11.038  0.1162  0.4196  0.2715
  433MPD2    C5 6510   4.287   2.629  10.906  0.8387 -0.4122 -0.6840
  433MPD2     H 6511   4.082   2.471  11.179 -2.4969  4.5885  0.1011
  433MPD2    H1 6512   4.369   2.756  11.060 -0.7312  1.2153  0.2034
  433MPD2    H2 6513   4.187   2.517  10.765  0.2266  1.2134 -0.5991
  433MPD2    H3 6514   4.363   2.669  10.840 -1.5906  3.8154 -0.9194
  433MPD2     N 6515   4.244   2.645  11.272  0.0338 -0.3724  0.2658
  433MPD2    H5 6516   4.192   2.588  11.338 -1.1173 -0.6324 -0.8733
  433MPD2    N1 6517   4.030   2.379  10.930 -1.0743  0.3562 -0.2484
  433MPD2    H7 6518   4.022   2.364  10.830 -0.6170  0.0090 -0.2339
  434TMC3    C1 6519   3.914   2.169  10.939 -0.5506 -0.1636  0.1015
  434TMC3    C2 6520   4.000   2.093  10.876  0.1422 -0.6229 -0.7471
  434TMC3    C3 6521   3.994   1.956  10.894 -0.7657 -0.5149 -0.4354
  434TMC3    C4 6522   3.807   2.116  11.001  0.3945  0.1084  0.0760
  434TMC3    C5 6523   3.789   1.985  10.996 -0.2798  0.0068 -1.0316
  434TMC3    C6 6524   3.884   1.898  10.944  0.0803 -0.7668  0.4984
  434TMC3     C 6525   3.969   2.288  11.013  0.2075  0.2371  0.4983
  434TMC3     O 6526   3.956   2.287  11.132  0.1324  0.2450  0.0087
  434TMC3     H 6527   4.077   2.131  10.810 -0.8029  0.3851 -1.2712
  434TMC3    H1 6528   3.737   2.180  11.054  0.8655  1.1171 -0.5261
  434TMC3    H2 6529   3.883   1.790  10.953 -1.6515 -0.6919  1.1819
  434TMC3    C7 6530   3.673   1.937  11.061  0.4754  0.5978 -0.3076
  434TMC3    C8 6531   4.118   1.879  10.903 -0.0957  0.6215 -0.6103
  434TMC3    O1 6532   3.636   2.000  11.156 -0.0090 -0.1821 -0.2624
  434TMC3    O2 6533   4.101   1.767  10.948  0.8192  0.4155  0.3295
  435MPD2     C 6534   1.838   1.915  15.432 -0.2267  0.7553  0.3440
  435MPD2    C1 6535   1.750   1.868  15.529 -0.5390 -0.4384 -1.2825
  435MPD2    C2 6536   1.801   1.806  15.646  0.8693 -0.0169  0.8226
  435MPD2    C3 6537   1.934   1.805  15.668 -0.8169 -0.4594 -0.0233
  435MPD2    C4 6538   2.025   1.865  15.579  0.1809  0.1067  0.8807
  435MPD2    C5 6539   1.972   1.902  15.456  0.3938  0.3945  0.2307
  435MPD2     H 6540   1.734   1.756  15.714 -0.3733  0.4655 -0.0426
  435MPD2    H1 6541   2.131   1.874  15.604  0.2485  1.1946  0.2069
  435MPD2    H2 6542   1.795   1.972  15.350  0.9254  1.0879 -0.0213
  435MPD2    H3 6543   2.046   1.935  15.385  1.2463  0.3096  1.0817
  435MPD2     N 6544   1.963   1.748  15.792  0.2998 -0.5074 -0.2779
  435MPD2    H5 6545   1.889   1.696  15.838  0.4167 -1.6246 -1.3251
  435MPD2    N1 6546   1.609   1.877  15.511 -0.0518  0.5902 -1.0593
  435MPD2    H7 6547   1.544   1.858  15.587 -0.0991 -0.7537 -1.4502
  436TMC3    C1 6548   1.276   1.705  15.518  0.1739  0.0001 -0.6904
  436TMC3    C2 6549   1.344   1.827  15.504 -0.3875  0.1915  1.2327
  436TMC3    C3 6550   1.406   1.857  15.386 -0.5660 -0.0861 -0.8356
  436TMC3    C4 6551   1.263   1.623  15.408  0.4636  0.0519  0.2949
  436TMC3    C5 6552   1.299   1.670  15.288  0.1848  0.2482 -0.0600
  436TMC3    C6 6553   1.366   1.794  15.268  0.2619 -0.7281 -0.2678
  436TMC3     C 6554   1.229   1.655  15.647  0.3832 -0.5542  0.3321
  436TMC3     O 6555   1.215   1.532  15.664 -0.0972 -0.0986 -0.1880
  436TMC3     H 6556   1.361   1.891  15.590 -0.1972  1.0402  0.5696
  436TMC3    H1 6557   1.216   1.526  15.415  1.8054 -0.5874  0.5317
  436TMC3    H2 6558   1.409   1.822  15.173  0.8819  0.7345  0.4455
  436TMC3    C7 6559   1.215   1.627  15.170 -0.0026 -0.1788 -0.0633
  436TMC3    C8 6560   1.549   1.896  15.386  0.1629 -0.2758  0.0832
  436TMC3    O1 6561   1.191   1.511  15.161  0.0015  0.2374  0.2260
  436TMC3    O2 6562   1.599   1.884  15.274  0.1558 -0.5218  0.0742
  437TMC3    C1 6563   0.160   0.057  12.694  0.1020 -0.4896  0.1949
  437TMC3    C2 6564   0.107   0.099  12.575  0.4586  0.2659  0.1919
  437TMC3    C3 6565   0.178   0.064  12.461 -0.0918 -0.0783 -0.0138
  437TMC3    C4 6566   0.275   4.721  12.701 -0.2105 -0.6870 -0.0205
  437TMC3    C5 6567   0.348   4.686  12.590 -0.8472 -0.6682  0.3326
  437TMC3    C6 6568   0.296   4.723  12.463 -0.1044  0.9429 -1.1359
  437TMC3     C 6569   0.107   0.094  12.822  0.3735  0.4136  0.5578
  437TMC3     O 6570   0.168   0.054  12.924 -0.8583 -0.1324 -0.6093
  437TMC3     H 6571   0.012   0.151  12.576 -0.7786 -1.9219 -1.3542
  437TMC3    H1 6572   0.320   4.695  12.796  0.8773  0.8018 -0.1268
  437TMC3    H2 6573   0.352   4.713  12.371  0.3711 -0.0485 -0.7423
  437TMC3    C7 6574   0.466   4.605  12.598  0.1010 -0.0489 -0.1432
  437TMC3    C8 6575   0.152   0.131  12.336  0.3491 -0.3831  0.2213
  437TMC3    O1 6576   0.493   4.558  12.707 -0.1169  0.2221 -0.5829
  437TMC3    O2 6577   0.127   0.252  12.352 -0.6884 -0.1736 -0.2121
  438MPD2     C 6578   2.951   0.096  16.586 -0.6344 -0.5870 -0.2507
  438MPD2    C1 6579   3.018   4.736  16.656  0.5618  0.3312  0.3080
  438MPD2    C2 6580   3.060   0.016  16.788 -0.2207  0.1965  0.2166
  438MPD2    C3 6581   3.024   0.127  16.853 -0.7551 -0.9067 -0.1858
  438MPD2    C4 6582   2.957   0.224  16.787  0.2867  0.3381  0.2669
  438MPD2    C5 6583   2.926   0.211  16.656 -0.5594 -0.7778  0.2418
  438MPD2     H 6584   3.109   4.678  16.846  0.6161 -0.0549 -0.8132
  438MPD2    H1 6585   2.935   0.319  16.835  1.4100 -1.4002  4.2013
  438MPD2    H2 6586   2.920   0.093  16.482 -0.5224  0.9779 -0.3159
  438MPD2    H3 6587   2.884   0.295  16.603  3.0445 -0.3724 -1.8955
  438MPD2     N 6588   3.043   0.159  16.992 -0.2085  0.2099 -1.1988
  438MPD2    H5 6589   3.022   0.252  17.026  0.6820 -0.5417  1.4873
  438MPD2    N1 6590   3.053   4.612  16.600  0.2954  0.7403  0.2680
  438MPD2    H7 6591   3.098   4.544  16.660  1.2632  0.8526 -0.3261
  439TMC3    C1 6592   3.034   4.422  16.472 -0.1088  0.5653 -0.4896
  439TMC3    C2 6593   2.960   4.345  16.384 -0.5136  0.2702  0.7694
  439TMC3    C3 6594   2.968   4.213  16.398 -0.0832 -0.4337  0.3771
  439TMC3    C4 6595   3.133   4.368  16.549  0.9718  0.0599 -0.1960
  439TMC3    C5 6596   3.129   4.234  16.557  0.4105  0.0388 -0.6907
  439TMC3    C6 6597   3.038   4.160  16.493  0.6668 -0.3632  0.2369
  439TMC3     C 6598   3.003   4.557  16.484  0.1251  0.2023  0.3585
  439TMC3     O 6599   2.919   4.603  16.406 -0.0125 -0.4947  0.4106
  439TMC3     H 6600   2.910   4.405  16.309  2.3657  1.8758  0.1146
  439TMC3    H1 6601   3.201   4.431  16.606 -1.0280  0.4688  1.7463
  439TMC3    H2 6602   3.041   4.054  16.515 -1.1857 -0.1548  1.4363
  439TMC3    C7 6603   3.257   4.180  16.587  0.6057  0.3685 -0.7719
  439TMC3    C8 6604   3.003   4.147  16.274 -0.3000  0.5205 -0.5092
  439TMC3    O1 6605   3.330   4.229  16.673 -0.2579 -0.3035 -0.2023
  439TMC3    O2 6606   3.089   4.063  16.288 -0.4872  0.5719  0.3927
  440MPD2     C 6607   2.051   4.595  15.289  0.1628  0.1046  0.3950
  440MPD2    C1 6608   2.014   4.720  15.332 -0.0677 -0.1493  0.2097
  440MPD2    C2 6609   2.107   0.066  15.385 -0.1252 -0.3490 -0.8093
  440MPD2    C3 6610   2.241   0.036  15.381  0.0560 -0.1727 -0.2666
  440MPD2    C4 6611   2.276   4.647  15.332  0.6890  0.2738 -0.4400
  440MPD2    C5 6612   2.182   4.566  15.279 -0.0557 -0.1572 -0.8233
  440MPD2     H 6613   2.082   0.165  15.421  0.6720 -0.2713 -0.4702
  440MPD2    H1 6614   2.381   4.618  15.340  1.2207  2.0695 -0.9600
  440MPD2    H2 6615   1.981   4.514  15.271 -0.4607  0.4317  1.3251
  440MPD2    H3 6616   2.221   4.466  15.266  0.3417 -0.2478  0.9962
  440MPD2     N 6617   2.343   0.127  15.422  0.0628  0.3941 -0.2175
  440MPD2    H5 6618   2.442   0.107  15.409 -0.7187 -3.3799 -0.5525
  440MPD2    N1 6619   1.881   0.019  15.331 -0.2641 -0.1273 -0.0461
  440MPD2    H7 6620   1.865   0.100  15.390 -0.7633 -1.3360  1.4968
  441TMC3    C1 6621   2.445   0.282  15.557 -0.4874  0.1167 -0.0684
  441TMC3    C2 6622   2.421   0.393  15.635  0.3959 -0.2996  0.7161
  441TMC3    C3 6623   2.447   0.387  15.765  0.2120 -0.1541 -0.2569
  441TMC3    C4 6624   2.510   0.179  15.617 -0.1518 -1.7662  0.4869
  441TMC3    C5 6625   2.524   0.168  15.756  0.5659  1.3349 -0.3401
  441TMC3    C6 6626   2.497   0.281  15.828 -0.4115  0.3107 -0.0820
  441TMC3     C 6627   2.330   0.253  15.479 -0.2735  0.0236  0.5733
  441TMC3     O 6628   2.232   0.318  15.515 -0.4830  0.0332 -0.4770
  441TMC3     H 6629   2.396   0.480  15.575 -0.4742  0.3612  2.0416
  441TMC3    H1 6630   2.540   0.090  15.563  0.1237 -0.0778 -2.1347
  441TMC3    H2 6631   2.516   0.284  15.934  1.5034 -0.2231 -0.4061
  441TMC3    C7 6632   2.443   0.057  15.799 -0.5725 -0.6007 -0.8279
  441TMC3    C8 6633   2.342   0.462  15.842 -0.1240 -1.4293  0.0634
  441TMC3    O1 6634   2.329   0.082  15.842  0.1516 -0.3136 -0.0630
  441TMC3    O2 6635   2.340   0.457  15.963 -0.0282 -0.2012  0.5360
  442MPD2     C 6636   4.732   0.812  16.696 -0.6228  0.1984  0.3603
  442MPD2    C1 6637   4.651   0.713  16.748  0.8157 -0.5777 -0.5059
  442MPD2    C2 6638   4.660   0.585  16.695 -0.1701  0.2650  0.2845
  442MPD2    C3 6639   0.020   0.550  16.603  0.0984  0.2002 -0.9082
  442MPD2    C4 6640   0.110   0.649  16.564 -0.2618 -0.6292  0.0504
  442MPD2    C5 6641   0.085   0.779  16.603  0.4822 -0.0302  0.4637
  442MPD2     H 6642   4.593   0.510  16.735  0.3560 -0.2184  0.2724
  442MPD2    H1 6643   0.186   0.623  16.492 -1.3053  1.3070 -1.7578
  442MPD2    H2 6644   4.715   0.917  16.718 -1.9074  0.0629  0.0151
  442MPD2    H3 6645   0.144   0.857  16.557 -0.5785 -0.1787 -1.1782
  442MPD2     N 6646   0.029   0.424  16.544 -0.6615  0.3423 -0.8738
  442MPD2    H5 6647   0.103   0.423  16.474  0.0654  1.2812 -0.1158
  442MPD2    N1 6648   4.563   0.733  16.856 -0.5327  0.3812  0.6003
  442MPD2    H7 6649   4.520   0.649  16.892  0.5217 -0.6314 -0.4960
  443TMC3    C1 6650   4.417   0.851  16.995  0.3175 -0.0908  1.0937
  443TMC3    C2 6651   4.312   0.921  16.945 -0.0269 -0.6715  0.1713
  443TMC3    C3 6652   4.188   0.889  16.963 -0.1805 -0.1393  0.0348
  443TMC3    C4 6653   4.385   0.750  17.087 -0.0393  0.1676  0.7066
  443TMC3    C5 6654   4.254   0.717  17.101 -0.7813  0.7544 -0.2425
  443TMC3    C6 6655   4.156   0.791  17.044 -0.1727  0.1611  0.2487
  443TMC3     C 6656   4.536   0.854  16.912 -0.0486 -0.0764 -0.3770
  443TMC3     O 6657   4.575   0.963  16.876 -0.1974  0.2267  0.6666
  443TMC3     H 6658   4.347   0.996  16.874  1.2769 -1.0035  0.4524
  443TMC3    H1 6659   4.472   0.700  17.129 -0.4708 -2.1496 -1.1396
  443TMC3    H2 6660   4.051   0.768  17.055 -0.0755 -1.0826 -1.5515
  443TMC3    C7 6661   4.232   0.584  17.164  0.5309  0.7799 -0.2078
  443TMC3    C8 6662   4.128   0.867  16.837 -0.3725  0.1896 -0.0368
  443TMC3    O1 6663   4.314   0.492  17.163 -0.3065  0.4481 -0.2851
  443TMC3    O2 6664   4.094   0.756  16.811 -0.6673 -0.0418  0.2518
  444MPD2     C 6665   0.112   0.290  16.901 -0.3988 -0.1116 -0.4523
  444MPD2    C1 6666   0.072   0.160  16.932  0.0252  0.6339  0.0142
  444MPD2    C2 6667   0.132   0.053  16.864 -0.2954 -0.3045 -0.7210
  444MPD2    C3 6668   0.231   0.083  16.769  0.3590 -0.2300 -0.2118
  444MPD2    C4 6669   0.268   0.215  16.740 -0.4084  0.4176 -0.1635
  444MPD2    C5 6670   0.197   0.316  16.801  0.2677  0.0864  0.3005
  444MPD2     H 6671   0.106   4.689  16.886 -0.5369  0.0923  0.8562
  444MPD2    H1 6672   0.347   0.232  16.667 -1.5107 -1.2027 -1.7087
  444MPD2    H2 6673   0.057   0.379  16.933  0.4425  1.6063 -3.8434
  444MPD2    H3 6674   0.230   0.416  16.774  1.1623 -0.6087 -1.1524
  444MPD2     N 6675   0.273   4.715  16.686  0.1498 -0.0194  0.4838
  444MPD2    H5 6676   0.231   4.623  16.698 -1.3960  0.6273  0.0081
  444MPD2    N1 6677   4.706   0.126  17.025  0.0471 -0.3260 -0.3791
  444MPD2    H7 6678   4.703   0.031  17.060  1.4036  0.5333  2.0690
  445TMC3    C1 6679   0.435   4.573  16.581  0.3769 -0.2547  0.0725
  445TMC3    C2 6680   0.345   4.487  16.547 -0.0525  0.0898  0.6697
  445TMC3    C3 6681   0.390   4.353  16.530  0.1851  0.8426 -0.3939
  445TMC3    C4 6682   0.567   4.545  16.594 -0.1915  0.0585 -0.0643
  445TMC3    C5 6683   0.604   4.414  16.571 -0.5149 -0.2061 -0.2564
  445TMC3    C6 6684   0.521   4.311  16.545  0.9941  0.3100  0.2311
  445TMC3     C 6685   0.401   4.711  16.627  0.6901  0.7093  0.4591
  445TMC3     O 6686   0.492   0.056  16.619  0.5643  0.0022 -0.2723
  445TMC3     H 6687   0.246   4.512  16.510 -0.5857 -2.9989  0.0053
  445TMC3    H1 6688   0.640   4.620  16.621  1.2127 -2.0185  1.8870
  445TMC3    H2 6689   0.552   4.211  16.518  2.7646  0.7385  0.6349
  445TMC3    C7 6690   0.742   4.385  16.556 -0.3418  0.1246 -0.6120
  445TMC3    C8 6691   0.314   4.250  16.468 -0.4363 -0.1288  0.0483
  445TMC3    O1 6692   0.816   4.461  16.500 -0.1536  0.0776 -0.7341
  445TMC3    O2 6693   0.356   4.133  16.466 -0.0832  0.1212  0.4106
  446MPD2     C 6694   3.959   1.737  11.417  0.0139  0.4858 -0.2510
  446MPD2    C1 6695   3.889   1.847  11.378 -0.8679 -0.3145 -0.1151
  446MPD2    C2 6696   3.969   1.950  11.340  0.7246  0.4284  0.0719
  446MPD2    C3 6697   4.100   1.941  11.315 -0.4844 -0.5162  0.7292
  446MPD2    C4 6698   4.167   1.827  11.351  0.5124  0.2597  0.5514
  446MPD2    C5 6699   4.096   1.726  11.403  0.2945  0.3187  0.6859
  446MPD2     H 6700   3.916   2.042  11.319  4.7359  3.0856  1.6851
  446MPD2    H1 6701   4.275   1.823  11.348  0.4225  0.7330 -2.8125
  446MPD2    H2 6702   3.921   1.647  11.464 -1.2115  0.6739 -0.8810
  446MPD2    H3 6703   4.147   1.632  11.425 -0.6029 -1.0519 -3.2314
  446MPD2     N 6704   4.162   2.055  11.263  0.3189  0.0699 -0.3890
  446MPD2    H5 6705   4.093   2.128  11.249  0.6485  0.2741 -0.9248
  446MPD2    N1 6706   3.748   1.861  11.402 -0.2484  0.3009  0.1041
  446MPD2    H7 6707   3.701   1.942  11.363 -0.5740 -0.0561 -0.2384
  447TMC3    C1 6708   4.339   2.206  11.219 -0.0160  0.9812  0.6819
  447TMC3    C2 6709   4.321   2.220  11.091 -0.2962 -0.6040  0.3410
  447TMC3    C3 6710   4.388   2.314  11.014  0.2117  0.5163 -0.4303
  447TMC3    C4 6711   4.439   2.270  11.284 -0.4732  0.4264  0.1007
  447TMC3    C5 6712   4.516   2.359  11.211  0.6940  0.3014  0.2250
  447TMC3    C6 6713   4.487   2.386  11.080  0.0883 -0.6139  0.2754
  447TMC3     C 6714   4.297   2.084  11.275  0.6259  0.8038  0.0184
  447TMC3     O 6715   4.385   2.023  11.332  0.1721  1.0741  0.4554
  447TMC3     H 6716   4.242   2.166  11.040  3.0717 -2.3444 -3.1222
  447TMC3    H1 6717   4.452   2.234  11.385 -2.2199 -1.5992 -0.3899
  447TMC3    H2 6718   4.541   2.465  11.029  2.5708 -2.9019 -0.6362
  447TMC3    C7 6719   4.653   2.381  11.248  0.7195  0.1425 -0.4808
  447TMC3    C8 6720   4.380   2.280  10.870  0.4570  0.1080 -0.6094
  447TMC3    O1 6721   4.737   2.404  11.160 -0.2769 -0.8854 -0.3360
  447TMC3    O2 6722   4.283   2.216  10.825  0.1586 -0.1696 -0.0214
  448TMC3    C1 6723   2.440   0.702  17.101  0.6302 -0.2234 -0.5112
  448TMC3    C2 6724   2.517   0.705  16.988  0.0436 -0.1062 -0.5282
  448TMC3    C3 6725   2.651   0.713  17.008 -0.2940 -0.7644 -0.1789
  448TMC3    C4 6726   2.492   0.698  17.222  0.2205  0.3599  0.8542
  448TMC3    C5 6727   2.623   0.711  17.239  0.3325  0.0928 -0.4292
  448TMC3    C6 6728   2.702   0.705  17.133  0.1329  0.5000  1.2855
  448TMC3     C 6729   2.296   0.715  17.094 -0.0503  0.0240 -0.2829
  448TMC3     O 6730   2.233   0.768  17.187 -0.2253  0.1876  0.5304
  448TMC3     H 6731   2.472   0.714  16.890  0.9637 -0.1377 -0.9565
  448TMC3    H1 6732   2.423   0.705  17.305 -1.6547 -0.0876 -0.6858
  448TMC3    H2 6733   2.809   0.690  17.143  0.4030  2.1302  0.8748
  448TMC3    C7 6734   2.675   0.781  17.355  0.6595 -0.0478  0.2274
  448TMC3    C8 6735   2.739   0.673  16.894  0.6840  0.5607 -0.0388
  448TMC3    O1 6736   2.603   0.865  17.396  0.0217  0.3024  0.2993
  448TMC3    O2 6737   2.841   0.616  16.928  0.2163 -0.5290  0.1665
  449MPD2     C 6738   4.523   4.392  13.696  0.3452  0.0575  0.3004
  449MPD2    C1 6739   4.390   4.405  13.656  0.1066 -0.7043  0.3915
  449MPD2    C2 6740   4.335   4.309  13.571  0.0752 -0.1069  0.3698
  449MPD2    C3 6741   4.412   4.216  13.512  0.3484  0.2785 -0.2259
  449MPD2    C4 6742   4.547   4.206  13.538 -0.0198 -0.0397 -0.0439
  449MPD2    C5 6743   4.598   4.294  13.631 -0.5334 -0.1683 -0.3951
  449MPD2     H 6744   4.229   4.324  13.551  0.3254 -0.5639 -1.2490
  449MPD2    H1 6745   4.606   4.126  13.496 -0.1040 -0.4579  0.6315
  449MPD2    H2 6746   4.569   4.460  13.767  0.7580  1.3792 -1.2215
  449MPD2    H3 6747   4.704   4.294  13.651 -0.2873 -0.3784 -1.7458
  449MPD2     N 6748   4.343   4.133  13.419  0.0213  0.2808 -0.1272
  449MPD2    H5 6749   4.248   4.156  13.391  0.1362 -0.6292 -1.2623
  449MPD2    N1 6750   4.302   4.506  13.703 -0.3383  0.1396  1.5227
  449MPD2    H7 6751   4.207   4.503  13.669 -0.4412 -2.3428  2.0762
  450TMC3    C1 6752   4.218   4.685  13.821  0.3409 -0.5399 -0.3991
  450TMC3    C2 6753   4.216   0.081  13.807  0.0519 -0.1454  0.0152
  450TMC3    C3 6754   4.117   0.145  13.739 -0.3928 -0.0184 -0.2330
  450TMC3    C4 6755   4.104   4.617  13.794  0.5340  0.2586 -0.6112
  450TMC3    C5 6756   4.005   4.681  13.732 -0.0560 -0.0405  0.6623
  450TMC3    C6 6757   4.007   0.076  13.702  0.1681 -0.2326  0.2527
  450TMC3     C 6758   4.337   4.606  13.784 -0.0469  0.3653 -0.2411
  450TMC3     O 6759   4.445   4.652  13.810 -0.2665  0.3365  0.0847
  450TMC3     H 6760   4.312   0.130  13.819  0.9893 -1.9899  0.2157
  450TMC3    H1 6761   4.084   4.520  13.837  2.0438  0.5482  0.7824
  450TMC3    H2 6762   3.933   0.121  13.636 -0.6795  1.4284  2.3821
  450TMC3    C7 6763   3.962   4.596  13.625 -0.2024 -0.5909 -0.4917
  450TMC3    C8 6764   4.143   0.275  13.680 -0.0143  0.7203  0.6135
  450TMC3    O1 6765   4.030   4.494  13.624  0.3880 -0.2567 -0.9583
  450TMC3    O2 6766   4.037   0.326  13.650 -0.1272 -0.2677  0.2088
  451MPD2     C 6767   0.579   2.522   1.091  0.3593  0.6202  0.4595
  451MPD2    C1 6768   0.547   2.584   0.973 -1.0315 -0.1794 -0.1448
  451MPD2    C2 6769   0.632   2.590   0.864  0.2434 -0.1513 -0.4510
  451MPD2    C3 6770   0.759   2.535   0.887 -0.2913  0.2030 -0.5144
  451MPD2    C4 6771   0.799   2.477   1.008 -0.5253  0.9038 -0.9617
  451MPD2    C5 6772   0.707   2.468   1.105 -0.0355  0.4451 -0.4285
  451MPD2     H 6773   0.608   2.640   0.771 -0.5917 -0.7488 -0.5621
  451MPD2    H1 6774   0.893   2.426   1.026 -0.3436  1.0670 -1.4774
  451MPD2    H2 6775   0.505   2.505   1.168 -0.3379 -1.4775 -0.6683
  451MPD2    H3 6776   0.732   2.407   1.191 -2.4011 -1.1716 -0.9049
  451MPD2     N 6777   0.858   2.539   0.782 -0.2497 -0.3080 -0.2387
  451MPD2    H5 6778   0.943   2.486   0.801  0.0321  1.3944  3.1762
  451MPD2    N1 6779   0.415   2.624   0.959  1.0149  0.3627 -0.3875
  451MPD2    H7 6780   0.353   2.610   1.038  1.9965 -2.8464 -0.1545
  452TMC3    C1 6781   0.953   2.556   0.566  0.8460 -0.3514  0.1950
  452TMC3    C2 6782   0.987   2.424   0.548  0.1712 -0.5669 -0.5091
  452TMC3    C3 6783   1.034   2.377   0.425 -0.3000  0.2930 -0.0203
  452TMC3    C4 6784   0.976   2.647   0.470 -0.2632 -0.3314 -0.6743
  452TMC3    C5 6785   1.014   2.595   0.339 -0.0785  0.2114 -0.0227
  452TMC3    C6 6786   1.050   2.458   0.317  0.4563 -0.3321  0.5359
  452TMC3     C 6787   0.845   2.602   0.657 -0.0328  0.6623 -0.9926
  452TMC3     O 6788   0.770   2.691   0.615  0.5102 -0.6879  0.3102
  452TMC3     H 6789   0.967   2.353   0.627 -1.3298 -0.3040 -0.6614
  452TMC3    H1 6790   0.967   2.754   0.481 -0.8146 -0.4482  0.0654
  452TMC3    H2 6791   1.080   2.422   0.220  2.9459 -0.5422  1.3786
  452TMC3    C7 6792   1.014   2.694   0.238  0.2971 -0.4707 -0.0434
  452TMC3    C8 6793   1.080   2.240   0.416 -0.6210  0.0188 -0.0922
  452TMC3    O1 6794   1.073   2.799   0.264  0.1704 -0.1179 -0.1171
  452TMC3    O2 6795   1.100   2.199   0.304 -0.5051  0.2190  0.3123
  453TMC3    C1 6796   1.175   0.649  12.151  0.7311 -0.1993  0.4652
  453TMC3    C2 6797   1.161   0.513  12.135 -0.6449  0.9059 -0.3688
  453TMC3    C3 6798   1.045   0.471  12.067  1.1295  0.2269 -0.0880
  453TMC3    C4 6799   1.082   0.737  12.118 -0.6368 -0.2827  0.7827
  453TMC3    C5 6800   0.964   0.695  12.064 -0.0159  0.2769  0.9066
  453TMC3    C6 6801   0.943   0.559  12.043  0.0653 -0.7059  1.0721
  453TMC3     C 6802   1.285   0.689  12.241 -0.5807 -0.2318 -0.0558
  453TMC3     O 6803   1.332   0.801  12.236  0.4746 -0.3756  0.2662
  453TMC3     H 6804   1.251   0.452  12.139 -0.9888  0.3415 -1.4883
  453TMC3    H1 6805   1.102   0.843  12.129 -0.5039 -0.1744 -0.5644
  453TMC3    H2 6806   0.852   0.522  12.000  0.5864 -1.6298  0.7604
  453TMC3    C7 6807   0.851   0.784  12.057 -0.4824 -0.6376  0.0210
  453TMC3    C8 6808   1.014   0.331  12.045  0.0842  0.3265 -0.5531
  453TMC3    O1 6809   0.752   0.716  12.055  0.1916  0.1855 -0.2664
  453TMC3    O2 6810   0.976   0.292  11.935 -0.2367  0.2422  0.5601
  454MPD2     C 6811   0.895   4.729  16.104 -0.3893  0.3025  0.3531
  454MPD2    C1 6812   0.803   0.033  16.009  0.3077 -0.4839  0.6353
  454MPD2    C2 6813   0.746   0.158  16.019 -0.6314 -0.2640 -0.3260
  454MPD2    C3 6814   0.782   0.244  16.123 -0.0128 -0.5570  0.6580
  454MPD2    C4 6815   0.882   0.208  16.202 -0.6229 -0.1687  0.4096
  454MPD2    C5 6816   0.934   0.082  16.200  0.1978 -1.0323 -0.8240
  454MPD2     H 6817   0.655   0.181  15.965  0.2150  0.0640 -1.6286
  454MPD2    H1 6818   0.916   0.275  16.280 -0.4767 -1.5036  1.4888
  454MPD2    H2 6819   0.958   4.641  16.098 -0.6072  0.0422  1.9683
  454MPD2    H3 6820   1.021   0.054  16.259 -0.5007 -0.0940  0.6399
  454MPD2     N 6821   0.718   0.365  16.143  0.3659  0.1629  0.3137
  454MPD2    H5 6822   0.736   0.407  16.233  3.4967  0.6857 -0.5714
  454MPD2    N1 6823   0.760   4.687  15.905 -0.6670  0.4954 -0.5906
  454MPD2    H7 6824   0.698   4.737  15.843 -0.7664  1.5847  0.3787
  455TMC3    C1 6825   0.496   0.420  16.153  0.2881  0.0485  0.3636
  455TMC3    C2 6826   0.507   0.486  16.266  0.2061  0.4318  0.0867
  455TMC3    C3 6827   0.437   0.431  16.376  0.0344 -0.3084 -0.2913
  455TMC3    C4 6828   0.437   0.298  16.145  0.0736 -0.2895  0.8847
  455TMC3    C5 6829   0.393   0.239  16.255  0.6907  0.0894 -0.7489
  455TMC3    C6 6830   0.385   0.302  16.375  1.0379 -0.2489  0.4788
  455TMC3     C 6831   0.617   0.421  16.066 -0.3023 -0.3739 -0.1833
  455TMC3     O 6832   0.581   0.405  15.948  0.1638  0.3552 -0.1648
  455TMC3     H 6833   0.553   0.585  16.266 -0.0491  0.5610 -2.2569
  455TMC3    H1 6834   0.443   0.240  16.053 -0.8548  0.8477  0.1028
  455TMC3    H2 6835   0.349   0.259  16.468 -0.0742 -0.6186 -0.1185
  455TMC3    C7 6836   0.379   0.095  16.261  0.3921  0.6972  0.2240
  455TMC3    C8 6837   0.450   0.508  16.501  0.0958 -0.2381  0.1832
  455TMC3    O1 6838   0.274   0.046  16.290 -0.0504 -0.1099 -0.0143
  455TMC3    O2 6839   0.457   0.445  16.605 -0.0132 -0.5353 -0.8449
  456MPD2     C 6840   3.277   4.349  16.158 -0.0593  0.0748 -0.5299
  456MPD2    C1 6841   3.380   4.360  16.249  0.5538  0.9512  0.4587
  456MPD2    C2 6842   3.391   4.472  16.332 -0.1489  0.0384 -0.6158
  456MPD2    C3 6843   3.303   4.579  16.319  0.7328 -0.2443 -0.1575
  456MPD2    C4 6844   3.200   4.559  16.228  0.3385  0.4248  0.1181
  456MPD2    C5 6845   3.181   4.443  16.155 -0.2466  0.2874  0.5646
  456MPD2     H 6846   3.473   4.481  16.402 -1.5138 -1.9338  1.2477
  456MPD2    H1 6847   3.121   4.632  16.211 -0.2666 -0.6488 -1.6616
  456MPD2    H2 6848   3.272   4.274  16.080 -1.7204 -0.1809 -0.1811
  456MPD2    H3 6849   3.094   4.422  16.094  1.3923 -0.2820 -1.5771
  456MPD2     N 6850   3.331   4.694  16.397 -0.3278 -0.2694 -0.3584
  456MPD2    H5 6851   3.409   4.696  16.462 -1.5600  0.1672  1.1168
  456MPD2    N1 6852   3.479   4.260  16.248  0.2462 -0.3284  0.2610
  456MPD2    H7 6853   3.456   4.186  16.182  1.6152 -0.1760 -0.3860
  457TMC3    C1 6854   3.290   0.172  16.479 -0.2456  0.4370 -0.2971
  457TMC3    C2 6855   3.244   0.300  16.465 -0.7201  0.1774  0.5504
  457TMC3    C3 6856   3.264   0.392  16.563  0.5384 -0.5816 -0.0164
  457TMC3    C4 6857   3.349   0.130  16.604  0.6288  0.3202  0.0803
  457TMC3    C5 6858   3.372   0.226  16.695 -0.9489  0.1695 -0.4752
  457TMC3    C6 6859   3.335   0.356  16.673  0.0894 -0.3531 -0.2438
  457TMC3     C 6860   3.265   0.071  16.379  0.4045  0.4670  0.1470
  457TMC3     O 6861   3.188   0.106  16.289  0.0237 -0.2106 -0.0587
  457TMC3     H 6862   3.191   0.327  16.375  1.3266 -1.8717 -1.2616
  457TMC3    H1 6863   3.380   0.026  16.616 -2.2283 -0.6572 -1.0191
  457TMC3    H2 6864   3.369   0.439  16.734  1.6616 -0.8883 -0.3826
  457TMC3    C7 6865   3.392   0.190  16.830  0.1137 -0.2327 -0.5287
  457TMC3    C8 6866   3.159   0.480  16.607  0.3785  0.1549  0.3290
  457TMC3    O1 6867   3.380   0.070  16.844 -0.4543 -0.1685 -0.5141
  457TMC3    O2 6868   3.155   0.499  16.729  0.1242 -0.1186  0.1526
  458MPD2     C 6869   0.904   4.447  12.400 -0.5050  0.1593 -0.0336
  458MPD2    C1 6870   0.857   4.434  12.534  0.6444 -0.3525 -0.1084
  458MPD2    C2 6871   0.728   4.481  12.555 -0.9297  0.8012 -0.1641
  458MPD2    C3 6872   0.657   4.537  12.454 -0.0133  0.1217  0.7145
  458MPD2    C4 6873   0.702   4.530  12.327 -0.1817 -0.4013  0.1180
  458MPD2    C5 6874   0.823   4.486  12.299  0.7441 -0.2128 -0.0411
  458MPD2     H 6875   0.682   4.466  12.652  1.2509  3.2149  1.2461
  458MPD2    H1 6876   0.652   4.570  12.240  1.0854  1.7858  0.3932
  458MPD2    H2 6877   1.003   4.407  12.378 -1.7307 -2.3906 -0.9934
  458MPD2    H3 6878   0.863   4.479  12.198 -2.1601 -4.0595 -0.9266
  458MPD2     N 6879   0.530   4.598  12.477  0.6288  0.1951  0.1783
  458MPD2    H5 6880   0.489   4.640  12.395 -0.2925  1.4859  1.2990
  458MPD2    N1 6881   0.945   4.390  12.625 -0.2464  0.3193  0.2441
  458MPD2    H7 6882   1.039   4.365  12.594 -0.3033 -0.0045  0.3315
  459TMC3    C1 6883   1.042   4.367  12.843  0.2394 -0.2109  0.1761
  459TMC3    C2 6884   1.163   4.405  12.791  0.4377  0.2579 -0.5539
  459TMC3    C3 6885   1.269   4.384  12.875 -0.6559 -0.7015  0.3742
  459TMC3    C4 6886   1.023   4.298  12.961 -0.3086 -0.0241  0.0464
  459TMC3    C5 6887   1.135   4.282  13.037  0.2268  0.3759 -0.1870
  459TMC3    C6 6888   1.261   4.333  13.008  0.2880  0.0632 -0.4696
  459TMC3     C 6889   0.922   4.367  12.760  0.0233  0.4491 -0.1402
  459TMC3     O 6890   0.816   4.366  12.816 -0.1533  0.0274  0.2882
  459TMC3     H 6891   1.168   4.462  12.698  2.9586  0.4824 -0.2869
  459TMC3    H1 6892   0.927   4.278  13.009 -1.0630  1.4349 -0.8763
  459TMC3    H2 6893   1.349   4.338  13.072  1.0337  1.8892 -1.6046
  459TMC3    C7 6894   1.122   4.204  13.161  0.6033  0.1464 -0.4840
  459TMC3    C8 6895   1.408   4.425  12.840 -0.0422 -0.4039 -0.2140
  459TMC3    O1 6896   1.216   4.214  13.237  0.2883  0.4068 -0.1024
  459TMC3    O2 6897   1.502   4.375  12.897  0.6609 -0.4378  0.3317
  460MPD2     C 6898   4.621   2.358  10.605  0.0780  0.4644  0.6991
  460MPD2    C1 6899   4.500   2.319  10.659  0.5309 -0.2323 -0.8503
  460MPD2    C2 6900   4.399   2.287  10.575 -0.0454 -0.0461 -0.3126
  460MPD2    C3 6901   4.414   2.298  10.438 -0.0642  0.0067 -0.6031
  460MPD2    C4 6902   4.541   2.321  10.390  0.1506  0.8556 -0.2407
  460MPD2    C5 6903   4.640   2.355  10.475  0.0586  0.4532  0.1002
  460MPD2     H 6904   4.296   2.281  10.606 -0.1224 -2.2437 -0.9745
  460MPD2    H1 6905   4.566   2.333  10.285  1.6626  0.5126  0.0678
  460MPD2    H2 6906   4.705   2.390  10.665  0.7043  0.1604 -0.0240
  460MPD2    H3 6907   0.004   2.370  10.447 -0.6095 -0.2593 -2.7097
  460MPD2     N 6908   4.301   2.282  10.351  0.0158 -0.0392 -0.2377
  460MPD2    H5 6909   4.215   2.277  10.405  0.5307  2.8871  0.8361
  460MPD2    N1 6910   4.485   2.333  10.799  0.3324 -0.7666  0.5292
  460MPD2    H7 6911   4.565   2.366  10.852  0.6354 -0.2987 -0.2131
  461TMC3    C1 6912   4.166   2.288  10.165 -0.5449 -0.5121  0.2797
  461TMC3    C2 6913   4.153   2.155  10.132  0.5425  0.0068 -0.0649
  461TMC3    C3 6914   4.094   2.122  10.010 -0.1813  0.6876 -0.8463
  461TMC3    C4 6915   4.132   2.373  10.063 -0.3488  0.0676 -0.7354
  461TMC3    C5 6916   4.077   2.339   9.950 -0.6742 -0.1099  0.1917
  461TMC3    C6 6917   4.067   2.213   9.916 -0.4951  0.2667  0.3575
  461TMC3     C 6918   4.297   2.311  10.220  0.0809 -0.2092 -0.2879
  461TMC3     O 6919   4.378   2.352  10.136  0.2289  0.2729 -0.2417
  461TMC3     H 6920   4.192   2.070  10.187  0.9401  0.3882  0.2412
  461TMC3    H1 6921   4.156   2.477  10.082 -1.4407  0.4604 -1.4985
  461TMC3    H2 6922   4.022   2.184   9.822  2.2998 -0.9706 -0.5892
  461TMC3    C7 6923   4.062   2.456   9.857 -0.0571 -0.3300 -0.1268
  461TMC3    C8 6924   4.082   1.976   9.975 -0.4446  0.2003  0.4950
  461TMC3    O1 6925   4.060   2.569   9.898  0.5806 -0.7497  0.3166
  461TMC3    O2 6926   4.139   1.892  10.041 -0.5900 -0.5539 -0.5705
  462TMC3    C1 6927   0.376   2.634  17.749  0.3340 -0.1580 -0.2167
  462TMC3    C2 6928   0.494   2.578   0.026  0.2832 -0.3333 -0.5109
  462TMC3    C3 6929   0.499   2.512   0.142 -0.1343  0.3303 -0.4946
  462TMC3    C4 6930   0.257   2.612   0.059 -0.0022  0.5141 -0.0685
  462TMC3    C5 6931   0.271   2.532   0.172  0.3624 -0.6930  0.2135
  462TMC3    C6 6932   0.390   2.480   0.218  0.4386 -0.0496 -0.2511
  462TMC3     C 6933   0.372   2.740  17.657  0.5021 -0.3494  0.4551
  462TMC3     O 6934   0.321   2.716  17.549 -0.2398  0.4792  0.3939
  462TMC3     H 6935   0.583   2.619  17.736  0.1444  0.2414 -0.2695
  462TMC3    H1 6936   0.164   2.667   0.047 -0.1709 -0.0945 -1.5860
  462TMC3    H2 6937   0.409   2.427   0.310 -2.3952 -2.5522 -1.0918
  462TMC3    C7 6938   0.148   2.471   0.227 -0.5272  0.0133  0.7604
  462TMC3    C8 6939   0.619   2.443   0.167  0.2551  0.2003 -0.4514
  462TMC3    O1 6940   0.047   2.495   0.157 -0.0684  0.2843 -0.9754
  462TMC3    O2 6941   0.637   2.414   0.284  0.4599  0.5454  0.3387
  463MPD2     C 6942   1.684   0.132   1.509  0.2952  0.6660 -0.1172
  463MPD2    C1 6943   1.593   0.232   1.497  0.0389  0.8796 -0.2909
  463MPD2    C2 6944   1.626   0.368   1.517 -0.3543 -0.2950  0.4121
  463MPD2    C3 6945   1.755   0.400   1.551  0.2830 -0.5866 -0.2068
  463MPD2    C4 6946   1.854   0.301   1.553  0.6987  0.7596 -0.0719
  463MPD2    C5 6947   1.812   0.166   1.535 -0.0318  0.2188 -0.2456
  463MPD2     H 6948   1.557   0.452   1.519  0.0581  0.1170 -2.2125
  463MPD2    H1 6949   1.958   0.326   1.569  1.1603 -0.6929 -0.8179
  463MPD2    H2 6950   1.664   0.027   1.493  2.3562  0.3181 -0.3774
  463MPD2    H3 6951   1.890   0.090   1.537 -1.3315 -1.0554  2.2301
  463MPD2     N 6952   1.796   0.531   1.589  0.1201  0.1491  0.0297
  463MPD2    H5 6953   1.894   0.551   1.604 -0.1584 -0.9348  3.3155
  463MPD2    N1 6954   1.458   0.210   1.462 -0.0468 -0.2258 -0.2100
  463MPD2    H7 6955   1.398   0.292   1.455  0.4757  0.2960  1.3087
  464TMC3    C1 6956   1.264   0.113   1.391 -0.2689  0.0842  0.4909
  464TMC3    C2 6957   1.188   0.184   1.484  0.0499 -0.2406  0.3885
  464TMC3    C3 6958   1.056   0.188   1.460 -0.2161 -0.5155  0.1156
  464TMC3    C4 6959   1.205   0.037   1.295 -0.3190 -0.0484 -0.1109
  464TMC3    C5 6960   1.076   0.055   1.276  0.0290  0.2473 -0.1794
  464TMC3    C6 6961   0.993   0.129   1.355 -0.9826 -0.3840  0.1953
  464TMC3     C 6962   1.405   0.096   1.408 -0.0307  0.0300 -0.2235
  464TMC3     O 6963   1.471   0.004   1.363 -0.2335 -0.3239 -0.1024
  464TMC3     H 6964   1.237   0.226   1.571  1.6055  2.0308 -1.5802
  464TMC3    H1 6965   1.265   4.730   1.217 -2.1241 -2.2620 -0.1834
  464TMC3    H2 6966   0.889   0.146   1.331  0.0129  1.6123 -2.6994
  464TMC3    C7 6967   1.007   4.707   1.173 -0.4893  0.4241 -0.6599
  464TMC3    C8 6968   0.973   0.268   1.554  1.0879 -0.3996  0.0127
  464TMC3    O1 6969   1.087   4.646   1.103  0.2799  0.0441 -0.2633
  464TMC3    O2 6970   0.871   0.317   1.514  0.0351  0.6087 -0.0724
  465MPD2     C 6971   2.785   4.726  17.218 -0.4787 -0.1602  0.1993
  465MPD2    C1 6972   2.783   4.622  17.130 -0.1469  0.4875 -0.0773
  465MPD2    C2 6973   2.758   4.654  16.997  0.4273  0.2408  0.3494
  465MPD2    C3 6974   2.705   0.037  16.959 -0.2674  0.2526 -0.8193
  465MPD2    C4 6975   2.693   0.137  17.053  0.4681 -0.1201  0.6119
  465MPD2    C5 6976   2.742   0.108  17.180 -0.2284  0.2439 -0.2783
  465MPD2     H 6977   2.760   4.578  16.920 -2.1668 -0.7935  1.2915
  465MPD2    H1 6978   2.655   0.237  17.037 -1.1682 -0.6171  1.3822
  465MPD2    H2 6979   2.818   4.724  17.322  3.6539 -0.1188 -1.1118
  465MPD2    H3 6980   2.746   0.190  17.251 -1.7398  0.0917 -0.0093
  465MPD2     N 6981   2.641   0.041  16.828  0.9704  0.5787  0.5224
  465MPD2    H5 6982   2.642   4.692  16.777  0.2969  2.4074 -2.6198
  465MPD2    N1 6983   2.810   4.483  17.161  1.0449 -0.0448 -0.5002
  465MPD2    H7 6984   2.775   4.419  17.090 -1.3218  1.8008 -0.9701
  466TMC3    C1 6985   2.331   0.042  16.570  0.1902 -0.4190 -0.4045
  466TMC3    C2 6986   2.301   0.154  16.490  0.1484  1.0004  0.1260
  466TMC3    C3 6987   2.382   0.258  16.499 -0.5512 -0.3241  0.0442
  466TMC3    C4 6988   2.442   0.034  16.648 -0.0165  0.0901 -1.1877
  466TMC3    C5 6989   2.529   0.139  16.646 -0.0867  0.1967  0.2870
  466TMC3    C6 6990   2.500   0.254  16.571  0.4448  0.5902  0.0990
  466TMC3     C 6991   2.227   4.683  16.601 -0.5787 -0.0652  0.0479
  466TMC3     O 6992   2.240   4.606  16.699 -0.3356  0.3246  0.2646
  466TMC3     H 6993   2.216   0.155  16.424  0.9683 -1.1050 -0.9842
  466TMC3    H1 6994   2.466   4.680  16.698 -2.1498  0.6030  0.8251
  466TMC3    H2 6995   2.561   0.343  16.584  0.2102  1.1150 -2.3091
  466TMC3    C7 6996   2.591   0.153  16.776  0.1121 -0.2888  0.3690
  466TMC3    C8 6997   2.347   0.383  16.439 -0.6831  0.7477 -0.3884
  466TMC3    O1 6998   2.594   0.268  16.813  0.3827  0.3288 -0.0906
  466TMC3    O2 6999   2.440   0.451  16.402 -0.7736  0.2793 -0.1472
  467TMC3    C1 7000   3.342   3.319  13.694 -0.7616  0.3368  0.6578
  467TMC3    C2 7001   3.321   3.315  13.558 -0.1597  0.7172 -0.2558
  467TMC3    C3 7002   3.190   3.309  13.524 -0.2354 -0.5073 -0.1857
  467TMC3    C4 7003   3.246   3.319  13.788  0.2482  0.2778 -0.5968
  467TMC3    C5 7004   3.122   3.316  13.743  0.4205  0.6915  0.2821
  467TMC3    C6 7005   3.090   3.308  13.611  0.0313 -0.6248  0.0155
  467TMC3     C 7006   3.475   3.324  13.743 -0.0148 -0.3854  0.2482
  467TMC3     O 7007   3.512   3.293  13.856  0.3665  0.2551 -0.5034
  467TMC3     H 7008   3.396   3.281  13.488 -3.2590  1.0026 -3.6861
  467TMC3    H1 7009   3.274   3.305  13.892  1.4871  1.0998 -0.8220
  467TMC3    H2 7010   2.986   3.310  13.582  0.1501  1.9527 -0.2575
  467TMC3    C7 7011   3.028   3.248  13.821 -0.0990 -0.1642  0.6711
  467TMC3    C8 7012   3.164   3.347  13.384  0.0765  0.3808  0.2670
  467TMC3    O1 7013   3.074   3.166  13.896 -0.0462  0.1277 -0.0560
  467TMC3    O2 7014   3.059   3.317  13.330  0.0563  0.0811 -0.3397
  468MPD2     C 7015   1.026   2.575  10.722  0.1417  0.8286  1.5268
  468MPD2    C1 7016   1.136   2.595  10.809 -0.5012  0.4038  0.4527
  468MPD2    C2 7017   1.194   2.482  10.867  0.0357  0.2927  0.0778
  468MPD2    C3 7018   1.139   2.357  10.841 -0.1284 -0.4981 -0.7470
  468MPD2    C4 7019   1.033   2.340  10.763  0.1426  0.4392 -0.0461
  468MPD2    C5 7020   0.982   2.448  10.698  0.1079  0.5189  0.2789
  468MPD2     H 7021   1.267   2.492  10.946  0.7348 -1.9870 -0.2938
  468MPD2    H1 7022   1.005   2.238  10.741  0.1471  0.1605  1.2901
  468MPD2    H2 7023   0.990   2.661  10.667 -0.7468  1.1346  2.5899
  468MPD2    H3 7024   0.895   2.438  10.634 -0.1362 -2.1627  1.0351
  468MPD2     N 7025   1.198   2.239  10.886  0.4789  0.5767  0.9023
  468MPD2    H5 7026   1.157   2.148  10.871 -0.1440  0.7988  1.2569
  468MPD2    N1 7027   1.204   2.715  10.829 -0.6024 -0.2169  0.3469
  468MPD2    H7 7028   1.273   2.717  10.903  1.1335 -3.0181 -1.1828
  469TMC3    C1 7029   1.249   2.945  10.831 -0.3266 -0.1827 -0.8420
  469TMC3    C2 7030   1.382   2.908  10.844  0.4852  0.2615  0.2440
  469TMC3    C3 7031   1.442   2.940  10.959 -0.4489 -0.2534 -0.1724
  469TMC3    C4 7032   1.182   3.026  10.921  0.2481  0.4205 -0.3472
  469TMC3    C5 7033   1.260   3.063  11.030  0.4446  0.7047  0.5117
  469TMC3    C6 7034   1.383   3.023  11.049  0.8058 -0.4207 -0.9066
  469TMC3     C 7035   1.162   2.838  10.783  1.7597 -0.3236 -0.0276
  469TMC3     O 7036   1.062   2.872  10.715 -0.2185 -0.5429 -0.1155
  469TMC3     H 7037   1.440   2.846  10.777 -0.4698  0.4138 -0.7239
  469TMC3    H1 7038   1.075   3.046  10.915  0.3531  1.1010  0.0609
  469TMC3    H2 7039   1.441   3.054  11.135  0.1000 -0.3910 -0.4348
  469TMC3    C7 7040   1.184   3.117  11.142  0.3701  0.1888 -0.9544
  469TMC3    C8 7041   1.567   2.880  10.976 -0.2407 -1.3471  0.2404
  469TMC3    O1 7042   1.072   3.148  11.113 -0.1936  0.1972 -0.5416
  469TMC3    O2 7043   1.642   2.866  10.879  0.0688  0.1505  0.0595
  470TMC3    C1 7044   3.969   2.992   0.259  0.0842 -0.2116  0.5061
  470TMC3    C2 7045   4.003   3.102   0.333 -0.6393  0.2106 -0.4624
  470TMC3    C3 7046   4.049   3.080   0.463  0.3037 -0.7375 -0.1684
  470TMC3    C4 7047   3.980   2.862   0.299 -0.3014  0.2240 -0.2410
  470TMC3    C5 7048   4.021   2.851   0.436  0.2481 -0.0207 -1.1089
  470TMC3    C6 7049   4.062   2.955   0.515  0.3000  0.5809 -0.6738
  470TMC3     C 7050   3.878   3.015   0.156 -0.0973  0.2409  0.4186
  470TMC3     O 7051   3.811   3.118   0.168  0.1270  0.1657 -0.1119
  470TMC3     H 7052   3.993   3.196   0.279 -1.4957 -0.3073 -1.1881
  470TMC3    H1 7053   3.943   2.775   0.246 -0.2596 -1.0729  1.8638
  470TMC3    H2 7054   4.105   2.944   0.614  1.9068  0.6340 -1.3634
  470TMC3    C7 7055   4.066   2.720   0.477  0.0541 -0.1355  0.1560
  470TMC3    C8 7056   4.039   3.179   0.566 -0.3444  0.3668 -0.3169
  470TMC3    O1 7057   4.070   2.632   0.396  0.2411  0.0475  0.0483
  470TMC3    O2 7058   4.102   3.162   0.669 -0.7238 -0.3062 -0.4169
  471MPD2     C 7059   4.638   3.759  16.556 -0.4684 -0.1447  0.2402
  471MPD2    C1 7060   4.736   3.659  16.556  0.4860  0.2354 -0.0956
  471MPD2    C2 7061   0.083   3.646  16.661  0.1845 -0.0241  0.3895
  471MPD2    C3 7062   0.063   3.724  16.774 -0.4787  0.0708  0.5612
  471MPD2    C4 7063   4.708   3.820  16.775  0.3909 -0.1053  0.6069
  471MPD2    C5 7064   4.622   3.835  16.669 -0.4015 -0.5693  0.1883
  471MPD2     H 7065   0.169   3.580  16.655 -1.1415 -1.5947 -1.3963
  471MPD2    H1 7066   4.685   3.875  16.865  0.6325  2.0420 -0.6554
  471MPD2    H2 7067   4.565   3.769  16.477 -0.7255  1.0938  0.6270
  471MPD2    H3 7068   4.547   3.913  16.682  1.6426  1.3000  0.7456
  471MPD2     N 7069   0.132   3.688  16.893 -0.1557  0.0951 -0.4875
  471MPD2    H5 7070   0.222   3.641  16.882  0.4477  1.0745  0.1904
  471MPD2    N1 7071   0.012   3.563  16.445 -0.9531 -0.1528  0.1593
  471MPD2    H7 7072   0.087   3.497  16.462 -0.6757  0.9214  3.1788
  472TMC3    C1 7073   4.660   3.424  16.278  0.1388  0.2933 -0.4418
  472TMC3    C2 7074   4.557   3.399  16.187 -0.1083 -0.5977  0.2921
  472TMC3    C3 7075   4.532   3.276  16.135  0.5252 -0.1614  0.0814
  472TMC3    C4 7076   0.002   3.323  16.323 -0.4257 -0.3732 -0.1396
  472TMC3    C5 7077   4.713   3.204  16.267  0.5623 -0.4805 -0.2723
  472TMC3    C6 7078   4.620   3.178  16.169 -0.7765 -0.5013  0.8640
  472TMC3     C 7079   4.664   3.550  16.339  0.1851 -0.4966 -0.7888
  472TMC3     O 7080   4.575   3.629  16.310  0.0767 -0.1479 -0.2241
  472TMC3     H 7081   4.499   3.485  16.157  0.2682  0.6249  2.9959
  472TMC3    H1 7082   0.090   3.331  16.385  0.3355  1.1008 -1.4197
  472TMC3    H2 7083   4.598   3.078  16.132 -1.7177 -0.3814  1.1025
  472TMC3    C7 7084   4.710   3.107  16.379  0.5256  0.6148  0.6798
  472TMC3    C8 7085   4.396   3.228  16.146  0.2427  0.1958  0.7164
  472TMC3    O1 7086   0.066   3.079  16.452  1.2011  0.4983  0.1450
  472TMC3    O2 7087   4.383   3.123  16.213 -0.3620  0.2579 -0.2038
  473MPD2     C 7088   4.392   1.225  13.374 -0.4106  0.6834 -0.0403
  473MPD2    C1 7089   4.347   1.348  13.369  0.1995  0.3052 -0.2932
  473MPD2    C2 7090   4.380   1.440  13.471  0.3428  0.2719 -0.3179
  473MPD2    C3 7091   4.468   1.397  13.569 -0.4838 -0.2748  0.0960
  473MPD2    C4 7092   4.509   1.265  13.576 -0.1445  0.1220  0.5183
  473MPD2    C5 7093   4.478   1.184  13.472  0.0231  0.1134 -0.2018
  473MPD2     H 7094   4.325   1.533  13.473 -0.6014 -0.3077  0.2714
  473MPD2    H1 7095   4.588   1.236  13.645  0.6389 -0.2301 -0.5307
  473MPD2    H2 7096   4.361   1.154  13.299 -0.2408  0.8535 -0.2702
  473MPD2    H3 7097   4.519   1.084  13.475 -1.1299 -0.3346  0.8393
  473MPD2     N 7098   4.516   1.477  13.675  0.0310 -0.2332  0.2840
  473MPD2    H5 7099   4.529   1.433  13.765 -1.9608  1.3908  1.3760
  473MPD2    N1 7100   4.262   1.397  13.271 -0.1860  0.0743 -0.1526
  473MPD2    H7 7101   4.234   1.495  13.274 -0.1886  0.0849 -0.5160
  474TMC3    C1 7102   4.538   1.665  13.825  0.3518 -0.6825 -0.6003
  474TMC3    C2 7103   4.565   1.801  13.835  0.4355 -0.3696  0.5018
  474TMC3    C3 7104   4.577   1.850  13.965  0.4733  0.1301  0.0933
  474TMC3    C4 7105   4.518   1.584  13.934 -0.5180 -0.2581 -0.5183
  474TMC3    C5 7106   4.551   1.635  14.057 -0.5323  0.0495 -0.4575
  474TMC3    C6 7107   4.558   1.771  14.076  0.5387 -0.4408 -0.1600
  474TMC3     C 7108   4.513   1.615  13.687 -0.2490  0.4640  0.0133
  474TMC3     O 7109   4.505   1.698  13.598  0.1539 -0.1208 -0.4184
  474TMC3     H 7110   4.573   1.867  13.749 -0.6872 -0.3915  0.3823
  474TMC3    H1 7111   4.503   1.478  13.920 -0.6620 -0.2518 -0.4066
  474TMC3    H2 7112   4.544   1.808  14.177 -1.7047 -0.2592 -0.5311
  474TMC3    C7 7113   4.528   1.559  14.181  0.1067 -0.7375 -0.7785
  474TMC3    C8 7114   4.591   2.001  13.982 -0.4276  0.1943 -0.1469
  474TMC3    O1 7115   4.441   1.475  14.179  0.1351 -0.2111  0.5003
  474TMC3    O2 7116   4.645   2.071  13.895  0.4105  0.1854 -0.2386
  475MPD2     C 7117   2.630   4.506  10.606 -0.5488 -0.0378 -0.3677
  475MPD2    C1 7118   2.651   4.600  10.706  0.1172  0.5340 -0.0099
  475MPD2    C2 7119   2.561   4.611  10.813  0.1449  0.6050  0.3279
  475MPD2    C3 7120   2.438   4.547  10.799 -0.2691  0.2887 -1.0296
  475MPD2    C4 7121   2.424   4.447  10.705  0.0546 -0.3399 -0.9052
  475MPD2    C5 7122   2.521   4.425  10.609  0.2663  0.4709  0.1823
  475MPD2     H 7123   2.582   4.674  10.898  0.2765 -0.9818  1.4842
  475MPD2    H1 7124   2.343   4.374  10.701 -0.3452  0.1876 -2.6315
  475MPD2    H2 7125   2.690   4.486  10.518  0.9919  1.9150  0.2491
  475MPD2    H3 7126   2.509   4.346  10.537 -0.7750  0.2493  0.6059
  475MPD2     N 7127   2.339   4.574  10.895 -0.5617 -0.2519  0.1290
  475MPD2    H5 7128   2.351   4.648  10.964  0.6566  0.3747 -0.7548
  475MPD2    N1 7129   2.771   4.678  10.699  0.0116 -0.1401  0.0466
  475MPD2    H7 7130   2.850   4.634  10.651  0.2845 -1.4333  1.6892
  476TMC3    C1 7131   2.704   0.146  10.787 -0.7826 -0.4547 -0.6223
  476TMC3    C2 7132   2.588   0.148  10.714 -0.4497 -0.7407  0.0459
  476TMC3    C3 7133   2.489   0.231  10.768 -1.1263  0.0732 -0.2563
  476TMC3    C4 7134   2.726   0.221  10.897 -0.0876 -0.4389 -0.0143
  476TMC3    C5 7135   2.629   0.297  10.948  0.0517 -0.2517  0.6793
  476TMC3    C6 7136   2.508   0.295  10.889  0.5524  0.2689 -0.3955
  476TMC3     C 7137   2.807   0.048  10.774 -0.2743  0.4929 -0.2427
  476TMC3     O 7138   2.921   0.079  10.797  0.3329  0.3689 -0.3579
  476TMC3     H 7139   2.573   0.099  10.618  1.1143 -0.9018 -0.1062
  476TMC3    H1 7140   2.822   0.217  10.947 -0.2005 -1.0928  0.1405
  476TMC3    H2 7141   2.420   0.351  10.919  1.2808  1.6727 -0.8800
  476TMC3    C7 7142   2.659   0.326  11.090  0.1371  0.6954  0.8165
  476TMC3    C8 7143   2.355   0.202  10.737  0.8979 -0.7922 -0.0634
  476TMC3    O1 7144   2.736   0.254  11.147  0.2872  0.4854 -0.6435
  476TMC3    O2 7145   2.266   0.197  10.823 -0.0763  0.2985  0.3760
  477MPD2     C 7146   0.398   1.466  11.514  0.0973  0.2889 -0.1382
  477MPD2    C1 7147   0.299   1.404  11.583 -0.3311 -0.9112  0.3070
  477MPD2    C2 7148   0.327   1.276  11.642 -0.0683  0.1388  0.5027
  477MPD2    C3 7149   0.449   1.218  11.618 -0.5423 -0.2063  0.1156
  477MPD2    C4 7150   0.542   1.287  11.543  0.0766 -0.8262 -0.1450
  477MPD2    C5 7151   0.518   1.411  11.494 -0.0101 -0.5352 -0.0745
  477MPD2     H 7152   0.251   1.230  11.705  0.8743  0.6320  2.0081
  477MPD2    H1 7153   0.639   1.244  11.523 -0.4129 -1.1353 -1.8727
  477MPD2    H2 7154   0.384   1.558  11.459 -0.0175  3.0574  4.6062
  477MPD2    H3 7155   0.596   1.460  11.437  0.4472 -2.0514 -0.7446
  477MPD2     N 7156   0.460   1.079  11.638 -0.9426 -0.4049  0.6095
  477MPD2    H5 7157   0.385   1.049  11.699 -0.2546  0.5710  1.9241
  477MPD2    N1 7158   0.179   1.477  11.594 -0.6002 -0.3817 -0.7838
  477MPD2    H7 7159   0.181   1.568  11.551  0.7395  0.3736  0.8567
  478TMC3    C1 7160   4.696   1.525  11.611 -0.0366 -0.0361  0.4111
  478TMC3    C2 7161   4.625   1.604  11.698  0.3260 -0.0313  0.2839
  478TMC3    C3 7162   4.538   1.690  11.649  0.4436 -0.2676  0.8077
  478TMC3    C4 7163   4.695   1.549  11.476  0.2458 -0.2534 -0.3657
  478TMC3    C5 7164   4.591   1.626  11.430 -0.5440  0.3344  0.5457
  478TMC3    C6 7165   4.519   1.708  11.517  0.5426  0.4893  0.0481
  478TMC3     C 7166   0.064   1.438  11.653 -0.1922 -0.6540  0.4409
  478TMC3     O 7167   0.042   1.354  11.738  0.1706 -0.0947  0.3607
  478TMC3     H 7168   4.633   1.581  11.804  2.6680  0.5731  0.2556
  478TMC3    H1 7169   0.006   1.476  11.414 -0.4611 -0.0611 -1.1828
  478TMC3    H2 7170   4.448   1.785  11.487  1.7778  0.7385 -2.2017
  478TMC3    C7 7171   4.620   1.680  11.302  0.4536 -0.5543 -0.5649
  478TMC3    C8 7172   4.484   1.779  11.746 -0.4893 -0.1746 -0.0004
  478TMC3    O1 7173   4.733   1.683  11.262 -0.1613  0.1031 -0.2764
  478TMC3    O2 7174   4.441   1.714  11.838 -0.1352 -0.0284  0.1451
  479MPD2     C 7175   4.427   3.373  15.166 -0.6242 -0.4393 -0.0232
  479MPD2    C1 7176   4.342   3.290  15.238  0.2511  0.1238 -0.2513
  479MPD2    C2 7177   4.332   3.318  15.377 -0.0165 -0.3532  0.2928
  479MPD2    C3 7178   4.388   3.430  15.436 -0.3715  0.3685  0.4168
  479MPD2    C4 7179   4.451   3.512  15.350 -0.4645 -0.0289 -0.1543
  479MPD2    C5 7180   4.479   3.480  15.223 -0.2566  0.2434 -0.5806
  479MPD2     H 7181   4.288   3.242  15.441 -0.8361 -0.7753 -0.7751
  479MPD2    H1 7182   4.510   3.594  15.389 -0.2268 -1.0720  1.6955
  479MPD2    H2 7183   4.433   3.356  15.059 -1.9529 -0.3591 -0.1150
  479MPD2    H3 7184   4.544   3.547  15.168  0.5901  1.5563  2.0486
  479MPD2     N 7185   4.384   3.467  15.574  0.5284  0.0995 -0.1231
  479MPD2    H5 7186   4.409   3.563  15.595  2.3514  0.0514 -2.0443
  479MPD2    N1 7187   4.284   3.176  15.167  0.1060  0.1970 -0.4166
  479MPD2    H7 7188   4.299   3.158  15.068  1.2331  1.2259 -0.4389
  480TMC3    C1 7189   4.102   3.120  15.743  0.0527 -0.4011  0.8342
  480TMC3    C2 7190   3.994   3.150  15.664  0.4540 -1.0013  0.4010
  480TMC3    C3 7191   3.990   3.270  15.596 -0.7620  0.0258 -0.4524
  480TMC3    C4 7192   4.216   3.196  15.748  0.5103 -0.2229 -0.5567
  480TMC3    C5 7193   4.219   3.306  15.669 -1.4715  0.0024 -0.6356
  480TMC3    C6 7194   4.107   3.346  15.592  0.1051  0.2787 -0.3251
  480TMC3     C 7195   4.096   2.999  15.816 -0.1293 -0.2303  0.3208
  480TMC3     O 7196   4.204   2.941  15.840  0.2319  0.4422  0.8584
  480TMC3     H 7197   3.907   3.087  15.654  1.1405 -1.7828 -0.5507
  480TMC3    H1 7198   4.306   3.169  15.803  0.6526  0.7163 -0.3358
  480TMC3    H2 7199   4.095   3.446  15.553 -0.4911 -0.3464 -1.7353
  480TMC3    C7 7200   4.339   3.395  15.679  0.6801 -0.9004  0.2126
  480TMC3    C8 7201   3.880   3.284  15.506 -0.1542  0.2146 -0.2742
  480TMC3    O1 7202   4.392   3.396  15.789  0.4987  0.6879  0.0711
  480TMC3    O2 7203   3.770   3.242  15.539  0.2054  0.1422 -0.3983
  481MPD2     C 7204   1.452   2.756  14.565 -0.8221 -0.7270  0.1747
  481MPD2    C1 7205   1.320   2.724  14.570  0.2000 -0.4902  0.3490
  481MPD2    C2 7206   1.255   2.692  14.688 -0.5141  0.3878 -0.0294
  481MPD2    C3 7207   1.328   2.692  14.805 -0.3600  0.6844  0.9338
  481MPD2    C4 7208   1.458   2.732  14.800  0.3657  0.5261 -0.3100
  481MPD2    C5 7209   1.516   2.762  14.682  0.6402 -0.1027  0.3725
  481MPD2     H 7210   1.151   2.663  14.699 -0.8821  1.4823 -0.6219
  481MPD2    H1 7211   1.525   2.752  14.883  0.4110 -0.2221 -0.1641
  481MPD2    H2 7212   1.496   2.793  14.473 -1.2542  0.1950  0.3308
  481MPD2    H3 7213   1.617   2.802  14.684  0.2475  0.9536 -0.4703
  481MPD2     N 7214   1.278   2.655  14.929 -0.2100  0.2041 -0.1188
  481MPD2    H5 7215   1.348   2.668  15.001 -0.0730  0.7496 -0.3539
  481MPD2    N1 7216   1.253   2.742  14.444  1.1863 -0.3670 -0.1240
  481MPD2    H7 7217   1.321   2.781  14.379  1.5086  1.5726  1.3546
  482TMC3    C1 7218   1.078   2.767  14.295 -0.7592 -0.2550  0.5777
  482TMC3    C2 7219   0.962   2.715  14.251  0.0132 -0.3557 -0.0217
  482TMC3    C3 7220   0.876   2.772  14.156  0.2745 -0.3964 -0.5047
  482TMC3    C4 7221   1.113   2.895  14.252  0.3840 -0.0179  0.1581
  482TMC3    C5 7222   1.028   2.957  14.157 -0.3296  0.5936 -0.9571
  482TMC3    C6 7223   0.921   2.885  14.104 -1.0587  0.0693  0.3785
  482TMC3     C 7224   1.117   2.734  14.426  0.2445  0.1626 -0.3610
  482TMC3     O 7225   1.039   2.677  14.499 -0.6796 -0.0535 -0.0105
  482TMC3     H 7226   0.920   2.625  14.296 -0.1165  0.8783  2.3105
  482TMC3    H1 7227   1.206   2.941  14.286  1.3775 -1.9027 -0.0267
  482TMC3    H2 7228   0.864   2.929  14.022 -0.3615 -0.2433 -0.2712
  482TMC3    C7 7229   1.101   3.042  14.068  0.2524  0.5410 -0.3423
  482TMC3    C8 7230   0.749   2.712  14.110 -0.0577  0.4804 -0.1186
  482TMC3    O1 7231   1.227   3.026  14.077  0.1739 -0.0618  0.8549
  482TMC3    O2 7232   0.730   2.597  14.146  0.1858 -0.4163 -0.7241
  483TMC3    C1 7233   3.646   1.298   0.880 -0.0565  0.4315 -0.1051
  483TMC3    C2 7234   3.659   1.428   0.863 -0.4414 -0.0740 -0.2708
  483TMC3    C3 7235   3.781   1.483   0.897 -0.5680 -0.5424 -0.0599
  483TMC3    C4 7236   3.747   1.218   0.922 -0.0416 -0.7305  0.1296
  483TMC3    C5 7237   3.865   1.273   0.965  0.5546 -0.3871 -0.9884
  483TMC3    C6 7238   3.890   1.411   0.945 -0.6797 -0.0148 -0.0289
  483TMC3     C 7239   3.523   1.231   0.824  0.3119 -0.2878 -0.2344
  483TMC3     O 7240   3.427   1.305   0.794 -0.3111 -0.3740  0.1028
  483TMC3     H 7241   3.581   1.485   0.813 -1.0151 -0.9460 -0.3628
  483TMC3    H1 7242   3.739   1.110   0.920  0.8139 -0.7791 -1.1872
  483TMC3    H2 7243   3.977   1.462   0.986 -1.0696 -0.0669  0.8463
  483TMC3    C7 7244   3.965   1.191   1.028 -0.6003 -0.2240 -0.4347
  483TMC3    C8 7245   3.821   1.597   0.825  0.7792 -0.0466 -0.0308
  483TMC3    O1 7246   3.919   1.095   1.092  0.1921  0.4157  0.1728
  483TMC3    O2 7247   3.934   1.589   0.778 -0.0413  0.2925 -0.1091
  484MPD2     C 7248   1.513   4.707  12.640  0.1242 -0.4545 -0.4609
  484MPD2    C1 7249   1.529   4.578  12.692 -0.4139 -0.2011 -0.5530
  484MPD2    C2 7250   1.654   4.515  12.681 -0.3887 -0.7262 -0.3738
  484MPD2    C3 7251   1.753   4.583  12.615 -0.1473  0.2585 -0.2577
  484MPD2    C4 7252   1.739   4.713  12.577 -0.2140  0.3691 -0.1551
  484MPD2    C5 7253   1.620   0.037  12.586 -0.0613 -0.1587 -0.5775
  484MPD2     H 7254   1.662   4.407  12.691  1.2016 -0.5227  0.5174
  484MPD2    H1 7255   1.818   0.027  12.525 -0.6141  0.7403 -0.3824
  484MPD2    H2 7256   1.417   0.016  12.639  1.4218  2.1524  2.5418
  484MPD2    H3 7257   1.612   0.137  12.544 -0.7902 -0.2378 -0.6301
  484MPD2     N 7258   1.884   4.534  12.586  0.0620  0.4656 -0.3030
  484MPD2    H5 7259   1.948   4.599  12.542 -0.4050  0.4872 -0.9455
  484MPD2    N1 7260   1.416   4.525  12.752 -0.0728  0.5235 -0.4502
  484MPD2    H7 7261   1.331   4.580  12.743  0.0338  0.8281  0.3852
  485TMC3    C1 7262   2.073   4.384  12.538 -0.2474 -0.5606  0.5230
  485TMC3    C2 7263   2.107   4.254  12.496 -0.2836 -0.3123  0.6501
  485TMC3    C3 7264   2.238   4.236  12.466 -0.5875  1.4811 -0.3356
  485TMC3    C4 7265   2.166   4.491  12.545  0.4134 -0.1782  0.8537
  485TMC3    C5 7266   2.297   4.462  12.511 -0.0325 -0.1721  0.3827
  485TMC3    C6 7267   2.330   4.333  12.487  0.0760 -0.0168  0.3362
  485TMC3     C 7268   1.935   4.406  12.591 -0.4740  0.7191 -0.1465
  485TMC3     O 7269   1.871   4.305  12.620  0.3488 -0.3937 -0.2852
  485TMC3     H 7270   2.032   4.176  12.495 -0.3291 -0.2846  1.5058
  485TMC3    H1 7271   2.136   4.586  12.588 -0.8179  0.2427 -0.9247
  485TMC3    H2 7272   2.434   4.304  12.473  0.1099 -0.1668  0.8794
  485TMC3    C7 7273   2.372   4.548  12.418 -0.3403  0.2110 -0.1111
  485TMC3    C8 7274   2.258   4.156  12.350  0.4497 -0.1532 -0.1523
  485TMC3    O1 7275   2.464   4.490  12.364 -0.0173 -0.0531  0.1559
  485TMC3    O2 7276   2.171   4.072  12.318 -0.4735 -0.2454 -0.0466
  486MPD2     C 7277   3.469   3.579  12.611 -0.5003 -0.2553 -0.5466
  486MPD2    C1 7278   3.363   3.495  12.610  0.3336 -0.2651 -0.5333
  486MPD2    C2 7279   3.238   3.553  12.626  0.0511 -0.3160  0.1174
  486MPD2    C3 7280   3.213   3.688  12.629 -0.0926  0.0851  0.4596
  486MPD2    C4 7281   3.323   3.773  12.618 -0.1551  0.5386  0.1275
  486MPD2    C5 7282   3.448   3.717  12.615 -0.1744  0.3720  0.8709
  486MPD2     H 7283   3.149   3.495  12.648 -0.3838 -0.4216 -1.9084
  486MPD2    H1 7284   3.318   3.880  12.607 -0.3321  0.4510 -0.6476
  486MPD2    H2 7285   3.572   3.545  12.603 -0.1846  1.0024 -1.8921
  486MPD2    H3 7286   3.532   3.784  12.604 -0.6978  1.0693  1.1314
  486MPD2     N 7287   3.091   3.748  12.656  0.2747  0.4200 -0.4940
  486MPD2    H5 7288   3.094   3.850  12.655  1.2468  0.3983  1.3328
  486MPD2    N1 7289   3.393   3.353  12.620  0.3747 -0.1856 -0.5763
  486MPD2    H7 7290   3.488   3.318  12.621  0.9873  1.4886  0.6302
  487TMC3    C1 7291   3.347   3.127  12.628 -0.5576  0.1935  0.6462
  487TMC3    C2 7292   3.268   3.022  12.577 -0.1386 -0.1162 -1.0493
  487TMC3    C3 7293   3.318   2.891  12.590  0.5373 -0.2829  0.6096
  487TMC3    C4 7294   3.461   3.104  12.698  0.6008 -0.0482  0.1607
  487TMC3    C5 7295   3.490   2.972  12.730  0.0612  0.2347 -0.4770
  487TMC3    C6 7296   3.426   2.867  12.672 -0.8324  0.8076 -0.0517
  487TMC3     C 7297   3.297   3.262  12.606  0.3878  0.3091 -0.1311
  487TMC3     O 7298   3.179   3.270  12.571 -0.8635 -0.3415 -0.5816
  487TMC3     H 7299   3.184   3.047  12.514  0.0590 -2.3218 -2.1896
  487TMC3    H1 7300   3.499   3.184  12.760 -2.6822  1.3929  0.2650
  487TMC3    H2 7301   3.468   2.768  12.678 -0.5596  0.8514 -1.1938
  487TMC3    C7 7302   3.524   2.945  12.869  0.3355  0.2681  0.5249
  487TMC3    C8 7303   3.219   2.792  12.590  0.3024  0.1609 -0.4860
  487TMC3    O1 7304   3.594   3.020  12.934 -0.0460  0.3262  0.1638
  487TMC3    O2 7305   3.238   2.704  12.509  0.2144  0.2981 -0.3735
  488MPD2     C 7306   4.068   4.640  16.337  0.2622 -1.0549  0.4567
  488MPD2    C1 7307   4.145   4.716  16.426  0.4225  0.0386 -1.0718
  488MPD2    C2 7308   4.155   4.680  16.561 -0.2914  0.0412 -0.4599
  488MPD2    C3 7309   4.084   4.574  16.613 -0.1088 -0.5230  0.1990
  488MPD2    C4 7310   3.995   4.505  16.533 -0.3800  0.3016 -0.6194
  488MPD2    C5 7311   3.987   4.547  16.401 -0.1625 -0.0938  0.0679
  488MPD2     H 7312   4.224   4.731  16.628  0.9433 -1.2240 -0.7803
  488MPD2    H1 7313   3.939   4.414  16.555 -1.4999  0.6691 -1.9821
  488MPD2    H2 7314   4.060   4.671  16.234  0.8085  0.6750  0.9317
  488MPD2    H3 7315   3.917   4.486  16.346 -0.0605 -1.2635  1.2298
  488MPD2     N 7316   4.099   4.552  16.751 -0.2482  0.9042  0.1139
  488MPD2    H5 7317   4.163   4.615  16.797  1.6793 -0.6596 -0.4072
  488MPD2    N1 7318   4.233   0.087  16.390  0.0064  0.3624  0.2504
  488MPD2    H7 7319   4.273   0.140  16.466 -1.8839  1.1226  0.7143
  489TMC3    C1 7320   4.057   4.505  16.967 -0.4411 -0.5862  0.7231
  489TMC3    C2 7321   4.098   4.632  16.999 -0.6694 -0.0519  0.3530
  489TMC3    C3 7322   4.088   4.657  17.132  0.2297 -0.6194 -0.6656
  489TMC3    C4 7323   4.006   4.417  17.060 -0.6190 -0.8430  0.2693
  489TMC3    C5 7324   4.003   4.454  17.192 -0.3643  0.1331 -0.8665
  489TMC3    C6 7325   4.048   4.577  17.230  0.0498  0.6522 -0.3795
  489TMC3     C 7326   4.026   4.469  16.834 -0.0419  0.2795  0.4346
  489TMC3     O 7327   3.926   4.401  16.807  0.0109 -0.1858  0.2431
  489TMC3     H 7328   4.128   4.710  16.929 -2.6123  0.9138  0.5995
  489TMC3    H1 7329   3.993   4.315  17.025 -1.9573 -0.9920  1.1537
  489TMC3    H2 7330   4.071   4.593  17.334  1.1719 -2.5837 -0.1309
  489TMC3    C7 7331   4.001   4.351  17.289  0.2058 -0.7522  0.3957
  489TMC3    C8 7332   4.123   0.056  17.167 -0.2559 -0.1270  0.8796
  489TMC3    O1 7333   4.025   4.387  17.401  0.5233 -0.0652  0.5082
  489TMC3    O2 7334   4.192   0.122  17.091  0.0404  0.1324 -0.2670
  490MPD2     C 7335   0.110   4.129  16.933  0.0264 -0.3521  0.1323
  490MPD2    C1 7336   0.105   4.177  17.065 -0.0908 -0.1842  0.2655
  490MPD2    C2 7337   0.171   4.295  17.096 -0.4539 -0.1588  0.0195
  490MPD2    C3 7338   0.247   4.361  17.003 -0.0597 -0.4479 -0.2381
  490MPD2    C4 7339   0.260   4.311  16.873  0.8281  0.8732  0.3710
  490MPD2    C5 7340   0.189   4.199  16.834 -0.3847  0.4743 -0.4756
  490MPD2     H 7341   0.169   4.316  17.202 -3.7789  1.1357 -0.2950
  490MPD2    H1 7342   0.331   4.350  16.802  0.3035  0.9423 -0.1179
  490MPD2    H2 7343   0.074   4.030  16.908  0.2761 -0.1525 -1.0058
  490MPD2    H3 7344   0.206   4.154  16.737 -0.3807 -1.5897  0.4806
  490MPD2     N 7345   0.327   4.481  17.043 -0.6623  0.3734 -0.3633
  490MPD2    H5 7346   0.403   4.511  16.983 -1.3009 -1.4302 -2.1226
  490MPD2    N1 7347   0.022   4.105  17.153  0.4324 -1.0208 -0.3240
  490MPD2    H7 7348   4.711   4.022  17.123 -0.1763  0.2505 -2.8731
  491TMC3    C1 7349   4.677   4.020  17.351 -0.3442 -0.4547  0.3360
  491TMC3    C2 7350   4.712   3.989  17.482 -0.3240 -1.1575  0.3587
  491TMC3    C3 7351   4.663   3.868  17.530 -0.2386 -0.5336  0.0158
  491TMC3    C4 7352   4.603   3.936  17.274 -0.3705 -0.5404 -0.0124
  491TMC3    C5 7353   4.556   3.822  17.333  0.0558 -0.1112 -0.2413
  491TMC3    C6 7354   4.603   3.780  17.455  1.4096 -0.7025 -0.1904
  491TMC3     C 7355   0.012   4.126  17.286 -0.0334 -0.3468  0.2073
  491TMC3     O 7356   0.061   4.213  17.352  0.2351  0.4425 -0.4672
  491TMC3     H 7357   0.033   4.059  17.538 -1.7700  0.4781 -0.1169
  491TMC3    H1 7358   4.554   3.969  17.183  0.6514  1.8885  0.3027
  491TMC3    H2 7359   4.566   3.689  17.501 -0.7168  0.4840  0.4291
  491TMC3    C7 7360   4.481   3.729  17.251  0.4653 -0.5211 -0.7873
  491TMC3    C8 7361   4.686   3.839  17.668  0.1556  0.2634 -0.1072
  491TMC3    O1 7362   4.416   3.771  17.159  0.5127 -1.1556 -0.4318
  491TMC3    O2 7363   4.690   3.920   0.002  0.6331  0.0920  0.2671
  492MPD2     C 7364   4.480   0.195  12.372 -0.2884 -0.5307  0.6951
  492MPD2    C1 7365   4.488   0.110  12.268  0.4703 -0.1858 -0.1064
  492MPD2    C2 7366   4.508   4.714  12.292 -0.5038  0.1353 -0.0866
  492MPD2    C3 7367   4.498   4.666  12.420  0.3368 -0.2953  0.2453
  492MPD2    C4 7368   4.497   0.014  12.526  0.0692 -0.5756  0.2229
  492MPD2    C5 7369   4.474   0.145  12.498 -0.4114  0.5628 -0.5986
  492MPD2     H 7370   4.526   4.650  12.207  1.9432 -1.2821  1.4896
  492MPD2    H1 7371   4.475   4.733  12.630 -2.0307 -0.7566 -0.2591
  492MPD2    H2 7372   4.478   0.303  12.359  3.6617 -0.6571 -1.0224
  492MPD2    H3 7373   4.460   0.213  12.581 -0.1765  1.3550 -1.2022
  492MPD2     N 7374   4.485   4.529  12.446 -0.1618  0.4658  0.1735
  492MPD2    H5 7375   4.485   4.504  12.544 -0.5251  0.1386  0.0919
  492MPD2    N1 7376   4.482   0.151  12.129  0.8426 -0.1729  0.5727
  492MPD2    H7 7377   4.501   0.070  12.071  0.3273 -0.3338  0.6333
  493TMC3    C1 7378   4.429   0.290  11.949 -0.7331  0.4952 -0.4440
  493TMC3    C2 7379   4.422   0.418  11.907 -0.6774 -0.2297  0.5056
  493TMC3    C3 7380   4.419   0.446  11.770 -1.0100  0.2547  0.2810
  493TMC3    C4 7381   4.447   0.191  11.860  0.1819 -0.3621  0.3914
  493TMC3    C5 7382   4.465   0.222  11.726  0.2460 -0.1227 -1.2375
  493TMC3    C6 7383   4.440   0.347  11.674  0.2260  1.0398 -0.3614
  493TMC3     C 7384   4.435   0.274  12.087 -0.8992  0.1922 -0.3315
  493TMC3     O 7385   4.399   0.368  12.153  0.2234  0.0630 -0.0868
  493TMC3     H 7386   4.417   0.503  11.974 -0.8104  1.7122 -1.9453
  493TMC3    H1 7387   4.462   0.087  11.886 -0.3155 -0.7264 -0.7686
  493TMC3    H2 7388   4.432   0.375  11.570  0.2468 -0.8132 -0.8581
  493TMC3    C7 7389   4.474   0.116  11.619 -0.3017 -0.1022  0.6372
  493TMC3    C8 7390   4.359   0.572  11.727 -0.1321  0.2796 -0.8480
  493TMC3    O1 7391   4.455   0.152  11.506 -0.2601 -0.3056 -0.7409
  493TMC3    O2 7392   4.284   0.635  11.803 -0.2614 -0.3789  0.4825
  494TMC3    C1 7393   1.000   1.058   0.789  0.1692  0.7006 -0.7948
  494TMC3    C2 7394   0.936   0.938   0.772 -0.2762  0.1577  0.5448
  494TMC3    C3 7395   0.911   0.902   0.644  0.1283 -0.4710  0.7377
  494TMC3    C4 7396   1.051   1.136   0.679  0.6185  0.0590 -1.0145
  494TMC3    C5 7397   1.039   1.075   0.556 -0.5361 -0.6728  0.0366
  494TMC3    C6 7398   0.970   0.958   0.539 -0.8721  0.2227  0.3239
  494TMC3     C 7399   1.040   1.089   0.925 -0.6434  0.0702  0.4555
  494TMC3     O 7400   0.981   1.029   1.014  1.1314  0.1971 -0.1441
  494TMC3     H 7401   0.912   0.879   0.859 -1.6425 -0.0977  0.0055
  494TMC3    H1 7402   1.084   1.235   0.706 -1.2474 -0.2026  2.2096
  494TMC3    H2 7403   0.935   0.936   0.439  0.4006 -2.3876  0.4485
  494TMC3    C7 7404   1.117   1.123   0.439 -0.6478  0.3081  0.6812
  494TMC3    C8 7405   0.833   0.776   0.627  0.4191  0.5114 -0.2218
  494TMC3    O1 7406   1.130   1.056   0.337  0.3856 -0.3276 -0.3017
  494TMC3    O2 7407   0.811   0.712   0.729 -0.0709  0.0665  0.6102
  495TMC3    C1 7408   4.403   3.551  14.734 -0.4680 -0.0842 -0.1985
  495TMC3    C2 7409   4.344   3.579  14.616 -0.1936  0.1716 -0.2298
  495TMC3    C3 7410   4.208   3.563  14.606 -0.0122 -0.8922  0.2710
  495TMC3    C4 7411   4.325   3.532  14.844 -0.3493  0.4358  0.3135
  495TMC3    C5 7412   4.187   3.525  14.832 -0.1450 -0.6087 -0.3091
  495TMC3    C6 7413   4.125   3.534  14.711  0.1731  0.3845 -0.6136
  495TMC3     C 7414   4.462   3.425  14.712 -0.5030  0.3106  0.7135
  495TMC3     O 7415   4.407   3.327  14.761  0.4909  0.2737 -0.0521
  495TMC3     H 7416   4.390   3.606  14.521 -0.0081  1.7028  0.2992
  495TMC3    H1 7417   4.379   3.508  14.935  2.3438 -0.8739 -1.6044
  495TMC3    H2 7418   4.023   3.498  14.702 -0.1936  0.8311  1.6471
  495TMC3    C7 7419   4.117   3.505  14.958 -0.0338  0.2668 -0.2075
  495TMC3    C8 7420   4.156   3.492  14.492 -0.3287  0.4940 -0.0532
  495TMC3    O1 7421   4.187   3.528  15.057 -0.6616 -0.0010  0.0485
  495TMC3    O2 7422   4.038   3.507  14.462 -1.0787  0.1925  0.6262
  496MPD2     C 7423   1.818   3.544  15.462  0.5346 -0.6949  0.0885
  496MPD2    C1 7424   1.773   3.429  15.399 -0.0193  0.5232  0.2165
  496MPD2    C2 7425   1.643   3.399  15.388  0.0409 -0.1100 -0.1668
  496MPD2    C3 7426   1.554   3.460  15.475  0.0942  0.7768 -0.2135
  496MPD2    C4 7427   1.606   3.556  15.559  0.4413 -0.4544 -0.2961
  496MPD2    C5 7428   1.731   3.597  15.551 -0.6951 -0.3627  0.6396
  496MPD2     H 7429   1.606   3.329  15.314  1.6109 -0.9220 -0.1718
  496MPD2    H1 7430   1.546   3.600  15.638  0.7908  1.3661 -1.0473
  496MPD2    H2 7431   1.922   3.572  15.462  0.4397 -0.3406 -0.2340
  496MPD2    H3 7432   1.767   3.667  15.626  0.6608  0.0066 -0.3652
  496MPD2     N 7433   1.420   3.417  15.492  0.2035 -0.2884 -0.0785
  496MPD2    H5 7434   1.374   3.456  15.574  1.2492 -2.0582  1.3436
  496MPD2    N1 7435   1.870   3.375  15.309  0.3133 -0.5521  0.1808
  496MPD2    H7 7436   1.957   3.425  15.295  0.9729 -1.7853 -0.1482
  497TMC3    C1 7437   1.230   3.282  15.479 -0.0197 -0.2662 -0.2879
  497TMC3    C2 7438   1.141   3.209  15.406  0.4312  0.1408 -0.1365
  497TMC3    C3 7439   1.037   3.150  15.473  0.7208  0.5410 -0.3060
  497TMC3    C4 7440   1.227   3.277  15.616 -0.2397 -0.5785 -0.1973
  497TMC3    C5 7441   1.114   3.211  15.676  0.0212 -0.2359  0.3276
  497TMC3    C6 7442   1.020   3.151  15.605 -0.2491  0.1364 -0.2148
  497TMC3     C 7443   1.354   3.326  15.414 -0.5628 -0.4363 -0.9644
  497TMC3     O 7444   1.388   3.265  15.313 -0.4300 -0.0881 -0.0752
  497TMC3     H 7445   1.146   3.208  15.298 -1.6014  3.2363 -0.2556
  497TMC3    H1 7446   1.315   3.313  15.668 -0.7309 -1.8308  1.4993
  497TMC3    H2 7447   0.935   3.100  15.650  0.3132  0.5770  1.3346
  497TMC3    C7 7448   1.117   3.189  15.815  0.6481  0.0141  0.7490
  497TMC3    C8 7449   0.924   3.097  15.406  0.5409 -0.9146  0.4734
  497TMC3    O1 7450   1.061   3.086  15.853  0.0577 -0.7854  0.1177
  497TMC3    O2 7451   0.811   3.113  15.448  0.0345  0.1195 -0.9124
  498MPD2     C 7452   1.922   0.176   9.917 -0.2626  0.2639 -0.7671
  498MPD2    C1 7453   1.920   0.150  10.051  0.0947 -0.0632  0.1709
  498MPD2    C2 7454   1.890   0.019  10.089 -0.0883  0.0056  0.1126
  498MPD2    C3 7455   1.834   4.665  10.005 -0.3408  0.0234 -0.2014
  498MPD2    C4 7456   1.829   4.695   9.870 -0.7432 -0.0193  0.0704
  498MPD2    C5 7457   1.874   0.081   9.831  0.5805  0.1457 -0.2282
  498MPD2     H 7458   1.895   4.728  10.193  0.8910 -1.1712 -0.2705
  498MPD2    H1 7459   1.796   4.631   9.790 -1.1353  0.0770  0.1554
  498MPD2    H2 7460   1.963   0.266   9.873  2.2512 -1.4581 -1.9196
  498MPD2    H3 7461   1.871   0.095   9.723 -1.3849  2.4807  0.1157
  498MPD2     N 7462   1.785   4.546  10.059  0.5468  0.0210  0.1853
  498MPD2    H5 7463   1.804   4.535  10.158 -0.8797 -0.2555  0.4332
  498MPD2    N1 7464   1.965   0.246  10.146  0.8454  0.4270  0.1923
  498MPD2    H7 7465   1.986   0.212  10.239 -0.1313 -1.6653 -0.3512
  499TMC3    C1 7466   2.013   0.461  10.237  0.6095 -0.9444  0.7527
  499TMC3    C2 7467   2.132   0.422  10.295  0.2589 -0.5490 -0.2637
  499TMC3    C3 7468   2.184   0.511  10.391  0.1392 -0.1348  0.2842
  499TMC3    C4 7469   1.945   0.579  10.267  0.0912  0.2888  0.0291
  499TMC3    C5 7470   1.997   0.660  10.364  0.5471 -0.4706 -0.3276
  499TMC3    C6 7471   2.119   0.628  10.426 -0.3637  0.5007  0.0764
  499TMC3     C 7472   1.957   0.381  10.130 -0.0287  0.1744 -0.3977
  499TMC3     O 7473   1.909   0.441  10.033  0.5066 -0.2526  0.8200
  499TMC3     H 7474   2.196   0.339  10.269  0.4112  0.0415 -1.8280
  499TMC3    H1 7475   1.850   0.594  10.217  0.0995  2.0581  0.5304
  499TMC3    H2 7476   2.175   0.705  10.479 -0.3121  1.0870 -0.8288
  499TMC3    C7 7477   1.938   0.787  10.374 -0.0688  0.0996 -0.4955
  499TMC3    C8 7478   2.325   0.488  10.429  0.1342  0.2584 -0.1410
  499TMC3    O1 7479   2.017   0.877  10.400 -0.3152 -0.2126  0.9187
  499TMC3    O2 7480   2.403   0.442  10.345  0.6965 -0.2770  0.4324
  500MPD2     C 7481   3.349   0.724  10.567 -0.0622  0.4770  0.2916
  500MPD2    C1 7482   3.286   0.826  10.632  0.6508 -0.0054 -0.3326
  500MPD2    C2 7483   3.156   0.859  10.592  0.0838  0.3947  0.5686
  500MPD2    C3 7484   3.092   0.780  10.493 -0.0457 -0.0742 -0.2107
  500MPD2    C4 7485   3.165   0.687  10.428  0.1122  0.1769 -0.2998
  500MPD2    C5 7486   3.294   0.659  10.462 -0.0271  0.1383 -0.4159
  500MPD2     H 7487   3.101   0.937  10.643  0.5520  0.0894  1.5436
  500MPD2    H1 7488   3.126   0.634  10.342 -3.6335 -0.2745  1.6317
  500MPD2    H2 7489   3.456   0.722  10.584  0.0290 -2.8442 -0.7627
  500MPD2    H3 7490   3.344   0.579  10.407  0.5295  0.3035 -0.1559
  500MPD2     N 7491   2.957   0.807  10.455 -0.3513 -0.4390  0.0850
  500MPD2    H5 7492   2.918   0.736  10.393 -0.1710 -0.1176 -0.3958
  500MPD2    N1 7493   3.355   0.919  10.708  0.5354 -0.5766  0.2778
  500MPD2    H7 7494   3.304   1.006  10.722 -0.2702 -1.0170  0.0763
  501TMC3    C1 7495   3.473   0.990  10.892  0.4611  0.7376  1.0087
  501TMC3    C2 7496   3.468   1.116  10.841 -0.1333  0.0912  0.4853
  501TMC3    C3 7497   3.504   1.214  10.935  0.0428 -0.0291  0.8711
  501TMC3    C4 7498   3.513   0.958  11.021  0.8964  0.1775 -0.1260
  501TMC3    C5 7499   3.551   1.065  11.101 -0.5430 -1.1600 -0.2737
  501TMC3    C6 7500   3.546   1.192  11.067  0.5651 -0.3623  0.5739
  501TMC3     C 7501   3.455   0.885  10.792 -0.1291  0.1038 -0.0138
  501TMC3     O 7502   3.509   0.774  10.812 -0.0903 -0.4859 -0.3974
  501TMC3     H 7503   3.449   1.147  10.739  0.7838  3.4930  1.3346
  501TMC3    H1 7504   3.511   0.852  11.041 -4.3298  0.3604  0.2023
  501TMC3    H2 7505   3.587   1.281  11.113  0.8896 -1.0549  1.6245
  501TMC3    C7 7506   3.609   1.034  11.231  0.2127 -0.2026  0.3262
  501TMC3    C8 7507   3.487   1.352  10.904  0.1723  0.2590  0.2312
  501TMC3    O1 7508   3.624   0.918  11.263  0.0342 -0.0448  0.4349
  501TMC3    O2 7509   3.556   1.406  10.816 -0.0965  0.1004  0.2120
  502TMC3    C1 7510   3.897   4.234  14.938  0.0289 -0.1058 -0.1794
  502TMC3    C2 7511   3.898   4.364  14.902 -0.4292  0.0898 -0.2887
  502TMC3    C3 7512   3.785   4.423  14.857  0.1399 -0.2307  0.7484
  502TMC3    C4 7513   3.790   4.153  14.922 -0.2763 -0.0100  0.1285
  502TMC3    C5 7514   3.679   4.213  14.874  0.0582 -0.1023  0.0424
  502TMC3    C6 7515   3.674   4.350  14.842  0.5682 -0.8987  0.2018
  502TMC3     C 7516   3.997   4.202  15.033 -0.1123 -0.7923 -0.0325
  502TMC3     O 7517   4.110   4.243  15.009 -0.4083 -0.9091  0.7727
  502TMC3     H 7518   3.976   4.429  14.940  0.6259 -1.0445 -0.5039
  502TMC3    H1 7519   3.795   4.049  14.950 -0.6301  0.0016  0.2426
  502TMC3    H2 7520   3.582   4.388  14.801 -0.1741 -0.1251  2.5601
  502TMC3    C7 7521   3.562   4.133  14.875  0.5328  0.4160  1.2265
  502TMC3    C8 7522   3.799   4.562  14.821 -0.4772 -0.0319  0.3691
  502TMC3    O1 7523   3.577   4.012  14.882 -0.7597 -0.2764 -0.7556
  502TMC3    O2 7524   3.910   4.606  14.852 -0.5159  0.0466 -0.2976
  503MPD2     C 7525   1.083   0.184  16.925 -0.2523 -0.6592  0.2530
  503MPD2    C1 7526   1.080   0.189  17.064  0.0944 -0.1281 -0.0219
  503MPD2    C2 7527   1.120   0.070  17.135  0.3314  0.5480 -0.1291
  503MPD2    C3 7528   1.157   4.694  17.067 -0.2834  0.0595  0.2242
  503MPD2    C4 7529   1.159   4.698  16.927 -0.2575  0.2879 -0.3948
  503MPD2    C5 7530   1.128   0.071  16.862  0.2239  0.1837  0.1555
  503MPD2     H 7531   1.124   0.076  17.243  3.1284  3.5566 -0.4014
  503MPD2    H1 7532   1.192   4.618  16.862  0.3753  1.8292 -1.9773
  503MPD2    H2 7533   1.057   0.265  16.858 -1.8759 -0.8915  0.6154
  503MPD2    H3 7534   1.123   0.073  16.753 -0.3962  0.4246  0.1882
  503MPD2     N 7535   1.179   4.574  17.137  0.3445 -0.2120  0.1688
  503MPD2    H5 7536   1.172   4.589  17.237 -0.6785 -1.5622  0.3024
  503MPD2    N1 7537   1.050   0.307  17.135 -0.3453 -0.2227 -0.0030
  503MPD2    H7 7538   1.040   0.298  17.235  1.2883 -1.5135  0.0679
  504TMC3    C1 7539   1.269   4.376  17.192 -0.4700  0.3305  0.1250
  504TMC3    C2 7540   1.197   4.365  17.307 -0.5480  0.3257  0.5479
  504TMC3    C3 7541   1.258   4.305  17.417 -0.3582 -0.7971 -0.2003
  504TMC3    C4 7542   1.393   4.318  17.177 -0.7069 -0.3622 -0.3621
  504TMC3    C5 7543   1.439   4.243  17.278  0.1744 -0.5465  0.5079
  504TMC3    C6 7544   1.371   4.230  17.395  0.3823 -0.4856 -0.0267
  504TMC3     C 7545   1.237   4.461  17.090  0.5382 -0.3754  0.0703
  504TMC3     O 7546   1.292   4.445  16.978 -0.5194  0.0478  0.4638
  504TMC3     H 7547   1.104   4.418  17.321 -1.0777 -1.1203  2.6301
  504TMC3    H1 7548   1.444   4.325  17.081  0.0456 -0.2759  0.0431
  504TMC3    H2 7549   1.420   4.175  17.475 -2.3131 -1.1363  1.1726
  504TMC3    C7 7550   1.568   4.173  17.271 -0.0208  0.2102  0.0509
  504TMC3    C8 7551   1.160   4.258  17.513  0.2689 -0.0678  0.0593
  504TMC3    O1 7552   1.599   4.098  17.364 -0.3323  0.1558  0.0898
  504TMC3    O2 7553   1.044   4.251  17.477  0.1797  0.4562  0.0116
  505MPD2     C 7554   1.049   3.933  10.797  0.1188 -0.2828 -0.3396
  505MPD2    C1 7555   1.096   3.803  10.786  0.5741  0.4764  0.5441
  505MPD2    C2 7556   1.206   3.760  10.871  0.0367 -0.0210  0.0332
  505MPD2    C3 7557   1.260   3.852  10.958 -0.1436 -0.1920 -0.3573
  505MPD2    C4 7558   1.210   3.986  10.963 -0.7361 -0.0601 -0.3226
  505MPD2    C5 7559   1.105   4.023  10.890  0.8528 -0.2311 -0.0266
  505MPD2     H 7560   1.249   3.661  10.864  0.9131  0.1294  3.4261
  505MPD2    H1 7561   1.250   4.056  11.035  0.3870 -0.2471 -0.7660
  505MPD2    H2 7562   0.970   3.966  10.731  0.3940 -0.8945 -0.9756
  505MPD2    H3 7563   1.058   4.119  10.911  1.0869  0.1218 -1.1586
  505MPD2     N 7564   1.365   3.803  11.037 -0.0216  0.0653  0.4217
  505MPD2    H5 7565   1.386   3.704  11.029  1.5012  0.6009 -2.0381
  505MPD2    N1 7566   1.039   3.721  10.690 -0.6703  0.1322  0.1150
  505MPD2    H7 7567   0.971   3.763  10.628  0.7550  3.2707  0.6332
  506TMC3    C1 7568   0.995   3.505  10.592  0.1642  0.3959 -0.1002
  506TMC3    C2 7569   1.022   3.547  10.462  0.0049  0.0056 -0.2329
  506TMC3    C3 7570   1.037   3.461  10.366  0.5039  0.9229  0.5946
  506TMC3    C4 7571   0.995   3.367  10.622 -0.2414 -0.5438 -0.7213
  506TMC3    C5 7572   1.023   3.277  10.524  0.1374  0.5166  0.5088
  506TMC3    C6 7573   1.036   3.328  10.391 -0.1072  0.4232 -0.2642
  506TMC3     C 7574   1.056   3.585  10.698 -0.7249  0.0477  0.2018
  506TMC3     O 7575   1.119   3.519  10.780  0.9296 -0.0467  0.1864
  506TMC3     H 7576   1.025   3.652  10.435  1.8598  0.0214  0.0434
  506TMC3    H1 7577   0.983   3.329  10.723  3.2619 -2.2802 -0.9807
  506TMC3    H2 7578   1.055   3.265  10.305 -0.5780  1.1269 -0.8830
  506TMC3    C7 7579   1.137   3.195  10.560  1.0642 -0.4652  0.0578
  506TMC3    C8 7580   1.064   3.498  10.231 -0.7606 -0.6581  0.4241
  506TMC3    O1 7581   1.163   3.095  10.488 -0.6402  0.0829 -0.7328
  506TMC3    O2 7582   1.012   3.437  10.140  0.0206 -0.4267  0.1673
  507TMC3    C1 7583   2.351   4.557  14.884 -0.2562 -0.2930  0.0641
  507TMC3    C2 7584   2.346   4.529  14.751  0.0745  0.1883  0.0745
  507TMC3    C3 7585   2.330   4.638  14.668  0.3949 -0.8780  0.4315
  507TMC3    C4 7586   2.334   4.685  14.932 -0.2749  0.5667  0.1297
  507TMC3    C5 7587   2.345   0.051  14.843 -0.0252 -0.3495  0.0396
  507TMC3    C6 7588   2.340   0.026  14.708 -0.1878  0.0778  0.1352
  507TMC3     C 7589   2.317   4.438  14.955  0.4333 -0.5319 -0.1781
  507TMC3     O 7590   2.396   4.345  14.925  1.0191 -0.5057 -0.2521
  507TMC3     H 7591   2.342   4.427  14.714  1.1209  0.9654 -2.1514
  507TMC3    H1 7592   2.314   4.702  15.037 -2.5213 -0.9266 -0.0546
  507TMC3    H2 7593   2.330   0.101  14.631 -0.8867 -0.6270 -0.4607
  507TMC3    C7 7594   2.268   0.167  14.882  0.2554 -0.6698 -0.9717
  507TMC3    C8 7595   2.195   4.625  14.598  0.7065 -0.6782 -0.0388
  507TMC3    O1 7596   2.231   0.232  14.780  0.3861 -0.0112 -0.0646
  507TMC3    O2 7597   2.129   4.727  14.600  0.1397 -0.1924  0.1697
  508MPD2     C 7598   3.560   2.075  15.777 -0.0969  0.7233 -0.1206
  508MPD2    C1 7599   3.433   2.085  15.834  0.2016  0.0394  0.2553
  508MPD2    C2 7600   3.329   2.137  15.760 -0.7254 -0.4059  0.4151
  508MPD2    C3 7601   3.359   2.201  15.637  0.5241 -0.1549  0.3402
  508MPD2    C4 7602   3.488   2.213  15.593 -0.4104 -0.5144 -0.4154
  508MPD2    C5 7603   3.589   2.151  15.659 -0.0056  0.0473 -0.7920
  508MPD2     H 7604   3.232   2.164  15.800 -0.3259 -0.4874  1.4453
  508MPD2    H1 7605   3.502   2.266  15.499 -1.0734  1.1304  0.4025
  508MPD2    H2 7606   3.648   2.033  15.822 -0.5306 -0.3898 -0.3024
  508MPD2    H3 7607   3.688   2.151  15.615 -0.6380  0.4471 -2.2394
  508MPD2     N 7608   3.250   2.269  15.573  0.0749  0.3736 -0.0398
  508MPD2    H5 7609   3.161   2.270  15.621 -0.0390 -0.0611 -0.2352
  508MPD2    N1 7610   3.416   2.035  15.963 -0.2729  0.1328 -0.1166
  508MPD2    H7 7611   3.500   2.012  16.016 -1.8635 -1.9677  1.4615
  509TMC3    C1 7612   2.991   2.546  15.296 -0.4390  0.0204 -0.6184
  509TMC3    C2 7613   2.909   2.583  15.402 -0.4863 -0.3953  0.4720
  509TMC3    C3 7614   2.947   2.543  15.524 -0.1887 -0.6413  0.0573
  509TMC3    C4 7615   3.096   2.460  15.304 -0.5813 -0.3898 -0.2373
  509TMC3    C5 7616   3.129   2.419  15.430 -0.6873 -0.7396 -0.2398
  509TMC3    C6 7617   3.061   2.464  15.545 -0.1660  0.0944  0.9741
  509TMC3     C 7618   2.957   2.585  15.159  0.1387  0.1512 -0.3266
  509TMC3     O 7619   3.048   2.566  15.079  0.0094 -0.3294 -0.4510
  509TMC3     H 7620   2.839   2.665  15.386  0.0036 -0.3282 -1.3601
  509TMC3    H1 7621   3.146   2.412  15.220  0.8124  0.9616 -0.1877
  509TMC3    H2 7622   3.097   2.442  15.644 -0.8201  0.7038  1.3480
  509TMC3    C7 7623   3.249   2.330  15.446  0.2771 -0.0694 -0.1385
  509TMC3    C8 7624   2.912   2.622  15.638 -0.6068 -0.4921 -1.1941
  509TMC3    O1 7625   3.324   2.320  15.354  0.1230 -0.2365  0.1298
  509TMC3    O2 7626   2.883   2.552  15.735 -0.3643 -0.0201 -0.4711
  510MPD2     C 7627   0.575   4.037  14.649  0.5298  0.3645 -0.6195
  510MPD2    C1 7628   0.644   3.932  14.704  0.8248 -0.2216 -0.2302
  510MPD2    C2 7629   0.773   3.902  14.661  0.0953  0.1226  0.5982
  510MPD2    C3 7630   0.833   3.972  14.555  0.7633 -1.0623 -0.0604
  510MPD2    C4 7631   0.759   4.078  14.502 -1.2724  0.4831  0.3920
  510MPD2    C5 7632   0.632   4.101  14.544  0.3442  0.4859 -0.1424
  510MPD2     H 7633   0.832   3.834  14.722 -0.6181  1.0347  2.3186
  510MPD2    H1 7634   0.800   4.149  14.431 -0.7651 -0.1461  0.0485
  510MPD2    H2 7635   0.467   4.039  14.655  0.6282  3.0940  0.0615
  510MPD2    H3 7636   0.586   4.183  14.491 -1.5303 -1.0624 -0.9508
  510MPD2     N 7637   0.969   3.940  14.525  0.0663  0.4362  0.0597
  510MPD2    H5 7638   1.013   3.867  14.580  3.4852  1.2894 -1.5573
  510MPD2    N1 7639   0.571   3.856  14.797  0.1534 -0.6075  0.3231
  510MPD2    H7 7640   0.478   3.889  14.820  0.5207 -0.9630  2.3548
  511TMC3    C1 7641   0.521   3.667  14.940  0.0958  0.3194 -0.8003
  511TMC3    C2 7642   0.394   3.723  14.972 -0.9069 -0.4361 -0.3599
  511TMC3    C3 7643   0.312   3.633  15.035  0.0261 -0.2273  0.2913
  511TMC3    C4 7644   0.556   3.535  14.968  0.6626  0.6234  0.0175
  511TMC3    C5 7645   0.452   3.451  15.017 -0.0154  0.3767 -0.4002
  511TMC3    C6 7646   0.336   3.506  15.050 -0.5965  0.7967  0.5825
  511TMC3     C 7647   0.622   3.743  14.866 -0.5954 -0.6905  0.1709
  511TMC3     O 7648   0.724   3.681  14.834 -0.5763 -0.0596 -0.2060
  511TMC3     H 7649   0.371   3.828  14.960  0.4806 -0.0987 -0.0928
  511TMC3    H1 7650   0.654   3.497  14.942  0.1579  0.7906 -2.1292
  511TMC3    H2 7651   0.258   3.436  15.079 -1.4873  1.1628 -0.9004
  511TMC3    C7 7652   0.445   3.337  14.938 -0.6875 -0.1021  0.8677
  511TMC3    C8 7653   0.265   3.683  15.164  0.0470  0.3808 -0.1312
  511TMC3    O1 7654   0.478   3.351  14.821 -0.2328 -0.3541  0.5519
  511TMC3    O2 7655   0.293   3.802  15.186  0.5075  0.5454  0.5311
  512TMC3    C1 7656   4.447   3.363  13.482 -0.0153  0.2970  0.0963
  512TMC3    C2 7657   4.496   3.268  13.556 -0.6349  0.0644  0.5600
  512TMC3    C3 7658   4.590   3.174  13.516  0.1041  0.0604  0.3074
  512TMC3    C4 7659   4.480   3.369  13.350 -0.1711 -0.1312  0.0228
  512TMC3    C5 7660   4.565   3.270  13.303  0.1485 -0.3952  0.2727
  512TMC3    C6 7661   4.623   3.173  13.384  0.0044  0.2213  0.8463
  512TMC3     C 7662   4.446   3.485  13.562  0.1915 -0.0357 -1.1084
  512TMC3     O 7663   4.539   3.499  13.641 -0.4668 -0.0674  0.1753
  512TMC3     H 7664   4.474   3.287  13.660 -0.9427 -0.2606  0.5581
  512TMC3    H1 7665   4.436   3.450  13.293  0.1767  0.1032  0.0863
  512TMC3    H2 7666   4.700   3.110  13.341 -0.5914  0.5054 -0.6504
  512TMC3    C7 7667   4.625   3.301  13.172 -0.0264  0.1212  0.2663
  512TMC3    C8 7668   4.711   3.174  13.590  0.6327 -1.1725 -1.1015
  512TMC3    O1 7669   4.615   3.421  13.142 -0.1697  0.0337  0.2208
  512TMC3    O2 7670   0.051   3.081  13.556  0.6674 -0.1165 -0.2284
  513MPD2     C 7671   1.753   3.208  13.712  0.0663 -0.7189 -0.2635
  513MPD2    C1 7672   1.817   3.207  13.592  0.3503  0.2437  0.2251
  513MPD2    C2 7673   1.953   3.197  13.583 -0.1180  0.1129 -0.0838
  513MPD2    C3 7674   2.029   3.174  13.689 -0.5207 -0.5341  0.2456
  513MPD2    C4 7675   1.965   3.171  13.814 -0.1848 -0.3083 -0.5857
  513MPD2    C5 7676   1.829   3.184  13.823  1.0958  0.8543 -0.1516
  513MPD2     H 7677   2.002   3.195  13.486 -0.1275  0.2573 -0.0911
  513MPD2    H1 7678   2.012   3.153  13.910  0.8302 -1.2262 -1.2653
  513MPD2    H2 7679   1.645   3.220  13.713  0.4915  3.0004  2.9446
  513MPD2    H3 7680   1.778   3.175  13.918  2.7081 -4.5564  0.1814
  513MPD2     N 7681   2.169   3.167  13.665 -0.2774 -0.5401 -0.3442
  513MPD2    H5 7682   2.200   3.184  13.570  0.5756 -0.6114 -0.0783
  513MPD2    N1 7683   1.763   3.221  13.462 -0.4500 -0.3192  0.3298
  513MPD2    H7 7684   1.820   3.204  13.380  1.6356  1.3121  1.4583
  514TMC3    C1 7685   1.616   3.242  13.288  0.3998 -0.3866 -0.5476
  514TMC3    C2 7686   1.568   3.353  13.231 -0.6511  0.3881 -0.0499
  514TMC3    C3 7687   1.602   3.378  13.097  0.1836 -0.1232 -0.1770
  514TMC3    C4 7688   1.701   3.162  13.226  0.5435 -0.6217 -0.2521
  514TMC3    C5 7689   1.738   3.190  13.095  0.3646  0.0518  0.1944
  514TMC3    C6 7690   1.700   3.307  13.035  0.5915 -0.6243 -0.0431
  514TMC3     C 7691   1.632   3.249  13.434  0.3366  0.5398 -0.1953
  514TMC3     O 7692   1.540   3.278  13.507 -0.5658  0.4260  0.1260
  514TMC3     H 7693   1.495   3.414  13.282 -1.5233 -1.1621  0.5436
  514TMC3    H1 7694   1.732   3.071  13.276 -0.5405 -0.9373 -0.1464
  514TMC3    H2 7695   1.739   3.335  12.938  0.4325 -0.3680 -0.0315
  514TMC3    C7 7696   1.885   3.178  13.111  0.1677 -0.3628  0.9157
  514TMC3    C8 7697   1.513   3.467  13.027  0.0443  0.4912 -0.4695
  514TMC3    O1 7698   1.929   3.203  13.219 -0.5667  0.4333 -0.4836
  514TMC3    O2 7699   1.405   3.487  13.076 -0.0781 -0.1533 -0.4392
  515MPD2     C 7700   4.534   4.505  14.775 -0.1297  0.1696 -0.2204
  515MPD2    C1 7701   4.546   4.577  14.667  0.9548  0.2548 -0.2989
  515MPD2    C2 7702   4.607   4.700  14.678  0.3895  0.5502 -0.1055
  515MPD2    C3 7703   4.634   0.012  14.805 -0.4935  0.2592 -0.1265
  515MPD2    C4 7704   4.630   4.662  14.910  0.5987 -0.7384 -0.3068
  515MPD2    C5 7705   4.581   4.542  14.897  0.0834 -0.6598  0.5144
  515MPD2     H 7706   4.619   0.027  14.594  0.0265  0.0289 -0.5655
  515MPD2    H1 7707   4.638   4.703  15.010  0.2851  0.3962 -0.7403
  515MPD2    H2 7708   4.483   4.409  14.779 -0.3760  0.3423  0.7552
  515MPD2    H3 7709   4.566   4.483  14.987  1.2284  2.0518  2.4611
  515MPD2     N 7710   4.689   0.134  14.838  0.1880 -0.4528  0.1660
  515MPD2    H5 7711   0.003   0.137  14.924 -0.7759 -2.8660  0.8432
  515MPD2    N1 7712   4.500   4.541  14.538 -0.6702  0.3482  0.3077
  515MPD2    H7 7713   4.531   4.599  14.460 -0.6068  0.8418  0.6988
  516TMC3    C1 7714   4.373   4.420  14.371 -0.1683  0.1450 -0.2459
  516TMC3    C2 7715   4.303   4.533  14.322 -0.7319  0.1603  0.2779
  516TMC3    C3 7716   4.193   4.509  14.244 -0.2731 -0.0347  0.2487
  516TMC3    C4 7717   4.335   4.294  14.338 -0.2997  0.2594  0.6461
  516TMC3    C5 7718   4.218   4.280  14.268  0.1957  0.5749 -0.1978
  516TMC3    C6 7719   4.147   4.383  14.217 -0.5268  0.1502  0.0359
  516TMC3     C 7720   4.411   4.438  14.510 -0.3886 -0.3315  0.1289
  516TMC3     O 7721   4.366   4.352  14.587 -0.3757  0.5163  0.2793
  516TMC3     H 7722   4.327   4.631  14.363 -0.5178  0.8541 -1.5347
  516TMC3    H1 7723   4.394   4.211  14.377 -2.5518 -1.7307 -0.2242
  516TMC3    H2 7724   4.065   4.369  14.149  1.6472 -1.1854 -2.2997
  516TMC3    C7 7725   4.151   4.157  14.314  0.2467 -0.5262 -0.1830
  516TMC3    C8 7726   4.129   4.622  14.172  0.0467  0.4898 -0.2898
  516TMC3    O1 7727   4.214   4.055  14.329 -0.2304 -0.0745 -0.0883
  516TMC3    O2 7728   4.025   4.608  14.116 -0.3103  0.2004 -0.1701
  517MPD2     C 7729   3.923   1.449  17.682  0.8617  0.1574  0.1723
  517MPD2    C1 7730   4.058   1.470  17.718 -0.0885 -0.0561 -0.2784
  517MPD2    C2 7731   4.093   1.597   0.009 -0.1131  0.6607 -0.1116
  517MPD2    C3 7732   4.003   1.699   0.015  0.0003 -0.4976 -0.9423
  517MPD2    C4 7733   3.874   1.676  17.735  0.5596 -0.3111  0.0348
  517MPD2    C5 7734   3.840   1.552  17.692  0.2530 -0.7775 -0.3559
  517MPD2     H 7735   4.198   1.617   0.029  0.1625 -2.0408  1.2265
  517MPD2    H1 7736   3.793   1.749  17.726 -0.5544 -1.5675 -0.1367
  517MPD2    H2 7737   3.876   1.359  17.643  0.3382  1.2249 -1.6462
  517MPD2    H3 7738   3.734   1.541  17.675  0.0390 -1.3878  1.4030
  517MPD2     N 7739   4.026   1.832   0.063 -0.6237 -0.7031 -0.8805
  517MPD2    H5 7740   3.950   1.900   0.056 -0.3847 -0.3534 -0.0637
  517MPD2    N1 7741   4.157   1.366  17.704 -0.3084  0.8194 -0.1104
  517MPD2    H7 7742   4.254   1.390  17.724  0.1405 -1.5107  0.5155
  518TMC3    C1 7743   4.254   1.159  17.644 -0.2464  0.0573 -0.3536
  518TMC3    C2 7744   4.241   1.022  17.662  0.2289  0.2756 -0.4007
  518TMC3    C3 7745   4.357   0.953  17.688  0.1181  0.2989 -0.0561
  518TMC3    C4 7746   4.378   1.227  17.642 -0.2742  0.2247 -0.3827
  518TMC3    C5 7747   4.483   1.148  17.656 -0.4698  0.7288 -0.3200
  518TMC3    C6 7748   4.478   1.007  17.681 -0.0405 -0.0545 -0.6949
  518TMC3     C 7749   4.129   1.235  17.671 -0.3890 -0.4543  0.1005
  518TMC3     O 7750   4.020   1.175  17.670  0.2735 -0.1279  0.3954
  518TMC3     H 7751   4.143   0.976  17.666  0.0914  0.6082  0.1444
  518TMC3    H1 7752   4.392   1.334  17.644 -0.1308  0.2146 -0.9583
  518TMC3    H2 7753   4.556   0.942  17.719 -0.6359 -1.3233 -1.6344
  518TMC3    C7 7754   4.609   1.209  17.629 -0.5172  1.1565 -0.7111
  518TMC3    C8 7755   4.365   0.812  17.665  1.4072 -0.6878  0.7344
  518TMC3    O1 7756   4.631   1.327  17.627  0.0669  0.5263  0.3601
  518TMC3    O2 7757   4.467   0.760  17.616 -0.5853 -0.2710  0.5555
  519MPD2     C 7758   1.262   4.316  14.321 -0.4242 -0.6203  0.5028
  519MPD2    C1 7759   1.187   4.356  14.218  0.7695 -0.0053  0.6942
  519MPD2    C2 7760   1.249   4.377  14.095  0.2418 -0.0836 -0.3013
  519MPD2    C3 7761   1.393   4.356  14.082  0.0488  0.4270  0.5336
  519MPD2    C4 7762   1.465   4.319  14.195  0.1003  0.2007 -0.9510
  519MPD2    C5 7763   1.399   4.306  14.317  0.3383 -0.8631 -0.4234
  519MPD2     H 7764   1.194   4.427  14.017 -0.1755  0.7811  0.5439
  519MPD2    H1 7765   1.572   4.305  14.192 -0.1004 -1.5087 -0.1115
  519MPD2    H2 7766   1.208   4.290  14.411 -0.8358 -2.5756 -0.3226
  519MPD2    H3 7767   1.451   4.286  14.410 -0.5268  1.0266  0.4664
  519MPD2     N 7768   1.469   4.375  13.960 -0.3723  0.1113  0.7948
  519MPD2    H5 7769   1.568   4.380  13.984 -0.5434  1.7007  1.1452
  519MPD2    N1 7770   1.049   4.375  14.243  0.3006  0.3046 -0.3817
  519MPD2    H7 7771   1.008   4.372  14.336 -2.4798  2.5967 -1.5243
  520TMC3    C1 7772   1.521   4.409  13.739  0.4253  0.2317  0.2531
  520TMC3    C2 7773   1.491   4.485  13.631 -0.4011  0.0360 -0.0891
  520TMC3    C3 7774   1.589   4.493  13.538 -0.4813 -1.0070 -0.0992
  520TMC3    C4 7775   1.640   4.352  13.770 -0.5059 -0.6132 -0.8383
  520TMC3    C5 7776   1.741   4.356  13.675  0.2348 -0.0173  0.1369
  520TMC3    C6 7777   1.714   4.438  13.568 -0.2945 -0.2445 -0.0613
  520TMC3     C 7778   1.420   4.405  13.840 -0.1111 -0.0417 -0.1521
  520TMC3     O 7779   1.308   4.444  13.814  0.9343  0.2426 -0.1253
  520TMC3     H 7780   1.397   4.537  13.613  0.1015  1.4322  1.4270
  520TMC3    H1 7781   1.649   4.272  13.842 -0.3466  0.4900  0.3679
  520TMC3    H2 7782   1.788   4.448  13.489  0.1682 -3.2795 -0.0027
  520TMC3    C7 7783   1.856   4.265  13.692  0.1829 -0.6128 -0.7645
  520TMC3    C8 7784   1.569   4.553  13.411  0.2705 -0.3545 -0.5441
  520TMC3    O1 7785   1.883   4.214  13.802 -0.4158  0.2207 -0.4954
  520TMC3    O2 7786   1.668   4.587  13.344 -0.0320  0.2615  0.1580
  521MPD2     C 7787   2.054   2.783  17.468  0.4539  0.5786  0.3418
  521MPD2    C1 7788   1.996   2.693  17.388 -0.0433 -0.2767  0.2622
  521MPD2    C2 7789   2.071   2.633  17.286  0.2181  0.8660 -0.9024
  521MPD2    C3 7790   2.203   2.668  17.267  1.0160 -0.6248 -0.4825
  521MPD2    C4 7791   2.257   2.769  17.347  0.0364  0.0768  0.2429
  521MPD2    C5 7792   2.178   2.819  17.449  0.1913 -0.2028 -0.1393
  521MPD2     H 7793   2.022   2.562  17.221 -1.7739  0.3871  1.1436
  521MPD2    H1 7794   2.357   2.810  17.333  0.8164 -0.5005  4.1354
  521MPD2    H2 7795   1.997   2.819  17.553 -0.6486 -0.3815  0.0057
  521MPD2    H3 7796   2.222   2.895  17.513  0.4683 -2.1961  2.0360
  521MPD2     N 7797   2.274   2.609  17.163 -0.2991  0.0706 -0.2656
  521MPD2    H5 7798   2.221   2.545  17.104  1.2382  0.4328 -2.0595
  521MPD2    N1 7799   1.868   2.647  17.424  0.3815  0.2652  0.2769
  521MPD2    H7 7800   1.831   2.688  17.510 -0.9058 -0.9866  0.3287
  522TMC3    C1 7801   2.446   2.567  17.017  0.3290  0.6840 -0.5084
  522TMC3    C2 7802   2.570   2.519  17.011 -0.0508  0.1124  0.3218
  522TMC3    C3 7803   2.603   2.441  16.904  0.8360 -0.5186  0.0691
  522TMC3    C4 7804   2.354   2.559  16.915 -0.6626 -0.0306  0.1401
  522TMC3    C5 7805   2.392   2.480  16.804 -0.0955  0.8930  0.6116
  522TMC3    C6 7806   2.515   2.405  16.808 -0.0682 -0.0056 -0.1738
  522TMC3     C 7807   2.408   2.638  17.133 -0.3502  0.1377  0.9592
  522TMC3     O 7808   2.498   2.691  17.197  0.0738  0.0110 -0.3717
  522TMC3     H 7809   2.629   2.526  17.102  0.9353 -1.2369 -0.2309
  522TMC3    H1 7810   2.261   2.613  16.924 -1.6568 -1.2788 -2.4840
  522TMC3    H2 7811   2.536   2.332  16.731  0.3557 -0.5325  0.4458
  522TMC3    C7 7812   2.291   2.439  16.709 -0.4446 -0.1288 -0.0181
  522TMC3    C8 7813   2.739   2.393  16.924 -0.0171 -0.1373 -0.0195
  522TMC3    O1 7814   2.280   2.319  16.701  0.3027 -0.1647  0.3112
  522TMC3    O2 7815   2.806   2.438  17.022 -0.5487  0.1504 -0.4228
  523MPD2     C 7816   4.098   2.460   9.487  0.4452 -0.0980  0.1702
  523MPD2    C1 7817   4.054   2.506   9.611 -0.4426 -0.3914  0.0394
  523MPD2    C2 7818   3.996   2.635   9.611 -0.4197  0.5533 -0.0324
  523MPD2    C3 7819   3.998   2.714   9.495  0.4790 -0.5384 -0.2897
  523MPD2    C4 7820   4.057   2.673   9.384  0.0127  0.6144 -0.6197
  523MPD2    C5 7821   4.103   2.546   9.374  0.2411  0.2918 -1.0459
  523MPD2     H 7822   3.944   2.662   9.702  0.0559  0.1560  0.3519
  523MPD2    H1 7823   4.058   2.727   9.290 -0.2363 -1.5912 -1.8824
  523MPD2    H2 7824   4.140   2.361   9.483 -0.4724 -0.5336  1.6389
  523MPD2    H3 7825   4.124   2.505   9.276  0.9553  0.7856 -1.0967
  523MPD2     N 7826   3.937   2.846   9.491  0.6999  0.1894  0.1534
  523MPD2    H5 7827   3.948   2.896   9.404  0.1838 -4.4036 -2.5314
  523MPD2    N1 7828   4.073   2.421   9.726 -0.2403 -0.1779 -0.4729
  523MPD2    H7 7829   4.107   2.328   9.705  0.2565 -0.3241  0.9497
  524TMC3    C1 7830   3.785   3.021   9.551  0.4359  0.3001  0.6151
  524TMC3    C2 7831   3.767   3.051   9.418  0.6538 -0.2182  0.2505
  524TMC3    C3 7832   3.660   3.132   9.385 -0.2032 -0.9787  0.2308
  524TMC3    C4 7833   3.703   3.072   9.648  0.9782  0.1830  1.0197
  524TMC3    C5 7834   3.609   3.161   9.608 -0.5092  0.5185 -0.1464
  524TMC3    C6 7835   3.592   3.203   9.479  0.2839  0.4377  0.2645
  524TMC3     C 7836   3.861   2.900   9.585  0.0774 -1.0758  0.0133
  524TMC3     O 7837   3.823   2.854   9.690  0.8110  0.2815  0.2614
  524TMC3     H 7838   3.789   2.966   9.354 -0.2371 -0.7748  0.6668
  524TMC3    H1 7839   3.725   3.066   9.753 -1.9275 -2.1876  1.5034
  524TMC3    H2 7840   3.508   3.265   9.452  0.6414  1.5555  1.7700
  524TMC3    C7 7841   3.528   3.220   9.713 -0.2888  0.2605 -0.1180
  524TMC3    C8 7842   3.626   3.149   9.243  0.1530  0.1262 -0.3990
  524TMC3    O1 7843   3.508   3.149   9.812  0.3433 -0.0281  0.2703
  524TMC3    O2 7844   3.514   3.188   9.214 -0.5213  0.4056  0.4380
  525MPD2     C 7845   2.819   4.212  14.049  0.5609 -0.3299  0.2356
  525MPD2    C1 7846   2.933   4.178  14.129  0.7463  0.3024  0.0291
  525MPD2    C2 7847   3.053   4.259  14.121  0.0118 -0.8080 -0.2222
  525MPD2    C3 7848   3.048   4.375  14.045  0.4109  0.5518  0.0186
  525MPD2    C4 7849   2.942   4.390  13.959 -0.6138 -0.6375 -0.0452
  525MPD2    C5 7850   2.828   4.315  13.960 -0.1653 -0.0529  0.7695
  525MPD2     H 7851   3.136   4.239  14.187 -1.1522 -0.9367  1.2035
  525MPD2    H1 7852   2.958   4.467  13.885  1.2377 -1.0642 -0.0762
  525MPD2    H2 7853   2.731   4.149  14.047  1.2447 -1.2281 -1.5375
  525MPD2    H3 7854   2.743   4.345  13.900  0.3055 -0.3034 -0.0216
  525MPD2     N 7855   3.151   4.477  14.035 -0.1472 -0.3711  0.5208
  525MPD2    H5 7856   3.126   4.551  13.970 -1.7924 -1.7068 -0.3868
  525MPD2    N1 7857   2.936   4.062  14.207 -0.0590  0.0340  0.3637
  525MPD2    H7 7858   3.029   4.037  14.238  0.1328  0.5595  0.2083
  526TMC3    C1 7859   2.853   3.896  14.359 -0.1230 -0.3682 -0.5356
  526TMC3    C2 7860   2.784   3.887  14.479  0.2494 -0.5371 -0.1014
  526TMC3    C3 7861   2.825   3.801  14.573  0.9130  0.1995 -0.2584
  526TMC3    C4 7862   2.973   3.829  14.348  0.7766  0.3336  0.1562
  526TMC3    C5 7863   3.011   3.738  14.444 -1.2894  0.3809 -1.0180
  526TMC3    C6 7864   2.942   3.722  14.562 -0.0675  0.1721  0.3783
  526TMC3     C 7865   2.825   4.008  14.273  0.1191  0.8480 -0.6796
  526TMC3     O 7866   2.712   4.048  14.272 -0.5640  0.4135 -0.1349
  526TMC3     H 7867   2.708   3.962  14.495  1.0373  0.1277  0.5293
  526TMC3    H1 7868   3.025   3.840  14.254  0.1194 -0.2762 -0.2859
  526TMC3    H2 7869   2.971   3.652  14.639  0.8280 -0.8488 -0.8895
  526TMC3    C7 7870   3.129   3.656  14.419 -0.5282 -0.2601 -0.2204
  526TMC3    C8 7871   2.759   3.809  14.698 -0.6163  0.2664  0.4071
  526TMC3    O1 7872   3.148   3.558  14.492 -0.5305 -0.3141 -0.1020
  526TMC3    O2 7873   2.827   3.825  14.802  0.1046 -0.0700 -0.1174
  527MPD2     C 7874   1.095   1.659   1.550  1.0307 -0.6135 -0.1654
  527MPD2    C1 7875   1.081   1.621   1.419 -0.1615  0.2687 -0.0478
  527MPD2    C2 7876   1.177   1.647   1.324 -0.5599  0.4510 -0.2379
  527MPD2    C3 7877   1.304   1.688   1.367  0.0930 -0.3391 -0.1764
  527MPD2    C4 7878   1.317   1.739   1.498  1.1211  0.3617 -1.2761
  527MPD2    C5 7879   1.217   1.710   1.585  1.2944  0.6219  0.0855
  527MPD2     H 7880   1.166   1.638   1.216 -0.4271 -1.6576 -0.0720
  527MPD2    H1 7881   1.412   1.776   1.535  1.3367 -0.9170 -0.5570
  527MPD2    H2 7882   1.017   1.644   1.623  1.2231 -2.1966 -0.2847
  527MPD2    H3 7883   1.221   1.735   1.691 -0.7389  0.6292  0.1561
  527MPD2     N 7884   1.411   1.693   1.272 -0.9016 -0.6898  0.5155
  527MPD2    H5 7885   1.387   1.678   1.175 -0.1618 -0.6242  0.3201
  527MPD2    N1 7886   0.971   1.553   1.367 -0.7826  0.1699  0.4324
  527MPD2    H7 7887   0.970   1.545   1.266 -0.2826 -0.9922  0.5155
  528TMC3    C1 7888   0.777   1.412   1.366 -0.5908 -0.0220  0.3166
  528TMC3    C2 7889   0.801   1.409   1.226 -0.6396  0.4975  0.0221
  528TMC3    C3 7890   0.797   1.288   1.160 -0.9190 -0.0454  0.1917
  528TMC3    C4 7891   0.734   1.298   1.425  0.7255  0.4424  0.3026
  528TMC3    C5 7892   0.719   1.182   1.352 -0.1338  0.0319 -0.3472
  528TMC3    C6 7893   0.755   1.172   1.217  1.1844  0.5751  1.1233
  528TMC3     C 7894   0.874   1.490   1.446  0.2256  0.1442 -0.2757
  528TMC3     O 7895   0.872   1.465   1.565  0.7140 -0.2171  0.6701
  528TMC3     H 7896   0.829   1.501   1.175 -1.3602  1.1630  0.8276
  528TMC3    H1 7897   0.702   1.300   1.529 -1.2573  1.0361 -0.3271
  528TMC3    H2 7898   0.775   1.075   1.173 -0.8839  0.9335 -0.6065
  528TMC3    C7 7899   0.664   1.061   1.420 -0.7309  0.3440 -0.1957
  528TMC3    C8 7900   0.796   1.301   1.012  0.5962  0.0354 -0.1926
  528TMC3    O1 7901   0.615   1.079   1.528  0.0342  0.1154 -0.7868
  528TMC3    O2 7902   0.873   1.377   0.953 -0.0033 -0.1771  0.4612
  529MPD2     C 7903   3.014   0.313   1.030  0.1412  0.1992  0.1345
  529MPD2    C1 7904   3.079   0.211   0.970 -0.4697  0.2563  0.3966
  529MPD2    C2 7905   3.119   0.230   0.840 -0.1517 -0.2998  0.3839
  529MPD2    C3 7906   3.085   0.339   0.767  0.1272 -0.2223 -0.1042
  529MPD2    C4 7907   3.019   0.442   0.834  0.2710  0.3401 -1.1355
  529MPD2    C5 7908   2.988   0.433   0.967  0.3349  0.3750 -0.0963
  529MPD2     H 7909   3.194   0.164   0.799 -0.1652 -0.7422  1.0640
  529MPD2    H1 7910   2.982   0.531   0.784 -1.6384  0.7922  1.1131
  529MPD2    H2 7911   2.997   0.308   1.137 -0.6664 -0.5929 -0.0332
  529MPD2    H3 7912   2.953   0.521   1.021  0.0842  0.7523 -0.8849
  529MPD2     N 7913   3.117   0.358   0.635  0.2679  0.3870  0.3095
  529MPD2    H5 7914   3.087   0.444   0.590  0.4491  0.5139  0.4334
  529MPD2    N1 7915   3.097   0.085   1.029 -0.0417 -0.0438 -0.4974
  529MPD2    H7 7916   3.075   0.064   1.126  1.9101 -0.3668 -0.1203
  530TMC3    C1 7917   3.158   4.603   1.063  0.1440  0.6678  0.6157
  530TMC3    C2 7918   3.198   4.634   1.192  0.4016 -0.2528  0.1598
  530TMC3    C3 7919   3.235   4.520   1.259 -0.0616  0.6051  0.0681
  530TMC3    C4 7920   3.143   4.483   1.004 -0.6144 -0.5326 -0.1722
  530TMC3    C5 7921   3.166   4.377   1.082 -0.7062  0.8753 -0.3130
  530TMC3    C6 7922   3.216   4.392   1.209 -0.0820 -0.2872  0.4409
  530TMC3     C 7923   3.132   4.710   0.967  0.3039  0.3071  0.9591
  530TMC3     O 7924   3.125   4.690   0.846  0.3040  0.2009 -0.3457
  530TMC3     H 7925   3.215   4.729   1.241 -0.4515  0.0529 -0.1310
  530TMC3    H1 7926   3.092   4.476   0.909  2.5553  0.1492 -1.9309
  530TMC3    H2 7927   3.251   4.308   1.267 -0.8114  0.7802  2.4588
  530TMC3    C7 7928   3.118   4.241   1.037 -0.0395  0.0829  0.4182
  530TMC3    C8 7929   3.276   4.526   1.400  0.6894 -0.2538  0.4178
  530TMC3    O1 7930   3.114   4.217   0.914  0.4741 -0.5547 -0.1159
  530TMC3    O2 7931   3.227   4.605   1.477 -0.5574  0.4951  0.7244
  531MPD2     C 7932   2.339   2.933  13.049  0.3892 -0.1508  0.2354
  531MPD2    C1 7933   2.290   3.023  13.146 -0.1732  0.1490  0.0727
  531MPD2    C2 7934   2.163   3.074  13.132 -0.2190  0.3478 -0.3193
  531MPD2    C3 7935   2.076   3.042  13.034 -0.2683  1.1035 -0.0680
  531MPD2    C4 7936   2.127   2.955  12.944 -0.1483  0.1136  0.1195
  531MPD2    C5 7937   2.257   2.903  12.946 -0.7599  0.0493 -0.4672
  531MPD2     H 7938   2.137   3.144  13.211 -1.0219 -1.9256  1.4286
  531MPD2    H1 7939   2.058   2.926  12.865  1.2797 -0.0147 -1.0827
  531MPD2    H2 7940   2.431   2.877  13.061  1.8346  1.7207 -2.2011
  531MPD2    H3 7941   2.294   2.839  12.867 -1.5014  0.2610 -0.9809
  531MPD2     N 7942   1.943   3.095  13.018 -0.0961  0.3322  0.9162
  531MPD2    H5 7943   1.890   3.071  12.936  2.0499  0.8994 -0.6438
  531MPD2    N1 7944   2.370   3.052  13.255  0.0537  0.4767 -0.1680
  531MPD2    H7 7945   2.469   3.029  13.252  0.2237  1.4040 -1.5089
  532TMC3    C1 7946   2.441   3.121  13.466  0.0215  0.3284  0.8918
  532TMC3    C2 7947   2.397   3.198  13.573 -0.8027 -0.2281  0.8617
  532TMC3    C3 7948   2.392   3.142  13.695 -0.7708 -0.6618 -0.5072
  532TMC3    C4 7949   2.485   2.998  13.480  0.5320 -0.1329 -0.2261
  532TMC3    C5 7950   2.473   2.942  13.599  0.7781  0.4822  0.0304
  532TMC3    C6 7951   2.434   3.014  13.708  0.1765 -0.1462 -0.7454
  532TMC3     C 7952   2.341   3.130  13.363  0.5162 -0.0481 -0.3258
  532TMC3     O 7953   2.237   3.193  13.391  0.5160  0.3173  0.1692
  532TMC3     H 7954   2.372   3.303  13.565  0.0784  0.1688  3.1702
  532TMC3    H1 7955   2.527   2.944  13.396  0.8242 -1.4209  0.7470
  532TMC3    H2 7956   2.420   2.963  13.803 -2.7210 -0.2261 -1.2190
  532TMC3    C7 7957   2.546   2.826  13.634 -0.1648 -0.2981 -0.5104
  532TMC3    C8 7958   2.263   3.158  13.764  0.1859  0.4631 -0.5271
  532TMC3    O1 7959   2.628   2.841  13.720  1.0448  0.2477 -0.3346
  532TMC3    O2 7960   2.247   3.115  13.877  0.6558 -0.4098  0.2697
  533TMC3    C1 7961   3.334   4.610  14.080  0.2747 -0.4700 -1.1721
  533TMC3    C2 7962   3.465   4.617  14.121  0.2587  0.5257  0.1943
  533TMC3    C3 7963   3.511   4.736  14.166 -1.0144 -0.2582 -0.5492
  533TMC3    C4 7964   3.254   4.713  14.103  0.0910  0.1159  0.4673
  533TMC3    C5 7965   3.298   0.078  14.187 -1.1563  0.4622  0.0975
  533TMC3    C6 7966   3.429   0.102  14.197 -0.1399 -0.0744 -0.2417
  533TMC3     C 7967   3.275   4.477  14.084  0.1254 -0.3856  0.3175
  533TMC3     O 7968   3.349   4.388  14.133 -0.0377 -0.1086 -0.8762
  533TMC3     H 7969   3.526   4.532  14.094  1.4892  0.6452  2.5618
  533TMC3    H1 7970   3.146   4.707  14.102  0.0722  0.3367  0.9295
  533TMC3    H2 7971   3.458   0.180  14.266  1.1605 -0.6463 -0.1442
  533TMC3    C7 7972   3.229   0.058  14.309  0.0291 -0.6311  0.5645
  533TMC3    C8 7973   3.644   0.011  14.214 -0.1677 -0.0267 -0.2543
  533TMC3    O1 7974   3.178   4.684  14.328 -0.3302 -0.6987 -0.4188
  533TMC3    O2 7975   3.702   0.112  14.174  0.0888 -0.2766  0.6889
  534MPD2     C 7976   0.833   4.572   0.978 -0.0104  0.2335  0.5054
  534MPD2    C1 7977   0.785   4.645   1.082 -0.3279 -0.0155  0.8929
  534MPD2    C2 7978   0.653   4.677   1.096 -0.3444  0.3478  0.3039
  534MPD2    C3 7979   0.565   4.634   1.005  0.7243  0.4884 -0.5165
  534MPD2    C4 7980   0.609   4.548   0.908 -0.1824 -0.6586  0.4605
  534MPD2    C5 7981   0.745   4.522   0.888 -0.1893  0.2452  0.6933
  534MPD2     H 7982   0.638   0.008   1.177 -1.5295 -0.3736  0.6998
  534MPD2    H1 7983   0.542   4.504   0.834 -0.5784  0.4808  0.1456
  534MPD2    H2 7984   0.937   4.544   0.973 -0.1964 -0.4811  0.6060
  534MPD2    H3 7985   0.788   4.458   0.812 -1.6649 -1.2271  1.0900
  534MPD2     N 7986   0.426   4.668   1.001 -0.6695 -0.1971 -0.5475
  534MPD2    H5 7987   0.374   4.629   0.924  1.0630 -0.9863 -1.3242
  534MPD2    N1 7988   0.874   4.713   1.169 -0.6877 -0.5302 -0.1153
  534MPD2    H7 7989   0.834   0.043   1.232  0.4412  1.0316 -1.1235
  535TMC3    C1 7990   0.221   0.014   1.063 -0.4243 -0.6500 -0.0269
  535TMC3    C2 7991   0.140   0.035   1.176  0.1677  0.1171 -0.4227
  535TMC3    C3 7992   0.061   0.140   1.179  0.2258  0.1115  0.1339
  535TMC3    C4 7993   0.212   0.111   0.965 -0.0787 -0.0871 -0.0072
  535TMC3    C5 7994   0.123   0.218   0.969  0.0774 -1.6208 -0.0839
  535TMC3    C6 7995   0.053   0.239   1.079 -0.3117 -0.4189  0.5008
  535TMC3     C 7996   0.358   4.728   1.101 -0.0594  0.3871  0.3109
  535TMC3     O 7997   0.404   0.033   1.207 -0.3725  0.5697 -0.3692
  535TMC3     H 7998   0.140   4.700   1.255  1.1175  0.9792  0.3744
  535TMC3    H1 7999   0.274   0.105   0.876  2.3928 -1.0051  1.7662
  535TMC3    H2 8000   4.733   0.329   1.079  2.3616  1.3459  1.7528
  535TMC3    C7 8001   0.132   0.314   0.866  0.0869  0.4223 -0.2542
  535TMC3    C8 8002   4.684   0.138   1.263  0.3544  0.0881  0.0258
  535TMC3    O1 8003   0.166   0.268   0.759 -0.3184  0.0604 -0.6718
  535TMC3    O2 8004   4.658   0.032   1.321 -0.4664  0.1572 -0.0947
  536MPD2     C 8005   4.262   3.640  16.244  0.6010  0.7880 -0.0398
  536MPD2    C1 8006   4.131   3.609  16.287 -0.3042 -0.2896  0.3448
  536MPD2    C2 8007   4.022   3.661  16.218 -0.0289 -0.1513  0.1686
  536MPD2    C3 8008   4.047   3.744  16.114 -0.2098  0.3434  0.2878
  536MPD2    C4 8009   4.175   3.770  16.069  0.3587 -0.3580  0.6958
  536MPD2    C5 8010   4.282   3.712  16.131 -0.1362 -0.2561  0.5372
  536MPD2     H 8011   3.920   3.638  16.245 -0.1018  0.7730  0.6895
  536MPD2    H1 8012   4.193   3.828  15.980  0.5998 -0.9954  0.3232
  536MPD2    H2 8013   4.347   3.601  16.300 -0.2033 -1.4244 -0.3554
  536MPD2    H3 8014   4.384   3.731  16.097 -0.9669  1.4084 -1.0275
  536MPD2     N 8015   3.942   3.801  16.040  0.5257 -0.2396 -0.2161
  536MPD2    H5 8016   3.963   3.872  15.971  1.3579 -0.0631  0.2233
  536MPD2    N1 8017   4.127   3.514  16.394  0.0448 -0.1678  0.7992
  536MPD2    H7 8018   4.216   3.492  16.437 -0.5441 -0.9832  1.6112
  537TMC3    C1 8019   4.036   3.385  16.569 -0.1265  0.2549 -0.6781
  537TMC3    C2 8020   4.101   3.454  16.667 -0.4069 -0.0208  0.1335
  537TMC3    C3 8021   4.112   3.383  16.783 -0.5968 -0.3876  0.1088
  537TMC3    C4 8022   3.976   3.263  16.581 -0.3399 -0.1523  0.1643
  537TMC3    C5 8023   3.999   3.201  16.699  0.2071 -0.3636 -0.6223
  537TMC3    C6 8024   4.060   3.262  16.806  0.1682 -0.3300 -0.3571
  537TMC3     C 8025   4.010   3.460  16.449 -0.1730 -0.2988  0.2257
  537TMC3     O 8026   3.902   3.446  16.393 -0.0467  0.0759 -0.1970
  537TMC3     H 8027   4.155   3.547  16.650  1.0813 -0.9961 -0.5547
  537TMC3    H1 8028   3.924   3.214  16.500 -1.3034  0.6545  0.2979
  537TMC3    H2 8029   4.058   3.220  16.906 -1.1306  1.4276  0.3658
  537TMC3    C7 8030   3.932   3.076  16.716  0.6847  0.4467  0.1632
  537TMC3    C8 8031   4.207   3.442  16.875  0.0658  0.0339 -0.1754
  537TMC3    O1 8032   3.832   3.057  16.647 -0.0603 -0.4449 -0.1517
  537TMC3    O2 8033   4.238   3.557  16.844 -0.3727  0.3055 -1.1609
  538TMC3    C1 8034   0.231   2.685  10.671  0.0030  0.4566  0.4161
  538TMC3    C2 8035   0.342   2.628  10.604  0.3284  0.0191  0.4342
  538TMC3    C3 8036   0.338   2.618  10.471  0.4673 -0.3174  0.1068
  538TMC3    C4 8037   0.120   2.715  10.595 -0.2470  0.6508  0.0142
  538TMC3    C5 8038   0.124   2.709  10.461 -0.5067  0.5410  0.1626
  538TMC3    C6 8039   0.237   2.665  10.400  0.0978 -0.1525  0.3949
  538TMC3     C 8040   0.240   2.758  10.796  0.0936  0.0517 -0.8458
  538TMC3     O 8041   0.149   2.840  10.802 -0.5413  0.3843  0.3789
  538TMC3     H 8042   0.433   2.614  10.661 -0.0942  2.0165  1.5733
  538TMC3    H1 8043   0.024   2.736  10.640 -0.6946  0.3092 -0.7711
  538TMC3    H2 8044   0.252   2.654  10.293 -0.9870 -1.3324  0.3725
  538TMC3    C7 8045   0.013   2.776  10.394  0.1931 -0.1295 -0.3359
  538TMC3    C8 8046   0.451   2.695  10.419 -0.3640 -0.0686  0.5405
  538TMC3    O1 8047   4.646   2.774  10.456 -0.4697 -0.0478 -0.3332
  538TMC3    O2 8048   0.423   2.811  10.400  0.2757 -0.1155  0.6112
  539MPD2     C 8049   4.347   1.976  11.895  0.8303  0.0192  0.3599
  539MPD2    C1 8050   4.428   2.014  11.791 -0.5346 -0.1563 -1.2575
  539MPD2    C2 8051   4.445   2.145  11.757  0.0826 -0.0322 -0.1910
  539MPD2    C3 8052   4.380   2.247  11.829 -0.2650  0.1732  0.1783
  539MPD2    C4 8053   4.313   2.206  11.943  0.0025 -0.6146  0.5740
  539MPD2    C5 8054   4.287   2.075  11.970 -0.5122  0.4224  0.4458
  539MPD2     H 8055   4.490   2.166  11.660  3.1502 -0.9744  1.0334
  539MPD2    H1 8056   4.259   2.272  12.010  0.5284 -0.4743  0.8609
  539MPD2    H2 8057   4.322   1.876  11.929 -0.9546  0.6006  0.7350
  539MPD2    H3 8058   4.220   2.060  12.054 -2.2984  0.3373 -0.9916
  539MPD2     N 8059   4.357   2.378  11.772  0.2986  0.3291  0.0797
  539MPD2    H5 8060   4.290   2.438  11.818  2.5560  2.5868  0.4022
  539MPD2    N1 8061   4.482   1.913  11.704 -0.2997  0.1530  0.2337
  539MPD2    H7 8062   4.523   1.936  11.614 -1.1342 -0.7208 -0.3684
  540TMC3    C1 8063   4.343   2.557  11.625 -0.1841 -0.2435 -0.3859
  540TMC3    C2 8064   4.391   2.621  11.513 -0.2248 -0.6914 -0.3776
  540TMC3    C3 8065   4.326   2.731  11.465 -0.1999 -0.3356 -0.8528
  540TMC3    C4 8066   4.242   2.611  11.698  0.4719 -0.2299 -0.0585
  540TMC3    C5 8067   4.177   2.723  11.644 -0.4679 -0.1700  0.1658
  540TMC3    C6 8068   4.225   2.792  11.532 -0.3159  0.3918 -0.4160
  540TMC3     C 8069   4.417   2.436  11.663  0.5547  0.6334 -0.2484
  540TMC3     O 8070   4.484   2.386  11.574  0.3748 -0.3716  0.3526
  540TMC3     H 8071   4.477   2.578  11.463  0.4756 -0.7407  0.8661
  540TMC3    H1 8072   4.211   2.558  11.787  0.1503  1.5547  0.8875
  540TMC3    H2 8073   4.169   2.870  11.481  1.8652  1.2496 -1.5311
  540TMC3    C7 8074   4.079   2.793  11.719 -0.8054  0.3911  0.2049
  540TMC3    C8 8075   4.321   2.747  11.327 -0.6768 -0.0988 -0.9952
  540TMC3    O1 8076   4.011   2.715  11.791  0.0300 -0.7158  0.2743
  540TMC3    O2 8077   4.381   2.836  11.275 -0.4511  0.6176  0.1677
  541MPD2     C 8078   3.165   3.069  13.135 -0.8564  0.3700  0.3757
  541MPD2    C1 8079   3.027   3.055  13.116 -0.0150  0.4269 -0.1639
  541MPD2    C2 8080   2.965   3.106  13.010 -0.3843  0.0373 -0.4470
  541MPD2    C3 8081   3.037   3.179  12.910 -0.1171  0.1035 -0.6639
  541MPD2    C4 8082   3.183   3.182  12.922 -0.1707 -0.9305 -0.8049
  541MPD2    C5 8083   3.239   3.130  13.038  0.0568 -0.1672 -0.7958
  541MPD2     H 8084   2.857   3.100  13.003 -0.1647 -1.2943 -2.4674
  541MPD2    H1 8085   3.249   3.223  12.847 -0.1300  0.7134  0.1176
  541MPD2    H2 8086   3.218   3.031  13.221  0.7953 -0.5305 -1.0479
  541MPD2    H3 8087   3.343   3.138  13.067  0.3417 -1.9366 -1.3165
  541MPD2     N 8088   2.974   3.233  12.792  0.1660  0.1681 -0.1764
  541MPD2    H5 8089   3.031   3.252  12.710  0.0906 -0.4006 -0.3641
  541MPD2    N1 8090   2.947   2.980  13.210 -0.5543  0.3793  0.1702
  541MPD2    H7 8091   2.846   2.982  13.208 -0.5328 -0.3362 -2.5706
  542TMC3    C1 8092   2.790   3.308  12.662  0.7215  0.3387  0.8898
  542TMC3    C2 8093   2.862   3.285  12.544  0.4380 -0.2232 -0.4241
  542TMC3    C3 8094   2.805   3.311  12.423 -0.5497 -0.3888 -0.5797
  542TMC3    C4 8095   2.667   3.363  12.651 -0.2499 -0.5608 -0.6747
  542TMC3    C5 8096   2.618   3.384  12.528 -0.4443  0.5181  0.4089
  542TMC3    C6 8097   2.678   3.359  12.405  0.0034  0.3372  0.3117
  542TMC3     C 8098   2.840   3.264  12.789 -0.6644 -0.3757 -0.5397
  542TMC3     O 8099   2.757   3.276  12.878 -0.0342  0.1005 -0.0159
  542TMC3     H 8100   2.950   3.222  12.541  1.0017  0.6272 -1.9429
  542TMC3    H1 8101   2.609   3.385  12.740  0.4329 -1.9163  0.1043
  542TMC3    H2 8102   2.621   3.389  12.318  1.0678  0.3560 -0.3811
  542TMC3    C7 8103   2.479   3.423  12.533 -0.2123  0.0845  0.1462
  542TMC3    C8 8104   2.882   3.320  12.305  0.2811 -0.1747  0.3937
  542TMC3    O1 8105   2.455   3.532  12.584 -0.9081 -0.1997  0.4181
  542TMC3    O2 8106   2.822   3.285  12.203 -1.0718 -0.3387 -0.2308
  543TMC3    C1 8107   3.119   0.109  17.214 -1.1152 -0.9491 -0.2193
  543TMC3    C2 8108   3.112   0.016  17.312  0.1947  0.3712 -0.3990
  543TMC3    C3 8109   3.131   0.050  17.443 -0.0542 -0.7949 -0.5169
  543TMC3    C4 8110   3.142   0.232  17.247 -0.2262  0.1002 -0.3517
  543TMC3    C5 8111   3.160   0.266  17.377  0.6659 -0.0047 -0.3412
  543TMC3    C6 8112   3.150   0.182  17.483 -0.2127 -0.0384  0.3389
  543TMC3     C 8113   3.097   0.064  17.078 -1.0169  1.2936 -0.4580
  543TMC3     O 8114   3.137   4.689  17.053 -0.0221  0.2215 -0.1493
  543TMC3     H 8115   3.085   4.656  17.278  1.7640 -0.4287  0.7270
  543TMC3    H1 8116   3.147   0.303  17.165  1.5992  0.3822  0.0065
  543TMC3    H2 8117   3.163   0.219  17.585  0.3833  0.6350  0.0236
  543TMC3    C7 8118   3.179   0.401  17.410  0.7076 -0.0559  0.1871
  543TMC3    C8 8119   3.179   4.690  17.539  0.3820 -0.6268  0.3069
  543TMC3    O1 8120   3.227   0.417  17.522  0.5883 -0.2988 -0.1991
  543TMC3    O2 8121   3.237   4.734  17.636 -0.3940 -0.1342 -0.4393
  544MPD2     C 8122   3.319   4.202  17.633 -0.2428 -0.1206  0.0490
  544MPD2    C1 8123   3.247   4.207  17.513 -0.1119  0.3249  0.1034
  544MPD2    C2 8124   3.201   4.329  17.468  0.0872 -0.1066  0.4719
  544MPD2    C3 8125   3.225   4.446  17.540 -0.3363  0.6332 -0.5972
  544MPD2    C4 8126   3.301   4.443  17.652  0.2379  0.1901 -0.5391
  544MPD2    C5 8127   3.346   4.320  17.699 -0.3165 -0.6788  0.4047
  544MPD2     H 8128   3.128   4.343  17.389  0.8753  0.3069 -0.1823
  544MPD2    H1 8129   3.335   4.531  17.705  2.5573  0.1808 -1.9971
  544MPD2    H2 8130   3.362   4.115  17.680  0.0185 -0.1556 -0.2517
  544MPD2    H3 8131   3.412   4.321   0.029  0.9422 -1.1333 -0.5602
  544MPD2     N 8132   3.175   4.567  17.483  0.3180  0.9549 -0.3246
  544MPD2    H5 8133   3.120   4.557  17.399 -1.6887  1.0582  0.9778
  544MPD2    N1 8134   3.221   4.087  17.447  0.4285 -0.1447 -0.0535
  544MPD2    H7 8135   3.238   4.003  17.501 -1.7492 -1.5865 -1.5837
  545TMC3    C1 8136   3.154   3.931  17.281  0.3401 -0.7311  0.2970
  545TMC3    C2 8137   3.163   3.895  17.151  0.1580 -0.3608 -0.1484
  545TMC3    C3 8138   3.139   3.763  17.126  0.5984  0.4053 -0.1809
  545TMC3    C4 8139   3.122   3.839  17.378 -0.5607 -0.2645 -0.3759
  545TMC3    C5 8140   3.100   3.710  17.349 -0.3359  0.0300 -0.1848
  545TMC3    C6 8141   3.115   3.672  17.223  0.6640  0.6121  1.0660
  545TMC3     C 8142   3.164   4.072  17.322  0.5788  0.2430 -0.6378
  545TMC3     O 8143   3.149   4.147  17.232 -0.3164  0.1293 -0.5852
  545TMC3     H 8144   3.196   3.961  17.072 -0.0403 -0.6508 -0.4720
  545TMC3    H1 8145   3.100   3.866  17.481  3.2858 -1.0830  0.6690
  545TMC3    H2 8146   3.089   3.570  17.195 -1.9213  1.2036  1.3856
  545TMC3    C7 8147   2.988   3.661  17.422  0.2610 -0.1800 -0.3393
  545TMC3    C8 8148   3.195   3.698  17.013  0.2852 -0.3320  0.2608
  545TMC3    O1 8149   2.898   3.741  17.425 -0.1369  0.4626  0.0377
  545TMC3    O2 8150   3.248   3.589  17.022 -0.1712  0.3643  0.5387
  546MPD2     C 8151   4.291   4.057  17.345  0.9410 -0.2636 -0.7194
  546MPD2    C1 8152   4.284   4.126  17.224 -0.2130 -0.3157 -0.5476
  546MPD2    C2 8153   4.333   4.256  17.208 -0.6413 -0.9331 -0.4721
  546MPD2    C3 8154   4.383   4.320  17.321 -0.7319 -0.0396 -0.0850
  546MPD2    C4 8155   4.401   4.246  17.438 -0.0091 -0.0307  0.0050
  546MPD2    C5 8156   4.358   4.114  17.448 -0.4837  0.6312  0.1661
  546MPD2     H 8157   4.326   4.303  17.111 -0.7357  0.4314  0.2034
  546MPD2    H1 8158   4.459   4.292  17.517  0.1239  0.0082 -0.1168
  546MPD2    H2 8159   4.256   3.954  17.349 -0.1499  0.2162  2.3624
  546MPD2    H3 8160   4.377   4.054  17.536  0.7639 -1.2261 -1.3526
  546MPD2     N 8161   4.423   4.451  17.321 -0.4852  0.4730 -0.2637
  546MPD2    H5 8162   4.443   4.492  17.412  0.0785  2.9399 -1.4850
  546MPD2    N1 8163   4.203   4.064  17.125  0.2657  0.0410 -0.0711
  546MPD2    H7 8164   4.172   3.969  17.143 -1.0977  0.6082  0.5427
  547TMC3    C1 8165   4.097   4.009  16.924  0.5115 -0.2231  0.6233
  547TMC3    C2 8166   4.000   4.062  16.846 -0.6189 -0.3126 -0.2798
  547TMC3    C3 8167   3.891   3.988  16.820  0.0793 -0.0501 -0.1225
  547TMC3    C4 8168   4.097   3.878  16.970 -0.4154  0.0400 -0.0861
  547TMC3    C5 8169   3.986   3.808  16.937  0.2790  0.1842 -0.6048
  547TMC3    C6 8170   3.880   3.856  16.865  0.1883  0.6221 -0.2159
  547TMC3     C 8171   4.184   4.099  16.993  0.1521 -0.5878 -0.5180
  547TMC3     O 8172   4.208   4.203  16.935 -0.4179 -0.4027 -0.3168
  547TMC3     H 8173   4.007   4.156  16.792 -0.7851 -1.6747 -2.6605
  547TMC3    H1 8174   4.184   3.831  17.015  0.5218  2.0911  0.2219
  547TMC3    H2 8175   3.785   3.804  16.865  1.0340 -0.9420  2.1325
  547TMC3    C7 8176   3.978   3.706  17.035  0.0405 -0.2652  0.2751
  547TMC3    C8 8177   3.795   4.030  16.716  0.8019 -0.4989 -0.7422
  547TMC3    O1 8178   4.041   3.717  17.138 -0.3173 -0.5868  0.3359
  547TMC3    O2 8179   3.758   4.147  16.727  0.0800 -0.4153  0.6443
  548MPD2     C 8180   3.189   0.408  12.585  0.4677  0.1356 -0.8387
  548MPD2    C1 8181   3.141   0.281  12.616  0.1627  0.7009 -0.1859
  548MPD2    C2 8182   3.228   0.169  12.617  0.0292 -0.2062  0.6466
  548MPD2    C3 8183   3.366   0.190  12.614 -0.1060 -0.0663  0.1181
  548MPD2    C4 8184   3.411   0.316  12.601 -0.7656 -0.1814  0.7763
  548MPD2    C5 8185   3.332   0.420  12.575 -0.4730 -0.0348 -0.1243
  548MPD2     H 8186   3.191   0.068  12.630  0.1100 -0.3900 -0.5543
  548MPD2    H1 8187   3.517   0.335  12.609 -0.6932  0.0937 -0.6963
  548MPD2    H2 8188   3.126   0.495  12.588 -1.2874 -1.1710 -0.0857
  548MPD2    H3 8189   3.379   0.510  12.538  0.9655 -0.9162 -0.4509
  548MPD2     N 8190   3.450   0.076  12.635 -0.0162 -0.0528  0.8999
  548MPD2    H5 8191   3.403   4.726  12.637  0.1918 -0.1853 -0.0775
  548MPD2    N1 8192   2.998   0.282  12.627 -0.0410 -0.1083  0.9428
  548MPD2    H7 8193   2.952   0.369  12.606 -0.3418 -0.2977  0.8225
  549TMC3    C1 8194   2.790   0.192  12.674 -0.6881  0.1927  0.0995
  549TMC3    C2 8195   2.738   0.315  12.682  0.0279 -0.1341  0.3739
  549TMC3    C3 8196   2.605   0.326  12.663 -0.0293 -0.5629  0.0793
  549TMC3    C4 8197   2.720   0.074  12.686 -0.0217  0.2816 -0.6031
  549TMC3    C5 8198   2.588   0.093  12.677 -0.3700  0.1388  0.2996
  549TMC3    C6 8199   2.528   0.213  12.656 -0.0734  0.4590 -0.0626
  549TMC3     C 8200   2.927   0.175  12.670  0.8503 -0.1422 -0.2586
  549TMC3     O 8201   2.970   0.070  12.711  0.5224 -0.4262  0.0584
  549TMC3     H 8202   2.800   0.402  12.698 -0.7315  0.5174 -0.1625
  549TMC3    H1 8203   2.763   4.714  12.698  0.9578  0.6934 -0.6811
  549TMC3    H2 8204   2.419   0.214  12.658  0.0113  1.2040  2.9803
  549TMC3    C7 8205   2.502   4.724  12.708 -0.4428 -0.3625  0.2631
  549TMC3    C8 8206   2.541   0.459  12.650  0.4335 -0.1852 -0.0111
  549TMC3    O1 8207   2.390   0.017  12.742  0.9887  0.2888  0.1485
  549TMC3    O2 8208   2.416   0.456  12.645 -0.0277 -0.1820 -0.0130
  550TMC3    C1 8209   2.446   2.855  12.061 -0.6031  0.2421 -0.2699
  550TMC3    C2 8210   2.496   2.849  12.192  0.0571  0.0350  0.6870
  550TMC3    C3 8211   2.541   2.961  12.245  0.1544  0.5084  0.4923
  550TMC3    C4 8212   2.436   2.970  11.993  0.1332 -0.6322  0.8858
  550TMC3    C5 8213   2.494   3.081  12.056 -0.5835  0.1916  0.4003
  550TMC3    C6 8214   2.559   3.073  12.174  0.3647  0.7287 -0.4907
  550TMC3     C 8215   2.443   2.728  11.988 -0.1371  0.3667 -0.0511
  550TMC3     O 8216   2.517   2.641  12.024  0.4359 -0.1638 -0.7888
  550TMC3     H 8217   2.518   2.757  12.245  0.4409 -0.5986 -0.5623
  550TMC3    H1 8218   2.386   2.980  11.897 -0.2273  0.1066  1.1491
  550TMC3    H2 8219   2.593   3.156  12.234  0.0821  0.0200  0.6575
  550TMC3    C7 8220   2.407   3.189  12.033 -0.0376 -0.1911  0.0548
  550TMC3    C8 8221   2.488   2.987  12.379  0.1327  0.0412 -0.1599
  550TMC3    O1 8222   2.293   3.158  11.996  0.8484  0.2090 -0.2731
  550TMC3    O2 8223   2.525   3.089  12.435  0.0117  0.4742  0.1170
  551TMC3    C1 8224   0.020   1.166  13.168 -0.0309 -0.2141 -0.0978
  551TMC3    C2 8225   0.116   1.248  13.117  0.2087  0.2568  0.1978
  551TMC3    C3 8226   0.225   1.271  13.196  0.1760 -0.4399  0.5668
  551TMC3    C4 8227   0.019   1.123  13.297  0.0832 -0.2435  0.0432
  551TMC3    C5 8228   0.140   1.131  13.365  0.5246 -0.0012  0.0119
  551TMC3    C6 8229   0.235   1.217  13.326 -1.1168 -0.1213  0.1551
  551TMC3     C 8230   4.637   1.166  13.106  0.4321  0.0577 -0.6402
  551TMC3     O 8231   4.583   1.063  13.118  0.0377 -0.5855 -0.4644
  551TMC3     H 8232   0.119   1.267  13.010  0.8396  3.1692  0.7403
  551TMC3    H1 8233   4.677   1.060  13.329 -0.6288  1.9430  2.5566
  551TMC3    H2 8234   0.329   1.234  13.378 -1.8714  0.2244  1.4037
  551TMC3    C7 8235   0.126   1.126  13.507  1.1275  0.3847 -0.4998
  551TMC3    C8 8236   0.354   1.310  13.142 -0.2793  0.1191  0.3201
  551TMC3    O1 8237   0.137   1.019  13.567 -0.9701  0.1611 -0.0669
  551TMC3    O2 8238   0.457   1.293  13.206  0.0778 -0.1279 -0.2224
  552MPD2     C 8239   2.233   2.649  14.315 -0.8579  0.1364  0.6571
  552MPD2    C1 8240   2.326   2.574  14.245  0.1768 -0.1114  0.0448
  552MPD2    C2 8241   2.435   2.519  14.309  0.0727  0.1365  0.0487
  552MPD2    C3 8242   2.441   2.521  14.447  0.7826  0.0929 -0.2254
  552MPD2    C4 8243   2.340   2.584  14.519  0.3894 -0.5177 -0.1196
  552MPD2    C5 8244   2.238   2.650  14.452 -0.1309 -0.1275 -0.6002
  552MPD2     H 8245   2.504   2.459  14.250  0.3796 -1.8024  2.3762
  552MPD2    H1 8246   2.353   2.597  14.626  1.0391  0.0666 -0.2679
  552MPD2    H2 8247   2.158   2.713  14.269  0.6772  1.5926  0.1993
  552MPD2    H3 8248   2.157   2.695  14.508  0.7470 -0.7995  1.2310
  552MPD2     N 8249   2.543   2.449  14.521  0.6444  0.2613  0.1206
  552MPD2    H5 8250   2.516   2.425  14.616  0.2025 -1.3084 -0.4163
  552MPD2    N1 8251   2.313   2.552  14.106  0.2915  0.5887 -0.3408
  552MPD2    H7 8252   2.379   2.485  14.069 -1.5324 -0.9940 -0.7620
  553TMC3    C1 8253   2.232   2.540  13.893  0.8488 -0.1113  0.5355
  553TMC3    C2 8254   2.180   2.613  13.781 -0.2923  0.4952 -0.3574
  553TMC3    C3 8255   2.176   2.549  13.662 -0.1820 -0.1864 -0.0837
  553TMC3    C4 8256   2.285   2.412  13.887 -0.2059  0.4224 -0.9225
  553TMC3    C5 8257   2.266   2.352  13.762 -0.6351  0.4536 -0.6056
  553TMC3    C6 8258   2.214   2.419  13.652  0.2512  0.1875  0.4173
  553TMC3     C 8259   2.226   2.609  14.022  0.2754 -0.3240 -0.0751
  553TMC3     O 8260   2.153   2.708  14.042 -0.2802 -0.0776 -0.7355
  553TMC3     H 8261   2.120   2.701  13.805 -0.7301  0.3703 -1.0096
  553TMC3    H1 8262   2.314   2.347  13.969 -2.3359 -1.1656 -1.4329
  553TMC3    H2 8263   2.224   2.371  13.555  0.6237 -0.0970  0.5983
  553TMC3    C7 8264   2.296   2.208  13.740  0.0171 -0.0102  0.5513
  553TMC3    C8 8265   2.110   2.615  13.557  0.0902 -1.0597  1.0294
  553TMC3    O1 8266   2.223   2.148  13.660 -0.2839  0.0355  0.3916
  553TMC3    O2 8267   2.126   2.735  13.546 -0.0787 -0.1413 -0.3482
  554TMC3    C1 8268   3.851   2.517  11.322 -0.1152 -0.4564 -0.1979
  554TMC3    C2 8269   3.746   2.449  11.265 -0.0226  0.6739 -0.2694
  554TMC3    C3 8270   3.659   2.527  11.188  0.4921  0.5430 -0.1674
  554TMC3    C4 8271   3.883   2.649  11.298 -0.3704 -0.2590  0.6643
  554TMC3    C5 8272   3.803   2.715  11.211 -0.5458 -0.1359  0.3797
  554TMC3    C6 8273   3.685   2.659  11.160  0.4344 -0.3698 -0.2720
  554TMC3     C 8274   3.937   2.450  11.416  0.1907  0.3942  0.0280
  554TMC3     O 8275   4.047   2.502  11.438 -0.5892  0.5415 -0.1071
  554TMC3     H 8276   3.733   2.342  11.254  0.4211  0.6552 -0.6065
  554TMC3    H1 8277   3.978   2.691  11.327 -0.2087 -0.6114  0.6453
  554TMC3    H2 8278   3.618   2.710  11.092  0.3041 -0.6345 -0.3396
  554TMC3    C7 8279   3.853   2.819  11.124 -0.2924 -0.6843 -0.1116
  554TMC3    C8 8280   3.585   2.461  11.081  0.1843 -0.1172  0.2617
  554TMC3    O1 8281   3.822   2.812  11.006 -0.2734 -0.2806 -0.2570
  554TMC3    O2 8282   3.591   2.515  10.970 -0.4164  0.0335  0.2184
  555TMC3    C1 8283   2.827   1.421  15.775 -0.2394 -0.4973 -0.3879
  555TMC3    C2 8284   2.902   1.465  15.881  0.0676  0.0303 -0.0312
  555TMC3    C3 8285   3.008   1.389  15.931 -0.1644 -0.5050  0.6600
  555TMC3    C4 8286   2.845   1.298  15.711  0.3103 -0.4611  0.9030
  555TMC3    C5 8287   2.958   1.232  15.759 -0.9141  0.8052  0.2639
  555TMC3    C6 8288   3.037   1.270  15.873  0.1402 -0.0915 -0.0089
  555TMC3     C 8289   2.720   1.510  15.727  0.8228  0.0648 -0.7654
  555TMC3     O 8290   2.674   1.587  15.811  0.6991 -0.0055 -0.5668
  555TMC3     H 8291   2.877   1.566  15.912 -1.6424  0.2918 -2.2367
  555TMC3    H1 8292   2.786   1.265  15.626 -0.6003  1.7124  0.6975
  555TMC3    H2 8293   3.115   1.205  15.910  0.3263 -0.4655 -1.0601
  555TMC3    C7 8294   3.008   1.122  15.672  0.5557  0.3197 -0.2038
  555TMC3    C8 8295   3.091   1.430  16.043 -0.4968 -0.1369  0.6434
  555TMC3    O1 8296   2.922   1.074  15.596 -0.3516  0.3225  0.5393
  555TMC3    O2 8297   3.170   1.352  16.092  0.2074  0.2858  0.0204
  556MPD2     C 8298   0.719   3.847  10.717  0.2509 -0.9976  0.1473
  556MPD2    C1 8299   0.703   3.710  10.748 -0.1833 -0.4013  0.1803
  556MPD2    C2 8300   0.676   3.624  10.646  0.1736 -0.4610  0.2037
  556MPD2    C3 8301   0.665   3.663  10.516  0.5281 -0.0224 -0.0611
  556MPD2    C4 8302   0.677   3.796  10.480 -0.7767  0.4923  0.6666
  556MPD2    C5 8303   0.702   3.885  10.581  0.3228  0.1876  0.1338
  556MPD2     H 8304   0.668   3.518  10.668  0.5907 -0.5145  0.1091
  556MPD2    H1 8305   0.686   3.837  10.380 -0.6291 -1.0199  0.0666
  556MPD2    H2 8306   0.756   3.919  10.788 -0.7395 -0.3792  0.0471
  556MPD2    H3 8307   0.723   3.989  10.561 -0.0018  0.1264 -0.5131
  556MPD2     N 8308   0.652   3.564  10.415 -0.1883 -0.5880 -0.2898
  556MPD2    H5 8309   0.629   3.470  10.446 -1.6887 -0.2677 -0.4292
  556MPD2    N1 8310   0.730   3.663  10.880  0.2474  0.3087  0.8113
  556MPD2    H7 8311   0.747   3.563  10.888 -1.4722 -0.1516 -1.2393
  557TMC3    C1 8312   0.658   3.448  10.210 -0.8250  0.1951 -0.2491
  557TMC3    C2 8313   0.616   3.449  10.077 -0.5217  0.6526 -0.0310
  557TMC3    C3 8314   0.612   3.321  10.014 -1.1445 -0.3237  0.0567
  557TMC3    C4 8315   0.712   3.337  10.265  0.1023 -0.4275  0.4509
  557TMC3    C5 8316   0.726   3.217  10.193 -0.3587 -0.5459 -0.6770
  557TMC3    C6 8317   0.666   3.206  10.069 -0.0280  0.0862 -0.6388
  557TMC3     C 8318   0.664   3.581  10.275 -0.0280 -0.6744 -0.6252
  557TMC3     O 8319   0.692   3.679  10.202 -0.3178  0.3332  0.1140
  557TMC3     H 8320   0.577   3.541  10.036  1.5054  0.1129 -3.1755
  557TMC3    H1 8321   0.762   3.344  10.361  1.5309 -1.8868 -0.1900
  557TMC3    H2 8322   0.681   3.119  10.005 -2.9165 -0.9663  0.1137
  557TMC3    C7 8323   0.733   3.095  10.272  0.0082  0.9533  0.2544
  557TMC3    C8 8324   0.525   3.306   9.896 -0.0389 -0.1984 -0.3087
  557TMC3    O1 8325   0.678   3.103  10.378 -0.1337 -0.0292 -0.2835
  557TMC3    O2 8326   0.503   3.412   9.838  0.2368  0.2533  0.2283
  558TMC3    C1 8327   2.725   0.870  10.485  0.7742 -0.0131  0.0162
  558TMC3    C2 8328   2.629   0.887  10.579  0.5544  0.0699 -0.0167
  558TMC3    C3 8329   2.499   0.909  10.543  0.3874  0.1872 -0.1049
  558TMC3    C4 8330   2.701   0.897  10.356  0.2858 -0.4871  0.2261
  558TMC3    C5 8331   2.570   0.922  10.318 -0.3625  0.4198  0.2822
  558TMC3    C6 8332   2.463   0.925  10.411  0.0920  0.5559 -0.1749
  558TMC3     C 8333   2.863   0.877  10.531  0.3629 -0.5138 -0.0025
  558TMC3     O 8334   2.882   0.944  10.634 -0.0634 -0.2480 -0.6586
  558TMC3     H 8335   2.654   0.859  10.681 -2.0191  0.4904  0.7076
  558TMC3    H1 8336   2.783   0.893  10.285  1.9269 -1.8046  2.2313
  558TMC3    H2 8337   2.369   0.975  10.394 -1.1510 -1.0796  1.9651
  558TMC3    C7 8338   2.567   1.010  10.201  0.8063 -1.0060 -0.2466
  558TMC3    C8 8339   2.399   0.938  10.648 -0.0473 -0.6066 -0.9536
  558TMC3    O1 8340   2.664   1.013  10.129  0.0666 -0.3534 -0.0686
  558TMC3    O2 8341   2.288   0.897  10.618 -0.5581 -0.7211 -0.2432
  559MPD2     C 8342   2.980   2.449  11.288 -0.7601  0.6282 -0.2173
  559MPD2    C1 8343   2.910   2.331  11.282 -0.4324 -0.6367 -0.5879
  559MPD2    C2 8344   2.971   2.215  11.332  0.4212 -0.2290  0.4125
  559MPD2    C3 8345   3.109   2.213  11.374 -0.1528  0.2889 -0.5554
  559MPD2    C4 8346   3.166   2.342  11.389 -0.3018 -0.6822 -0.5221
  559MPD2    C5 8347   3.102   2.454  11.347 -0.1057  0.6816 -0.4506
  559MPD2     H 8348   2.915   2.122  11.336 -3.5600  2.2011  0.2328
  559MPD2    H1 8349   3.268   2.347  11.426 -0.1533  0.7790 -1.1200
  559MPD2    H2 8350   2.948   2.536  11.232 -0.5002  0.0875 -1.2091
  559MPD2    H3 8351   3.158   2.547  11.339  1.3527 -0.0334  1.4808
  559MPD2     N 8352   3.168   2.082  11.404  0.3878 -0.6332 -0.1690
  559MPD2    H5 8353   3.108   2.004  11.380  0.2349 -1.1359  1.8551
  559MPD2    N1 8354   2.785   2.343  11.213 -0.3684 -0.5733  0.1292
  559MPD2    H7 8355   2.752   2.435  11.185  0.2760  0.0142  1.2747
  560TMC3    C1 8356   3.352   1.933  11.442 -0.3334  0.2460 -0.8854
  560TMC3    C2 8357   3.261   1.824  11.444  0.2417  0.3943 -0.4262
  560TMC3    C3 8358   3.318   1.703  11.457 -0.4142 -0.1449 -0.3577
  560TMC3    C4 8359   3.484   1.918  11.452  0.4289 -0.2085 -0.6416
  560TMC3    C5 8360   3.534   1.793  11.455 -0.0928 -0.5073  0.1346
  560TMC3    C6 8361   3.451   1.686  11.467  0.4482 -0.1534  0.2096
  560TMC3     C 8362   3.294   2.068  11.459 -0.7627  0.7039 -0.0782
  560TMC3     O 8363   3.378   2.150  11.484 -0.3826  0.0532  0.5049
  560TMC3     H 8364   3.154   1.837  11.453 -0.0735 -2.9103  0.5942
  560TMC3    H1 8365   3.553   2.000  11.466  0.3680  0.0628 -1.8970
  560TMC3    H2 8366   3.491   1.586  11.484 -1.1209 -1.0086 -1.1472
  560TMC3    C7 8367   3.670   1.769  11.464 -0.3344  0.6390 -0.0512
  560TMC3    C8 8368   3.236   1.592  11.432  0.3645 -0.4183 -0.0586
  560TMC3    O1 8369   3.702   1.665  11.522  0.0739  0.5088 -0.0501
  560TMC3    O2 8370   3.113   1.604  11.441 -0.0886  0.1947  0.7185
  561TMC3    C1 8371   1.646   1.165  11.438  0.6243 -0.1846 -0.8613
  561TMC3    C2 8372   1.615   1.043  11.481 -0.1540 -0.6995  0.4844
  561TMC3    C3 8373   1.518   1.027  11.574  0.0112 -0.0886 -0.3940
  561TMC3    C4 8374   1.585   1.282  11.481  0.3558  0.5115 -0.1396
  561TMC3    C5 8375   1.470   1.264  11.555  0.2262 -0.1561 -0.2848
  561TMC3    C6 8376   1.445   1.134  11.603 -0.4563 -0.6134 -0.0635
  561TMC3     C 8377   1.726   1.178  11.322  0.2584 -0.4169  0.7918
  561TMC3     O 8378   1.741   1.078  11.257 -0.2269  0.4421 -0.7311
  561TMC3     H 8379   1.679   0.957  11.462  0.0436 -0.7288  1.2836
  561TMC3    H1 8380   1.600   1.375  11.427  0.0280  0.4995 -0.2526
  561TMC3    H2 8381   1.351   1.133  11.655  0.2859  1.2604  1.3223
  561TMC3    C7 8382   1.373   1.368  11.576  0.2797  0.0668 -0.2235
  561TMC3    C8 8383   1.465   0.900  11.611  0.1288  0.2094 -0.1377
  561TMC3    O1 8384   1.287   1.362  11.663 -0.0138 -0.3941  0.0696
  561TMC3    O2 8385   1.538   0.807  11.585 -0.6475 -0.3044 -0.0767
  562TMC3    C1 8386   2.714   1.791  16.670  0.1918  0.3074 -0.4949
  562TMC3    C2 8387   2.683   1.918  16.642 -0.4092 -0.5554  0.0628
  562TMC3    C3 8388   2.649   1.938  16.516  0.1718 -0.1153 -0.7580
  562TMC3    C4 8389   2.727   1.687  16.581 -0.0627  0.1120  0.1112
  562TMC3    C5 8390   2.695   1.714  16.454 -0.2351 -0.6860 -0.1419
  562TMC3    C6 8391   2.646   1.838  16.420  0.0471  0.3285 -0.1060
  562TMC3     C 8392   2.741   1.750  16.812  0.1575  0.0914  0.2672
  562TMC3     O 8393   2.812   1.654  16.830 -0.2156  0.1125  0.2289
  562TMC3     H 8394   2.682   2.005  16.706 -0.1816  2.0977 -3.4867
  562TMC3    H1 8395   2.764   1.591  16.614 -1.1457  0.7812  3.2960
  562TMC3    H2 8396   2.612   1.843  16.318  1.2866 -1.2278 -0.5933
  562TMC3    C7 8397   2.685   1.607  16.355 -0.5892  0.2443  0.6861
  562TMC3    C8 8398   2.607   2.077  16.484 -0.1187  1.0014 -0.0998
  562TMC3    O1 8399   2.643   1.642  16.244  0.1786 -0.1927 -0.5106
  562TMC3    O2 8400   2.605   2.156  16.573 -0.1124 -0.5048 -0.1198
  563MPD2     C 8401   0.275   2.833  15.551  0.5056 -0.2045  0.1611
  563MPD2    C1 8402   0.332   2.867  15.670  0.0002 -0.2266  0.0249
  563MPD2    C2 8403   0.468   2.855  15.682 -0.4752 -0.1750  0.0874
  563MPD2    C3 8404   0.539   2.816  15.578  0.2857  0.0050 -0.9773
  563MPD2    C4 8405   0.486   2.786  15.457 -0.0616  0.3651  0.1704
  563MPD2    C5 8406   0.351   2.793  15.441 -0.8277  0.6171 -0.1096
  563MPD2     H 8407   0.520   2.863  15.777  0.0049 -1.0403 -0.1031
  563MPD2    H1 8408   0.547   2.750  15.375 -3.4095 -0.4736 -1.9797
  563MPD2    H2 8409   0.167   2.825  15.555  0.4267  1.4912  1.3689
  563MPD2    H3 8410   0.315   2.758  15.345 -1.0744  1.6693 -0.4009
  563MPD2     N 8411   0.679   2.804  15.604 -0.4489 -0.3279  0.5152
  563MPD2    H5 8412   0.716   2.837  15.693  0.5488 -1.3122  0.4794
  563MPD2    N1 8413   0.253   2.913  15.780  0.3682 -0.2587 -0.3679
  563MPD2    H7 8414   0.152   2.905  15.775  0.4970 -2.4155  0.7530
  564TMC3    C1 8415   0.205   2.935  16.008 -0.1381  0.3504 -0.0673
  564TMC3    C2 8416   0.088   2.857  15.993 -0.7173 -0.1526  0.1357
  564TMC3    C3 8417   0.037   2.801  16.103  0.3186 -0.1348  0.2842
  564TMC3    C4 8418   0.277   2.940  16.126  0.5245  0.3336 -0.1928
  564TMC3    C5 8419   0.230   2.863  16.231  0.0204  0.0198 -0.0611
  564TMC3    C6 8420   0.104   2.801  16.225  0.2496 -0.2486  0.3379
  564TMC3     C 8421   0.296   2.968  15.895 -0.2226  0.4271  0.6808
  564TMC3     O 8422   0.400   3.022  15.918  0.1245 -1.0533  0.3339
  564TMC3     H 8423   0.009   2.868  15.919  0.1846 -3.5774 -1.3176
  564TMC3    H1 8424   0.366   3.003  16.131  0.9739 -0.1506 -2.0813
  564TMC3    H2 8425   0.058   2.760  16.314  2.1554 -2.1136  0.4684
  564TMC3    C7 8426   0.336   2.774  16.269 -0.4700  0.6610 -0.5659
  564TMC3    C8 8427   4.732   2.663  16.079  0.2225 -0.4731  0.3956
  564TMC3    O1 8428   0.448   2.816  16.267  0.4862 -0.1421 -0.1008
  564TMC3    O2 8429   0.004   2.598  16.182  0.2265  0.0260 -0.2781
  565TMC3    C1 8430   0.079   0.240  10.415  0.0368  0.3126  0.0771
  565TMC3    C2 8431   0.096   0.156  10.522 -0.3876 -0.3474 -0.3291
  565TMC3    C3 8432   0.044   0.032  10.524 -0.4186 -0.0224 -0.4696
  565TMC3    C4 8433   4.733   0.205  10.315  0.5612  0.1226  0.0458
  565TMC3    C5 8434   4.672   0.087  10.327  0.5928 -0.0190  0.1206
  565TMC3    C6 8435   4.694   4.735  10.426 -0.5188  0.1246 -0.3187
  565TMC3     C 8436   0.113   0.384  10.410  0.7278 -0.0680 -0.1159
  565TMC3     O 8437   0.097   0.441  10.299 -0.3791 -0.0182  0.6790
  565TMC3     H 8438   0.178   0.176  10.590  0.2478  0.9729 -1.4800
  565TMC3    H1 8439   4.706   0.269  10.232  1.3663 -0.8451 -0.9626
  565TMC3    H2 8440   4.645   4.638  10.426 -0.6993  0.2109  1.5246
  565TMC3    C7 8441   4.569   0.052  10.236 -0.7261 -0.8279  0.4939
  565TMC3    C8 8442   0.133   4.663  10.568  0.5015  0.0975 -0.2509
  565TMC3    O1 8443   4.510   0.148  10.185  1.0173  0.8029 -0.1531
  565TMC3    O2 8444   0.111   4.558  10.504  0.0388  0.5168  0.0539
  566MPD2     C 8445   2.645   0.611  14.397  0.9875  0.0662  0.4684
  566MPD2    C1 8446   2.674   0.704  14.304 -0.0665 -0.1706  0.7402
  566MPD2    C2 8447   2.581   0.740  14.217 -0.1811  0.3701 -0.6444
  566MPD2    C3 8448   2.458   0.681  14.211 -1.1692  0.3832  0.3113
  566MPD2    C4 8449   2.424   0.580  14.300  0.1922 -0.0784 -0.0711
  566MPD2    C5 8450   2.517   0.554  14.399  0.2671 -0.0872 -0.4589
  566MPD2     H 8451   2.602   0.827  14.155 -0.0256  0.8276  0.0589
  566MPD2    H1 8452   2.323   0.540  14.292 -0.2280  0.8613  0.4063
  566MPD2    H2 8453   2.708   0.576  14.478  1.2057 -2.7599 -0.9231
  566MPD2    H3 8454   2.498   0.487  14.483  0.4979  0.6964  0.2237
  566MPD2     N 8455   2.343   0.730  14.138 -0.4531  0.9922 -0.0773
  566MPD2    H5 8456   2.252   0.685  14.146  1.0254 -1.2859  3.8458
  566MPD2    N1 8457   2.802   0.764  14.310  0.8293 -0.2865 -0.4861
  566MPD2    H7 8458   2.853   0.744  14.395 -1.7504 -4.0242  0.2230
  567TMC3    C1 8459   2.972   0.926  14.248  0.3577  0.5946  0.5088
  567TMC3    C2 8460   2.996   1.019  14.148  0.1127  0.0596 -0.2199
  567TMC3    C3 8461   3.044   1.143  14.185  0.0323 -0.8068  0.0064
  567TMC3    C4 8462   2.996   0.960  14.383  0.1490  0.5102 -0.8869
  567TMC3    C5 8463   3.032   1.086  14.410  0.3385 -0.4333  0.2062
  567TMC3    C6 8464   3.085   1.170  14.315 -0.0046 -0.0815  0.9304
  567TMC3     C 8465   2.857   0.845  14.206 -0.0496  0.3572  0.0068
  567TMC3     O 8466   2.827   0.857  14.093 -0.2252  0.2530 -0.3795
  567TMC3     H 8467   2.980   1.004  14.042 -0.7093  3.1994 -0.5257
  567TMC3    H1 8468   2.966   0.887  14.457 -0.0569  1.6228  0.1353
  567TMC3    H2 8469   3.109   1.273  14.342  3.8528 -0.9648  0.8972
  567TMC3    C7 8470   3.032   1.131  14.556  0.4243  0.4955 -0.8626
  567TMC3    C8 8471   3.058   1.247  14.075 -0.5610  0.7432 -0.4014
  567TMC3    O1 8472   3.115   1.220  14.570 -0.3307 -0.0787 -0.1825
  567TMC3    O2 8473   2.988   1.224  13.979 -0.3179 -0.0684  0.4396
  568MPD2     C 8474   4.578   1.321  16.716  0.0468 -0.4633  0.2644
  568MPD2    C1 8475   4.666   1.411  16.764  0.2524 -0.4851 -0.0634
  568MPD2    C2 8476   4.708   1.520  16.690  0.4861 -0.7429  0.5128
  568MPD2    C3 8477   4.655   1.537  16.564  0.1459 -0.7592  0.2161
  568MPD2    C4 8478   4.568   1.443  16.515  0.0118  0.7839 -0.4078
  568MPD2    C5 8479   4.534   1.330  16.586 -0.2675 -0.0641 -0.0361
  568MPD2     H 8480   0.041   1.591  16.727  1.3258 -1.2207 -0.2219
  568MPD2    H1 8481   4.521   1.445  16.417  1.5301 -0.1771 -1.1508
  568MPD2    H2 8482   4.554   1.231  16.771  2.0059 -0.6861  0.7337
  568MPD2    H3 8483   4.461   1.271  16.532 -0.2166 -1.2029  1.1416
  568MPD2     N 8484   4.700   1.652  16.493 -0.0720  0.6480 -0.1981
  568MPD2    H5 8485   0.038   1.701  16.537  2.0190 -2.9986  0.1485
  568MPD2    N1 8486   4.717   1.380  16.893 -0.4315 -0.1271 -0.1515
  568MPD2    H7 8487   4.668   1.307  16.944 -2.7849 -0.6904 -3.1829
  569TMC3    C1 8488   4.696   1.825  16.327  0.4434  0.2504 -0.1538
  569TMC3    C2 8489   0.034   1.899  16.413 -0.4446  0.0956  0.3554
  569TMC3    C3 8490   0.113   2.005  16.367 -0.4625  0.1283 -0.3606
  569TMC3    C4 8491   4.689   1.850  16.191 -0.7720 -0.0931 -0.1669
  569TMC3    C5 8492   0.018   1.962  16.150  0.0618 -0.2053  0.5687
  569TMC3    C6 8493   0.107   2.032  16.229  0.1730  0.6048  0.2014
  569TMC3     C 8494   4.639   1.703  16.381 -0.2273  0.5670 -0.3032
  569TMC3     O 8495   4.550   1.655  16.312  0.0984 -0.2925 -0.4604
  569TMC3     H 8496   0.026   1.885  16.520  0.2204  0.7627  0.4913
  569TMC3    H1 8497   4.628   1.787  16.127 -0.0504 -0.0268 -0.9146
  569TMC3    H2 8498   0.163   2.117  16.192  0.3428  0.2606 -0.3312
  569TMC3    C7 8499   4.736   2.021  16.021  0.2685  0.1485 -0.5213
  569TMC3    C8 8500   0.109   2.115  16.454 -0.1949 -0.2928 -0.2376
  569TMC3    O1 8501   4.730   1.948  15.924  0.0095  0.1743 -0.1069
  569TMC3    O2 8502   0.017   2.127  16.531  0.4613  0.3808  0.5902
  570TMC3    C1 8503   4.322   0.262  16.258 -0.1037 -0.2946 -0.4254
  570TMC3    C2 8504   4.401   0.295  16.153  0.2070  0.2819 -0.8837
  570TMC3    C3 8505   4.429   0.432  16.131 -0.3333 -0.0702  0.1514
  570TMC3    C4 8506   4.255   0.357  16.343  0.2971  0.3539 -0.3885
  570TMC3    C5 8507   4.285   0.486  16.308  0.5928  0.0825  0.1766
  570TMC3    C6 8508   4.363   0.528  16.206 -0.0246  0.2873  0.2735
  570TMC3     C 8509   4.265   0.124  16.260  0.1715  0.3093 -0.4875
  570TMC3     O 8510   4.269   0.056  16.155 -0.4164 -0.4122  0.2414
  570TMC3     H 8511   4.440   0.216  16.090  0.3440  0.0023 -0.4522
  570TMC3    H1 8512   4.205   0.328  16.434  3.4747 -0.7094  1.0416
  570TMC3    H2 8513   4.382   0.633  16.189  2.1185 -0.2431 -0.5655
  570TMC3    C7 8514   4.221   0.582  16.395 -0.5539 -0.9717  0.2464
  570TMC3    C8 8515   4.515   0.471  16.015  0.0218 -0.0718 -0.1171
  570TMC3    O1 8516   4.208   0.545  16.510 -0.1857 -0.3481  0.3238
  570TMC3    O2 8517   4.545   0.589  16.002 -0.3333  0.0528 -0.6857
  571MPD2     C 8518   2.099   2.267  17.575  0.9559 -0.5560  0.0253
  571MPD2    C1 8519   2.185   2.167  17.616  0.2802  0.3003 -0.3811
  571MPD2    C2 8520   2.283   2.196  17.715  1.1712 -0.5460  0.0756
  571MPD2    C3 8521   2.286   2.328  17.755 -0.2317  0.2840  0.1978
  571MPD2    C4 8522   2.194   2.429  17.719 -0.2423  0.2264 -0.2668
  571MPD2    C5 8523   2.100   2.389  17.632 -0.6652 -0.4573  0.1518
  571MPD2     H 8524   2.353   2.119  17.746  0.8126 -1.0513 -0.3500
  571MPD2    H1 8525   2.202   2.536  17.732 -0.5767  0.1704  0.4233
  571MPD2    H2 8526   2.024   2.240  17.502  0.0346  0.3915  0.6204
  571MPD2    H3 8527   2.016   2.454  17.610  1.5820  1.5943 -2.4782
  571MPD2     N 8528   2.396   2.369   0.082  1.0949 -0.2169 -0.4838
  571MPD2    H5 8529   2.392   2.468   0.103 -0.8787 -1.1263  3.3650
  571MPD2    N1 8530   2.186   2.043  17.553 -0.4480 -1.1140  0.7393
  571MPD2    H7 8531   2.128   2.036  17.470  0.4418  2.3555 -0.1582
  572TMC3    C1 8532   2.572   2.373   0.223  0.0429  0.4900 -0.4280
  572TMC3    C2 8533   2.592   2.342   0.357 -0.2116 -0.0449 -0.0672
  572TMC3    C3 8534   2.631   2.447   0.436  0.2085 -0.0690 -0.7819
  572TMC3    C4 8535   2.608   2.489   0.169  0.9511  0.2635 -0.4073
  572TMC3    C5 8536   2.662   2.585   0.248  0.4950  0.1636 -0.0590
  572TMC3    C6 8537   2.657   2.570   0.386  0.4484  0.2960  0.1972
  572TMC3     C 8538   2.475   2.287   0.153  0.3001 -0.0312 -0.5767
  572TMC3     O 8539   2.472   2.168   0.167  0.3440 -0.8168  0.4363
  572TMC3     H 8540   2.550   2.249   0.393 -2.4520  0.4903 -1.2945
  572TMC3    H1 8541   2.592   2.515   0.065  1.1678 -1.6557 -0.9240
  572TMC3    H2 8542   2.682   2.646   0.459 -1.1916  0.0541  1.0174
  572TMC3    C7 8543   2.656   2.720   0.202  1.1016 -0.5168  0.8018
  572TMC3    C8 8544   2.637   2.438   0.577  0.4535  1.0986  0.4028
  572TMC3    O1 8545   2.584   2.754   0.110  0.2039  0.1962  0.3730
  572TMC3    O2 8546   2.679   2.539   0.634 -0.1824  0.2549  0.7519
  573MPD2     C 8547   3.254   2.960   0.418  0.2831 -0.5673  0.6387
  573MPD2    C1 8548   3.167   2.847   0.418  0.7839 -0.1211  0.1685
  573MPD2    C2 8549   3.120   2.797   0.298 -0.2879  0.2960  0.4822
  573MPD2    C3 8550   3.143   2.868   0.187 -0.2730 -0.1707  0.7840
  573MPD2    C4 8551   3.227   2.975   0.185 -0.0962  0.2507 -0.2938
  573MPD2    C5 8552   3.281   3.020   0.301  0.1134  0.1416  0.0276
  573MPD2     H 8553   3.040   2.725   0.295  0.2355 -0.2436 -0.5049
  573MPD2    H1 8554   3.254   3.026   0.093 -1.3985 -0.4512 -1.0592
  573MPD2    H2 8555   3.290   3.006   0.509 -0.1375  1.5100 -0.2543
  573MPD2    H3 8556   3.352   3.101   0.301  0.3490 -0.0611  1.0286
  573MPD2     N 8557   3.088   2.838   0.060 -0.4095  0.5088  0.4396
  573MPD2    H5 8558   3.114   2.899  17.739  0.6490  0.5449  0.8265
  573MPD2    N1 8559   3.139   2.791   0.546 -0.4091  0.7395  0.2600
  573MPD2    H7 8560   3.189   2.826   0.628  1.5197  1.1757 -1.0996
  574TMC3    C1 8561   2.942   2.751  17.661  0.0280  0.4474 -0.3590
  574TMC3    C2 8562   2.879   2.873  17.651 -0.1025 -0.6559 -0.0566
  574TMC3    C3 8563   2.758   2.875  17.583  0.0639  0.6753  0.2258
  574TMC3    C4 8564   2.881   2.637  17.620  0.0105  0.2650 -0.6013
  574TMC3    C5 8565   2.762   2.638  17.556  0.4697  0.1167  0.1674
  574TMC3    C6 8566   2.700   2.760  17.535 -0.7644  1.0495 -0.0800
  574TMC3     C 8567   3.007   2.732   0.033 -0.1120  0.1819 -0.6957
  574TMC3     O 8568   2.966   2.637   0.100 -0.5452  0.4281 -0.2061
  574TMC3     H 8569   2.918   2.964  17.693 -0.6842  0.7237 -2.5001
  574TMC3    H1 8570   2.935   2.544  17.636 -0.1704  0.3361  0.4258
  574TMC3    H2 8571   2.603   2.764  17.488 -0.4974 -2.7408 -0.9913
  574TMC3    C7 8572   2.714   2.512  17.491  0.7322 -0.2156 -0.3015
  574TMC3    C8 8573   2.705   3.001  17.548  0.6437 -0.6657 -0.5222
  574TMC3    O1 8574   2.800   2.426  17.469 -0.1581 -0.0512 -0.1717
  574TMC3    O2 8575   2.586   3.001  17.514  0.7674 -0.0036 -0.0822
  575TMC3    C1 8576   0.338   3.843  10.783 -0.7233  0.4094 -0.4382
  575TMC3    C2 8577   0.328   3.776  10.669  0.1924 -0.6478 -0.7495
  575TMC3    C3 8578   0.343   3.842  10.545  0.3823  0.3849 -0.1302
  575TMC3    C4 8579   0.346   3.977  10.782 -0.2272 -0.1273 -0.0861
  575TMC3    C5 8580   0.378   4.040  10.665  0.0941 -0.0652 -0.3604
  575TMC3    C6 8581   0.366   3.972  10.549  0.2159  0.0399  0.1587
  575TMC3     C 8582   0.349   3.777  10.913 -0.0226  0.1432  0.7247
  575TMC3     O 8583   0.311   3.832  11.013 -0.4601  0.1946  0.6271
  575TMC3     H 8584   0.284   3.677  10.676 -0.0253 -0.4782  0.3846
  575TMC3    H1 8585   0.352   4.026  10.879  0.6762 -2.0984  0.8552
  575TMC3    H2 8586   0.367   4.026  10.454  0.5727 -0.3786 -0.0725
  575TMC3    C7 8587   0.353   4.179  10.661  0.0745  0.3523  0.1040
  575TMC3    C8 8588   0.340   3.771  10.416 -0.4773  0.4361  0.4153
  575TMC3    O1 8589   0.320   4.219  10.549 -0.2465 -0.0620 -0.1683
  575TMC3    O2 8590   0.350   3.838  10.317  0.5195  0.2007 -0.3384
  576MPD2     C 8591   0.363   0.683  12.242  0.4326 -0.0741 -0.7685
  576MPD2    C1 8592   0.455   0.613  12.170 -0.0376 -1.2550 -0.2229
  576MPD2    C2 8593   0.551   0.539  12.241  1.0202  0.0101 -0.7407
  576MPD2    C3 8594   0.567   0.546  12.374  0.1664 -0.3423 -0.0676
  576MPD2    C4 8595   0.467   0.610  12.446  0.3126  0.8136 -0.3652
  576MPD2    C5 8596   0.361   0.670  12.377  1.0421  0.3720 -0.7036
  576MPD2     H 8597   0.628   0.495  12.179  1.4717 -2.2295  1.3798
  576MPD2    H1 8598   0.469   0.595  12.554  0.0286  1.9932 -0.2015
  576MPD2    H2 8599   0.291   0.746  12.189 -0.8010  0.5173  1.6265
  576MPD2    H3 8600   0.282   0.721  12.431  1.9455  2.0007 -0.8971
  576MPD2     N 8601   0.665   0.466  12.434  0.3525 -0.0096  0.0287
  576MPD2    H5 8602   0.720   0.407  12.373  2.2333  0.7536  0.9824
  576MPD2    N1 8603   0.466   0.609  12.027  0.3807 -0.8790 -0.2942
  576MPD2    H7 8604   0.532   0.544  11.984  0.7706  0.7388 -2.1256
  577TMC3    C1 8605   0.484   0.722  11.819  0.3125  0.1072  0.2339
  577TMC3    C2 8606   0.577   0.630  11.780 -0.1967  0.1038  0.7320
  577TMC3    C3 8607   0.659   0.657  11.677  0.2617 -0.1635  0.2650
  577TMC3    C4 8608   0.458   0.829  11.747  0.4489 -0.7760  0.1512
  577TMC3    C5 8609   0.542   0.855  11.637  0.7980 -0.5563  0.6789
  577TMC3    C6 8610   0.645   0.769  11.610 -0.0665 -0.1442 -0.2575
  577TMC3     C 8611   0.415   0.710  11.945  0.3923  0.3963  0.1957
  577TMC3     O 8612   0.346   0.803  11.976 -0.0035 -0.1746  0.2886
  577TMC3     H 8613   0.595   0.534  11.827  0.4808 -0.0490  0.1719
  577TMC3    H1 8614   0.369   0.885  11.774  0.4080 -0.5067 -0.5377
  577TMC3    H2 8615   0.699   0.790  11.518 -0.1108 -0.5363 -0.3731
  577TMC3    C7 8616   0.553   0.991  11.589  0.0519  0.3407  0.6773
  577TMC3    C8 8617   0.788   0.598  11.684 -1.0638  0.4530 -0.4426
  577TMC3    O1 8618   0.642   1.010  11.510  0.2548 -0.5043 -0.1462
  577TMC3    O2 8619   0.797   0.478  11.704 -0.4473 -0.1250  0.5705
  578MPD2     C 8620   3.325   0.256   1.225 -0.4246  0.0231 -0.0918
  578MPD2    C1 8621   3.414   0.192   1.134 -0.4902 -0.6037 -0.1158
  578MPD2    C2 8622   3.501   0.105   1.186  0.6898  0.5040  0.3163
  578MPD2    C3 8623   3.521   0.089   1.322 -0.4453 -0.5438  0.9545
  578MPD2    C4 8624   3.425   0.141   1.405 -0.8974  0.2933 -0.0681
  578MPD2    C5 8625   3.328   0.229   1.363 -0.2503  0.2258 -0.1746
  578MPD2     H 8626   3.578   0.069   1.120 -1.6089 -2.9791 -0.4207
  578MPD2    H1 8627   3.427   0.111   1.509 -0.3358 -0.1784 -0.2177
  578MPD2    H2 8628   3.255   0.327   1.183 -1.0394  0.3246  1.4601
  578MPD2    H3 8629   3.246   0.264   1.425  0.9599  1.0164  0.9829
  578MPD2     N 8630   3.628   0.013   1.366 -0.2761  0.4435 -0.3500
  578MPD2    H5 8631   3.681   4.710   1.290 -2.0501 -1.0146 -0.7746
  578MPD2    N1 8632   3.413   0.228   0.998 -0.4189 -0.1066  0.1446
  578MPD2    H7 8633   3.353   0.307   0.978 -1.1299 -0.7324 -0.2281
  579TMC3    C1 8634   3.816   4.694   1.492  0.2166  0.0684 -0.4744
  579TMC3    C2 8635   3.908   0.032   1.556  0.3059  0.3916  0.1686
  579TMC3    C3 8636   4.041   0.006   1.547  0.3439  0.3395 -1.1303
  579TMC3    C4 8637   3.852   4.589   1.407 -0.0153  0.3172 -0.1073
  579TMC3    C5 8638   3.989   4.562   1.399  0.7601  0.9920 -0.5543
  579TMC3    C6 8639   4.082   4.638   1.473  0.2401  0.4082 -0.7272
  579TMC3     C 8640   3.680   0.017   1.495 -0.3503 -0.1350  0.6400
  579TMC3     O 8641   3.656   0.095   1.587  0.7694  0.2551 -0.4748
  579TMC3     H 8642   3.879   0.114   1.619 -2.2990 -0.7750  0.4893
  579TMC3    H1 8643   3.771   4.529   1.369  1.9978 -2.0760 -0.6052
  579TMC3    H2 8644   4.187   4.619   1.454  0.1861  0.4442 -1.0624
  579TMC3    C7 8645   4.041   4.452   1.315  0.8213  0.3949  0.7313
  579TMC3    C8 8646   4.127   0.114   1.591 -0.4062 -0.3284  0.7535
  579TMC3    O1 8647   4.156   4.419   1.345 -0.0173 -0.2973  0.6360
  579TMC3    O2 8648   4.084   0.200   1.672  0.3992 -0.0635 -0.1625
  580TMC3    C1 8649   3.222   4.619  12.318  0.6504  0.0033  0.0485
  580TMC3    C2 8650   3.345   4.592  12.260  0.2044  0.2717  0.2309
  580TMC3    C3 8651   3.369   4.460  12.215  0.9016  1.2800  0.8528
  580TMC3    C4 8652   3.131   4.519  12.343 -0.1761  0.5331  0.3541
  580TMC3    C5 8653   3.149   4.400  12.279 -0.1998  0.1812 -0.6252
  580TMC3    C6 8654   3.265   4.369  12.211 -0.5333 -0.2780  0.2873
  580TMC3     C 8655   3.178   0.017  12.307 -0.3667 -0.2381  0.1811
  580TMC3     O 8656   3.256   0.101  12.254  0.3107 -0.7707  0.6989
  580TMC3     H 8657   3.411   4.673  12.233 -0.6256  0.7516 -0.3640
  580TMC3    H1 8658   3.029   4.537  12.377 -0.4686  0.4637 -0.4962
  580TMC3    H2 8659   3.276   4.265  12.180 -1.7317 -0.4654  0.4799
  580TMC3    C7 8660   3.029   4.320  12.270  0.2083  0.3274  0.4192
  580TMC3    C8 8661   3.462   4.436  12.105 -0.0104 -0.0934  0.4090
  580TMC3    O1 8662   2.948   4.328  12.357  0.1250  0.1579 -0.3538
  580TMC3    O2 8663   3.435   4.339  12.037  0.1960  0.1428 -0.0310
  581MPD2     C 8664   1.301   4.112  14.755  0.1079  0.2900  0.3850
  581MPD2    C1 8665   1.188   4.062  14.822 -0.7257  0.1650 -0.2376
  581MPD2    C2 8666   1.076   4.145  14.813 -0.3211 -0.1652  0.4896
  581MPD2    C3 8667   1.088   4.261  14.745  0.5793  0.0483 -0.2409
  581MPD2    C4 8668   1.197   4.297  14.670  0.1383  0.1167 -0.0780
  581MPD2    C5 8669   1.306   4.222  14.675  0.8953 -0.7386  0.3152
  581MPD2     H 8670   0.995   4.114  14.878 -1.4714  2.0748  0.1394
  581MPD2    H1 8671   1.216   4.381  14.604 -0.2188  1.0874  1.0613
  581MPD2    H2 8672   1.396   4.063  14.767 -0.3185 -1.2166 -2.3867
  581MPD2    H3 8673   1.405   4.247  14.640  0.4569 -2.0273 -1.8642
  581MPD2     N 8674   0.970   4.338  14.737  0.0010  0.6781  0.1756
  581MPD2    H5 8675   0.895   4.315  14.802  0.1437 -0.7598 -0.1590
  581MPD2    N1 8676   1.205   3.937  14.884 -0.4282  0.2930 -0.6794
  581MPD2    H7 8677   1.295   3.897  14.863 -1.2940 -1.9165 -0.1229
  582TMC3    C1 8678   1.137   3.735  14.992  0.0902  0.5095 -0.4110
  582TMC3    C2 8679   1.242   3.716  15.082  0.8531  0.8077 -0.2945
  582TMC3    C3 8680   1.221   3.643  15.193 -0.6761  0.2802 -0.4433
  582TMC3    C4 8681   1.017   3.661  15.002 -0.4763  0.6364 -0.3023
  582TMC3    C5 8682   1.010   3.577  15.105  0.2269  0.0327 -0.1940
  582TMC3    C6 8683   1.110   3.563  15.202 -0.2186  0.5639  0.4012
  582TMC3     C 8684   1.109   3.865  14.947  0.5651  0.5123  0.7938
  582TMC3     O 8685   0.992   3.899  14.964  0.0247  0.5488  0.5665
  582TMC3     H 8686   1.313   3.799  15.080  0.6975  0.9476 -0.0005
  582TMC3    H1 8687   0.934   3.669  14.933 -0.3290 -1.6735 -0.7724
  582TMC3    H2 8688   1.095   3.498  15.287 -1.2946 -0.9565 -0.9539
  582TMC3    C7 8689   0.877   3.588  15.172  0.2774  0.3338 -0.3977
  582TMC3    C8 8690   1.266   3.705  15.320 -1.1345  0.3326  0.3722
  582TMC3    O1 8691   0.831   3.501  15.248 -0.0215 -0.3816 -0.4397
  582TMC3    O2 8692   1.186   3.708  15.412 -0.5198  0.0696 -0.1473
  583MPD2     C 8693   1.165   0.868  16.815  0.7973  1.0461  0.4469
  583MPD2    C1 8694   1.161   1.007  16.811 -0.1343 -0.0126  0.3995
  583MPD2    C2 8695   1.165   1.088  16.923 -0.2959  0.5147  0.5901
  583MPD2    C3 8696   1.183   1.029  17.045  0.2475  0.6902  0.0518
  583MPD2    C4 8697   1.203   0.894  17.056 -0.1893 -0.9647 -0.6069
  583MPD2    C5 8698   1.184   0.816  16.946 -0.4040  0.2946  0.5671
  583MPD2     H 8699   1.154   1.195  16.913  0.5503  0.4625 -1.0129
  583MPD2    H1 8700   1.234   0.840  17.144 -0.5158  1.4025  0.9614
  583MPD2    H2 8701   1.151   0.802  16.730  0.6765  0.1382  1.1696
  583MPD2    H3 8702   1.197   0.709  16.956  0.1704  0.2520 -0.5752
  583MPD2     N 8703   1.177   1.115  17.154 -0.0708 -0.1704  0.9460
  583MPD2    H5 8704   1.153   1.212  17.136  0.9672  0.3740  2.4832
  583MPD2    N1 8705   1.147   1.070  16.685 -0.3833  0.4729 -0.6037
  583MPD2    H7 8706   1.121   1.168  16.676 -3.7325 -0.5322 -1.8180
  584TMC3    C1 8707   1.208   1.199  17.360  0.0173 -0.1568 -0.3346
  584TMC3    C2 8708   1.239   1.321  17.297 -0.0846  0.6219  0.4950
  584TMC3    C3 8709   1.299   1.418  17.370  0.0859  0.7703  0.0866
  584TMC3    C4 8710   1.221   1.178  17.491  0.1846  0.2614  0.2729
  584TMC3    C5 8711   1.268   1.282  17.565 -0.2980 -0.5510 -0.0321
  584TMC3    C6 8712   1.306   1.404  17.505 -0.7271 -0.1235  0.3839
  584TMC3     C 8713   1.207   1.081  17.279 -0.5132  0.9843  0.1412
  584TMC3     O 8714   1.222   0.973  17.334  0.6553 -0.0072  0.1638
  584TMC3     H 8715   1.234   1.344  17.192 -0.3670  0.4356  0.4690
  584TMC3    H1 8716   1.178   1.087  17.530  1.2109 -0.1495  0.4381
  584TMC3    H2 8717   1.357   1.486  17.556 -0.9505 -0.7934  1.6953
  584TMC3    C7 8718   1.276   1.265  17.709 -0.5862 -0.5737  0.1475
  584TMC3    C8 8719   1.330   1.544  17.298  0.5399 -0.1610  0.0910
  584TMC3    O1 8720   1.280   1.148  17.748  0.0787 -0.1334  0.1381
  584TMC3    O2 8721   1.335   1.527  17.178  0.4117 -0.0534 -0.1010
  585MPD2     C 8722   0.185   0.188   0.139 -0.1456 -0.2804 -0.1804
  585MPD2    C1 8723   0.284   0.263   0.078 -0.0184  0.5792 -0.0670
  585MPD2    C2 8724   0.349   0.209  17.723  0.3793 -0.0340  0.7075
  585MPD2    C3 8725   0.326   0.071  17.693 -0.9708 -0.1088  0.4083
  585MPD2    C4 8726   0.236   4.735   0.012 -0.3166 -0.3937 -0.4254
  585MPD2    C5 8727   0.165   0.058   0.111 -0.2322 -0.6858 -0.1352
  585MPD2     H 8728   0.402   0.269  17.650  0.5308 -1.3074 -0.2334
  585MPD2    H1 8729   0.201   4.637  17.740 -0.2058 -0.4172 -0.4817
  585MPD2    H2 8730   0.125   0.236   0.216 -0.1125  2.2498 -1.7372
  585MPD2    H3 8731   0.093   0.009   0.176 -0.4983  1.8223  1.4512
  585MPD2     N 8732   0.379   0.009  17.576 -0.0524 -0.0091 -0.6393
  585MPD2    H5 8733   0.335   4.664  17.540  0.7921 -1.0837  0.8745
  585MPD2    N1 8734   0.303   0.395   0.126 -0.4375 -0.3284  0.3942
  585MPD2    H7 8735   0.248   0.423   0.206  1.7108  0.6373  1.5208
  586TMC3    C1 8736   0.519   4.718  17.394 -0.0437  0.0154 -0.0793
  586TMC3    C2 8737   0.638   4.687  17.334 -0.4161 -1.1365 -0.7359
  586TMC3    C3 8738   0.647   4.633  17.209  0.5765 -0.4454 -0.1640
  586TMC3    C4 8739   0.403   4.689  17.321  0.1496  0.3018 -0.2158
  586TMC3    C5 8740   0.421   4.637  17.197 -0.5282  0.3273 -0.2375
  586TMC3    C6 8741   0.537   4.605  17.140 -0.1485 -0.4210  0.0646
  586TMC3     C 8742   0.495   0.054  17.512  0.8018  0.3154 -0.1854
  586TMC3     O 8743   0.591   0.117  17.560  0.5130  0.2640  0.3891
  586TMC3     H 8744   0.727   4.708  17.391 -0.7876  0.6267 -0.7973
  586TMC3    H1 8745   0.306   4.724  17.354 -0.2266 -0.7891 -0.1602
  586TMC3    H2 8746   0.546   4.580  17.035  0.2778  3.9786 -0.9640
  586TMC3    C7 8747   0.312   4.545  17.163  0.2058 -0.2086 -0.2018
  586TMC3    C8 8748   0.765   4.560  17.168  0.0733 -0.0640 -0.0233
  586TMC3    O1 8749   0.218   4.549  17.237  0.5064 -0.3858 -0.1654
  586TMC3    O2 8750   0.833   4.503  17.253  0.0421  0.3260 -0.2052
  587TMC3    C1 8751   2.592   3.953  15.805  0.1855 -0.0262 -0.6205
  587TMC3    C2 8752   2.640   3.950  15.936 -1.0143 -0.6276  0.1317
  587TMC3    C3 8753   2.753   3.880  15.953 -0.3040  0.0057  1.0937
  587TMC3    C4 8754   2.655   3.900  15.698  0.7956  0.0281 -0.2358
  587TMC3    C5 8755   2.783   3.841  15.723  0.0318 -0.0816  1.2312
  587TMC3    C6 8756   2.833   3.831  15.853  0.0171 -0.0334 -0.3909
  587TMC3     C 8757   2.447   3.997  15.787 -0.5071 -0.1664  0.7758
  587TMC3     O 8758   2.421   4.035  15.674 -0.4950 -0.3070  0.5946
  587TMC3     H 8759   2.570   3.976  16.015 -1.4390 -1.2552 -0.0342
  587TMC3    H1 8760   2.605   3.893  15.603 -4.3135 -1.3215  2.5325
  587TMC3    H2 8761   2.927   3.784  15.879  0.2023 -0.6878 -2.2321
  587TMC3    C7 8762   2.816   3.734  15.636 -1.5459  0.1646 -0.6372
  587TMC3    C8 8763   2.782   3.842  16.091 -0.2353  0.2885 -0.1606
  587TMC3    O1 8764   2.933   3.704  15.628 -0.0461 -0.0593  0.0944
  587TMC3    O2 8765   2.877   3.764  16.116  0.3155  0.1331 -0.2752
  588TMC3    C1 8766   4.473   1.630  10.098  1.2335  0.1979 -0.2310
  588TMC3    C2 8767   4.432   1.511  10.141 -0.4105  0.4033 -0.4346
  588TMC3    C3 8768   4.504   1.461  10.245  0.1154  0.7173 -0.2530
  588TMC3    C4 8769   4.594   1.680  10.131 -0.6070 -0.0309  0.1837
  588TMC3    C5 8770   4.661   1.625  10.236 -0.7345  0.4182 -0.5981
  588TMC3    C6 8771   4.620   1.512  10.302  0.7252 -0.7636  0.5044
  588TMC3     C 8772   4.423   1.691   9.980 -0.0718  0.0379  0.0817
  588TMC3     O 8773   4.388   1.622   9.887  0.4516 -0.4941 -0.2499
  588TMC3     H 8774   4.341   1.469  10.098  0.9180 -1.4404 -1.4184
  588TMC3    H1 8775   4.628   1.770  10.081 -0.5496 -0.7333 -1.0432
  588TMC3    H2 8776   4.687   1.474  10.378  0.7691 -0.8564  0.4191
  588TMC3    C7 8777   0.009   1.713  10.312 -0.1122  0.8066  0.2868
  588TMC3    C8 8778   4.456   1.336  10.312 -0.1936  0.6247  0.1137
  588TMC3    O1 8779   0.118   1.672  10.350 -0.5790 -0.1803 -0.4427
  588TMC3    O2 8780   4.362   1.282  10.261  0.0588  0.0674  0.9147
  589TMC3    C1 8781   4.076   3.628   1.371 -0.0326 -0.3651  0.1771
  589TMC3    C2 8782   4.186   3.579   1.431 -0.3345 -0.0513 -1.0478
  589TMC3    C3 8783   4.261   3.488   1.360  0.3054  0.4015  0.3650
  589TMC3    C4 8784   4.040   3.602   1.239 -0.3026  0.2119  0.0586
  589TMC3    C5 8785   4.116   3.511   1.172 -0.1921 -0.4859  0.1390
  589TMC3    C6 8786   4.226   3.451   1.229  0.7064 -0.0793 -0.2424
  589TMC3     C 8787   3.980   3.710   1.456  0.3855 -0.9915 -0.8461
  589TMC3     O 8788   3.884   3.760   1.402  0.1994 -0.3605  0.2374
  589TMC3     H 8789   4.216   3.603   1.532 -0.0946  1.2866 -1.4376
  589TMC3    H1 8790   3.950   3.648   1.198  0.0640  0.4579 -0.4652
  589TMC3    H2 8791   4.288   3.385   1.168  0.2782  0.3082 -1.0934
  589TMC3    C7 8792   4.085   3.464   1.044  0.1246 -0.2080 -0.4231
  589TMC3    C8 8793   4.381   3.438   1.424 -0.0390  0.5086 -0.8638
  589TMC3    O1 8794   4.142   3.359   1.017 -0.8204 -0.2366  0.2165
  589TMC3    O2 8795   4.416   3.473   1.536  0.5226  0.2949 -0.4178
  590MPD2     C 8796   3.826   1.663  16.316 -0.7276 -0.2011  0.0169
  590MPD2    C1 8797   3.765   1.785  16.346 -0.7772 -0.4148 -0.3266
  590MPD2    C2 8798   3.855   1.895  16.346 -0.7248 -0.1758  0.0866
  590MPD2    C3 8799   3.992   1.888  16.310 -0.7897  0.0595 -0.2216
  590MPD2    C4 8800   4.042   1.758  16.292  0.2739 -0.1541 -0.2591
  590MPD2    C5 8801   3.958   1.649  16.301 -0.2533  0.2326 -0.9754
  590MPD2     H 8802   3.827   1.997  16.371  1.9878  0.7398 -0.5744
  590MPD2    H1 8803   4.141   1.728  16.257 -0.4395 -1.7356 -0.9035
  590MPD2    H2 8804   3.763   1.575  16.311  1.1887 -1.6252  1.3503
  590MPD2    H3 8805   3.991   1.552  16.266  1.3774  0.4196  0.0614
  590MPD2     N 8806   4.060   2.010  16.299  0.9200 -0.4802 -0.3715
  590MPD2    H5 8807   4.004   2.095  16.304  0.1312 -0.9325 -1.5040
  590MPD2    N1 8808   3.627   1.802  16.355  0.6962  0.1654 -0.8958
  590MPD2    H7 8809   3.570   1.727  16.316 -2.8001  2.1665  0.3670
  591TMC3    C1 8810   4.241   2.151  16.224  0.0180  0.5353 -0.4407
  591TMC3    C2 8811   4.325   2.147  16.114  0.0309 -0.3242 -0.8875
  591TMC3    C3 8812   4.316   2.242  16.011 -0.8237  0.1799 -1.3465
  591TMC3    C4 8813   4.147   2.252  16.229 -0.2785 -0.2070 -0.2735
  591TMC3    C5 8814   4.148   2.348  16.134  0.3707 -0.0904  0.5011
  591TMC3    C6 8815   4.223   2.340  16.018 -0.5563  0.3177 -0.2594
  591TMC3     C 8816   4.187   2.010  16.252 -0.0349  0.2524  0.5953
  591TMC3     O 8817   4.256   1.916  16.207 -0.2352  0.3385  0.0738
  591TMC3     H 8818   4.401   2.069  16.119  0.5499  0.1028 -2.1347
  591TMC3    H1 8819   4.084   2.257  16.317  0.2110  2.6204 -0.0690
  591TMC3    H2 8820   4.213   2.414  15.938  3.9337  0.2917 -0.8080
  591TMC3    C7 8821   4.045   2.452  16.150 -0.1695  0.0984  1.3851
  591TMC3    C8 8822   4.383   2.207  15.889  0.1350  0.3799 -0.1239
  591TMC3    O1 8823   3.959   2.436  16.235 -0.0728  0.3302 -0.4849
  591TMC3    O2 8824   4.437   2.100  15.891 -0.1018  0.4152  0.2430
  592MPD2     C 8825   3.947   4.044  11.783 -0.2260  0.2026 -0.7649
  592MPD2    C1 8826   3.876   4.109  11.885 -0.1414  0.0769 -0.8047
  592MPD2    C2 8827   3.760   4.052  11.931 -0.5992  0.5283  0.1495
  592MPD2    C3 8828   3.712   3.930  11.886  0.2126  0.3871  0.2532
  592MPD2    C4 8829   3.786   3.863  11.784  0.2506  0.4229  0.2728
  592MPD2    C5 8830   3.899   3.928  11.733 -0.3866 -0.1180 -0.2172
  592MPD2     H 8831   3.709   4.098  12.014  0.8559 -0.8823  1.8353
  592MPD2    H1 8832   3.759   3.767  11.743 -1.5475  1.7993 -1.7346
  592MPD2    H2 8833   4.042   4.083  11.748 -1.1604  1.5368 -1.8271
  592MPD2    H3 8834   3.957   3.881  11.654  0.4421 -0.5330  0.6346
  592MPD2     N 8835   3.594   3.873  11.945 -0.4113 -0.1199 -0.3180
  592MPD2    H5 8836   3.541   3.932  12.007 -0.0184  1.3688 -1.3873
  592MPD2    N1 8837   3.940   4.216  11.946  0.0795 -0.0314 -0.4285
  592MPD2    H7 8838   4.033   4.239  11.913  0.6540 -0.8776  0.6016
  593TMC3    C1 8839   3.981   4.394  12.092  0.6992 -0.0045 -0.8157
  593TMC3    C2 8840   3.959   4.442  12.213 -0.6497  0.2451  0.8723
  593TMC3    C3 8841   4.052   4.527  12.262  0.3913 -0.3565  0.2277
  593TMC3    C4 8842   4.087   4.426  12.011  0.6937 -0.2144  1.0266
  593TMC3    C5 8843   4.180   4.510  12.071  0.3229 -0.9952  0.1846
  593TMC3    C6 8844   4.171   4.546  12.201 -0.4924 -0.2745 -0.0163
  593TMC3     C 8845   3.893   4.284  12.054  0.1461 -0.0931  0.0871
  593TMC3     O 8846   3.799   4.268  12.126  0.1765  0.0591 -0.2510
  593TMC3     H 8847   3.861   4.434  12.259 -0.4650 -0.0157  1.2162
  593TMC3    H1 8848   4.093   4.395  11.908 -1.1346 -0.3162  0.9466
  593TMC3    H2 8849   4.252   4.607  12.238  0.3321 -0.0640 -2.1535
  593TMC3    C7 8850   4.211   4.632  11.993 -0.7703  0.7630 -0.4218
  593TMC3    C8 8851   3.990   4.641  12.327  0.1680  0.6598 -0.5139
  593TMC3    O1 8852   4.218   4.732  12.059 -0.3056  0.5979  0.0555
  593TMC3    O2 8853   3.873   4.640  12.367 -0.1787  0.6543 -0.2332
  594MPD2     C 8854   3.395   2.608  14.832 -0.2048 -0.0801 -0.2504
  594MPD2    C1 8855   3.313   2.609  14.715 -0.3246  0.2961  0.8177
  594MPD2    C2 8856   3.351   2.690  14.609 -0.0020 -0.5150  0.4873
  594MPD2    C3 8857   3.473   2.753  14.611 -0.7046 -0.1579  0.0481
  594MPD2    C4 8858   3.548   2.763  14.725  0.2421 -0.5626  0.1506
  594MPD2    C5 8859   3.510   2.689  14.835 -0.1154 -0.5539 -0.3299
  594MPD2     H 8860   3.296   2.689  14.516 -3.7756 -3.1222  2.7620
  594MPD2    H1 8861   3.638   2.823  14.726 -1.5467  2.1810 -0.1715
  594MPD2    H2 8862   3.374   2.543  14.917 -0.8976  1.2112  0.5649
  594MPD2    H3 8863   3.575   2.672  14.920 -0.8995  1.1463  0.6056
  594MPD2     N 8864   3.498   2.834  14.498  0.0197 -0.1984  0.0323
  594MPD2    H5 8865   3.431   2.829  14.422 -0.7213  0.8541  0.6079
  594MPD2    N1 8866   3.200   2.527  14.713  0.1009 -0.1619  0.0942
  594MPD2    H7 8867   3.191   2.457  14.786 -2.2054  2.0683  1.9198
  595TMC3    C1 8868   3.730   3.088  14.190 -0.0744  0.5756 -0.2623
  595TMC3    C2 8869   3.719   3.018  14.307  0.0810 -0.6366 -0.2008
  595TMC3    C3 8870   3.602   2.991  14.359  0.1338 -0.1278 -0.5466
  595TMC3    C4 8871   3.619   3.134  14.128 -0.4846 -0.3061 -0.0761
  595TMC3    C5 8872   3.499   3.116  14.191  0.0933 -0.3088  0.7468
  595TMC3    C6 8873   3.484   3.030  14.302 -0.9592  0.1269 -0.8719
  595TMC3     C 8874   3.837   3.181  14.186 -0.0703 -0.3681  0.3568
  595TMC3     O 8875   3.810   3.300  14.187 -0.9965  0.2449 -0.2427
  595TMC3     H 8876   3.813   2.982  14.349  0.8192  1.9185  0.3695
  595TMC3    H1 8877   3.614   3.192  14.037  0.6118 -0.6363 -0.3421
  595TMC3    H2 8878   3.392   3.011  14.357 -0.0447  2.0512  1.3192
  595TMC3    C7 8879   3.431   3.243  14.215  0.1520  0.7312  0.3174
  595TMC3    C8 8880   3.611   2.900  14.476 -0.1514  0.9165 -0.2085
  595TMC3    O1 8881   3.334   3.234  14.293 -0.2569 -0.2472 -0.0029
  595TMC3    O2 8882   3.717   2.901  14.533  0.2326  0.1711  0.3794
  596MPD2     C 8883   2.459   1.035  16.437 -0.5559  0.3788  0.2129
  596MPD2    C1 8884   2.339   1.093  16.404 -0.4072 -0.0712  0.5072
  596MPD2    C2 8885   2.308   1.076  16.273 -0.2029 -0.3016 -0.3890
  596MPD2    C3 8886   2.380   1.002  16.185 -0.3633 -0.0974  0.2319
  596MPD2    C4 8887   2.499   0.943  16.222  0.3658 -0.3342  0.5190
  596MPD2    C5 8888   2.540   0.966  16.350 -0.3047  0.6323 -0.6179
  596MPD2     H 8889   2.219   1.128  16.238 -0.3992 -1.2595 -1.3298
  596MPD2    H1 8890   2.558   0.891  16.147 -1.0968  0.6748 -1.3176
  596MPD2    H2 8891   2.492   1.052  16.539  0.3938  0.9253 -0.1826
  596MPD2    H3 8892   2.639   0.939  16.384 -0.8804 -0.0078  0.5458
  596MPD2     N 8893   2.332   0.987  16.052 -0.3701 -0.1519 -0.4993
  596MPD2    H5 8894   2.387   0.922  15.997 -0.9006 -0.9822 -0.0476
  596MPD2    N1 8895   2.260   1.177  16.481 -0.4713  0.2612 -0.7204
  596MPD2    H7 8896   2.183   1.225  16.435  0.8660  0.8115 -2.3696
  597TMC3    C1 8897   2.180   1.310  16.655 -0.5662  0.4604 -0.1235
  597TMC3    C2 8898   2.166   1.412  16.568 -0.1779  0.5438  0.6687
  597TMC3    C3 8899   2.095   1.518  16.613  0.1767  0.1816  0.3733
  597TMC3    C4 8900   2.139   1.322  16.791 -0.2145 -0.4075 -0.7389
  597TMC3    C5 8901   2.067   1.437  16.827 -0.6025 -0.7783 -0.2654
  597TMC3    C6 8902   2.056   1.545  16.741 -0.7807 -0.3490  0.2143
  597TMC3     C 8903   2.262   1.195  16.612 -0.3461 -0.3315 -0.5383
  597TMC3     O 8904   2.314   1.119  16.693 -0.6233 -0.0613 -0.3554
  597TMC3     H 8905   2.169   1.398  16.460  0.1114 -1.6068  0.9508
  597TMC3    H1 8906   2.169   1.250  16.866 -0.3801 -0.4747 -0.7379
  597TMC3    H2 8907   2.001   1.634  16.768  0.0835  0.4460 -0.6810
  597TMC3    C7 8908   2.015   1.446  16.960 -0.2467 -0.1203 -0.4738
  597TMC3    C8 8909   2.062   1.621  16.510 -0.5318 -0.5908  0.5778
  597TMC3    O1 8910   2.045   1.361  17.046 -0.0268 -0.2865  0.4457
  597TMC3    O2 8911   1.962   1.686  16.543 -0.2893  0.4394  0.1831
  598TMC3    C1 8912   0.068   2.439  15.160  0.5523 -0.0773  0.0689
  598TMC3    C2 8913   0.044   2.330  15.077  0.4501  0.3224  0.4643
  598TMC3    C3 8914   0.003   2.352  14.952  0.2776  0.5936 -0.6707
  598TMC3    C4 8915   0.085   2.561  15.100 -0.8094  0.4542 -0.1144
  598TMC3    C5 8916   0.043   2.584  14.968 -0.1157 -0.1657 -0.1948
  598TMC3    C6 8917   0.007   2.479  14.893  0.0431  0.4238 -0.2367
  598TMC3     C 8918   0.138   2.429  15.286  0.1331 -0.9657  0.8449
  598TMC3     O 8919   0.138   2.524  15.360 -0.2256  0.1531 -0.6915
  598TMC3     H 8920   0.009   2.240  15.126  0.9299 -1.0842 -1.7788
  598TMC3    H1 8921   0.130   2.640  15.159  0.9650  0.3570 -1.3436
  598TMC3    H2 8922   4.697   2.498  14.799 -0.6905 -0.4249 -0.0322
  598TMC3    C7 8923   0.100   2.691  14.886 -0.0963 -0.7075  0.5236
  598TMC3    C8 8924   4.676   2.240  14.881 -0.0675 -0.0274 -0.0931
  598TMC3    O1 8925   0.105   2.662  14.768 -0.6441  0.0887 -0.6552
  598TMC3    O2 8926   4.637   2.146  14.951 -0.0915 -0.4641  0.3933
  599MPD2     C 8927   0.337   0.213  15.806  0.4131 -0.4619  0.0574
  599MPD2    C1 8928   0.287   0.090  15.850  0.5048 -0.0392 -0.3728
  599MPD2    C2 8929   0.185   0.086  15.937  0.1849  0.7191  0.1018
  599MPD2    C3 8930   0.148   0.205  16.001 -0.1734  0.0355  0.1458
  599MPD2    C4 8931   0.194   0.327  15.956 -0.1777  0.5263  0.0371
  599MPD2    C5 8932   0.291   0.327  15.858 -0.1644 -0.0304  0.3014
  599MPD2     H 8933   0.144   4.731  15.971  3.0724 -0.6724 -0.2908
  599MPD2    H1 8934   0.166   0.418  16.009 -0.2614  0.1321  0.6660
  599MPD2    H2 8935   0.417   0.228  15.734 -0.8500  1.5299 -0.9375
  599MPD2    H3 8936   0.334   0.422  15.829  2.3604 -1.2277  0.1052
  599MPD2     N 8937   0.052   0.213  16.102  0.6892 -0.1784 -0.2019
  599MPD2    H5 8938   0.044   0.308  16.137  3.2509  0.0274 -0.1833
  599MPD2    N1 8939   0.354   4.718  15.785 -0.2912  0.4170  0.2585
  599MPD2    H7 8940   0.438   0.008  15.738  1.1385 -1.7940  1.4096
  600TMC3    C1 8941   4.659   0.132  16.278  0.0920 -0.5154 -0.3660
  600TMC3    C2 8942   4.582   0.024  16.322  0.2999 -0.5805  0.8269
  600TMC3    C3 8943   4.568   0.005  16.458  0.0035 -0.0584  0.5421
  600TMC3    C4 8944   4.719   0.221  16.363 -0.0423  0.5535  0.1129
  600TMC3    C5 8945   4.708   0.193  16.494  0.2130  0.3065 -0.3962
  600TMC3    C6 8946   4.628   0.091  16.546  0.1811  0.3390  0.2897
  600TMC3     C 8947   4.718   0.107  16.148  0.8256 -0.5819  0.1897
  600TMC3     O 8948   4.693   0.003  16.090  0.0424  0.3930  0.2039
  600TMC3     H 8949   4.532   4.697  16.253  0.3919 -0.7014  0.8763
  600TMC3    H1 8950   0.016   0.317  16.328 -0.5184  1.0316  0.9406
  600TMC3    H2 8951   4.603   0.074  16.650  0.4826 -5.3841 -0.5480
  600TMC3    C7 8952   4.690   0.314  16.574  0.2036 -0.2177  0.3629
  600TMC3    C8 8953   4.524   4.611  16.510  0.2968  0.2057 -0.5007
  600TMC3    O1 8954   4.609   0.300  16.670  0.4913  0.5316 -0.1935
  600TMC3    O2 8955   4.556   4.588  16.628  0.0926 -0.1043  0.3464
  601MPD2     C 8956   2.810   3.209   0.237 -0.2439 -0.2505  0.4302
  601MPD2    C1 8957   2.697   3.154   0.178 -0.3914  0.5941 -0.0894
  601MPD2    C2 8958   2.678   3.016   0.184 -0.1027 -0.6970  0.3287
  601MPD2    C3 8959   2.762   2.941   0.263 -0.6715  0.2150 -0.2038
  601MPD2    C4 8960   2.867   2.999   0.330  0.8573  0.1031 -0.2729
  601MPD2    C5 8961   2.895   3.131   0.312  0.4963  0.6042 -0.2895
  601MPD2     H 8962   2.595   2.977   0.127  0.5463 -0.3322 -0.8565
  601MPD2    H1 8963   2.934   2.944   0.394  1.6139  2.4922  1.0014
  601MPD2    H2 8964   2.836   3.314   0.229 -1.3316 -0.1662 -1.9285
  601MPD2    H3 8965   2.976   3.176   0.368 -0.1769  1.2235  0.1822
  601MPD2     N 8966   2.747   2.800   0.272  0.4405 -0.8636 -0.3937
  601MPD2    H5 8967   2.818   2.758   0.331 -1.0848 -0.3084  1.8601
  601MPD2    N1 8968   2.604   3.231   0.097 -0.0476  0.3168 -0.0815
  601MPD2    H7 8969   2.525   3.187   0.052  0.8202  0.0237 -1.3143
  602TMC3    C1 8970   2.470   3.408   0.019  0.7384  0.4778 -0.6781
  602TMC3    C2 8971   2.426   3.542   0.029 -0.1058 -0.2389  0.1730
  602TMC3    C3 8972   2.305   3.572  17.745  0.6052  0.1887 -0.8451
  602TMC3    C4 8973   2.394   3.318  17.703 -0.1814 -0.5934  0.1927
  602TMC3    C5 8974   2.271   3.362  17.649  0.5651  0.3092 -0.3702
  602TMC3    C6 8975   2.229   3.492  17.664 -0.9444  0.1456  0.0239
  602TMC3     C 8976   2.599   3.365   0.085 -0.0540  0.6626 -0.2385
  602TMC3     O 8977   2.663   3.450   0.147 -0.2270  0.4076 -0.0254
  602TMC3     H 8978   2.480   3.615   0.088 -0.1391  0.0024 -0.0922
  602TMC3    H1 8979   2.417   3.213  17.688 -0.0558 -0.7491  1.5291
  602TMC3    H2 8980   2.139   3.517  17.611 -0.4528 -0.8094 -1.2678
  602TMC3    C7 8981   2.198   3.258  17.578  1.0015  0.4979 -0.1820
  602TMC3    C8 8982   2.243   3.699   0.021  0.7737 -0.3238 -0.5550
  602TMC3    O1 8983   2.250   3.153  17.549  0.1510 -0.0204  0.0357
  602TMC3    O2 8984   2.317   3.791   0.056  0.2819 -0.5129  0.1114
  603TMC3    C1 8985   4.734   4.062  10.928 -0.2858 -0.3965  0.6712
  603TMC3    C2 8986   0.007   4.018  11.056  0.2877  0.2494 -0.3738
  603TMC3    C3 8987   0.046   4.104  11.154 -0.5356  0.5213 -0.4679
  603TMC3    C4 8988   0.000   4.195  10.892  0.8625  0.1370  0.2820
  603TMC3    C5 8989   0.015   4.287  10.996 -0.2583  0.4105  0.5681
  603TMC3    C6 8990   0.045   4.243  11.126 -0.7216 -0.3383 -0.2433
  603TMC3     C 8991   4.728   3.963  10.815 -0.0834 -0.6907 -0.1407
  603TMC3     O 8992   4.694   4.024  10.714  0.4292  0.6080 -0.0054
  603TMC3     H 8993   0.004   3.913  11.084  0.1161 -0.1880 -2.0108
  603TMC3    H1 8994   4.722   4.233  10.792  1.5584 -0.2817 -0.0063
  603TMC3    H2 8995   0.014   4.308  11.207 -3.4254  2.0012 -3.1527
  603TMC3    C7 8996   4.700   4.419  10.986  0.5145 -0.6850  0.3226
  603TMC3    C8 8997   0.055   4.059  11.291 -0.1228  0.8752  0.2857
  603TMC3    O1 8998   4.728   4.494  11.078  0.7646  0.0020 -0.1172
  603TMC3    O2 8999   4.730   3.954  11.315 -0.4038 -0.3716  0.7799
  604MPD2     C 9000   1.119   1.732  16.132 -0.4551  0.5141 -0.6034
  604MPD2    C1 9001   1.107   1.856  16.068  0.5546  0.5486  0.0903
  604MPD2    C2 9002   1.147   1.855  15.933 -0.8557  0.8107  0.5708
  604MPD2    C3 9003   1.167   1.740  15.874  0.2613  0.3274  0.4712
  604MPD2    C4 9004   1.154   1.619  15.934  0.3173  0.6266  0.0295
  604MPD2    C5 9005   1.134   1.616  16.068 -0.2940  0.9818 -0.2490
  604MPD2     H 9006   1.149   1.950  15.881 -0.1153  0.2905 -0.3464
  604MPD2    H1 9007   1.188   1.528  15.887 -2.0580 -0.6130  0.6953
  604MPD2    H2 9008   1.102   1.732  16.239  2.4878 -2.1993 -0.1697
  604MPD2    H3 9009   1.146   1.524  16.124 -1.6059  0.2048 -1.2299
  604MPD2     N 9010   1.200   1.758  15.736 -0.1557  0.2872 -0.4486
  604MPD2    H5 9011   1.209   1.855  15.706  1.3481  0.4220  0.4359
  604MPD2    N1 9012   1.072   1.971  16.143  0.0934 -0.0246 -0.3777
  604MPD2    H7 9013   1.054   1.959  16.242  0.7900 -1.2550 -0.4064
  605TMC3    C1 9014   1.020   2.198  16.179  0.2705  0.1704  0.0081
  605TMC3    C2 9015   1.078   2.192  16.303 -0.5235  0.4378  0.0858
  605TMC3    C3 9016   1.051   2.295  16.386  0.1028  0.1075  0.2985
  605TMC3    C4 9017   0.940   2.299  16.136 -0.1765 -0.2205 -0.4785
  605TMC3    C5 9018   0.921   2.405  16.226 -0.2386  0.6154  0.1374
  605TMC3    C6 9019   0.971   2.401  16.351 -0.0345  0.8515  0.3243
  605TMC3     C 9020   1.045   2.094  16.088  0.0177 -0.1465 -0.2666
  605TMC3     O 9021   1.031   2.119  15.968  0.4766 -0.3786 -0.0876
  605TMC3     H 9022   1.151   2.112  16.317  0.4191  1.3636  0.5051
  605TMC3    H1 9023   0.908   2.310  16.033  0.4667 -1.3116 -0.7942
  605TMC3    H2 9024   0.951   2.481  16.422  4.2297  1.8930  0.3236
  605TMC3    C7 9025   0.796   2.480  16.215  0.7932  0.7552  0.0753
  605TMC3    C8 9026   1.150   2.328  16.488  0.3389 -0.3750  0.8199
  605TMC3    O1 9027   0.788   2.581  16.283 -0.6304 -0.1058  0.7220
  605TMC3    O2 9028   1.173   2.244  16.574  0.2757 -0.1174  0.0110
  606TMC3    C1 9029   2.528   4.266  17.659  0.1099 -0.0782  0.4780
  606TMC3    C2 9030   2.627   4.292  17.751 -0.1395  0.0128  0.5547
  606TMC3    C3 9031   2.611   4.396   0.084 -0.4460 -0.9012  0.7295
  606TMC3    C4 9032   2.415   4.340  17.651 -0.0343  0.2670 -0.1198
  606TMC3    C5 9033   2.400   4.439  17.746 -0.2889 -0.2987 -0.0023
  606TMC3    C6 9034   2.496   4.465   0.080  0.0586  0.2146 -0.0397
  606TMC3     C 9035   2.528   4.139  17.594  0.7702  0.3217 -0.2853
  606TMC3     O 9036   2.589   4.053  17.654  0.3230  0.1820  0.0219
  606TMC3     H 9037   2.720   4.237  17.737 -0.5803 -0.7137  0.4772
  606TMC3    H1 9038   2.343   4.317  17.573 -0.7817 -2.0476  1.2559
  606TMC3    H2 9039   2.489   4.552   0.145  0.7328  1.6775 -1.9186
  606TMC3    C7 9040   2.271   4.474   0.027  0.1925  0.0807 -0.0800
  606TMC3    C8 9041   2.725   4.456   0.148 -0.5805 -0.0583  0.3924
  606TMC3    O1 9042   2.245   4.458   0.147  0.3431  0.0993  0.3919
  606TMC3    O2 9043   2.718   4.576   0.176 -0.3222 -0.1727  0.0228
  607MPD2     C 9044   3.982   3.865  12.525 -0.5453 -0.2803 -0.0450
  607MPD2    C1 9045   4.106   3.821  12.509  0.9110  0.5968  0.0992
  607MPD2    C2 9046   4.145   3.704  12.568  0.0702 -0.0565  0.0004
  607MPD2    C3 9047   4.056   3.636  12.650  0.1482  0.2276 -0.0568
  607MPD2    C4 9048   3.926   3.675  12.658  0.5021  0.4922  0.4552
  607MPD2    C5 9049   3.891   3.795  12.601 -0.3051 -0.6009  0.5527
  607MPD2     H 9050   4.250   3.680  12.560  0.1191  0.5030 -1.1312
  607MPD2    H1 9051   3.842   3.631  12.711  0.1044  0.6232 -0.0683
  607MPD2    H2 9052   3.947   3.961  12.486  1.6425 -0.5220 -2.5887
  607MPD2    H3 9053   3.792   3.837  12.615  0.3334  0.5300  1.6981
  607MPD2     N 9054   4.113   3.524  12.715  0.0070 -0.4542 -0.0885
  607MPD2    H5 9055   4.211   3.507  12.696 -0.0582 -0.1260 -0.7163
  607MPD2    N1 9056   4.206   3.895  12.450  0.4596 -0.3952  0.0234
  607MPD2    H7 9057   4.298   3.854  12.453  0.4515 -0.2136  3.3350
  608TMC3    C1 9058   4.333   4.097  12.400  0.7640 -0.2615 -0.7643
  608TMC3    C2 9059   4.425   4.043  12.489 -0.2492 -0.4735  0.3696
  608TMC3    C3 9060   4.525   4.124  12.534 -0.0501  0.4840  0.1339
  608TMC3    C4 9061   4.325   4.229  12.360 -0.8145  0.3858  0.6559
  608TMC3    C5 9062   4.423   4.304  12.420  0.7857  0.6663  0.1640
  608TMC3    C6 9063   4.526   4.257  12.491  0.1859  0.6040 -0.9700
  608TMC3     C 9064   4.201   4.028  12.403  0.3127  0.2590  0.1869
  608TMC3     O 9065   4.103   4.104  12.406 -0.0340 -0.8889 -0.1108
  608TMC3     H 9066   4.438   3.936  12.499 -2.0024 -0.6403  0.7568
  608TMC3    H1 9067   4.255   4.264  12.285  0.0660 -0.6379 -0.6439
  608TMC3    H2 9068   4.606   4.321  12.528 -0.5629 -0.6608  2.8546
  608TMC3    C7 9069   4.470   4.423  12.357  0.1194  0.0917 -0.0646
  608TMC3    C8 9070   4.605   4.085  12.639  0.1564  0.6957  0.1696
  608TMC3    O1 9071   4.474   4.425  12.237 -0.3738  0.0008 -0.5627
  608TMC3    O2 9072   4.727   4.109  12.628  0.5462  0.3766 -0.2081
  609TMC3    C1 9073   2.508   3.587   8.674 -0.8750 -0.4863  0.4569
  609TMC3    C2 9074   2.488   3.587   8.541  0.0765  0.3302  0.4403
  609TMC3    C3 9075   2.544   3.496   8.463 -0.0651 -0.6751 -1.0583
  609TMC3    C4 9076   2.591   3.498   8.728  0.1112  0.1447  0.1512
  609TMC3    C5 9077   2.667   3.411   8.648  0.3577 -0.4460 -0.5256
  609TMC3    C6 9078   2.630   3.402   8.514 -0.4981 -0.0765  0.1369
  609TMC3     C 9079   2.410   3.642   8.768 -0.7008 -0.0449  0.4861
  609TMC3     O 9080   2.391   3.585   8.874 -0.0836 -0.0202  0.0776
  609TMC3     H 9081   2.425   3.669   8.507  0.8008  1.4912  1.9019
  609TMC3    H1 9082   2.633   3.508   8.827 -0.7316 -0.8786  0.6080
  609TMC3    H2 9083   2.687   3.338   8.448  1.7878  1.6134  0.4664
  609TMC3    C7 9084   2.772   3.332   8.712 -0.1486  0.2752  0.1401
  609TMC3    C8 9085   2.507   3.494   8.319  0.8687  0.2971  0.4699
  609TMC3    O1 9086   2.767   3.323   8.835  0.2194 -0.0431  0.4291
  609TMC3    O2 9087   2.446   3.592   8.271 -0.2636  0.1715  0.0749
  610TMC3    C1 9088   4.701   4.359  13.166  0.4605  0.8107  0.3802
  610TMC3    C2 9089   4.719   4.409  13.035  0.5441  0.1497  0.6312
  610TMC3    C3 9090   0.054   4.330  12.942 -0.8288 -0.3538 -0.4822
  610TMC3    C4 9091   0.007   4.236  13.206  0.1163 -0.5967  0.2260
  610TMC3    C5 9092   0.075   4.161  13.107  0.2482  0.6314  0.0813
  610TMC3    C6 9093   0.096   4.207  12.978  0.0331 -0.1136  0.2545
  610TMC3     C 9094   4.652   4.445  13.277  0.8972  0.1266  0.4847
  610TMC3     O 9095   4.720   4.476  13.372  0.0045 -0.5558  0.6486
  610TMC3     H 9096   4.676   4.507  13.015 -0.0432 -0.7610 -2.6291
  610TMC3    H1 9097   4.733   4.201  13.308 -1.4232 -0.7163 -0.0203
  610TMC3    H2 9098   0.146   4.146  12.903  2.2244  0.4814  1.2194
  610TMC3    C7 9099   0.130   4.030  13.145  0.5206  0.7288  0.2784
  610TMC3    C8 9100   0.065   4.390  12.810 -0.2175  0.9211 -1.2690
  610TMC3    O1 9101   0.233   3.995  13.088  0.0558 -0.0413 -0.4192
  610TMC3    O2 9102   4.739   4.492  12.791 -0.0341  0.2603 -0.1299
  611MPD2     C 9103   3.885   4.198   9.907  0.2521  0.2048  0.6567
  611MPD2    C1 9104   3.853   4.225  10.039  0.0879 -0.1150 -0.0017
  611MPD2    C2 9105   3.913   4.340  10.090  0.1489  0.0803 -0.6815
  611MPD2    C3 9106   4.002   4.423  10.021  0.3694 -0.3099  0.3722
  611MPD2    C4 9107   4.023   4.400   9.888 -0.0337  0.1846 -0.1215
  611MPD2    C5 9108   3.961   4.289   9.834 -0.0033 -0.0914  0.1592
  611MPD2     H 9109   3.889   4.365  10.193  0.1052 -2.7366 -0.0125
  611MPD2    H1 9110   4.084   4.472   9.834 -0.7040  0.6575 -0.2463
  611MPD2    H2 9111   3.836   4.118   9.851 -0.0728 -0.2898  1.6424
  611MPD2    H3 9112   3.983   4.274   9.728  1.6590  0.6396  0.3979
  611MPD2     N 9113   4.067   4.534  10.073  0.0568  0.2518 -0.3507
  611MPD2    H5 9114   4.125   4.577  10.002  0.2310  1.2950  0.4290
  611MPD2    N1 9115   3.770   4.148  10.122  0.7744 -0.1103  0.4284
  611MPD2    H7 9116   3.759   4.192  10.213 -1.3247 -1.0900  0.6397
  612TMC3    C1 9117   4.133   4.699  10.227 -0.1728  0.2615  0.4890
  612TMC3    C2 9118   4.198   4.708  10.348  0.5386  0.0783  1.1599
  612TMC3    C3 9119   4.251   0.090  10.381 -0.5752  0.2810  0.0576
  612TMC3    C4 9120   4.122   0.060  10.139  0.3139  0.0006 -0.6183
  612TMC3    C5 9121   4.181   0.174  10.181  0.8543  0.0226 -0.3401
  612TMC3    C6 9122   4.236   0.195  10.303  0.1222 -0.2174 -0.5038
  612TMC3     C 9123   4.065   4.576  10.201  0.0506 -0.2884 -0.1310
  612TMC3     O 9124   4.017   4.517  10.299 -0.5805  0.8614 -0.4746
  612TMC3     H 9125   4.201   4.622  10.415 -0.0372 -1.8466 -1.3053
  612TMC3    H1 9126   4.076   0.048  10.042  0.7188 -0.9840 -0.6819
  612TMC3    H2 9127   4.274   0.293  10.329 -2.1256  0.4003  0.4125
  612TMC3    C7 9128   4.193   0.289  10.088  0.7447 -0.3895 -0.1409
  612TMC3    C8 9129   4.343   0.104  10.492  0.4019  1.1939  0.3785
  612TMC3    O1 9130   4.117   0.306   9.990  0.4231 -0.3943  0.5221
  612TMC3    O2 9131   4.367   0.224  10.523 -0.1837 -0.0648 -0.3064
  613MPD2     C 9132   3.541   1.139  17.087 -0.0704 -0.0802 -0.9369
  613MPD2    C1 9133   3.461   1.202  16.996 -0.1971  0.1886  0.8421
  613MPD2    C2 9134   3.364   1.129  16.926 -0.0314 -1.1834 -0.0604
  613MPD2    C3 9135   3.340   0.998  16.948  0.0291  0.8258 -0.7015
  613MPD2    C4 9136   3.415   0.936  17.047  0.3022 -0.3192 -0.2753
  613MPD2    C5 9137   3.518   1.006  17.113  0.2669  0.2461 -0.4129
  613MPD2     H 9138   3.297   1.182  16.859 -0.6849  0.2840  1.7312
  613MPD2    H1 9139   3.404   0.829  17.059 -1.3255  0.1106  2.1367
  613MPD2    H2 9140   3.621   1.193  17.137  0.5402 -1.6348 -0.2346
  613MPD2    H3 9141   3.577   0.957  17.190 -1.6582  0.6608  1.3128
  613MPD2     N 9142   3.257   0.915  16.865 -0.8784  0.7236  0.0993
  613MPD2    H5 9143   3.271   0.814  16.865 -1.3614  0.6560 -0.5520
  613MPD2    N1 9144   3.491   1.338  16.967  0.0004  0.5478  0.6946
  613MPD2    H7 9145   3.580   1.375  17.000  0.0410  1.0787 -0.0391
  614TMC3    C1 9146   3.510   1.513  16.839 -0.0040  0.5555 -0.3245
  614TMC3    C2 9147   3.597   1.453  16.752  0.0456 -0.4258  0.0742
  614TMC3    C3 9148   3.610   1.501  16.626  0.3678  0.0090  0.9704
  614TMC3    C4 9149   3.444   1.626  16.797 -0.0272  0.6929  0.6987
  614TMC3    C5 9150   3.445   1.662  16.667  0.2974  1.1612  0.0412
  614TMC3    C6 9151   3.535   1.606  16.584  0.2068  0.4684 -0.0935
  614TMC3     C 9152   3.419   1.418  16.893  0.2634 -0.5670  0.4462
  614TMC3     O 9153   3.306   1.413  16.844 -0.5946  0.0845  0.0424
  614TMC3     H 9154   3.642   1.358  16.780  0.4768  0.1562  1.3101
  614TMC3    H1 9155   3.357   1.653  16.855 -2.3009 -1.6290 -1.6442
  614TMC3    H2 9156   3.528   1.621  16.476  4.2835  1.2175 -0.2516
  614TMC3    C7 9157   3.311   1.699  16.618  0.4694 -0.0626 -0.6719
  614TMC3    C8 9158   3.603   1.389  16.533 -0.4279  0.2340  0.2778
  614TMC3    O1 9159   3.243   1.782  16.675  0.0636  0.3237  0.3982
  614TMC3    O2 9160   3.500   1.392  16.467  0.2625  0.5734  0.0600
  615MPD2     C 9161   2.816   2.532  16.550  0.5475  0.1977 -0.5533
  615MPD2    C1 9162   2.756   2.662  16.543  0.6477 -0.4131  0.6213
  615MPD2    C2 9163   2.707   2.702  16.422  0.3717  0.5231  0.6032
  615MPD2    C3 9164   2.714   2.613  16.311  0.1493  0.3519 -0.2275
  615MPD2    C4 9165   2.764   2.487  16.322 -0.3291 -0.1327 -0.3782
  615MPD2    C5 9166   2.810   2.446  16.443  0.2950  0.1056  0.0749
  615MPD2     H 9167   2.645   2.791  16.418  0.8889  0.9027  1.0422
  615MPD2    H1 9168   2.775   2.418  16.239 -0.9134  0.2134 -0.7393
  615MPD2    H2 9169   2.869   2.495  16.637 -0.6367  2.1983  1.0267
  615MPD2    H3 9170   2.849   2.345  16.451  2.1527  0.6272 -2.2031
  615MPD2     N 9171   2.686   2.653  16.184 -0.6541 -0.4138  0.0171
  615MPD2    H5 9172   2.690   2.582  16.112 -2.9171  1.3424 -1.8539
  615MPD2    N1 9173   2.744   2.753  16.653  0.3172  0.0303 -0.5908
  615MPD2    H7 9174   2.715   2.847  16.629  2.6868  1.4337  2.0488
  616TMC3    C1 9175   2.802   2.867  16.830  0.0860  0.1604 -0.5716
  616TMC3    C2 9176   2.925   2.923  16.838 -0.2203  0.6419 -0.5445
  616TMC3    C3 9177   2.922   3.060  16.854 -0.2915 -0.0790  0.9511
  616TMC3    C4 9178   2.681   2.927  16.826  0.3500  0.3524  0.3700
  616TMC3    C5 9179   2.690   3.062  16.852  0.0331  0.0947 -0.6904
  616TMC3    C6 9180   2.810   3.134  16.860  0.3952 -0.0744  0.2687
  616TMC3     C 9181   2.803   2.737  16.773 -0.1506 -0.1516  0.4813
  616TMC3     O 9182   2.881   2.653  16.824 -0.8584 -0.3279 -0.6227
  616TMC3     H 9183   3.014   2.862  16.834  0.3693  1.3191  2.2293
  616TMC3    H1 9184   2.591   2.866  16.828  0.0609  0.8220  1.6461
  616TMC3    H2 9185   2.799   3.241  16.862  1.2008 -0.0387  2.4773
  616TMC3    C7 9186   2.562   3.137  16.852 -0.3518  0.5286  0.3448
  616TMC3    C8 9187   3.053   3.119  16.863  0.3874 -0.4589 -0.2399
  616TMC3    O1 9188   2.473   3.074  16.797 -0.8081 -0.8365  0.3555
  616TMC3    O2 9189   3.051   3.231  16.907 -0.0898  0.6768 -0.1403
  617MPD2     C 9190   0.751   1.249  13.554 -0.5297  0.0482  0.7210
  617MPD2    C1 9191   0.837   1.165  13.622 -0.2189 -0.0323 -0.2149
  617MPD2    C2 9192   0.786   1.058  13.690  0.0631  0.5749 -0.6470
  617MPD2    C3 9193   0.648   1.045  13.712  0.1818 -0.3083  0.6355
  617MPD2    C4 9194   0.567   1.118  13.633  0.1328 -0.2786 -0.6300
  617MPD2    C5 9195   0.614   1.213  13.551 -0.2994 -0.3349 -0.2027
  617MPD2     H 9196   0.853   1.002  13.755  0.4380 -0.5944 -2.0217
  617MPD2    H1 9197   0.462   1.090  13.626  0.3805 -0.9866 -1.4374
  617MPD2    H2 9198   0.779   1.339  13.500  0.8397  0.6867  2.4974
  617MPD2    H3 9199   0.545   1.258  13.480 -1.9110  0.6074  1.9653
  617MPD2     N 9200   0.579   0.960  13.801  0.4267  0.7173  0.1344
  617MPD2    H5 9201   0.478   0.966  13.807  0.1266 -3.1604 -1.2139
  617MPD2    N1 9202   0.980   1.188  13.612  0.1010  0.3560  0.5823
  617MPD2    H7 9203   1.003   1.263  13.548  0.5742 -0.1549  0.1529
  618TMC3    C1 9204   1.209   1.188  13.660 -0.2848  0.6501  0.1731
  618TMC3    C2 9205   1.312   1.154  13.750 -0.6901  0.1442 -0.3730
  618TMC3    C3 9206   1.440   1.152  13.713  0.1370 -0.8124  0.4677
  618TMC3    C4 9207   1.244   1.202  13.530  0.3924  0.0210  0.0481
  618TMC3    C5 9208   1.377   1.188  13.496 -0.0086 -0.5864 -0.2958
  618TMC3    C6 9209   1.481   1.172  13.585 -0.4661  0.4593  0.3680
  618TMC3     C 9210   1.079   1.143  13.697  0.0220 -0.5043  0.2656
  618TMC3     O 9211   1.062   1.102  13.810 -0.8599  0.3465  0.4178
  618TMC3     H 9212   1.289   1.157  13.856 -4.4560  1.9889 -1.2251
  618TMC3    H1 9213   1.170   1.209  13.451  1.5301 -2.5267 -1.2355
  618TMC3    H2 9214   1.586   1.168  13.556 -0.4783  1.0486  0.2426
  618TMC3    C7 9215   1.385   1.111  13.370 -0.1304 -0.5545 -0.2152
  618TMC3    C8 9216   1.532   1.077  13.806  0.9239  0.0164  0.3010
  618TMC3    O1 9217   1.286   1.103  13.294 -0.7854  0.6533  0.5221
  618TMC3    O2 9218   1.513   1.081  13.926 -0.4901  0.3972 -0.5177
  619MPD2     C 9219   2.028   1.772  13.645 -0.0936  0.2374  0.5913
  619MPD2    C1 9220   1.953   1.863  13.576 -0.3003 -0.5991  0.6945
  619MPD2    C2 9221   1.825   1.890  13.624  0.4276  0.0060 -0.4834
  619MPD2    C3 9222   1.778   1.846  13.737 -0.1185 -0.0692 -0.5204
  619MPD2    C4 9223   1.854   1.756  13.813  0.2688 -0.2134 -0.5587
  619MPD2    C5 9224   1.978   1.720  13.760 -0.0746 -0.7003 -0.0663
  619MPD2     H 9225   1.766   1.956  13.562 -2.5538 -0.3758  1.9362
  619MPD2    H1 9226   1.835   1.721  13.914  2.0311 -0.5134 -0.3234
  619MPD2    H2 9227   2.127   1.740  13.614 -0.7069 -0.1856 -0.9464
  619MPD2    H3 9228   2.045   1.662  13.823 -2.9902 -1.6934  2.1420
  619MPD2     N 9229   1.656   1.885  13.792  0.0085 -0.2202  0.0231
  619MPD2    H5 9230   1.620   1.831  13.870 -0.8767  0.8648  0.3820
  619MPD2    N1 9231   1.996   1.925  13.455 -0.1062  0.0806 -0.6298
  619MPD2    H7 9232   1.938   1.994  13.410 -0.6722  0.4147  0.6220
  620TMC3    C1 9233   2.158   2.021  13.316 -0.4763 -0.0557  0.1123
  620TMC3    C2 9234   2.060   2.057  13.228  0.0238 -0.1305 -0.3347
  620TMC3    C3 9235   2.082   2.168  13.150 -0.1555  0.2515  0.1311
  620TMC3    C4 9236   2.270   2.096  13.328 -0.1097 -0.0980  0.4690
  620TMC3    C5 9237   2.293   2.208  13.252  0.6035 -0.5854  0.2532
  620TMC3    C6 9238   2.195   2.244  13.159  0.7364  0.4601  0.1252
  620TMC3     C 9239   2.126   1.915  13.408 -0.2296 -0.0501 -0.0957
  620TMC3     O 9240   2.217   1.846  13.457  0.7500 -0.5413 -0.3172
  620TMC3     H 9241   1.975   1.991  13.215 -0.8746  0.7182  1.1698
  620TMC3    H1 9242   2.341   2.073  13.407  0.7021  0.7464 -0.0113
  620TMC3    H2 9243   2.188   2.340  13.109  1.9801  0.0148 -0.8865
  620TMC3    C7 9244   2.373   2.310  13.307  0.3271  0.4612  0.3882
  620TMC3    C8 9245   1.978   2.201  13.053 -0.0749 -0.6858 -0.2903
  620TMC3    O1 9246   2.355   2.415  13.242  0.3422  0.2602 -0.1615
  620TMC3    O2 9247   1.926   2.105  12.995  0.3994 -0.1335 -0.1964
  621MPD2     C 9248   2.136   2.502   9.801  0.1810 -0.1121  0.0603
  621MPD2    C1 9249   2.013   2.521   9.732  0.7467  1.2066  0.0433
  621MPD2    C2 9250   2.013   2.605   9.619  0.9462  0.2796 -0.0663
  621MPD2    C3 9251   2.129   2.679   9.587 -0.6295  0.3929 -0.7868
  621MPD2    C4 9252   2.244   2.656   9.667  0.4304  0.4200 -0.0659
  621MPD2    C5 9253   2.249   2.574   9.774  0.2406  0.3717 -0.2600
  621MPD2     H 9254   1.923   2.628   9.563  0.3969 -3.5201 -0.7462
  621MPD2    H1 9255   2.336   2.706   9.639  1.7187 -1.4859  0.7696
  621MPD2    H2 9256   2.154   2.438   9.887 -3.2576 -0.7186  0.3231
  621MPD2    H3 9257   2.336   2.576   9.839 -1.4215  1.1037  1.9512
  621MPD2     N 9258   2.137   2.763   9.473  0.0613  0.0764 -0.1240
  621MPD2    H5 9259   2.217   2.825   9.467 -0.4130  0.6637 -0.3647
  621MPD2    N1 9260   1.891   2.464   9.780 -0.0184 -0.8485 -0.3139
  621MPD2    H7 9261   1.807   2.472   9.723  0.2595 -1.1520 -0.7672
  622TMC3    C1 9262   1.761   2.320   9.905  0.3181 -0.3124 -0.3108
  622TMC3    C2 9263   1.694   2.341  10.023 -0.5095 -0.7246 -0.3175
  622TMC3    C3 9264   1.573   2.269  10.032  0.9522  0.1162  0.0936
  622TMC3    C4 9265   1.721   2.245   9.798 -0.1302 -0.4591  0.3269
  622TMC3    C5 9266   1.607   2.174   9.821  0.0052  1.1079 -0.1299
  622TMC3    C6 9267   1.537   2.177   9.941  0.4335  0.8092  0.4847
  622TMC3     C 9268   1.885   2.391   9.895  0.0540 -0.1081 -0.1955
  622TMC3     O 9269   1.960   2.382   9.991 -0.1088 -0.0661 -0.0144
  622TMC3     H 9270   1.728   2.424  10.084  0.8466 -1.3717 -0.1813
  622TMC3    H1 9271   1.793   2.227   9.720 -1.0702 -1.2988 -0.3402
  622TMC3    H2 9272   1.439   2.132   9.949  1.7211 -1.8134  1.5506
  622TMC3    C7 9273   1.518   2.133   9.715  0.3490 -0.1760 -0.6248
  622TMC3    C8 9274   1.466   2.315  10.123  0.3341  0.1214 -0.7861
  622TMC3    O1 9275   1.430   2.055   9.745  0.1416  0.0026  0.0299
  622TMC3    O2 9276   1.369   2.242  10.139 -0.4859 -0.4172 -0.1464
  623MPD2     C 9277   1.465   3.017  15.557 -0.3473 -0.1782  0.0540
  623MPD2    C1 9278   1.407   2.952  15.661  0.5244 -0.5145  0.0418
  623MPD2    C2 9279   1.447   2.970  15.789  0.2158  0.3636  0.5400
  623MPD2    C3 9280   1.554   3.060  15.817 -0.5033 -0.1749  0.2181
  623MPD2    C4 9281   1.613   3.123  15.709  0.0497  1.0717 -0.4864
  623MPD2    C5 9282   1.566   3.106  15.581  0.5124 -0.3294  0.7998
  623MPD2     H 9283   1.394   2.930  15.875  1.4911  1.4430  1.8156
  623MPD2    H1 9284   1.694   3.191  15.734 -0.1639  0.8404  0.8502
  623MPD2    H2 9285   1.441   3.005  15.452 -2.1318  0.7340  0.3618
  623MPD2    H3 9286   1.615   3.159  15.500  2.1795 -0.8652  1.4611
  623MPD2     N 9287   1.601   3.064  15.952  0.1650  0.1088 -0.3233
  623MPD2    H5 9288   1.541   3.006  16.010 -0.3910  0.0541 -0.9540
  623MPD2    N1 9289   1.304   2.858  15.657 -0.2013 -0.2351 -0.0953
  623MPD2    H7 9290   1.284   2.813  15.745  0.4892 -1.5479 -0.6088
  624TMC3    C1 9291   1.857   2.965  16.318  0.4189 -0.1692  0.0164
  624TMC3    C2 9292   1.739   2.914  16.373  0.2642 -0.8980 -0.5137
  624TMC3    C3 9293   1.622   2.945  16.311  0.3197 -0.3077 -0.0902
  624TMC3    C4 9294   1.850   3.044  16.202 -0.1451 -0.8550 -0.0453
  624TMC3    C5 9295   1.733   3.060  16.146  0.3604 -0.1846  0.0252
  624TMC3    C6 9296   1.618   3.018  16.202  0.2744  0.7627 -0.1455
  624TMC3     C 9297   1.972   2.886  16.346  0.2905 -0.5943  0.1609
  624TMC3     O 9298   2.056   2.931  16.419  0.2683 -0.6557  0.2462
  624TMC3     H 9299   1.754   2.844  16.455  3.1614  0.9584  0.5322
  624TMC3    H1 9300   1.938   3.091  16.159  0.6109 -0.3776  2.0247
  624TMC3    H2 9301   1.521   3.049  16.165 -0.8945  0.1259  2.4207
  624TMC3    C7 9302   1.722   3.101  16.005  0.6098 -0.2915 -0.2932
  624TMC3    C8 9303   1.510   2.862  16.342 -0.7700  1.0582  0.2896
  624TMC3    O1 9304   1.814   3.162  15.951  0.1874 -0.0454  0.3482
  624TMC3    O2 9305   1.429   2.838  16.253 -0.2024 -0.2110  0.4098
  625MPD2     C 9306   1.751   3.439   0.598 -0.2957 -0.0756 -0.4603
  625MPD2    C1 9307   1.778   3.568   0.644 -0.4301 -0.2224  0.5874
  625MPD2    C2 9308   1.901   3.605   0.682 -0.6870 -0.0291 -0.4479
  625MPD2    C3 9309   2.005   3.510   0.684 -0.2118 -0.1406  0.2168
  625MPD2    C4 9310   1.980   3.377   0.624  0.4861  0.5079 -1.2589
  625MPD2    C5 9311   1.849   3.349   0.572 -0.8768  0.2510 -0.6027
  625MPD2     H 9312   1.918   3.706   0.717  1.0900 -0.5869  0.2470
  625MPD2    H1 9313   2.064   3.310   0.608  1.4472  1.2126  0.9370
  625MPD2    H2 9314   1.653   3.398   0.577  0.4174 -1.4021 -1.1666
  625MPD2    H3 9315   1.820   3.261   0.517 -0.5521  0.8023 -1.6671
  625MPD2     N 9316   2.135   3.559   0.717 -0.1564  0.3745 -0.2496
  625MPD2    H5 9317   2.149   3.658   0.733  1.5358  0.0179  0.4547
  625MPD2    N1 9318   1.680   3.670   0.647 -0.3370 -0.2028 -0.4967
  625MPD2    H7 9319   1.708   3.766   0.665 -1.3739 -0.4092  2.2643
  626TMC3    C1 9320   1.479   3.778   0.605  0.1497 -0.1542 -0.2339
  626TMC3    C2 9321   1.424   3.808   0.486  0.6821  0.6666 -0.6773
  626TMC3    C3 9322   1.399   3.943   0.463 -0.1154 -0.1328 -0.3340
  626TMC3    C4 9323   1.527   3.881   0.685 -0.2109  0.0369 -0.0197
  626TMC3    C5 9324   1.494   4.008   0.664 -0.3755 -0.1288 -0.0136
  626TMC3    C6 9325   1.432   4.042   0.548  0.7903  0.0566  0.4199
  626TMC3     C 9326   1.549   3.653   0.598 -0.2921 -0.6730  0.4885
  626TMC3     O 9327   1.498   3.556   0.547 -0.3180  0.2417  0.8437
  626TMC3     H 9328   1.384   3.739   0.412 -0.6664 -0.9217  1.5436
  626TMC3    H1 9329   1.563   3.851   0.783 -0.1845 -1.0962 -0.3717
  626TMC3    H2 9330   1.415   4.146   0.521  0.0937 -0.4086 -0.8909
  626TMC3    C7 9331   1.445   4.075   0.787 -0.6744 -1.1429  0.4341
  626TMC3    C8 9332   1.367   3.987   0.324  0.9387 -0.1645  0.4335
  626TMC3    O1 9333   1.465   4.015   0.891  0.6292 -0.1984  0.2889
  626TMC3    O2 9334   1.439   4.065   0.266  0.3068  0.6859 -0.7543
  627MPD2     C 9335   0.343   4.494  14.254  0.0358  0.4324 -0.5858
  627MPD2    C1 9336   0.368   4.433  14.378 -0.1111  0.6674  0.3726
  627MPD2    C2 9337   0.361   4.292  14.382  0.0309  0.0814  0.1220
  627MPD2    C3 9338   0.312   4.216  14.274  0.5637  0.4843 -0.4864
  627MPD2    C4 9339   0.273   4.282  14.159  0.1077  0.5339  0.0914
  627MPD2    C5 9340   0.296   4.421  14.150 -0.0571  0.6604  0.5463
  627MPD2     H 9341   0.374   4.229  14.469  0.0238  0.5525  0.4574
  627MPD2    H1 9342   0.227   4.233  14.073 -1.2107 -0.4193  1.3277
  627MPD2    H2 9343   0.368   4.598  14.240  1.6812  0.2047  0.6211
  627MPD2    H3 9344   0.284   4.471  14.054  2.4683 -1.1317 -0.7158
  627MPD2     N 9345   0.300   4.077  14.300 -0.2058 -0.4594  0.0923
  627MPD2    H5 9346   0.319   4.044  14.393 -4.0201 -1.0086  0.6857
  627MPD2    N1 9347   0.445   4.504  14.469 -0.0239 -0.0624  0.2127
  627MPD2    H7 9348   0.455   4.605  14.464  0.2899 -0.2306 -2.6390
  628TMC3    C1 9349   0.598   4.518  14.656  0.0770 -0.4757  0.0051
  628TMC3    C2 9350   0.717   4.448  14.684  1.0116 -0.1285  0.0117
  628TMC3    C3 9351   0.835   4.520  14.680  0.1240  0.5658 -0.1659
  628TMC3    C4 9352   0.597   4.654  14.639  0.1733 -0.2841  0.4094
  628TMC3    C5 9353   0.718   4.717  14.639  0.5893  0.3400  0.2825
  628TMC3    C6 9354   0.838   4.646  14.647 -0.4628 -0.0345  0.7577
  628TMC3     C 9355   0.492   4.447  14.587  0.2285 -0.2757 -0.1107
  628TMC3     O 9356   0.468   4.338  14.637  0.3354  0.6349 -0.6898
  628TMC3     H 9357   0.714   4.340  14.672  1.0586 -0.0785 -0.4447
  628TMC3    H1 9358   0.506   4.712  14.628  0.3913 -0.3932 -1.9142
  628TMC3    H2 9359   0.934   4.696  14.655  0.5816 -1.5193 -2.1918
  628TMC3    C7 9360   0.724   0.120  14.651 -0.6681 -0.1865  0.3898
  628TMC3    C8 9361   0.960   4.451  14.657 -0.9634 -0.0302  0.0320
  628TMC3    O1 9362   0.809   0.159  14.731 -0.3949  0.0045 -0.2668
  628TMC3    O2 9363   1.028   4.487  14.560  0.7434 -0.0420  0.1635
  629MPD2     C 9364   3.535   3.175  16.700 -0.4192 -0.6641 -0.1053
  629MPD2    C1 9365   3.499   3.051  16.667  0.2609  0.4235  0.3858
  629MPD2    C2 9366   3.376   3.009  16.714 -0.7633 -0.0227 -0.0469
  629MPD2    C3 9367   3.288   3.088  16.782 -0.1285 -0.0146 -0.1288
  629MPD2    C4 9368   3.328   3.214  16.805  0.3135  0.3122 -0.5939
  629MPD2    C5 9369   3.447   3.265  16.761  1.0193 -0.2061  0.6700
  629MPD2     H 9370   3.343   2.909  16.685 -0.8054  0.1244 -0.5041
  629MPD2    H1 9371   3.265   3.280  16.864  1.0996 -0.0154  0.5985
  629MPD2    H2 9372   3.627   3.224  16.671  1.0192 -1.3694  3.2899
  629MPD2    H3 9373   3.487   3.360  16.794  1.8350  0.3404 -1.9128
  629MPD2     N 9374   3.153   3.046  16.796 -0.4524 -0.1668  0.4902
  629MPD2    H5 9375   3.131   2.953  16.760  2.9508 -0.8309  0.1051
  629MPD2    N1 9376   3.580   2.967  16.579 -0.3917  0.3924 -0.1867
  629MPD2    H7 9377   3.678   2.990  16.566 -0.3234 -0.2460 -0.8002
  630TMC3    C1 9378   3.666   2.786  16.460 -0.2213  0.2931 -0.8035
  630TMC3    C2 9379   3.744   2.880  16.394 -0.1467  0.4284  0.1703
  630TMC3    C3 9380   3.871   2.844  16.360 -0.8924 -0.2005 -0.0647
  630TMC3    C4 9381   3.715   2.661  16.492  0.2075  0.4394 -0.5331
  630TMC3    C5 9382   3.850   2.635  16.475 -0.3140  1.0742  0.0015
  630TMC3    C6 9383   3.930   2.732  16.412  0.3065 -0.0479 -0.3685
  630TMC3     C 9384   3.558   2.837  16.531  0.0428 -0.0041  0.4914
  630TMC3     O 9385   3.467   2.759  16.561 -0.3711 -0.2534 -0.0235
  630TMC3     H 9386   3.704   2.976  16.362 -0.8586  0.5107  1.3091
  630TMC3    H1 9387   3.661   2.591  16.556  0.7595  1.6108  1.2219
  630TMC3    H2 9388   4.035   2.712  16.396  0.3782  0.1731 -0.1637
  630TMC3    C7 9389   3.910   2.548  16.575 -0.0891  0.0932  0.4230
  630TMC3    C8 9390   3.966   2.949  16.307 -0.5178  0.6268  0.1755
  630TMC3    O1 9391   3.841   2.499  16.667 -0.1818 -0.0524  0.2957
  630TMC3    O2 9392   4.085   2.931  16.335  0.1842  0.1148  0.5438
  631MPD2     C 9393   2.021   2.642  15.424  0.6156 -0.0097 -0.1557
  631MPD2    C1 9394   2.112   2.741  15.389 -0.7434 -0.1161  0.3420
  631MPD2    C2 9395   2.222   2.770  15.466 -0.3106 -0.4442 -0.5846
  631MPD2    C3 9396   2.253   2.690  15.572 -0.0153  0.3118  0.1663
  631MPD2    C4 9397   2.160   2.593  15.610  0.1095  0.2539 -0.8535
  631MPD2    C5 9398   2.044   2.572  15.538 -0.5133  0.0995 -0.3422
  631MPD2     H 9399   2.289   2.852  15.443  1.3278 -1.5618  0.2385
  631MPD2    H1 9400   2.174   2.523  15.692 -0.7511  2.4314  1.1330
  631MPD2    H2 9401   1.926   2.622  15.376  0.3739 -0.9239  0.6937
  631MPD2    H3 9402   1.989   2.480  15.560 -0.7671  0.1580 -0.7355
  631MPD2     N 9403   2.377   2.716  15.636 -0.0094 -0.2143  0.2691
  631MPD2    H5 9404   2.449   2.772  15.591 -0.8877  0.4592 -0.2879
  631MPD2    N1 9405   2.079   2.822  15.277  0.1839  0.0571 -0.1329
  631MPD2    H7 9406   1.984   2.811  15.244 -0.5961 -0.4880  2.3583
  632TMC3    C1 9407   2.107   3.022  15.137 -0.0495  0.2604  0.0774
  632TMC3    C2 9408   1.991   3.068  15.195 -0.2232  0.2509  0.4989
  632TMC3    C3 9409   1.969   3.201  15.185 -0.0746 -0.1339 -0.3244
  632TMC3    C4 9410   2.196   3.097  15.067  0.1728  0.2419  0.0995
  632TMC3    C5 9411   2.173   3.230  15.070  0.0842 -0.2926 -0.1829
  632TMC3    C6 9412   2.053   3.282  15.122  0.3454  0.5895 -0.3078
  632TMC3     C 9413   2.169   2.911  15.217 -0.0906  0.1523 -0.4483
  632TMC3     O 9414   2.292   2.918  15.218 -0.3022 -0.5376 -0.1311
  632TMC3     H 9415   1.931   3.013  15.266 -0.9050  0.2646 -0.0621
  632TMC3    H1 9416   2.278   3.042  15.023  1.8247  1.7004  1.3397
  632TMC3    H2 9417   2.026   3.387  15.126  2.4760  1.2365 -2.9498
  632TMC3    C7 9418   2.218   3.300  14.951  0.0875  0.7389 -0.1049
  632TMC3    C8 9419   1.851   3.253  15.249  0.1993  0.1941  0.4026
  632TMC3    O1 9420   2.135   3.374  14.898 -0.6030 -0.4972 -0.0949
  632TMC3    O2 9421   1.762   3.169  15.265  0.0516 -0.0566  0.1369
  633MPD2     C 9422   1.449   0.574  17.186  0.1833  0.0962  0.3156
  633MPD2    C1 9423   1.449   0.518  17.064 -0.3660  0.3686  0.3814
  633MPD2    C2 9424   1.446   0.380  17.046  0.3409  0.1003 -0.7602
  633MPD2    C3 9425   1.451   0.302  17.163 -0.1853  0.0090 -0.3972
  633MPD2    C4 9426   1.431   0.357  17.288  0.1454 -0.1272 -0.0288
  633MPD2    C5 9427   1.442   0.492  17.295  0.2065  0.1732 -0.3600
  633MPD2     H 9428   1.437   0.341  16.946 -1.2326  2.0190 -1.3793
  633MPD2    H1 9429   1.437   0.293  17.375  2.1028  0.2161  0.1066
  633MPD2    H2 9430   1.464   0.678  17.213  1.7105 -0.1423  0.3526
  633MPD2    H3 9431   1.432   0.542  17.391 -0.6341  0.6195 -0.6821
  633MPD2     N 9432   1.457   0.160  17.163 -0.0153  0.3507 -0.1852
  633MPD2    H5 9433   1.465   0.107  17.249  2.2365  0.8253 -0.1081
  633MPD2    N1 9434   1.460   0.599  16.946 -0.0089  0.7754  0.0196
  633MPD2    H7 9435   1.467   0.550  16.857  0.3573 -1.2880  1.1985
  634TMC3    C1 9436   1.511   0.788  16.800 -0.6838 -0.5681 -0.5235
  634TMC3    C2 9437   1.588   0.709  16.718  0.4673 -0.9313 -0.6602
  634TMC3    C3 9438   1.664   0.758  16.608 -0.2361  0.0106  0.0815
  634TMC3    C4 9439   1.521   0.926  16.783 -0.4606  0.4286  0.1296
  634TMC3    C5 9440   1.589   0.969  16.672 -0.0238 -0.0774 -0.2366
  634TMC3    C6 9441   1.661   0.891  16.586 -0.0182 -0.3639 -0.0370
  634TMC3     C 9442   1.481   0.737  16.933  0.3980 -0.7107  0.4746
  634TMC3     O 9443   1.487   0.820  17.021  0.8099  0.6285  0.3587
  634TMC3     H 9444   1.591   0.601  16.732 -0.6187 -0.9256 -0.3834
  634TMC3    H1 9445   1.449   0.981  16.842  1.2924 -0.2408  2.9218
  634TMC3    H2 9446   1.716   0.931  16.501 -0.8060  1.2239  0.1933
  634TMC3    C7 9447   1.580   1.108  16.630  0.7876  0.0282 -0.0951
  634TMC3    C8 9448   1.760   0.665  16.553  0.0045 -0.1960 -0.5420
  634TMC3    O1 9449   1.632   1.137  16.522 -0.0772 -0.7159  0.1266
  634TMC3    O2 9450   1.724   0.546  16.546  0.5149  1.1628 -0.2435
  635TMC3    C1 9451   2.203   1.827  17.495 -0.2159  0.1516 -0.1725
  635TMC3    C2 9452   2.167   1.859  17.362 -0.1063 -0.4170 -0.2991
  635TMC3    C3 9453   2.156   1.755  17.269  0.2770 -0.1659  0.5257
  635TMC3    C4 9454   2.205   1.692  17.524 -0.0732 -0.5532  0.1741
  635TMC3    C5 9455   2.168   1.596  17.434 -0.2990  0.5912  0.2891
  635TMC3    C6 9456   2.150   1.625  17.301  0.6161  0.4555  0.7856
  635TMC3     C 9457   2.235   1.923  17.594  0.0490  0.7901 -0.5389
  635TMC3     O 9458   2.285   1.891  17.698  0.2396  0.7376 -0.4426
  635TMC3     H 9459   2.177   1.959  17.321  2.8900 -0.6693 -0.1289
  635TMC3    H1 9460   2.249   1.653  17.615 -0.8036  0.3650  0.9193
  635TMC3    H2 9461   2.124   1.543  17.235  0.3141  1.1746  0.0160
  635TMC3    C7 9462   2.175   1.458  17.480 -0.1669  0.6163  0.2944
  635TMC3    C8 9463   2.180   1.790  17.133  0.0050 -0.1872  0.5728
  635TMC3    O1 9464   2.180   1.364  17.397 -0.0060  0.2614  0.0684
  635TMC3    O2 9465   2.159   1.901  17.089  0.1384 -0.2884 -0.4430
  636MPD2     C 9466   2.731   1.365  16.168  0.4057 -0.1792 -0.2450
  636MPD2    C1 9467   2.765   1.375  16.300 -0.3407 -0.1910 -0.0015
  636MPD2    C2 9468   2.832   1.273  16.356 -0.7940 -0.4849 -0.1951
  636MPD2    C3 9469   2.877   1.165  16.284 -0.2934  0.2267 -0.4589
  636MPD2    C4 9470   2.852   1.157  16.148  0.1982  0.0156  0.2676
  636MPD2    C5 9471   2.779   1.258  16.093 -0.6432 -0.6823 -0.2771
  636MPD2     H 9472   2.872   1.286  16.457  1.0560  1.4734 -1.1622
  636MPD2    H1 9473   2.885   1.077  16.083 -0.0069 -0.3250  0.5798
  636MPD2    H2 9474   2.666   1.432  16.112  0.0480  0.5573  1.0616
  636MPD2    H3 9475   2.749   1.253  15.989 -0.5275 -2.7458 -0.2056
  636MPD2     N 9476   2.955   1.074  16.359  0.2337  0.3545  0.3972
  636MPD2    H5 9477   2.952   1.092  16.459 -0.0574  3.4402 -0.1739
  636MPD2    N1 9478   2.756   1.490  16.383 -0.8315 -0.1208 -0.1096
  636MPD2    H7 9479   2.795   1.472  16.475 -1.2158 -1.2412 -0.1588
  637TMC3    C1 9480   3.088   0.894  16.433 -0.2221 -0.9575 -0.5256
  637TMC3    C2 9481   3.073   0.933  16.559  0.7908 -0.2711 -0.5679
  637TMC3    C3 9482   3.154   0.873  16.654 -0.0075 -0.5777  0.3199
  637TMC3    C4 9483   3.194   0.819  16.389 -0.3119  0.0185 -0.1988
  637TMC3    C5 9484   3.277   0.762  16.480 -0.2908 -0.6568  0.5367
  637TMC3    C6 9485   3.247   0.777  16.613  0.7447  0.0018  0.1686
  637TMC3     C 9486   3.017   0.958  16.320 -0.1890 -0.8203  0.5989
  637TMC3     O 9487   3.021   0.915  16.207 -0.3624  0.0245  0.2023
  637TMC3     H 9488   3.009   1.018  16.580  0.1691 -1.3133  1.7950
  637TMC3    H1 9489   3.190   0.797  16.283 -2.0143  2.4894 -0.6483
  637TMC3    H2 9490   3.328   0.760  16.683  2.1664 -0.3702 -1.5684
  637TMC3    C7 9491   3.419   0.765  16.449 -0.0325 -0.8500  0.9008
  637TMC3    C8 9492   3.184   0.962  16.760  0.3163  0.2744  0.2342
  637TMC3    O1 9493   3.491   0.671  16.484 -0.1682 -0.1834 -0.0487
  637TMC3    O2 9494   3.147   1.076  16.739 -0.3777  0.3934 -0.1951
  638MPD2     C 9495   3.189   0.296  14.599 -0.0488  0.1240  0.1071
  638MPD2    C1 9496   3.158   0.189  14.518  0.2950  0.4597 -0.3415
  638MPD2    C2 9497   3.076   0.085  14.570 -0.2861  0.9745 -0.3503
  638MPD2    C3 9498   3.023   0.089  14.698  0.2776  0.6496  1.0143
  638MPD2    C4 9499   3.056   0.199  14.773 -0.0322 -0.1208  0.0720
  638MPD2    C5 9500   3.134   0.302  14.723 -0.4321  0.2976 -0.3298
  638MPD2     H 9501   3.044   0.008  14.502  0.1260 -1.1998  1.9128
  638MPD2    H1 9502   3.016   0.210  14.873  1.1788 -0.1496  0.5489
  638MPD2    H2 9503   3.257   0.374  14.566  0.6960 -0.3584  0.4810
  638MPD2    H3 9504   3.147   0.389  14.786  0.0563  0.4111 -0.5925
  638MPD2     N 9505   2.932   4.735  14.742 -0.4832  0.2383 -0.1511
  638MPD2    H5 9506   2.916   4.656  14.680 -1.1459  0.1633  0.1153
  638MPD2    N1 9507   3.233   0.170  14.395  0.3818  0.3448 -0.5130
  638MPD2    H7 9508   3.288   0.247  14.361 -0.9109  1.0913 -0.9187
  639TMC3    C1 9509   2.804   4.580  14.865 -0.4251  0.0573  0.1190
  639TMC3    C2 9510   2.752   4.529  14.747 -0.3439  0.2475  0.4350
  639TMC3    C3 9511   2.697   4.402  14.757  0.2874  0.0126 -0.6381
  639TMC3    C4 9512   2.812   4.506  14.982  0.0054 -0.4501  0.9964
  639TMC3    C5 9513   2.766   4.376  14.984  0.5879  0.6963  0.0719
  639TMC3    C6 9514   2.703   4.328  14.874 -0.7329 -0.3781  0.1846
  639TMC3     C 9515   2.880   4.710  14.867 -0.5224  0.9170 -0.0549
  639TMC3     O 9516   2.878   0.042  14.969 -0.0359 -1.0288  0.3776
  639TMC3     H 9517   2.733   4.589  14.659  1.5894 -0.4930 -0.4970
  639TMC3    H1 9518   2.856   4.548  15.072  0.2832  0.7928  0.2866
  639TMC3    H2 9519   2.672   4.224  14.880  1.5311 -1.1184 -1.0819
  639TMC3    C7 9520   2.857   4.271  15.024 -0.1031 -0.1393  0.7565
  639TMC3    C8 9521   2.617   4.346  14.654 -0.3896  0.1794  0.1617
  639TMC3    O1 9522   2.806   4.165  15.047 -0.5237  0.1491 -0.0371
  639TMC3    O2 9523   2.634   4.388  14.541 -0.1173 -0.4170 -0.3777
  640MPD2     C 9524   2.679   3.876   9.957  0.1964 -0.6412  0.5524
  640MPD2    C1 9525   2.687   3.963   9.853  0.3725  0.4702  0.3964
  640MPD2    C2 9526   2.605   4.072   9.840 -0.7201 -0.2118  0.3552
  640MPD2    C3 9527   2.500   4.097   9.933 -0.1056  0.2635 -0.2382
  640MPD2    C4 9528   2.483   3.998  10.033  0.6701  0.2561 -0.1492
  640MPD2    C5 9529   2.575   3.892  10.050  0.2855  0.0548  0.9623
  640MPD2     H 9530   2.616   4.151   9.767 -1.3050  0.9021  1.4687
  640MPD2    H1 9531   2.400   3.992  10.102  0.4121 -1.0327 -0.5704
  640MPD2    H2 9532   2.744   3.792   9.978 -0.2259 -0.4821  2.4933
  640MPD2    H3 9533   2.562   3.818  10.128  3.0977  0.2840  1.6486
  640MPD2     N 9534   2.401   4.197   9.920  0.6642 -0.2671 -0.2187
  640MPD2    H5 9535   2.319   4.188   9.979  0.1396  0.4635 -0.8284
  640MPD2    N1 9536   2.791   3.933   9.760  0.4553  0.3861 -0.3344
  640MPD2    H7 9537   2.849   3.856   9.791 -1.4919 -1.2426 -0.7649
  641TMC3    C1 9538   2.967   3.979   9.604  0.0724 -0.6482  0.3403
  641TMC3    C2 9539   2.987   3.844   9.589  0.3016  0.0074 -0.4355
  641TMC3    C3 9540   3.090   3.799   9.513 -0.3923  0.1028 -0.4849
  641TMC3    C4 9541   3.064   4.067   9.556 -0.4246  0.1076  0.2481
  641TMC3    C5 9542   3.171   4.018   9.494  0.2010  0.3322 -0.5393
  641TMC3    C6 9543   3.191   3.881   9.467 -0.8505  0.5389 -0.0449
  641TMC3     C 9544   2.850   4.029   9.680 -0.0661  1.3323 -0.4951
  641TMC3     O 9545   2.818   4.145   9.678 -0.5789 -0.6105 -0.1705
  641TMC3     H 9546   2.908   3.777   9.618 -0.7223  1.9205  1.1588
  641TMC3    H1 9547   3.058   4.172   9.584 -1.9241 -0.0641  0.6128
  641TMC3    H2 9548   3.278   3.844   9.414 -0.6154  1.1552 -0.0873
  641TMC3    C7 9549   3.261   4.109   9.426 -0.0714  1.1254  0.4839
  641TMC3    C8 9550   3.103   3.657   9.493 -0.6395  0.2511  0.3069
  641TMC3    O1 9551   3.372   4.058   9.404  0.1943 -0.0075  0.1692
  641TMC3    O2 9552   3.184   3.619   9.405 -0.4598  0.6376 -0.2542
  642TMC3    C1 9553   3.634   4.672  12.656 -0.3683 -0.5426 -0.2287
  642TMC3    C2 9554   3.769   4.661  12.677  0.3903 -0.0058  0.6545
  642TMC3    C3 9555   3.829   4.541  12.650 -0.1466 -0.6111  0.0224
  642TMC3    C4 9556   3.566   4.563  12.608  0.9502  0.2404 -0.1653
  642TMC3    C5 9557   3.628   4.449  12.575 -0.7069 -0.5781  0.3545
  642TMC3    C6 9558   3.764   4.437  12.590  0.5500 -0.0366 -0.9514
  642TMC3     C 9559   3.585   0.072  12.643 -0.2944 -0.6915  0.2495
  642TMC3     O 9560   3.668   0.153  12.664  0.0191  0.0897 -0.1236
  642TMC3     H 9561   3.826   0.012  12.693  1.8118 -1.0493  1.5330
  642TMC3    H1 9562   3.459   4.562  12.588  1.0580  0.6215 -0.7608
  642TMC3    H2 9563   3.818   4.345  12.571 -0.5196 -0.6402 -1.0931
  642TMC3    C7 9564   3.565   4.322  12.552  0.6859 -0.1350 -0.0742
  642TMC3    C8 9565   3.973   4.533  12.654 -0.0810 -0.0700 -0.4227
  642TMC3    O1 9566   3.621   4.232  12.496  0.0179  0.1283 -0.0203
  642TMC3    O2 9567   4.019   4.437  12.590  0.1654  0.1419 -0.0238
  643TMC3    C1 9568   3.698   3.596   0.017 -0.3279  0.4754  0.2965
  643TMC3    C2 9569   3.567   3.610  17.736 -0.0709  0.0531  0.2300
  643TMC3    C3 9570   3.520   3.532  17.634 -0.2118 -0.1732 -0.4875
  643TMC3    C4 9571   3.792   3.514  17.705  0.0221 -0.2018 -0.4052
  643TMC3    C5 9572   3.740   3.434  17.611 -0.7646  1.0806  0.2420
  643TMC3    C6 9573   3.608   3.436  17.586  0.0785 -0.5895 -0.1499
  643TMC3     C 9574   3.752   3.704   0.097 -0.1216  0.3895  0.0122
  643TMC3     O 9575   3.698   3.816   0.099  0.5638 -0.4349 -0.4463
  643TMC3     H 9576   3.504   3.684   0.030  1.1567  0.8663  0.5576
  643TMC3    H1 9577   3.897   3.524  17.730  0.8884 -2.7574 -2.9706
  643TMC3    H2 9578   3.567   3.387  17.499 -0.7437  0.4599 -0.3585
  643TMC3    C7 9579   3.821   3.438  17.487  0.2770  0.9469  0.1028
  643TMC3    C8 9580   3.467   3.602  17.523 -0.6069 -0.5794 -0.2958
  643TMC3    O1 9581   3.909   3.518  17.473  0.3388  0.7425 -0.3293
  643TMC3    O2 9582   3.423   3.547  17.420  0.1437  0.0007  0.1890
  644MPD2     C 9583   3.088   4.613   9.539  0.3866  0.0306  0.2216
  644MPD2    C1 9584   3.077   4.499   9.612 -0.4581  1.3435 -0.5094
  644MPD2    C2 9585   2.948   4.440   9.609  0.5411 -0.0940  0.4975
  644MPD2    C3 9586   2.839   4.493   9.541  0.0159 -0.1182  0.2996
  644MPD2    C4 9587   2.863   4.616   9.481 -0.1157 -0.0037  0.0539
  644MPD2    C5 9588   2.982   4.675   9.485 -0.2530 -0.3389  0.3435
  644MPD2     H 9589   2.930   4.346   9.659 -2.7531  0.6855  0.8312
  644MPD2    H1 9590   2.783   4.671   9.432  0.0766 -0.5843 -0.9250
  644MPD2    H2 9591   3.183   4.663   9.552  1.3510 -1.5395 -0.7735
  644MPD2    H3 9592   3.003   0.034   9.445  2.2163 -1.0843 -0.2022
  644MPD2     N 9593   2.727   4.409   9.522 -0.1952  0.8611 -0.1110
  644MPD2    H5 9594   2.746   4.318   9.563 -2.0738 -0.0512 -1.2273
  644MPD2    N1 9595   3.187   4.437   9.674  0.3421 -0.6008 -0.5942
  644MPD2    H7 9596   3.280   4.461   9.641  0.4699 -0.4064 -0.0913
  645TMC3    C1 9597   2.537   4.310   9.440 -0.3288 -0.0562 -0.1370
  645TMC3    C2 9598   2.404   4.329   9.415 -0.5666  0.3018 -0.2862
  645TMC3    C3 9599   2.326   4.223   9.446 -0.1897  0.1401 -0.8778
  645TMC3    C4 9600   2.587   4.187   9.482  0.1824  0.2192 -0.6967
  645TMC3    C5 9601   2.506   4.085   9.509 -0.5451 -0.4743 -1.4018
  645TMC3    C6 9602   2.370   4.105   9.492  0.3628 -0.0045 -0.1314
  645TMC3     C 9603   2.619   4.427   9.441  0.3228 -0.4568 -0.1502
  645TMC3     O 9604   2.573   4.529   9.386 -0.6824 -0.5932 -0.5764
  645TMC3     H 9605   2.376   4.429   9.385 -2.0766  0.4343  1.5429
  645TMC3    H1 9606   2.688   4.169   9.445  0.3979 -0.2629  0.1294
  645TMC3    H2 9607   2.298   4.026   9.510  1.0985 -0.7549 -0.4741
  645TMC3    C7 9608   2.563   3.959   9.492 -0.0126  0.2939  0.5645
  645TMC3    C8 9609   2.187   4.265   9.477  0.4050 -0.1732  0.3033
  645TMC3    O1 9610   2.678   3.948   9.451  0.1686 -0.0138  0.5563
  645TMC3    O2 9611   2.161   4.383   9.461  0.3104 -0.2822  0.1162
  646MPD2     C 9612   3.123   3.435  14.104 -0.2014 -0.6124 -0.7642
  646MPD2    C1 9613   3.015   3.407  14.180 -0.0585 -0.1502  0.5157
  646MPD2    C2 9614   2.909   3.490  14.180 -0.6161  0.3593 -0.0944
  646MPD2    C3 9615   2.901   3.595  14.085  0.5962  0.1519 -0.4391
  646MPD2    C4 9616   3.009   3.622  14.002 -0.4648 -0.4006  0.0929
  646MPD2    C5 9617   3.120   3.542  14.020  1.0233 -0.3945 -1.0849
  646MPD2     H 9618   2.823   3.475  14.243 -0.6261  0.8330  0.0029
  646MPD2    H1 9619   3.011   3.710  13.939  1.5735 -1.4203 -1.2793
  646MPD2    H2 9620   3.206   3.365  14.102  0.1279 -0.2130 -1.0347
  646MPD2    H3 9621   3.204   3.558  13.953  0.2703  2.7833 -1.2556
  646MPD2     N 9622   2.781   3.675  14.086 -0.2950  0.3285  0.1202
  646MPD2    H5 9623   2.716   3.654  14.161 -0.1609 -1.1622 -0.1823
  646MPD2    N1 9624   3.024   3.291  14.259 -0.2609 -0.1432 -0.0533
  646MPD2    H7 9625   3.115   3.246  14.259 -0.7775 -1.2047  2.1305
  647TMC3    C1 9626   2.987   3.136  14.414 -0.4702 -0.0543 -0.4203
  647TMC3    C2 9627   2.908   3.029  14.435 -0.0165 -0.2451 -0.5550
  647TMC3    C3 9628   2.950   2.943  14.541 -0.2375  0.2797 -0.0482
  647TMC3    C4 9629   3.104   3.159  14.483 -0.2515  0.7797  0.0285
  647TMC3    C5 9630   3.147   3.067  14.573 -0.3555 -0.3942  0.1906
  647TMC3    C6 9631   3.069   2.964  14.611  0.2330  0.2146  0.2244
  647TMC3     C 9632   2.931   3.246  14.346  0.1868  1.0610  0.5295
  647TMC3     O 9633   2.819   3.275  14.381 -0.5304  0.0679  0.2112
  647TMC3     H 9634   2.807   3.029  14.398 -0.7322 -2.8530  1.3452
  647TMC3    H1 9635   3.148   3.257  14.466 -0.3181  0.6161 -1.0930
  647TMC3    H2 9636   3.109   2.883  14.671 -1.4096 -0.2118  0.7282
  647TMC3    C7 9637   3.286   3.080  14.636 -0.1091  0.1304 -0.7302
  647TMC3    C8 9638   2.859   2.847  14.584  0.5025 -1.0249 -0.1864
  647TMC3    O1 9639   3.299   3.033  14.746  0.2514  0.5891 -0.6565
  647TMC3    O2 9640   2.751   2.851  14.527  0.0498  0.3656  0.2501
  648TMC3    C1 9641   2.198   1.017  15.852  0.8920  0.7953  0.0327
  648TMC3    C2 9642   2.259   0.917  15.777  0.0934  0.3126 -0.2804
  648TMC3    C3 9643   2.205   0.882  15.657  0.0947 -0.4232  0.2507
  648TMC3    C4 9644   2.081   1.074  15.809  0.2684 -0.7115 -0.0989
  648TMC3    C5 9645   2.030   1.031  15.687 -0.4922  0.7854 -0.2390
  648TMC3    C6 9646   2.095   0.938  15.611 -0.4685 -0.1129 -0.3613
  648TMC3     C 9647   2.220   1.044  15.991  0.1046  0.0753 -0.1907
  648TMC3     O 9648   2.147   1.133  16.035  0.1924 -0.1512  1.1041
  648TMC3     H 9649   2.356   0.876  15.803 -0.2990 -1.6848 -1.9285
  648TMC3    H1 9650   2.045   1.164  15.858  0.2260 -0.5980 -0.3417
  648TMC3    H2 9651   2.056   0.915  15.513 -0.8323 -0.8258 -0.0490
  648TMC3    C7 9652   1.915   1.105  15.627  0.0809 -0.6484  0.1794
  648TMC3    C8 9653   2.279   0.785  15.580  1.6849 -0.7167 -0.6336
  648TMC3    O1 9654   1.897   1.087  15.506  0.0755 -0.2612  0.6938
  648TMC3    O2 9655   2.391   0.761  15.621  0.5998  0.3472 -0.4624
  649TMC3    C1 9656   1.138   2.682  13.117 -0.1959  0.3414  0.6117
  649TMC3    C2 9657   1.278   2.682  13.123  0.2799 -0.0718  0.3014
  649TMC3    C3 9658   1.330   2.627  13.232 -0.6528 -0.1514  0.4366
  649TMC3    C4 9659   1.058   2.609  13.199  0.2675 -0.1404 -0.9414
  649TMC3    C5 9660   1.118   2.537  13.298 -0.3996  0.5463 -0.8996
  649TMC3    C6 9661   1.255   2.544  13.318  0.0077  0.5599  0.1116
  649TMC3     C 9662   1.060   2.754  13.012 -0.1936  0.6578 -0.2460
  649TMC3     O 9663   0.938   2.769  13.025  0.2610  0.4399  0.2848
  649TMC3     H 9664   1.332   2.748  13.057  1.5966 -1.5881 -0.1385
  649TMC3    H1 9665   0.951   2.605  13.178  0.4799 -1.4209 -1.7737
  649TMC3    H2 9666   1.300   2.495  13.404  1.3693  1.3480 -0.1539
  649TMC3    C7 9667   1.021   2.466  13.382  0.0457  0.0036  0.4772
  649TMC3    C8 9668   1.462   2.661  13.275  1.1456 -0.3877 -0.1047
  649TMC3    O1 9669   0.906   2.472  13.338  0.0598  0.2263 -0.3501
  649TMC3    O2 9670   1.531   2.707  13.188  0.0667 -0.0710 -0.5311
  650TMC3    C1 9671   2.863   3.763  12.634  0.9969 -0.3002 -0.4439
  650TMC3    C2 9672   2.845   3.892  12.679  0.5528  0.0824 -0.4365
  650TMC3    C3 9673   2.736   3.965  12.632  0.2950  0.9283 -0.4200
  650TMC3    C4 9674   2.788   3.714  12.533  1.1439 -0.2756 -0.0842
  650TMC3    C5 9675   2.692   3.789  12.475 -0.1755  0.2797 -0.3083
  650TMC3    C6 9676   2.655   3.913  12.532  0.1573 -0.4989 -0.0196
  650TMC3     C 9677   2.978   3.677  12.658 -0.1040  0.3436 -0.1475
  650TMC3     O 9678   2.954   3.554  12.656  0.0322 -0.5233  0.2215
  650TMC3     H 9679   2.905   3.930  12.761 -0.8686 -0.0036  0.6483
  650TMC3    H1 9680   2.823   3.627  12.479  0.2915 -1.0055  0.5575
  650TMC3    H2 9681   2.566   3.964  12.498 -0.8138 -1.3397  1.2470
  650TMC3    C7 9682   2.707   3.793  12.328 -0.4748  0.5529  0.5007
  650TMC3    C8 9683   2.718   4.103  12.663 -0.0157 -0.3827  0.1153
  650TMC3    O1 9684   2.742   3.695  12.259 -0.4157 -0.0949 -0.0649
  650TMC3    O2 9685   2.817   4.173  12.665 -0.2616 -0.4351 -0.0785
  651MPD2     C 9686   1.930   1.796  10.890 -0.2152  0.6893  0.8187
  651MPD2    C1 9687   1.885   1.924  10.884 -0.2366 -0.2309 -0.8452
  651MPD2    C2 9688   1.988   2.017  10.904  0.7718  0.1546  0.5989
  651MPD2    C3 9689   2.118   1.978  10.921 -0.1382  0.1181  0.3681
  651MPD2    C4 9690   2.151   1.844  10.915 -1.4959 -0.1038 -0.1502
  651MPD2    C5 9691   2.055   1.750  10.911  0.2643  0.4333  0.2757
  651MPD2     H 9692   1.967   2.123  10.900  0.5063  0.1176  0.9731
  651MPD2    H1 9693   2.254   1.810  10.920 -2.2246 -2.4861 -1.2355
  651MPD2    H2 9694   1.862   1.713  10.873  1.2980 -0.7368  1.6382
  651MPD2    H3 9695   2.077   1.645  10.898  1.9986  1.0260 -1.6080
  651MPD2     N 9696   2.210   2.079  10.944 -0.1444 -0.0013 -0.1668
  651MPD2    H5 9697   2.185   2.177  10.935 -1.6353 -0.2572  1.3422
  651MPD2    N1 9698   1.746   1.956  10.864 -0.1148 -0.0760  0.2886
  651MPD2    H7 9699   1.731   2.057  10.861 -0.1451 -0.1132 -0.7189
  652TMC3    C1 9700   2.605   2.263  11.092 -0.4430 -0.5374  0.1051
  652TMC3    C2 9701   2.505   2.175  11.098 -0.0337  0.9592  0.1619
  652TMC3    C3 9702   2.419   2.175  10.991  0.5135  0.1163 -0.0961
  652TMC3    C4 9703   2.628   2.337  10.978 -0.1814 -0.4934  0.0469
  652TMC3    C5 9704   2.529   2.341  10.879 -0.4050  0.9208 -0.0939
  652TMC3    C6 9705   2.417   2.258  10.885 -0.7785  0.1750  0.6779
  652TMC3     C 9706   2.717   2.230  11.175 -0.1392 -0.3090 -0.5926
  652TMC3     O 9707   2.735   2.115  11.216  0.1713 -0.8736 -0.0858
  652TMC3     H 9708   2.489   2.099  11.173 -3.0078  0.6768 -0.7596
  652TMC3    H1 9709   2.713   2.401  10.962 -0.9817  0.8365  1.1717
  652TMC3    H2 9710   2.350   2.237  10.802  0.6413 -1.8448  0.0490
  652TMC3    C7 9711   2.552   2.425  10.762  0.0552 -0.1712 -0.5938
  652TMC3    C8 9712   2.342   2.051  10.991  0.0995 -0.0043 -0.3536
  652TMC3    O1 9713   2.666   2.457  10.728  0.5546  0.1004  0.4499
  652TMC3    O2 9714   2.397   1.950  11.023  1.0483 -0.8950  0.2773
  653MPD2     C 9715   1.572   0.797   0.011 -0.0964  0.1068 -0.0325
  653MPD2    C1 9716   1.540   0.898  17.674  0.4941 -0.1920  0.2718
  653MPD2    C2 9717   1.430   0.881  17.591 -0.7065  0.1161 -0.2166
  653MPD2    C3 9718   1.351   0.763  17.594 -0.3016 -0.4116 -0.2036
  653MPD2    C4 9719   1.409   0.659  17.662  0.1834  0.3287 -0.7383
  653MPD2    C5 9720   1.512   0.675  17.750 -0.1140 -0.4006  0.2450
  653MPD2     H 9721   1.394   0.959  17.524 -0.9151 -0.2776 -0.5588
  653MPD2    H1 9722   1.369   0.558  17.662  1.3712 -0.1563 -3.2531
  653MPD2    H2 9723   1.653   0.800   0.083  1.5060 -2.9188 -1.6975
  653MPD2    H3 9724   1.546   0.593   0.056  0.4092  0.7964  1.5587
  653MPD2     N 9725   1.249   0.752  17.495  0.2044 -0.3706 -0.1498
  653MPD2    H5 9726   1.235   0.831  17.433  0.8704  0.2160  0.4594
  653MPD2    N1 9727   1.603   1.031  17.658  0.4550  0.1785 -0.0147
  653MPD2    H7 9728   1.578   1.094  17.582  2.5062 -0.2451 -1.0393
  654TMC3    C1 9729   1.081   0.640  17.368 -0.2832  0.2231  0.1272
  654TMC3    C2 9730   1.018   0.756  17.333  0.6463 -0.0921 -0.6474
  654TMC3    C3 9731   0.951   0.757  17.214  0.3040  0.3831  0.2329
  654TMC3    C4 9732   1.084   0.528  17.290 -0.2110 -0.0239  0.0865
  654TMC3    C5 9733   1.011   0.535  17.170 -0.3007  0.6691  0.3299
  654TMC3    C6 9734   0.940   0.645  17.136  0.3718 -0.2611 -0.1819
  654TMC3     C 9735   1.173   0.638  17.477  0.1511 -0.3838  0.5565
  654TMC3     O 9736   1.189   0.527  17.521 -0.3903  0.0889  0.6032
  654TMC3     H 9737   1.016   0.838  17.404 -0.2644 -0.9460  0.3148
  654TMC3    H1 9738   1.160   0.454  17.313 -1.3041 -1.1083  0.2317
  654TMC3    H2 9739   0.882   0.643  17.044  0.9620 -0.1247 -0.5524
  654TMC3    C7 9740   1.018   0.429  17.071 -0.3980  0.0633 -0.2067
  654TMC3    C8 9741   0.846   0.866  17.190  0.1734  0.0229 -0.3542
  654TMC3    O1 9742   0.996   0.463  16.956 -0.1051 -0.9901 -0.1465
  654TMC3    O2 9743   0.806   0.942  17.280 -0.9905  0.5865 -0.8442
  655MPD2     C 9744   2.528   1.198  15.892 -0.0091  0.1813 -0.0774
  655MPD2    C1 9745   2.436   1.272  15.825 -0.3971 -0.2485 -0.7747
  655MPD2    C2 9746   2.422   1.241  15.683 -0.4707 -0.4804  0.7745
  655MPD2    C3 9747   2.493   1.130  15.635  1.0454 -0.1237  0.3532
  655MPD2    C4 9748   2.590   1.066  15.711  0.2923  0.6552  0.5794
  655MPD2    C5 9749   2.608   1.092  15.843  0.2298  0.1098  0.0465
  655MPD2     H 9750   2.348   1.303  15.635  0.3285 -0.2558 -0.1550
  655MPD2    H1 9751   2.639   0.980  15.666  1.1829  1.5051 -0.0720
  655MPD2    H2 9752   2.531   1.203  16.000  1.1842  1.8839 -0.1912
  655MPD2    H3 9753   2.685   1.049  15.907  0.2111 -1.8916 -1.2709
  655MPD2     N 9754   2.480   1.094  15.502 -0.2867 -0.2871 -0.2545
  655MPD2    H5 9755   2.551   1.033  15.462  0.8377  0.4847  0.5749
  655MPD2    N1 9756   2.354   1.368  15.886  0.1560  0.2151  0.5976
  655MPD2    H7 9757   2.278   1.405  15.831  0.5223  2.4687  1.5804
  656TMC3    C1 9758   2.228   1.481  16.038 -0.3772 -0.7691  0.2565
  656TMC3    C2 9759   2.126   1.413  16.102 -0.5334  0.3377  0.4290
  656TMC3    C3 9760   2.004   1.459  16.075 -0.3085 -0.2341  0.1897
  656TMC3    C4 9761   2.221   1.596  15.974  0.1860  0.0038 -0.1531
  656TMC3    C5 9762   2.095   1.645  15.952 -0.8082 -0.5859  0.0959
  656TMC3    C6 9763   1.984   1.582  16.006  0.3420 -0.1274 -0.0588
  656TMC3     C 9764   2.351   1.405  16.023  0.3986 -1.2024  0.0600
  656TMC3     O 9765   2.405   1.359  16.123 -0.6212  0.1366 -0.1042
  656TMC3     H 9766   2.147   1.318  16.151  1.3273 -0.5540 -2.0741
  656TMC3    H1 9767   2.311   1.637  15.930 -1.2724  2.4516 -0.8261
  656TMC3    H2 9768   1.880   1.605  15.985 -0.3116 -2.8066  0.1808
  656TMC3    C7 9769   2.087   1.743  15.847  0.2085  0.6967  0.6346
  656TMC3    C8 9770   1.885   1.381  16.104  0.6223 -0.6674 -0.2751
  656TMC3    O1 9771   2.190   1.794  15.808  0.6267  0.2522  0.1668
  656TMC3    O2 9772   1.785   1.452  16.109 -0.2568 -0.2430  0.0447
  657TMC3    C1 9773   1.652   4.732  15.283 -0.1236  0.1801  0.4961
  657TMC3    C2 9774   1.626   0.111  15.340  0.1220  0.1743  0.8152
  657TMC3    C3 9775   1.491   0.150  15.347 -0.1308  0.5037  0.5848
  657TMC3    C4 9776   1.552   4.658  15.223 -0.0242 -0.0792  0.5538
  657TMC3    C5 9777   1.419   4.704  15.230 -0.0550 -0.3984 -0.2635
  657TMC3    C6 9778   1.385   0.086  15.289  0.1759  0.3046 -0.2730
  657TMC3     C 9779   1.791   4.703  15.247  0.2163  0.2332  0.6362
  657TMC3     O 9780   1.808   4.635  15.149 -0.0375  0.0282 -0.1062
  657TMC3     H 9781   1.709   0.162  15.385  1.1399 -2.0004  1.3944
  657TMC3    H1 9782   1.560   4.558  15.183  3.0496  0.5880 -0.4866
  657TMC3    H2 9783   1.280   0.114  15.299  0.0563 -0.7033  1.3508
  657TMC3    C7 9784   1.313   4.601  15.188 -0.2207  0.5211 -0.4649
  657TMC3    C8 9785   1.451   0.265  15.417 -0.6823  0.0910 -0.1338
  657TMC3    O1 9786   1.348   4.487  15.171 -0.1484  0.4717  0.2827
  657TMC3    O2 9787   1.353   0.326  15.379  0.5020  0.3559  0.9339
  658MPD2     C 9788   2.871   1.204  15.044  0.2590 -0.4931 -0.0297
  658MPD2    C1 9789   2.777   1.122  14.983 -0.4129  0.6456 -0.1457
  658MPD2    C2 9790   2.794   1.092  14.852 -0.0607  0.3005 -0.4377
  658MPD2    C3 9791   2.907   1.139  14.783 -0.5314 -0.2414  0.0121
  658MPD2    C4 9792   3.000   1.216  14.843 -0.2110  0.7221 -0.4387
  658MPD2    C5 9793   2.977   1.248  14.975 -0.6496  0.3628 -0.1823
  658MPD2     H 9794   2.729   1.023  14.799 -0.4149  0.4998 -0.2636
  658MPD2    H1 9795   3.089   1.250  14.790  0.2408 -1.9396 -1.3551
  658MPD2    H2 9796   2.858   1.246  15.143 -0.3136 -1.5606  0.3458
  658MPD2    H3 9797   3.048   1.308  15.030 -0.0282 -0.6139  0.0829
  658MPD2     N 9798   2.924   1.093  14.646 -0.9242  0.1368  0.8776
  658MPD2    H5 9799   2.850   1.049  14.591  0.8224  0.1916 -1.5481
  658MPD2    N1 9800   2.669   1.074  15.055 -0.4970  0.1283 -0.3166
  658MPD2    H7 9801   2.651   1.123  15.142 -0.7813 -1.0158  0.2697
  659TMC3    C1 9802   2.468   0.966  15.111  0.9598 -0.1322 -0.0371
  659TMC3    C2 9803   2.481   1.031  15.231 -0.5269  0.6713  0.8509
  659TMC3    C3 9804   2.365   1.074  15.296 -0.2192  0.1834  0.2257
  659TMC3    C4 9805   2.347   0.940  15.053  0.2996 -0.6460 -0.6671
  659TMC3    C5 9806   2.230   0.975  15.122 -0.0455  0.3652  0.3255
  659TMC3    C6 9807   2.237   1.043  15.245  0.3723  0.5080  0.8803
  659TMC3     C 9808   2.580   0.978  15.015 -0.2811 -0.1590  0.2625
  659TMC3     O 9809   2.583   0.903  14.916  0.0319  0.4022  0.3434
  659TMC3     H 9810   2.581   1.034  15.273  0.3018 -2.5622 -0.8632
  659TMC3    H1 9811   2.337   0.902  14.952  1.0376 -1.1604 -0.5452
  659TMC3    H2 9812   2.149   1.083  15.294  0.2799  0.4604  0.7509
  659TMC3    C7 9813   2.093   0.924  15.084 -1.1947 -0.4428  0.1922
  659TMC3    C8 9814   2.371   1.131  15.425  0.4348  0.9409  0.3022
  659TMC3    O1 9815   2.007   0.929  15.171  0.4407 -1.1008  0.4293
  659TMC3    O2 9816   2.275   1.206  15.451 -0.0339  0.0247 -0.0141
  660MPD2     C 9817   0.308   0.345  12.547  0.2488  0.4312  0.0525
  660MPD2    C1 9818   0.209   0.414  12.609  0.3120 -0.0188  0.6267
  660MPD2    C2 9819   0.216   0.438  12.745  0.0350 -0.1191  0.3759
  660MPD2    C3 9820   0.309   0.375  12.825 -0.0386 -0.2968 -0.5621
  660MPD2    C4 9821   0.405   0.293  12.760 -0.6863  0.3690 -0.0794
  660MPD2    C5 9822   0.402   0.284  12.625 -0.0475 -1.0709  0.0165
  660MPD2     H 9823   0.143   0.496  12.800 -1.2828 -0.6161 -0.8614
  660MPD2    H1 9824   0.477   0.230  12.810 -1.3348  0.8980  1.5153
  660MPD2    H2 9825   0.315   0.339  12.439  0.0293  0.4487  0.0375
  660MPD2    H3 9826   0.474   0.219  12.575 -0.0758  0.0311 -1.4701
  660MPD2     N 9827   0.306   0.375  12.964 -0.1875 -0.1986  0.4910
  660MPD2    H5 9828   0.361   0.303  13.010  1.3002  0.2548 -0.5954
  660MPD2    N1 9829   0.112   0.477  12.528  0.4281  0.6581 -0.1857
  660MPD2    H7 9830   0.122   0.461  12.429  0.1577  0.9150 -0.2548
  661TMC3    C1 9831   4.647   0.567  12.468  0.1836  0.0138  0.0418
  661TMC3    C2 9832   4.691   0.573  12.339 -0.4917 -0.3562  0.1475
  661TMC3    C3 9833   4.597   0.598  12.248 -0.1715  0.2221 -0.5495
  661TMC3    C4 9834   4.514   0.583  12.498 -0.0462 -0.0567 -0.4340
  661TMC3    C5 9835   4.422   0.602  12.399 -0.9280 -0.0227  0.1252
  661TMC3    C6 9836   4.461   0.614  12.270 -0.2211 -1.0891  0.0353
  661TMC3     C 9837   4.739   0.538  12.576 -0.0394  0.2294  0.8565
  661TMC3     O 9838   4.697   0.547  12.690 -0.3938  0.0011 -0.1054
  661TMC3     H 9839   0.056   0.585  12.314 -0.6527  2.9766  1.1386
  661TMC3    H1 9840   4.477   0.555  12.596  1.3435  0.2266  0.1677
  661TMC3    H2 9841   4.394   0.627  12.185  1.1994  1.2076 -0.7303
  661TMC3    C7 9842   4.285   0.567  12.434 -0.0860 -0.0587 -0.6286
  661TMC3    C8 9843   4.657   0.635  12.123  0.3430  0.6047  0.3054
  661TMC3    O1 9844   4.240   0.597  12.543  0.0112  0.1193 -0.2176
  661TMC3    O2 9845   0.018   0.574  12.088  0.9580  0.0190 -0.0991
  662MPD2     C 9846   1.055   4.289  16.845 -0.6625  0.2547 -0.0370
  662MPD2    C1 9847   1.003   4.246  16.973 -0.2540  0.3762  0.3861
  662MPD2    C2 9848   0.924   4.340  17.033  0.0409 -0.4314  0.9858
  662MPD2    C3 9849   0.879   4.460  16.976 -0.5686 -0.2482 -0.3272
  662MPD2    C4 9850   0.917   4.489  16.850  0.4971  0.5600 -0.8555
  662MPD2    C5 9851   1.010   4.411  16.789 -0.0303  0.6079  0.7177
  662MPD2     H 9852   0.880   4.317  17.129  0.3533  3.0018  1.9518
  662MPD2    H1 9853   0.877   4.578  16.802 -0.3679  0.2683 -0.6760
  662MPD2    H2 9854   1.124   4.235  16.780 -1.2843  1.9464 -2.0898
  662MPD2    H3 9855   1.028   4.436  16.685  0.6191 -0.4538  0.5752
  662MPD2     N 9856   0.790   4.556  17.033  0.7994 -0.4375 -0.0749
  662MPD2    H5 9857   0.746   4.617  16.966 -1.9019 -0.0740  2.0386
  662MPD2    N1 9858   1.040   4.126  17.040  0.9102 -0.1563  0.3952
  662MPD2    H7 9859   1.001   4.111  17.133 -3.0939 -1.1979 -1.4346
  663TMC3    C1 9860   1.030   3.900  17.055 -0.2911  0.1241  0.5035
  663TMC3    C2 9861   0.898   3.863  17.017 -0.1150  1.1142 -0.2875
  663TMC3    C3 9862   0.838   3.758  17.075  0.7028  0.4214  0.3205
  663TMC3    C4 9863   1.109   3.837  17.143 -0.0336  0.1426  0.2137
  663TMC3    C5 9864   1.042   3.730  17.196  0.3608 -0.7023  0.1550
  663TMC3    C6 9865   0.908   3.700  17.176  0.2937  0.3402 -0.3057
  663TMC3     C 9866   1.096   4.011  16.993 -0.3171  0.2990 -0.3158
  663TMC3     O 9867   1.169   3.999  16.894  0.2970 -0.1938  0.6143
  663TMC3     H 9868   0.833   3.944  16.986 -0.2494  1.1843  0.1782
  663TMC3    H1 9869   1.213   3.856  17.164  0.6497 -3.1894 -0.1873
  663TMC3    H2 9870   0.867   3.609  17.219  1.7944  0.4615  1.3861
  663TMC3    C7 9871   1.126   3.647  17.283 -0.4801  0.2487 -0.7905
  663TMC3    C8 9872   0.697   3.787  17.102 -0.8103 -0.2727  0.0916
  663TMC3    O1 9873   1.182   3.705  17.378 -0.2938  0.0073  0.2804
  663TMC3    O2 9874   0.623   3.829  17.015  0.1591 -0.1228 -0.1635
  664MPD2     C 9875   3.617   2.146  17.450  0.2838  1.0716 -0.3610
  664MPD2    C1 9876   3.688   2.257  17.487 -1.0353  0.4512  0.5725
  664MPD2    C2 9877   3.639   2.329  17.596 -0.5751 -0.1566  0.4697
  664MPD2    C3 9878   3.523   2.297  17.656  0.2558  0.1621 -0.6250
  664MPD2    C4 9879   3.459   2.171  17.628  0.2579 -0.1229  0.0667
  664MPD2    C5 9880   3.503   2.106  17.514  0.3399 -0.4099  0.5965
  664MPD2     H 9881   3.693   2.418  17.626 -0.4060  0.2407 -1.0191
  664MPD2    H1 9882   3.369   2.137  17.678 -0.8863 -0.0656 -1.9853
  664MPD2    H2 9883   3.654   2.080  17.373 -0.8551  0.2281 -0.1842
  664MPD2    H3 9884   3.461   2.010  17.486  1.0393 -0.3219 -0.7406
  664MPD2     N 9885   3.485   2.391   0.008  0.6871  0.0725  0.3711
  664MPD2    H5 9886   3.536   2.478   0.008  2.3733 -0.9354  2.7882
  664MPD2    N1 9887   3.816   2.287  17.425 -0.3779 -0.8821  0.3340
  664MPD2    H7 9888   3.843   2.235  17.343  2.4061  1.4073 -0.2073
  665TMC3    C1 9889   3.367   2.484   0.193 -0.6114  0.6463 -0.3076
  665TMC3    C2 9890   3.298   2.445   0.306 -0.3871  0.3492 -0.2675
  665TMC3    C3 9891   3.317   2.514   0.429 -0.0918  0.4534 -0.0330
  665TMC3    C4 9892   3.452   2.589   0.196 -0.3210  0.2198 -0.1193
  665TMC3    C5 9893   3.465   2.654   0.317 -0.5579  0.3236 -0.4253
  665TMC3    C6 9894   3.409   2.607   0.434  0.1652  0.0752  0.7123
  665TMC3     C 9895   3.376   2.383   0.088 -0.6670 -1.0771 -0.1143
  665TMC3     O 9896   3.301   2.284   0.102  0.4354  0.1024 -0.0862
  665TMC3     H 9897   3.231   2.360   0.313  1.4252 -1.2936 -2.7729
  665TMC3    H1 9898   3.512   2.622   0.112  0.6449 -2.7028 -0.5840
  665TMC3    H2 9899   3.423   2.663   0.526  1.1157  1.4180 -0.2342
  665TMC3    C7 9900   3.544   2.778   0.324 -0.1121  0.2894 -0.0366
  665TMC3    C8 9901   3.277   2.461   0.556  0.1813  0.0509  0.1988
  665TMC3    O1 9902   3.569   2.824   0.211  0.4045  0.1898 -0.0528
  665TMC3    O2 9903   3.338   2.504   0.653 -0.4012  0.1085  0.2615
  666TMC3    C1 9904   2.089   2.887   9.284 -0.0579  0.1662  0.2007
  666TMC3    C2 9905   2.222   2.879   9.252 -0.5992 -0.6339  0.0506
  666TMC3    C3 9906   2.278   2.987   9.185  0.7451  0.1756  0.0139
  666TMC3    C4 9907   2.019   3.007   9.264  0.4017 -0.0750  0.5569
  666TMC3    C5 9908   2.089   3.115   9.204  0.3570 -0.4368 -0.6391
  666TMC3    C6 9909   2.214   3.101   9.155 -0.3309  0.7002  0.3027
  666TMC3     C 9910   2.041   2.787   9.381  0.2985  0.4814 -0.2311
  666TMC3     O 9911   1.930   2.738   9.371  0.1382  0.1072 -0.1143
  666TMC3     H 9912   2.276   2.786   9.258  1.0791  0.2737 -0.8561
  666TMC3    H1 9913   1.915   2.999   9.294  0.1115 -1.0810 -0.7344
  666TMC3    H2 9914   2.265   3.187   9.113 -1.1420 -0.7348 -3.5905
  666TMC3    C7 9915   2.050   3.246   9.260 -0.9230  0.1084 -0.4399
  666TMC3    C8 9916   2.423   2.983   9.174  0.7920 -0.8066 -0.6010
  666TMC3    O1 9917   1.965   3.244   9.349 -0.0183  0.3459 -0.1538
  666TMC3    O2 9918   2.476   3.012   9.073 -0.2241 -0.2644  0.0789
  667MPD2     C 9919   4.476   2.688  14.745  0.6419 -0.0412 -0.3022
  667MPD2    C1 9920   4.479   2.702  14.882 -0.2049  0.0166  0.3110
  667MPD2    C2 9921   4.445   2.596  14.966  0.3506 -0.1196  0.3590
  667MPD2    C3 9922   4.394   2.476  14.917  0.2928  0.6462 -0.0473
  667MPD2    C4 9923   4.388   2.466  14.779  0.6663 -0.0196  0.6404
  667MPD2    C5 9924   4.433   2.567  14.694 -0.5468 -0.3916 -0.0395
  667MPD2     H 9925   4.444   2.614  15.073 -2.0462 -1.1096  0.5240
  667MPD2    H1 9926   4.338   2.377  14.741 -1.0227  1.6176 -0.9683
  667MPD2    H2 9927   4.514   2.760  14.674  0.4473  2.2818  1.9661
  667MPD2    H3 9928   4.434   2.553  14.586 -1.1941 -0.4079 -0.0429
  667MPD2     N 9929   4.353   2.370  14.999 -0.1491 -0.4256  0.4726
  667MPD2    H5 9930   4.331   2.283  14.951 -0.6640  0.0480 -0.1464
  667MPD2    N1 9931   4.512   2.822  14.939  0.8317 -0.5557 -0.1949
  667MPD2    H7 9932   4.488   2.839  15.036  0.5750  1.6819 -0.6536
  668TMC3    C1 9933   4.605   3.028  14.966  0.2682  0.2544  0.1454
  668TMC3    C2 9934   4.666   3.143  14.916  0.7399  0.2725  0.3848
  668TMC3    C3 9935   4.718   3.225  15.010 -0.9011 -0.4572 -0.1755
  668TMC3    C4 9936   4.576   3.017  15.099 -0.3239  0.0658  0.3070
  668TMC3    C5 9937   4.625   3.111  15.189 -0.2073  0.1082 -0.6517
  668TMC3    C6 9938   4.699   3.215  15.146 -0.5155  0.2611 -0.2651
  668TMC3     C 9939   4.574   2.928  14.873 -0.5607 -0.1553  0.3362
  668TMC3     O 9940   4.610   2.941  14.756  0.5406 -0.8409 -0.2141
  668TMC3     H 9941   4.693   3.157  14.812 -0.1061  0.5082  0.1991
  668TMC3    H1 9942   4.530   2.930  15.145 -0.5846  0.0631  0.0373
  668TMC3    H2 9943   0.013   3.287  15.207  1.2339 -0.6906 -0.6662
  668TMC3    C7 9944   4.614   3.080  15.338  0.1673 -0.2652  0.2523
  668TMC3    C8 9945   0.010   3.363  14.975  0.2397 -0.1328 -0.0182
  668TMC3    O1 9946   4.516   3.015  15.374 -0.1327  0.4347  0.1848
  668TMC3    O2 9947   0.010   3.446  15.065  0.4182  0.0554 -0.2806
  669TMC3    C1 9948   2.850   2.328  14.785  0.2255 -0.2331  0.1015
  669TMC3    C2 9949   2.748   2.329  14.693  0.1060 -0.1099  0.0798
  669TMC3    C3 9950   2.775   2.384  14.570  0.2946  0.0013  0.0672
  669TMC3    C4 9951   2.979   2.380  14.762  0.3127  0.1068  0.3465
  669TMC3    C5 9952   3.005   2.421  14.633  0.3465  0.2248 -0.3261
  669TMC3    C6 9953   2.902   2.430  14.538 -0.1905 -0.0164  0.1526
  669TMC3     C 9954   2.824   2.287  14.922  0.1523  0.2329 -0.2042
  669TMC3     O 9955   2.707   2.275  14.955 -0.4610 -0.5258 -0.2628
  669TMC3     H 9956   2.650   2.289  14.714  0.1854  0.0696  0.7849
  669TMC3    H1 9957   3.030   2.421  14.849  0.5415  2.7928 -1.0829
  669TMC3    H2 9958   2.923   2.465  14.438 -1.3960  0.0081 -0.0846
  669TMC3    C7 9959   3.110   2.520  14.607 -0.0336 -0.0523  0.2011
  669TMC3    C8 9960   2.670   2.424  14.470  0.1543 -0.4263  0.0188
  669TMC3    O1 9961   3.095   2.606  14.522  0.2313  0.0509 -0.3256
  669TMC3    O2 9962   2.703   2.468  14.361 -0.0029 -0.0260 -0.3079
  670MPD2     C 9963   0.793   0.440  13.891 -0.6956  0.1421  0.1258
  670MPD2    C1 9964   0.763   0.342  13.797  0.6754  0.1481 -0.1392
  670MPD2    C2 9965   0.740   0.213  13.830  0.2400  0.4307  0.0057
  670MPD2    C3 9966   0.756   0.175  13.965 -0.6097  0.1720 -0.5496
  670MPD2    C4 9967   0.802   0.265  14.058  0.0698  0.0680  0.2913
  670MPD2    C5 9968   0.817   0.398  14.019 -0.3855 -0.2794  0.4894
  670MPD2     H 9969   0.703   0.139  13.760 -0.3200  0.5930  0.1257
  670MPD2    H1 9970   0.821   0.247  14.164  1.7768  2.3226  0.3800
  670MPD2    H2 9971   0.793   0.548  13.875 -0.1957  0.1664  0.2738
  670MPD2    H3 9972   0.840   0.470  14.097 -2.3158  0.0990  0.6966
  670MPD2     N 9973   0.735   0.041  14.000 -0.6190 -0.4672  0.0794
  670MPD2    H5 9974   0.711   4.713  13.928 -0.0247 -0.1297 -0.4465
  670MPD2    N1 9975   0.774   0.376  13.661  0.0747  0.2073 -0.5063
  670MPD2    H7 9976   0.777   0.298  13.596  1.9547 -0.4834  0.4260
  671TMC3    C1 9977   0.703   4.600  14.150 -0.4566 -0.1581  0.7816
  671TMC3    C2 9978   0.782   4.519  14.228  0.1939  0.4291 -0.1734
  671TMC3    C3 9979   0.821   4.395  14.183 -0.1737 -0.8906  0.8171
  671TMC3    C4 9980   0.632   4.551  14.047  0.2002 -1.0411 -0.7357
  671TMC3    C5 9981   0.662   4.423  14.013 -0.0747 -0.2962 -0.5679
  671TMC3    C6 9982   0.753   4.342  14.074 -0.1502 -0.2566  0.1411
  671TMC3     C 9983   0.755   4.732  14.128 -0.1788 -0.4263 -0.8248
  671TMC3     O 9984   0.835   0.040  14.212 -0.0413  0.0548 -0.0335
  671TMC3     H 9985   0.836   4.576  14.302  2.1683 -2.3231  0.5254
  671TMC3    H1 9986   0.560   4.618  14.000 -0.6208  0.2886  2.4052
  671TMC3    H2 9987   0.773   4.239  14.045  1.4565  0.1249 -0.1226
  671TMC3    C7 9988   0.667   4.410  13.868 -0.2152 -0.4746 -0.6153
  671TMC3    C8 9989   0.958   4.387  14.143 -0.4625 -0.4375 -0.1544
  671TMC3    O1 9990   0.672   4.521  13.811  0.3948 -0.0229  0.3007
  671TMC3    O2 9991   0.972   4.404  14.023 -0.2200 -0.1225  0.1645
  672MPD2     C 9992   1.047   0.398   1.123 -0.0831 -0.0105 -0.6949
  672MPD2    C1 9993   1.151   0.324   1.071 -0.2446 -0.2654 -0.9160
  672MPD2    C2 9994   1.279   0.354   1.100 -0.1951 -0.0103 -0.3890
  672MPD2    C3 9995   1.310   0.452   1.188 -0.1452 -0.3493 -0.0042
  672MPD2    C4 9996   1.203   0.522   1.249 -0.0713  0.1125 -0.0421
  672MPD2    C5 9997   1.077   0.495   1.209  0.5399  0.2269 -0.6634
  672MPD2     H 9998   1.353   0.296   1.046 -1.6822 -0.7030 -1.6703
  672MPD2    H1 9999   1.222   0.602   1.319 -3.3253  0.6850  0.1917
  672MPD2    H210000   0.944   0.375   1.100 -0.0968  1.1243 -1.7551
  672MPD2    H310001   1.003   0.561   1.252  2.3565  1.1690  0.9934
  672MPD2     N10002   1.444   0.499   1.210  0.6796 -0.2476 -0.4407
  672MPD2    H510003   1.468   0.580   1.266  1.0311 -1.1120  0.6426
  672MPD2    N110004   1.127   0.232   0.962  0.0079  0.5087  0.5011
  672MPD2    H710005   1.209   0.205   0.909 -0.5766  2.3656 -1.3651
  673TMC3    C110006   0.998   0.109   0.802 -0.0828 -0.0816  0.6582
  673TMC3    C210007   1.110   0.071   0.737  0.3289 -0.0767  0.3168
  673TMC3    C310008   1.090   4.739   0.625  0.8890 -0.5538 -0.8940
  673TMC3    C410009   0.876   0.091   0.753 -0.2165  0.3230  0.4415
  673TMC3    C510010   0.867   0.047   0.625  0.4453  0.0572 -0.3613
  673TMC3    C610011   0.973   4.722   0.565  0.2692  0.2015  0.5753
  673TMC3     C10012   1.002   0.191   0.917 -0.2194  0.2610  0.2995
  673TMC3     O10013   0.895   0.202   0.984  0.0195  0.2034  0.7296
  673TMC3     H10014   1.210   0.101   0.763  0.4605  0.2171 -0.5423
  673TMC3    H110015   0.778   0.121   0.787  0.2318  0.0860  1.9297
  673TMC3    H210016   0.972   4.668   0.471  1.1565  0.3110  0.5090
  673TMC3    C710017   0.802   0.133   0.532 -0.6846 -0.0948 -0.6897
  673TMC3    C810018   1.204   4.686   0.555  0.2314  0.4699 -0.4694
  673TMC3    O110019   0.787   0.088   0.422  0.2104  0.0294  0.0776
  673TMC3    O210020   1.202   4.697   0.429  0.4006  0.2137  0.0096
  674MPD2     C10021   1.013   0.889   0.028  0.6166 -0.6867 -0.2739
  674MPD2    C110022   0.956   0.763   0.016 -0.3536  0.3513  0.0315
  674MPD2    C210023   0.818   0.757   0.009 -0.2289 -0.3042 -0.0225
  674MPD2    C310024   0.739   0.870   0.009 -0.8340  0.4672  0.4488
  674MPD2    C410025   0.800   0.993   0.019  0.2331 -0.2512 -0.9698
  674MPD2    C510026   0.937   1.004   0.024 -0.2498 -0.2753  0.1235
  674MPD2     H10027   0.780   0.656   0.022  0.6889 -0.2791  2.9951
  674MPD2    H110028   0.740   1.082   0.034  1.7121 -0.0061  3.6980
  674MPD2    H210029   1.119   0.906   0.046  0.6037 -0.8097 -0.0890
  674MPD2    H310030   0.983   1.102   0.030  1.4476 -1.0705  0.0118
  674MPD2     N10031   0.603   0.844   0.025  0.2468 -0.9015  0.1178
  674MPD2    H510032   0.573   0.750  17.755 -3.2933 -0.5561  3.0427
  674MPD2    N110033   1.027   0.650   0.042  0.1277 -0.0687  0.0007
  674MPD2    H710034   1.117   0.672   0.084  0.3977  0.2105 -0.7059
  675TMC3    C110035   1.045   0.423   0.097 -0.2067  0.4736 -0.9220
  675TMC3    C210036   1.005   0.294   0.068  0.0139  0.0032 -0.3453
  675TMC3    C310037   1.029   0.198   0.162  0.6877  0.0853  0.2604
  675TMC3    C410038   1.085   0.456   0.217  0.9283 -0.2081 -0.8477
  675TMC3    C510039   1.099   0.359   0.310 -0.0080 -0.5262 -0.2816
  675TMC3    C610040   1.085   0.228   0.281 -0.6413 -0.5781  0.1857
  675TMC3     C10041   0.986   0.523   0.009 -0.6412 -0.0441 -0.5678
  675TMC3     O10042   0.892   0.485  17.693 -0.2772  0.2720 -0.1981
  675TMC3     H10043   0.973   0.259  17.727  1.1110 -0.7963 -0.4188
  675TMC3    H110044   1.086   0.560   0.249  1.3740  0.2321 -2.2743
  675TMC3    H210045   1.105   0.149   0.352 -2.0867 -1.7719 -0.7286
  675TMC3    C710046   1.123   0.397   0.446 -0.7188 -0.1278 -0.1613
  675TMC3    C810047   1.027   0.068   0.104  0.2369 -0.5511  0.1353
  675TMC3    O110048   1.129   0.306   0.528 -0.0889 -0.3613 -0.0851
  675TMC3    O210049   1.076   0.042  17.751  0.4150 -0.2933 -0.2901
  676MPD2     C10050   3.274   3.941  10.975 -0.7281 -0.3747  0.1257
  676MPD2    C110051   3.172   3.868  11.028  0.6224 -0.6399 -0.1151
  676MPD2    C210052   3.181   3.735  11.026  0.2516 -0.6337  0.4426
  676MPD2    C310053   3.285   3.666  10.967 -0.0691  0.3750  0.8746
  676MPD2    C410054   3.392   3.739  10.918  0.6152 -0.3973  0.0592
  676MPD2    C510055   3.385   3.880  10.919 -0.3149 -0.4539  0.2502
  676MPD2     H10056   3.096   3.681  11.067  0.1410 -1.3797 -0.7695
  676MPD2    H110057   3.476   3.692  10.867 -0.1677 -0.3956 -1.2368
  676MPD2    H210058   3.264   4.047  10.958  1.7213 -0.3544 -1.1183
  676MPD2    H310059   3.458   3.943  10.870 -2.2784  2.1711  0.6968
  676MPD2     N10060   3.294   3.524  10.967  0.3408 -0.4267  0.3141
  676MPD2    H510061   3.383   3.482  10.941  0.2244  0.1210 -0.9797
  676MPD2    N110062   3.042   3.914  11.050  0.3764 -0.0577  0.1950
  676MPD2    H710063   2.982   3.836  11.076 -0.7398  0.7360  0.0031
  677TMC3    C110064   2.867   4.042  11.098  0.7536 -0.1326 -0.7033
  677TMC3    C210065   2.822   3.930  11.171  0.3807  0.1663  0.0585
  677TMC3    C310066   2.727   3.950  11.268  0.0673 -0.2942  0.2117
  677TMC3    C410067   2.837   4.164  11.144 -0.1025  0.3043  0.0427
  677TMC3    C510068   2.764   4.183  11.263 -0.2695 -0.7168  0.0102
  677TMC3    C610069   2.705   4.078  11.315 -0.2310 -0.7221  0.2518
  677TMC3     C10070   2.994   4.034  11.029 -0.4622 -0.1811 -0.1343
  677TMC3     O10071   3.056   4.139  10.994 -0.4941 -0.0507  0.6768
  677TMC3     H10072   2.837   3.824  11.154 -1.8957 -0.4037  1.5706
  677TMC3    H110073   2.872   4.250  11.089 -0.1863  1.9341  2.5498
  677TMC3    H210074   2.639   4.091  11.400 -0.2685  1.4312 -0.1197
  677TMC3    C710075   2.764   4.305  11.329 -0.3229 -0.0604  0.0737
  677TMC3    C810076   2.765   3.851  11.373  0.4425  0.1508 -0.0587
  677TMC3    O110077   2.669   4.334  11.400 -0.3470  0.5335 -0.3584
  677TMC3    O210078   2.887   3.824  11.370  0.7160  0.0813  0.3848
  678MPD2     C10079   0.095   3.177   1.356 -0.8342 -0.0290 -0.4166
  678MPD2    C110080   0.018   3.166   1.239 -0.4227  0.3601  0.2557
  678MPD2    C210081   4.633   3.229   1.237  0.7350 -0.6153 -0.2184
  678MPD2    C310082   4.581   3.297   1.345 -0.0710 -0.2727  0.2617
  678MPD2    C410083   4.661   3.315   1.459 -0.1607  0.4730 -0.2532
  678MPD2    C510084   0.043   3.252   1.465  0.0105  0.3821  0.2676
  678MPD2     H10085   4.570   3.223   1.149  0.0646  0.7185  0.1688
  678MPD2    H110086   4.637   3.382   1.540 -1.3120 -1.0955  0.6952
  678MPD2    H210087   0.194   3.135   1.367  0.6651  3.2797 -1.0576
  678MPD2    H310088   0.096   3.271   1.557 -0.2736  2.4308  0.0071
  678MPD2     N10089   4.449   3.352   1.335  0.3116  0.1978 -0.5454
  678MPD2    H510090   4.407   3.345   1.243  0.8369  0.5560 -0.8076
  678MPD2    N110091   0.057   3.096   1.125 -0.2335 -0.3584 -0.8936
  678MPD2    H710092   4.728   3.097   1.049  0.5488 -0.2277 -1.5927
  679TMC3    C110093   0.246   2.753   0.870 -0.5662 -0.0991 -0.3060
  679TMC3    C210094   0.243   2.833   0.977 -0.4903 -0.3961 -0.3116
  679TMC3    C310095   0.173   2.954   0.973 -0.0707 -0.6835 -0.3715
  679TMC3    C410096   0.170   2.788   0.766  0.5064  0.4542 -0.5114
  679TMC3    C510097   0.103   2.912   0.755  0.0188 -0.1295  0.3705
  679TMC3    C610098   0.099   2.999   0.864  0.2827 -0.0891 -0.0893
  679TMC3     C10099   0.363   2.683   0.846 -0.1220  0.4600 -0.3876
  679TMC3     O10100   0.403   2.702   0.733 -0.6265  0.1534  0.3162
  679TMC3     H10101   0.303   2.805   1.062 -0.0017  0.7866 -0.2683
  679TMC3    H110102   0.174   2.739   0.669  3.4273  1.2735 -0.8003
  679TMC3    H210103   0.051   3.097   0.862  0.6820  0.0488 -2.9620
  679TMC3    C710104   0.146   2.987   0.644  0.4808 -0.6449 -0.5310
  679TMC3    C810105   0.172   3.028   1.101  0.3207  0.2942  0.1035
  679TMC3    O110106   0.190   3.099   0.668  0.1693  0.0242 -0.0451
  679TMC3    O210107   0.263   3.012   1.178 -0.0014 -0.3793 -0.4049
  680MPD2     C10108   0.338   2.727  13.810 -0.4731  0.2427  0.0869
  680MPD2    C110109   0.405   2.616  13.858 -0.2891 -0.3829 -0.7170
  680MPD2    C210110   0.505   2.638  13.948 -0.3272  0.5738  0.0878
  680MPD2    C310111   0.554   2.764  13.968 -0.1282  0.0933 -0.0519
  680MPD2    C410112   0.494   2.875  13.909  0.5037 -0.2394  0.2200
  680MPD2    C510113   0.380   2.861  13.841  0.4055 -0.4140  0.0912
  680MPD2     H10114   0.560   2.552  13.985 -2.8259 -1.4252 -0.8493
  680MPD2    H110115   0.523   2.975  13.941 -0.5157  0.3865 -0.8249
  680MPD2    H210116   0.245   2.719  13.755  1.2091  0.6495 -2.8069
  680MPD2    H310117   0.315   2.941  13.809  2.6571  0.7538 -1.4829
  680MPD2     N10118   0.667   2.799  14.042  0.1961  0.2445 -0.3154
  680MPD2    H510119   0.703   2.894  14.039  3.3283 -1.0014 -1.7247
  680MPD2    N110120   0.365   2.482  13.835 -0.0103 -0.4897  0.1260
  680MPD2    H710121   0.419   2.410  13.881 -0.5827 -0.0581  1.4901
  681TMC3    C110122   0.282   2.298  13.727 -0.6431 -0.4347  0.2079
  681TMC3    C210123   0.213   2.217  13.814  0.3364 -0.3192  0.3277
  681TMC3    C310124   0.236   2.084  13.826 -0.0331  0.0550 -0.3514
  681TMC3    C410125   0.400   2.262  13.672  0.9720 -0.8265 -0.3438
  681TMC3    C510126   0.433   2.134  13.695  0.3557 -0.3589 -0.3270
  681TMC3    C610127   0.351   2.042  13.761 -0.3620 -0.9079  0.0597
  681TMC3     C10128   0.265   2.438  13.756  0.5865  1.0723 -0.1604
  681TMC3     O10129   0.180   2.501  13.699 -0.1214  0.0963  0.4254
  681TMC3     H10130   0.128   2.257  13.868  0.5817 -0.1317  0.5747
  681TMC3    H110131   0.460   2.342  13.632 -1.3751  0.8956 -0.4066
  681TMC3    H210132   0.372   1.936  13.762  2.1976 -0.3893  0.3943
  681TMC3    C710133   0.577   2.115  13.715 -0.4411 -1.1209 -0.0544
  681TMC3    C810134   0.218   2.031  13.956  0.5117 -0.3543  0.0852
  681TMC3    O110135   0.608   2.026  13.796 -0.4264  0.3975  0.2340
  681TMC3    O210136   0.190   1.912  13.970  0.0040 -0.5265 -0.4342
  682MPD2     C10137   2.177   4.176  10.305  0.8074  0.6044 -0.2863
  682MPD2    C110138   2.155   4.044  10.334  0.1342 -0.0317 -0.5405
  682MPD2    C210139   2.152   4.007  10.466 -0.4623  0.1004 -0.1281
  682MPD2    C310140   2.163   4.096  10.569  0.2770 -0.6310  0.9110
  682MPD2    C410141   2.176   4.231  10.535 -0.6716 -0.8092  0.0366
  682MPD2    C510142   2.191   4.265  10.407 -0.2282  0.1166 -0.2058
  682MPD2     H10143   2.132   3.902  10.485 -0.5085 -0.2722 -2.2427
  682MPD2    H110144   2.168   4.307  10.612  1.8394 -1.0788  0.5697
  682MPD2    H210145   2.180   4.222  10.207  0.2758  0.9567 -0.1391
  682MPD2    H310146   2.209   4.369  10.383 -0.3213 -0.0766 -1.1036
  682MPD2     N10147   2.158   4.056  10.712  0.1068  0.6228  0.1990
  682MPD2    H510148   2.141   4.140  10.767  1.2354  0.6648  0.4714
  682MPD2    N110149   2.134   3.951  10.231  0.0874  0.3369  0.2903
  682MPD2    H710150   2.096   3.860  10.256  0.1754  0.0069 -0.7846
  683TMC3    C110151   2.152   4.047  11.123  0.7932  0.6421 -0.4210
  683TMC3    C210152   2.088   3.945  11.182  0.0975  0.2655 -0.9960
  683TMC3    C310153   2.071   3.824  11.113  0.0960 -0.3107 -0.0233
  683TMC3    C410154   2.178   4.045  10.987 -0.1713  0.3783  0.2508
  683TMC3    C510155   2.137   3.936  10.918  0.3303  0.8708  0.1920
  683TMC3    C610156   2.089   3.826  10.975 -0.2983  0.0833  0.1313
  683TMC3     C10157   2.188   4.159  11.192 -0.2047  0.1225  0.7877
  683TMC3     O10158   2.306   4.199  11.174 -0.2285 -0.2426 -0.0565
  683TMC3     H10159   2.055   3.948  11.285  1.8901 -2.1710 -0.3603
  683TMC3    H110160   2.246   4.120  10.948 -0.7588  0.3197 -0.8837
  683TMC3    H210161   2.055   3.742  10.916 -2.5127  0.5237  0.7793
  683TMC3    C710162   2.140   3.931  10.770 -0.2049 -0.0096 -0.2514
  683TMC3    C810163   1.973   3.736  11.172 -0.9823 -0.1350  0.6762
  683TMC3    O110164   2.129   3.821  10.714  0.5756 -0.1827  0.6460
  683TMC3    O210165   1.901   3.782  11.259 -0.7169  0.0233 -0.7539
  684MPD2     C10166   1.044   2.747  16.207  0.3595 -0.1253  0.4599
  684MPD2    C110167   1.000   2.830  16.102 -0.0168  0.5561 -0.0875
  684MPD2    C210168   0.956   2.959  16.136  0.4932 -0.8159 -0.4007
  684MPD2    C310169   0.983   3.011  16.265 -0.0713 -0.0288 -0.2954
  684MPD2    C410170   1.040   2.929  16.357  0.4868 -0.1720 -0.0544
  684MPD2    C510171   1.067   2.799  16.326  0.2220  0.3309  0.1881
  684MPD2     H10172   0.909   3.023  16.062 -0.3706 -0.7934  0.1731
  684MPD2    H110173   1.059   2.955  16.461 -0.5612 -0.4683  0.2192
  684MPD2    H210174   1.052   2.639  16.196  1.9638  0.2026 -1.5400
  684MPD2    H310175   1.114   2.742  16.406  2.3563 -0.7031 -1.8339
  684MPD2     N10176   0.966   3.148  16.300  0.7970 -0.5253  0.1542
  684MPD2    H510177   0.989   3.168  16.396  0.0995  2.7652 -0.3737
  684MPD2    N110178   0.980   2.786  15.973  0.2932  0.0526 -0.5015
  684MPD2    H710179   0.917   2.846  15.922 -0.5123 -0.4046 -0.0532
  685TMC3    C110180   1.029   2.676  15.767  0.1002  0.9067 -1.0763
  685TMC3    C210181   0.912   2.722  15.716  0.5257  1.0692 -0.5102
  685TMC3    C310182   0.907   2.755  15.585 -0.0442 -1.2226  0.1572
  685TMC3    C410183   1.143   2.677  15.699  0.2038 -0.0279 -0.2519
  685TMC3    C510184   1.144   2.715  15.568 -0.1638 -0.0437 -0.0983
  685TMC3    C610185   1.030   2.749  15.513  0.2147 -0.1194  0.3643
  685TMC3     C10186   1.051   2.683  15.910  0.9843 -0.4258  0.4795
  685TMC3     O10187   1.145   2.629  15.965 -0.1198  0.4694 -0.1161
  685TMC3     H10188   0.818   2.717  15.770  1.2556  3.2746  0.9521
  685TMC3    H110189   1.238   2.642  15.736 -0.8125 -0.1008  2.2685
  685TMC3    H210190   1.032   2.783  15.410 -0.2878  2.2456  1.1276
  685TMC3    C710191   1.247   2.805  15.540  0.3592 -0.7323 -0.1009
  685TMC3    C810192   0.779   2.775  15.513  0.4244  0.0991  0.1067
  685TMC3    O110193   1.249   2.851  15.426  0.0507 -0.2342 -0.1376
  685TMC3    O210194   0.783   2.764  15.390  0.1519  1.0922  0.2557
  686MPD2     C10195   2.175   3.133  15.481  0.2362  0.2349 -0.2959
  686MPD2    C110196   2.174   3.085  15.609 -0.2461 -0.2404 -0.0083
  686MPD2    C210197   2.296   3.085  15.681 -0.6034 -0.6451 -0.4850
  686MPD2    C310198   2.411   3.123  15.621  0.1085  0.0071 -0.4306
  686MPD2    C410199   2.410   3.171  15.495 -0.2153 -0.4145  0.4955
  686MPD2    C510200   2.293   3.171  15.423  0.5504 -0.3919 -0.1731
  686MPD2     H10201   2.296   3.048  15.783  2.6349 -0.8592 -0.5662
  686MPD2    H110202   2.496   3.209  15.441 -0.3400  1.2641  1.4625
  686MPD2    H210203   2.080   3.143  15.430 -2.1404 -2.7564  3.5532
  686MPD2    H310204   2.298   3.210  15.322 -1.3621  1.9841  0.6379
  686MPD2     N10205   2.536   3.084  15.673 -0.0394 -0.1541  0.4484
  686MPD2    H510206   2.617   3.077  15.612 -0.4545 -0.4361 -0.0639
  686MPD2    N110207   2.064   3.008  15.663 -0.1204  0.6404  0.4931
  686MPD2    H710208   1.985   2.996  15.599  0.1614  1.7806 -0.0835
  687TMC3    C110209   2.660   2.933  15.810 -0.3645  0.2033 -0.5865
  687TMC3    C210210   2.606   2.833  15.735 -0.1567 -0.8652 -0.2785
  687TMC3    C310211   2.557   2.717  15.800  0.4701  0.0904  0.6331
  687TMC3    C410212   2.676   2.913  15.948  0.6657  0.2823 -0.0529
  687TMC3    C510213   2.650   2.788  15.999  0.2166  0.3510 -0.0712
  687TMC3    C610214   2.588   2.687  15.927 -0.1321 -0.1602  0.2638
  687TMC3     C10215   2.564   3.048  15.803 -0.1826  0.6384  0.1041
  687TMC3     O10216   2.505   3.071  15.908  0.1401  0.5115  0.6431
  687TMC3     H10217   2.608   2.846  15.627 -0.7197 -2.5645 -0.5007
  687TMC3    H110218   2.716   2.994  16.007  0.8430 -0.5746  1.0087
  687TMC3    H210219   2.568   2.589  15.969 -2.6234 -0.7964 -2.4006
  687TMC3    C710220   2.667   2.784  16.142  0.2345 -0.1374 -0.3701
  687TMC3    C810221   2.427   2.651  15.748  0.1928 -0.4222  0.2397
  687TMC3    O110222   2.697   2.884  16.203 -0.0742 -0.2799  0.3384
  687TMC3    O210223   2.377   2.555  15.800  0.2556 -0.2640 -0.1022
  688MPD2     C10224   1.718   1.686  17.311 -0.2452  0.0711  0.5872
  688MPD2    C110225   1.776   1.562  17.320 -0.0658 -0.1202  0.3960
  688MPD2    C210226   1.852   1.518  17.217 -0.2535 -0.9810 -0.9432
  688MPD2    C310227   1.864   1.588  17.097 -0.0444  0.1728  0.4669
  688MPD2    C410228   1.800   1.707  17.093  0.4337 -0.3727  0.0860
  688MPD2    C510229   1.734   1.759  17.198  0.2962 -0.0435  0.3934
  688MPD2     H10230   1.899   1.421  17.223 -2.9478 -2.2024  0.1042
  688MPD2    H110231   1.808   1.771  17.005 -0.5319 -2.3240 -1.4262
  688MPD2    H210232   1.660   1.735  17.388  0.1727 -0.6480  1.3620
  688MPD2    H310233   1.697   1.861  17.195 -1.1589 -0.6041 -0.4246
  688MPD2     N10234   1.938   1.559  16.980  0.7811 -0.9678 -0.9323
  688MPD2    H510235   1.924   1.614  16.895  0.7383  0.3426 -0.0756
  688MPD2    N110236   1.766   1.483  17.432  0.3234 -0.3500 -0.0582
  688MPD2    H710237   1.819   1.396  17.427  0.6113 -0.1692 -0.1316
  689TMC3    C110238   1.725   1.431  17.654  0.7449 -0.5405  0.0496
  689TMC3    C210239   1.740   1.482   0.025  0.2254  0.1761  0.8420
  689TMC3    C310240   1.745   1.406   0.134  0.0250 -0.7028  0.1423
  689TMC3    C410241   1.711   1.292  17.643  0.2849  0.4444 -0.2395
  689TMC3    C510242   1.716   1.216  17.755 -0.4606  0.1603 -0.7221
  689TMC3    C610243   1.742   1.271   0.125 -0.3402  0.1316  1.0188
  689TMC3     C10244   1.706   1.526  17.550 -0.5749 -0.3893  0.1249
  689TMC3     O10245   1.661   1.636  17.577  0.1122  0.3432  0.2140
  689TMC3     H10246   1.755   1.589   0.021 -0.3518  0.1914 -1.1571
  689TMC3    H110247   1.703   1.243  17.547  0.8756  2.7301 -1.4452
  689TMC3    H210248   1.765   1.207   0.209  1.9595  0.3191  0.5461
  689TMC3    C710249   1.706   1.073  17.742  0.0237  0.6099 -0.0774
  689TMC3    C810250   1.728   1.469   0.264  0.5867 -0.1828  0.2269
  689TMC3    O110251   1.769   1.005   0.068  0.1286  0.3518 -0.3638
  689TMC3    O210252   1.710   1.391   0.357  0.5746 -0.9406  0.0047
  690MPD2     C10253   3.921   3.618  15.695 -0.7598 -0.0856  0.1552
  690MPD2    C110254   3.842   3.639  15.588 -0.2604 -0.1551  0.0781
  690MPD2    C210255   3.901   3.669  15.466  0.8165  0.0340  0.1301
  690MPD2    C310256   4.029   3.708  15.456  0.2260 -0.1594  0.7053
  690MPD2    C410257   4.103   3.706  15.571  0.7154  0.0169  0.1905
  690MPD2    C510258   4.048   3.651  15.684  0.1240  0.0630  0.5904
  690MPD2     H10259   3.829   3.668  15.385 -1.6411  0.8886  2.3144
  690MPD2    H110260   4.201   3.749  15.589  0.5810  0.8183 -0.9513
  690MPD2    H210261   3.886   3.569  15.785 -0.9650  0.5157  0.4069
  690MPD2    H310262   4.118   3.652  15.766 -0.2940  0.6825  0.9357
  690MPD2     N10263   4.092   3.730  15.326  0.4337  0.2687  0.2565
  690MPD2    H510264   4.040   3.690  15.249 -1.0069  1.3396  0.6929
  690MPD2    N110265   3.702   3.610  15.588 -0.3123 -0.2658 -0.2423
  690MPD2    H710266   3.654   3.623  15.499 -2.0615  0.5347  0.8065
  691TMC3    C110267   3.499   3.507  15.646  0.5351 -0.4018 -0.0669
  691TMC3    C210268   3.466   3.499  15.511 -0.7419 -0.7152 -0.0006
  691TMC3    C310269   3.406   3.384  15.471  0.1647 -0.2493 -0.7867
  691TMC3    C410270   3.449   3.411  15.733 -0.1886  0.0931  0.1420
  691TMC3    C510271   3.387   3.299  15.680 -0.3813 -0.2978  0.4831
  691TMC3    C610272   3.365   3.284  15.548 -0.3241  0.8687 -0.0977
  691TMC3     C10273   3.632   3.554  15.685 -0.3427  0.5074  0.8133
  691TMC3     O10274   3.668   3.521  15.797 -0.1120  0.5857  0.6645
  691TMC3     H10275   3.498   3.570  15.436  1.9302 -1.0841  0.7895
  691TMC3    H110276   3.474   3.414  15.839 -0.7085 -1.7994  0.3301
  691TMC3    H210277   3.333   3.188  15.510 -0.7303  0.5094  1.1539
  691TMC3    C710278   3.305   3.220  15.772  1.1856  0.5267 -0.2620
  691TMC3    C810279   3.340   3.402  15.341 -0.0367 -0.2548  0.4416
  691TMC3    O110280   3.327   3.247  15.892 -0.1458  0.0115 -0.4829
  691TMC3    O210281   3.298   3.299  15.286 -0.0138 -0.1351 -0.2806
  692TMC3    C110282   0.458   4.503  15.755 -0.5917 -0.3242 -0.1488
  692TMC3    C210283   0.582   4.563  15.760 -0.2129 -0.3431 -0.6619
  692TMC3    C310284   0.698   4.493  15.787  0.0425  0.0555 -0.1506
  692TMC3    C410285   0.451   4.366  15.751 -0.3900  0.4136  0.9837
  692TMC3    C510286   0.567   4.296  15.781  0.0229 -0.4504 -0.6439
  692TMC3    C610287   0.684   4.358  15.824 -0.0740 -0.4828 -0.5058
  692TMC3     C10288   0.338   4.576  15.806  0.2523 -0.8998 -0.6434
  692TMC3     O10289   0.246   4.521  15.864  0.1032  0.3631  0.6764
  692TMC3     H10290   0.588   4.668  15.734  1.9069 -0.0868  0.9539
  692TMC3    H110291   0.354   4.318  15.738  0.0502 -1.0154  3.0488
  692TMC3    H210292   0.774   4.296  15.824  1.1021  1.2145 -0.7313
  692TMC3    C710293   0.547   4.155  15.775 -0.4122 -0.6837 -0.0326
  692TMC3    C810294   0.784   4.556  15.889  0.1721  0.4105 -0.3419
  692TMC3    O110295   0.447   4.112  15.712  0.3892 -0.2578 -0.2982
  692TMC3    O210296   0.858   4.483  15.952 -0.3608  1.0431  1.0132
  693MPD2     C10297   4.488   2.999  10.022  0.0133  0.2532 -0.1694
  693MPD2    C110298   4.484   3.014  10.160 -0.1884 -0.3124 -0.5836
  693MPD2    C210299   4.576   2.957  10.239 -0.1731  0.3239 -0.7588
  693MPD2    C310300   4.680   2.887  10.187 -0.0250 -0.4731  0.0553
  693MPD2    C410301   4.676   2.865  10.047  0.5511 -1.2481 -0.3323
  693MPD2    C510302   4.587   2.922   9.966  0.1830  0.7603 -0.2452
  693MPD2     H10303   4.577   2.971  10.346 -1.2074 -1.1775 -0.5573
  693MPD2    H110304   0.021   2.817   9.999 -0.8829 -1.1326 -2.9753
  693MPD2    H210305   4.404   3.025   9.958 -0.2687  0.8471  0.4332
  693MPD2    H310306   4.584   2.893   9.862  1.3316  0.2728 -0.1359
  693MPD2     N10307   0.033   2.815  10.261  0.6993 -0.0393 -0.4060
  693MPD2    H510308   0.123   2.799  10.218  0.2904 -0.9673 -0.9299
  693MPD2    N110309   4.363   3.071  10.215 -0.1548 -0.2756 -0.0679
  693MPD2    H710310   4.288   3.092  10.149 -0.0454 -1.0767 -0.4408
  694TMC3    C110311   4.190   3.097  10.382 -0.7414 -0.2424 -0.1812
  694TMC3    C210312   4.096   3.061  10.291 -0.1736 -0.1456  0.5033
  694TMC3    C310313   3.971   3.024  10.341 -0.1082 -0.1919 -0.1083
  694TMC3    C410314   4.163   3.119  10.519  0.2473 -0.1340 -0.1119
  694TMC3    C510315   4.036   3.090  10.561  0.2595 -0.2992 -0.1995
  694TMC3    C610316   3.936   3.044  10.470  0.0026  0.1062  0.5969
  694TMC3     C10317   4.328   3.084  10.346 -0.3554  0.3500 -0.7666
  694TMC3     O10318   4.405   3.088  10.439  0.1186 -0.0346 -0.6938
  694TMC3     H10319   4.128   3.038  10.191  0.7013  0.2377  0.6979
  694TMC3    H110320   4.241   3.141  10.591  1.4093 -2.6940 -0.5965
  694TMC3    H210321   3.839   3.007  10.502  0.4242 -1.0297  0.5311
  694TMC3    C710322   3.999   3.089  10.701  0.2525 -0.6717 -0.2411
  694TMC3    C810323   3.877   2.971  10.239 -0.2618  0.1994 -0.3253
  694TMC3    O110324   3.885   3.057  10.734  0.3681  0.3823 -0.0112
  694TMC3    O210325   3.922   2.954  10.124 -0.7725 -0.1965  0.7579
  695MPD2     C10326   1.458   4.657  13.157 -0.4024 -0.2867  0.3977
  695MPD2    C110327   1.384   4.599  13.258 -0.1926 -0.2408  0.0072
  695MPD2    C210328   1.247   4.578  13.235  0.3371  0.5118 -0.0228
  695MPD2    C310329   1.187   4.629  13.126 -0.1643 -0.0830 -0.0186
  695MPD2    C410330   1.259   4.696  13.029 -0.0788 -0.5081  0.2139
  695MPD2    C510331   1.394   4.711  13.043  0.1640 -0.7328  0.5052
  695MPD2     H10332   1.189   4.525  13.310  0.3321 -0.9798 -1.0772
  695MPD2    H110333   1.213   4.737  12.940  1.1351 -1.2242 -0.7468
  695MPD2    H210334   1.566   4.664  13.168 -0.2628 -1.4203 -0.2117
  695MPD2    H310335   1.445   0.015  12.958  0.4937  0.9802  1.5879
  695MPD2     N10336   1.050   4.619  13.120  0.0839 -0.3077  0.0787
  695MPD2    H510337   0.997   4.599  13.205  0.2185  2.2727  0.7845
  695MPD2    N110338   1.435   4.562  13.383  0.0380  0.6776  0.0588
  695MPD2    H710339   1.372   4.527  13.455 -2.2825  0.4899 -2.0800
  696TMC3    C110340   0.834   4.641  13.040  0.2970  0.0773  0.1181
  696TMC3    C210341   0.802   4.551  13.137  0.5005 -0.1106 -0.6503
  696TMC3    C310342   0.692   4.582  13.213  0.0489  0.1795  0.0920
  696TMC3    C410343   0.768   0.017  13.018  0.4273  0.7120  0.0683
  696TMC3    C510344   0.676   0.055  13.112 -0.1968  0.0746  0.2304
  696TMC3    C610345   0.634   4.703  13.200  0.2894 -0.0634 -0.4409
  696TMC3     C10346   0.973   4.659  13.012  0.1385 -0.5735  0.0576
  696TMC3     O10347   1.001   4.684  12.894 -0.2060 -0.2291  0.1382
  696TMC3     H10348   0.849   4.453  13.144  0.5869 -0.1544 -1.9205
  696TMC3    H110349   0.805   0.090  12.946  1.1043  0.9502  0.6606
  696TMC3    H210350   0.553   4.730  13.268 -1.8308 -1.8545 -2.2699
  696TMC3    C710351   0.622   0.190  13.110  0.2356 -0.0887 -1.1482
  696TMC3    C810352   0.673   4.512  13.339  0.0524  0.4662  0.3039
  696TMC3    O110353   0.634   0.237  13.000  0.1787 -0.4475 -0.4031
  696TMC3    O210354   0.626   4.580  13.429 -0.4431  0.1764  0.2725
  697MPD2     C10355   0.261   1.412  15.519 -0.7844 -0.5610 -0.8645
  697MPD2    C110356   0.273   1.344  15.395  0.1200 -0.2194 -0.1668
  697MPD2    C210357   0.286   1.421  15.282  0.6605  0.3498  0.0342
  697MPD2    C310358   0.301   1.556  15.293  0.4094  0.1078  0.3731
  697MPD2    C410359   0.303   1.621  15.411 -0.6789 -0.2073 -0.4128
  697MPD2    C510360   0.280   1.551  15.528 -0.0716  0.7146  0.2703
  697MPD2     H10361   0.301   1.373  15.186  2.2502 -0.7733  0.8231
  697MPD2    H110362   0.322   1.727  15.422  1.6286 -0.8336  1.6890
  697MPD2    H210363   0.255   1.368  15.618  0.4674 -2.0641 -1.4460
  697MPD2    H310364   0.283   1.601  15.624  0.2393  0.1044  0.5850
  697MPD2     N10365   0.310   1.626  15.165 -0.4746 -1.0452  0.2268
  697MPD2    H510366   0.290   1.573  15.081 -1.0876 -0.3889 -0.0350
  697MPD2    N110367   0.281   1.201  15.378 -0.7217  0.5848  0.0522
  697MPD2    H710368   0.313   1.163  15.290  1.1260 -0.8768  1.3547
  698TMC3    C110369   0.326   1.811  15.009 -0.8793 -0.4876 -0.1976
  698TMC3    C210370   0.386   1.938  14.997 -0.4552 -0.4252 -0.2387
  698TMC3    C310371   0.350   2.016  14.891 -0.4919  0.8470 -0.4604
  698TMC3    C410372   0.231   1.757  14.923  0.1176  0.3562  0.2464
  698TMC3    C510373   0.191   1.842  14.817 -0.8724  0.1726 -0.4442
  698TMC3    C610374   0.256   1.964  14.798 -0.7328 -0.3010 -0.8763
  698TMC3     C10375   0.344   1.755  15.143  0.1121 -0.3347  0.1656
  698TMC3     O10376   0.374   1.834  15.227  0.1158 -0.3875 -0.1165
  698TMC3     H10377   0.462   1.970  15.067  0.4090  0.3888 -1.5557
  698TMC3    H110378   0.181   1.663  14.941 -0.5099  0.5680 -0.3632
  698TMC3    H210379   0.232   2.025  14.712  0.4858 -0.2847 -1.1967
  698TMC3    C710380   0.123   1.789  14.701  0.1629  0.0551 -0.2304
  698TMC3    C810381   0.340   2.162  14.908 -0.0574 -0.1681 -0.5808
  698TMC3    O110382   0.109   1.861  14.603 -0.0641  0.1147 -0.6872
  698TMC3    O210383   0.268   2.222  14.830 -0.5299  0.1620 -0.0274
  699TMC3    C110384   0.186   0.373  13.164  0.0272  0.1454 -0.2286
  699TMC3    C210385   0.226   0.243  13.177 -0.1461 -0.5777 -0.4238
  699TMC3    C310386   0.210   0.189  13.309  0.3935  0.8262 -0.1678
  699TMC3    C410387   0.129   0.443  13.267 -0.0936  0.1033 -0.0896
  699TMC3    C510388   0.118   0.388  13.391 -0.6689 -0.2689 -0.1150
  699TMC3    C610389   0.156   0.260  13.418 -0.2256 -0.2277 -0.2062
  699TMC3     C10390   0.215   0.442  13.043  1.0244  0.8293  0.3694
  699TMC3     O10391   0.159   0.548  13.023  0.0937 -0.4344 -0.2064
  699TMC3     H10392   0.260   0.184  13.093  0.0345  1.3780 -1.7326
  699TMC3    H110393   0.094   0.542  13.239 -2.2099 -0.2722  1.2743
  699TMC3    H210394   0.146   0.216  13.516  0.9055 -0.0833 -0.0270
  699TMC3    C710395   4.738   0.432  13.465  0.0189  0.4704  0.3966
  699TMC3    C810396   0.236   0.044  13.333 -0.0311  0.0056  0.3416
  699TMC3    O110397   0.002   0.384  13.576 -0.7743  0.0363  0.1122
  699TMC3    O210398   0.251   0.017  13.455  0.2388  0.6389  0.3261
  700TMC3    C110399   4.059   1.709  17.081 -0.0635 -0.0529  0.1674
  700TMC3    C210400   4.077   1.598  17.155 -0.8821 -1.3807  0.1384
  700TMC3    C310401   4.079   1.613  17.291  0.9739  0.2773  0.1409
  700TMC3    C410402   4.018   1.828  17.131  0.2969 -0.0299  0.6777
  700TMC3    C510403   4.019   1.846  17.272 -0.0563  0.2542 -0.7614
  700TMC3    C610404   4.058   1.737  17.349 -0.1948 -0.2281 -0.5039
  700TMC3     C10405   4.176   1.723  16.989  0.7459 -0.0196  0.5941
  700TMC3     O10406   4.222   1.619  16.949 -0.3509 -0.3325 -0.5139
  700TMC3     H10407   4.108   1.505  17.107 -0.1692 -1.0690 -0.0055
  700TMC3    H110408   4.015   1.909  17.059 -0.1085 -1.5719 -1.0645
  700TMC3    H210409   4.046   1.741  17.456 -1.0499 -0.2126 -0.5954
  700TMC3    C710410   4.088   1.967  17.310  0.1330  0.3478  0.1935
  700TMC3    C810411   4.160   1.512  17.349  0.6177  0.1006 -0.1605
  700TMC3    O110412   4.159   2.025  17.225 -0.2238 -0.2836  0.0487
  700TMC3    O210413   4.261   1.560  17.405 -0.5859  0.0906 -0.0078
  701TMC3    C110414   4.351   0.617  15.734 -0.5320 -0.1371  0.7524
  701TMC3    C210415   4.367   0.536  15.623  0.1363  0.4652 -0.1323
  701TMC3    C310416   4.460   0.582  15.529 -0.4003 -0.6171 -0.1619
  701TMC3    C410417   4.419   0.735  15.757 -0.5017  0.4905  0.3575
  701TMC3    C510418   4.508   0.769  15.659 -0.0025  0.0686 -0.6359
  701TMC3    C610419   4.526   0.696  15.548  0.8119  0.9268  0.9031
  701TMC3     C10420   4.245   0.585  15.820  1.0959  0.9152 -0.1930
  701TMC3     O10421   4.223   0.466  15.822  0.2290 -0.2368  0.7503
  701TMC3     H10422   4.308   0.448  15.601  1.8111 -0.5153 -0.7789
  701TMC3    H110423   4.384   0.803  15.833 -1.0945  0.6991 -0.0951
  701TMC3    H210424   4.591   0.728  15.467  1.1124  0.2000  0.8464
  701TMC3    C710425   4.541   0.916  15.641  0.3168  0.2548  0.2812
  701TMC3    C810426   4.489   0.503  15.410  0.0341  0.3111 -0.4810
  701TMC3    O110427   4.554   0.949  15.527  0.5309 -0.6558 -0.1314
  701TMC3    O210428   4.529   0.570  15.319  0.4378  0.3186 -0.0288
  702MPD2     C10429   3.411   3.142  10.398  0.4131  0.4265  0.2611
  702MPD2    C110430   3.360   3.243  10.474 -0.6684  0.3504 -0.3363
  702MPD2    C210431   3.369   3.376  10.435 -0.1032 -0.1341  0.0417
  702MPD2    C310432   3.430   3.413  10.324  0.5659 -0.1095  0.4362
  702MPD2    C410433   3.478   3.314  10.245 -0.0495 -0.1021  0.2442
  702MPD2    C510434   3.469   3.185  10.282 -0.2612  0.2208 -0.3986
  702MPD2     H10435   3.338   3.450  10.507  0.9377 -0.2011  0.5592
  702MPD2    H110436   3.523   3.326  10.147  0.4823  0.9826  0.6207
  702MPD2    H210437   3.413   3.039  10.431  0.4195 -0.0847 -1.3279
  702MPD2    H310438   3.504   3.114  10.208  0.7311 -0.6264  0.8761
  702MPD2     N10439   3.440   3.556  10.301 -0.0441  0.3107  0.4176
  702MPD2    H510440   3.383   3.616  10.360 -2.7148 -3.6840  1.8656
  702MPD2    N110441   3.301   3.222  10.599  0.6162  0.4219 -0.6836
  702MPD2    H710442   3.266   3.307  10.640 -1.5515 -0.5572 -0.5111
  703TMC3    C110443   3.507   3.754  10.184 -0.2192  0.0053  0.4321
  703TMC3    C210444   3.387   3.818  10.214 -1.0655  0.3205  0.1530
  703TMC3    C310445   3.390   3.954  10.214  0.8119  0.0121  0.0566
  703TMC3    C410446   3.621   3.829  10.167 -0.1086 -0.2881  0.4379
  703TMC3    C510447   3.620   3.968  10.172  0.3096  0.3312  0.2598
  703TMC3    C610448   3.499   4.026  10.185  0.2132  1.0587 -0.0317
  703TMC3     C10449   3.517   3.615  10.199 -0.7699 -0.0901  0.2647
  703TMC3     O10450   3.603   3.555  10.137 -0.0449 -0.4072  0.2240
  703TMC3     H10451   3.302   3.751  10.217 -0.8131  0.1100  2.6795
  703TMC3    H110452   3.718   3.789  10.139 -0.6177  0.3474 -2.1545
  703TMC3    H210453   3.483   4.133  10.176 -0.4725  0.9244 -0.4162
  703TMC3    C710454   3.705   4.030  10.075 -0.1017 -0.4305  0.5241
  703TMC3    C810455   3.261   4.024  10.211 -0.6505 -0.5822  0.1489
  703TMC3    O110456   3.741   3.968   9.976  0.0542  0.2578  0.9003
  703TMC3    O210457   3.265   4.130  10.161 -0.8348  0.1254  0.2532
  704TMC3    C110458   1.141   2.089  12.412  0.5513 -0.0158  0.2089
  704TMC3    C210459   1.179   2.026  12.293  0.8350 -0.0705 -0.3624
  704TMC3    C310460   1.283   1.934  12.293  0.0208  0.3043 -0.5512
  704TMC3    C410461   1.214   2.058  12.528 -0.1740  0.1661  0.2268
  704TMC3    C510462   1.310   1.964  12.521  0.3195  0.1662 -0.2096
  704TMC3    C610463   1.349   1.905  12.404  0.3463 -0.3215  0.5767
  704TMC3     C10464   1.013   2.170  12.416  0.1742 -0.1953 -0.4424
  704TMC3     O10465   0.990   2.203  12.535 -0.0128  0.2587 -0.2424
  704TMC3     H10466   1.136   2.041  12.195 -2.1664 -1.9113  0.6452
  704TMC3    H110467   1.184   2.091  12.626 -0.6675 -1.7650  0.7205
  704TMC3    H210468   1.443   1.852  12.390  0.1458 -0.3806 -0.5671
  704TMC3    C710469   1.350   1.912  12.652  0.5589 -0.1401 -0.7562
  704TMC3    C810470   1.304   1.846  12.188 -0.3703 -0.4322  1.2092
  704TMC3    O110471   1.369   1.992  12.741  0.4124 -0.4006  0.5851
  704TMC3    O210472   1.403   1.779  12.192  0.6263  0.1248  0.4138
  705MPD2     C10473   1.070   3.992  16.474  0.1359  0.2424 -0.4470
  705MPD2    C110474   1.065   4.119  16.419  0.7811  0.7247 -0.8520
  705MPD2    C210475   0.978   4.216  16.471  0.1513  0.2116 -0.5495
  705MPD2    C310476   0.879   4.178  16.567  0.0378  0.7686 -0.5277
  705MPD2    C410477   0.905   4.064  16.635 -0.6883  0.6169 -0.6425
  705MPD2    C510478   0.992   3.968  16.588  0.1232  0.5852  0.1886
  705MPD2     H10479   0.957   4.304  16.411  1.4646  0.2718 -0.9303
  705MPD2    H110480   0.842   4.039  16.719 -0.2740  1.5905 -0.0382
  705MPD2    H210481   1.129   3.913  16.428 -1.6831 -0.6440 -1.2638
  705MPD2    H310482   0.990   3.865  16.622  1.4148  0.1146 -1.1754
  705MPD2     N10483   0.768   4.257  16.609 -0.2756  0.5579 -0.2758
  705MPD2    H510484   0.699   4.209  16.666  1.1001  0.5126  1.3568
  705MPD2    N110485   1.139   4.151  16.304 -0.3458  0.7603  0.3330
  705MPD2    H710486   1.120   4.240  16.261 -2.9271  0.4231  0.7814
  706TMC3    C110487   1.287   4.104  15.870 -0.3907 -0.2501 -0.6624
  706TMC3    C210488   1.291   4.241  15.850  0.1222 -0.0808  0.6499
  706TMC3    C310489   1.278   4.313  15.962  0.0912  0.1909 -0.0535
  706TMC3    C410490   1.276   4.046  15.998  0.1982 -0.0565  0.4255
  706TMC3    C510491   1.264   4.129  16.104  0.1538 -0.3375  0.1806
  706TMC3    C610492   1.259   4.264  16.091  0.0573 -0.1874  0.3161
  706TMC3     C10493   1.298   4.015  15.761 -1.5653 -0.5086 -0.2040
  706TMC3     O10494   1.217   3.924  15.740  0.5714 -0.4029 -0.1534
  706TMC3     H10495   1.302   4.294  15.756 -0.1563  0.4507  0.9143
  706TMC3    H110496   1.290   3.940  16.010 -0.6687 -0.4510 -2.0574
  706TMC3    H210497   1.265   4.329  16.179 -0.6854 -1.1466  1.0735
  706TMC3    C710498   1.209   4.067  16.224 -0.2961  0.9636  0.3765
  706TMC3    C810499   1.235   4.445  15.944  0.0699 -0.2227 -0.5939
  706TMC3    O110500   1.221   3.946  16.235  0.0548 -0.0996  1.0569
  706TMC3    O210501   1.181   4.471  15.838  0.4156 -0.9630 -0.0596
  707TMC3    C110502   2.270   2.926   1.374  0.1886 -0.2716 -0.9195
  707TMC3    C210503   2.356   2.953   1.473 -0.9538  0.4918 -0.5041
  707TMC3    C310504   2.322   2.921   1.600  0.0620 -0.1194  0.5758
  707TMC3    C410505   2.159   2.859   1.396 -0.0675 -0.1543 -0.1681
  707TMC3    C510506   2.126   2.823   1.527 -0.0490  0.1432  0.0965
  707TMC3    C610507   2.205   2.856   1.630 -0.1197  0.3909  0.3848
  707TMC3     C10508   2.327   2.938   1.240  0.6923 -0.0961  0.7473
  707TMC3     O10509   2.441   2.980   1.234 -0.1040 -0.3819  0.3808
  707TMC3     H10510   2.443   3.018   1.467  0.7035 -1.9840 -3.2997
  707TMC3    H110511   2.099   2.819   1.315 -0.8652 -2.3097  1.4624
  707TMC3    H210512   2.183   2.820   1.730 -0.5600  0.2022  0.2220
  707TMC3    C710513   2.048   2.702   1.542 -1.0282 -0.5240 -0.3171
  707TMC3    C810514   2.431   2.899   1.694  0.2794 -0.2037  0.0095
  707TMC3    O110515   2.070   2.615   1.459 -0.1431 -0.7049 -0.1011
  707TMC3    O210516   2.410   2.871   1.811 -0.0689  0.0860  0.0711
  708MPD2     C10517   4.201   2.995  13.599 -0.0082  0.3157 -0.4838
  708MPD2    C110518   4.110   2.966  13.698  0.4403  0.1373  0.4692
  708MPD2    C210519   4.157   2.902  13.809  0.2889 -0.4545  0.3141
  708MPD2    C310520   4.296   2.871  13.823 -0.3801  0.2209  0.2735
  708MPD2    C410521   4.377   2.916  13.722 -0.6187  0.5055 -0.0243
  708MPD2    C510522   4.329   2.977  13.617  0.9229  0.1957  0.1088
  708MPD2     H10523   4.095   2.857  13.885 -2.5505 -0.0751 -1.7705
  708MPD2    H110524   4.484   2.900  13.717 -0.9433 -1.0807 -1.9430
  708MPD2    H210525   4.167   3.051  13.513 -1.4986  0.2632  0.0652
  708MPD2    H310526   4.399   3.000  13.538 -0.1579  1.0729 -0.5935
  708MPD2     N10527   4.350   2.815  13.942 -0.2461  0.1973 -0.1793
  708MPD2    H510528   4.451   2.817  13.947 -0.3221  1.8322  0.8964
  708MPD2    N110529   3.974   2.987  13.692  0.1208 -0.3448 -0.5492
  708MPD2    H710530   3.926   2.959  13.777 -2.3546  0.2223 -1.7801
  709TMC3    C110531   3.770   3.031  13.624  0.1417 -0.9244 -0.2078
  709TMC3    C210532   3.708   2.946  13.541 -0.1349 -0.8600  0.4549
  709TMC3    C310533   3.621   2.861  13.597  0.1377 -0.5584 -0.4620
  709TMC3    C410534   3.747   3.039  13.756 -0.5447 -0.8010  0.1349
  709TMC3    C510535   3.660   2.948  13.817 -1.1607  0.3621  0.4848
  709TMC3    C610536   3.600   2.856  13.734  0.0611 -0.0045  0.4866
  709TMC3     C10537   3.907   3.042  13.591 -0.2984  0.7471  0.0911
  709TMC3     O10538   3.943   3.060  13.475  0.2969 -0.2005  0.3714
  709TMC3     H10539   3.730   2.947  13.435  0.3386 -1.0352  0.5529
  709TMC3    H110540   3.798   3.116  13.812 -0.8887  1.2244 -2.3563
  709TMC3    H210541   3.540   2.778  13.779  0.6776 -0.7645 -0.0037
  709TMC3    C710542   3.732   2.879  13.923  0.4763 -0.3300  0.3730
  709TMC3    C810543   3.523   2.798  13.516  0.9423 -0.3794 -0.3311
  709TMC3    O110544   3.844   2.917  13.948 -0.4007 -0.4544  0.6178
  709TMC3    O210545   3.482   2.690  13.553  0.2459  0.0886  0.8915
  710TMC3    C110546   0.344   3.723   0.258  0.8176  0.3342  0.5882
  710TMC3    C210547   0.388   3.730   0.128  0.1698 -0.2007  0.2133
  710TMC3    C310548   0.418   3.612   0.067  0.4943 -0.1069  0.5217
  710TMC3    C410549   0.328   3.605   0.331  0.5045 -0.4663 -0.5163
  710TMC3    C510550   0.375   3.490   0.268 -0.0691 -0.4927 -0.5422
  710TMC3    C610551   0.420   3.489   0.137  0.2930 -0.2703 -0.3243
  710TMC3     C10552   0.314   3.851   0.329 -0.7131 -0.2822 -0.0714
  710TMC3     O10553   0.315   3.948   0.258 -0.2078 -0.7911  0.4749
  710TMC3     H10554   0.400   3.824   0.076  0.4444  0.3783  1.3220
  710TMC3    H110555   0.280   3.604   0.428  0.1728 -0.8015 -0.6821
  710TMC3    H210556   0.470   3.401   0.097 -0.9280 -0.7155 -0.8478
  710TMC3    C710557   0.349   3.362   0.333 -0.5096 -0.4352 -0.6248
  710TMC3    C810558   0.440   3.611  17.679 -0.3755 -0.1863  0.5642
  710TMC3    O110559   0.325   3.365   0.453  0.1820 -0.2366 -0.4914
  710TMC3    O210560   0.500   3.513  17.637  0.0154  0.4934  0.1307
  711TMC3    C110561   0.025   0.345  14.831 -0.1197  0.1195  0.0122
  711TMC3    C210562   0.012   0.349  14.970 -0.2300 -0.0837  1.5518
  711TMC3    C310563   0.118   0.367  15.042  0.6002 -0.1442 -0.4523
  711TMC3    C410564   0.151   0.369  14.777  0.3547  0.0284  1.0069
  711TMC3    C510565   0.262   0.386  14.852 -0.0148  0.4860 -0.5069
  711TMC3    C610566   0.245   0.399  14.987  0.1480 -0.3286  0.3014
  711TMC3     C10567   4.698   0.240  14.762 -0.3060  0.0829 -0.3730
  711TMC3     O10568   4.687   0.247  14.643 -0.5186  0.2745  0.3578
  711TMC3     H10569   4.659   0.309  15.007 -0.7085 -0.1133  0.3034
  711TMC3    H110570   0.166   0.354  14.671 -1.1232 -2.8864  1.2079
  711TMC3    H210571   0.331   0.416  15.051 -0.5189 -2.0237  1.6352
  711TMC3    C710572   0.367   0.287  14.828 -0.3535 -0.4243  0.0093
  711TMC3    C810573   0.130   0.263  15.146  0.0565  0.0530  0.4026
  711TMC3    O110574   0.464   0.293  14.901 -0.5197 -0.0926 -0.1502
  711TMC3    O210575   0.083   0.156  15.113  0.3631 -0.2214  0.0246
  712MPD2     C10576   1.240   1.315  14.074 -0.2391  0.2191  0.0749
  712MPD2    C110577   1.136   1.407  14.045  0.2679  0.4361  0.8355
  712MPD2    C210578   1.163   1.538  14.039 -0.4367 -0.5023  0.2642
  712MPD2    C310579   1.291   1.585  14.059  0.0985 -0.3396 -0.1918
  712MPD2    C410580   1.397   1.494  14.068 -0.3900  0.0781  0.3543
  712MPD2    C510581   1.369   1.361  14.081 -0.3589  0.6542 -0.0787
  712MPD2     H10582   1.076   1.601  14.025 -0.6385 -0.2324  2.7901
  712MPD2    H110583   1.497   1.527  14.094 -0.3327 -0.0199  0.2567
  712MPD2    H210584   1.230   1.208  14.067 -0.7738  0.0873  2.6324
  712MPD2    H310585   1.450   1.291  14.102 -2.5900 -1.3021  2.0878
  712MPD2     N10586   1.329   1.709  14.020  0.3232 -0.0755 -0.0757
  712MPD2    H510587   1.428   1.732  14.009  0.1086  2.0189  2.4745
  712MPD2    N110588   0.997   1.367  14.031  0.1620  0.2202 -0.7665
  712MPD2    H710589   0.928   1.434  13.998 -1.8972 -1.9684 -0.9230
  713TMC3    C110590   1.296   1.929  13.949  0.1974 -0.3729  0.1737
  713TMC3    C210591   1.403   1.910  13.874 -0.2406 -0.3702 -0.5202
  713TMC3    C310592   1.468   2.020  13.834  0.4980  0.3883  0.5390
  713TMC3    C410593   1.264   2.052  14.000 -0.4577  0.1391  0.1272
  713TMC3    C510594   1.340   2.159  13.966 -0.1127  0.7910 -1.0072
  713TMC3    C610595   1.440   2.143  13.882  0.2988  0.8419 -0.4254
  713TMC3     C10596   1.241   1.818  14.018  0.1888  0.0358  0.4335
  713TMC3     O10597   1.128   1.831  14.066  0.5482 -0.1112  0.5549
  713TMC3     H10598   1.425   1.819  13.818  0.6483  0.5698 -1.7031
  713TMC3    H110599   1.175   2.061  14.061  0.4506  0.6541  1.3625
  713TMC3    H210600   1.499   2.230  13.857  1.1736  0.6171  0.8892
  713TMC3    C710601   1.305   2.296  14.004 -1.3060 -0.1701  0.5533
  713TMC3    C810602   1.593   2.002  13.764 -0.2513  0.3857 -0.4224
  713TMC3    O110603   1.398   2.370  14.029  0.6453 -0.2168 -0.3510
  713TMC3    O210604   1.638   2.100  13.706 -0.2552  0.8263 -0.5541
  714MPD2     C10605   3.633   4.370   1.745  0.0339  0.0648 -0.7582
  714MPD2    C110606   3.666   4.328   1.616  0.2184 -0.2394 -0.7511
  714MPD2    C210607   3.583   4.358   1.510 -0.0903  0.3153 -0.1081
  714MPD2    C310608   3.463   4.423   1.523 -0.3508 -0.1774  0.1171
  714MPD2    C410609   3.423   4.455   1.656 -0.3888  0.1611  0.0020
  714MPD2    C510610   3.506   4.423   1.761 -0.7348 -0.2096 -0.6704
  714MPD2     H10611   3.610   4.331   1.409 -1.0346 -2.8375  0.4788
  714MPD2    H110612   3.328   4.506   1.667  0.0370  0.3189  3.1291
  714MPD2    H210613   3.691   4.337   1.830 -2.1656  2.1934  1.5754
  714MPD2    H310614   3.462   4.434   1.860  0.6212 -0.1860 -0.0696
  714MPD2     N10615   3.386   4.444   1.409 -0.2491  0.1634  0.5594
  714MPD2    H510616   3.427   4.405   1.324 -0.4217 -0.5263  0.7863
  714MPD2    N110617   3.793   4.260   1.601 -0.1996  0.1754 -0.4242
  714MPD2    H710618   3.855   4.248   1.680 -0.3950 -1.1104 -0.4641
  715TMC3    C110619   3.978   4.163   1.501  0.1146 -0.1390  0.2429
  715TMC3    C210620   4.027   4.069   1.413 -0.2855 -0.2454 -0.4636
  715TMC3    C310621   4.165   4.057   1.418  0.2871  0.6174 -0.3933
  715TMC3    C410622   4.060   4.245   1.583 -0.3561  0.5479  0.0444
  715TMC3    C510623   4.194   4.221   1.581  0.0946 -0.0610 -0.4820
  715TMC3    C610624   4.246   4.131   1.497  0.3262 -1.2464 -0.5920
  715TMC3     C10625   3.847   4.208   1.482  0.7775 -0.4379 -0.0494
  715TMC3     O10626   3.781   4.176   1.384 -0.3926  0.5154  0.3207
  715TMC3     H10627   3.963   4.000   1.360 -1.4295  0.2133  0.3242
  715TMC3    H110628   4.012   4.336   1.619 -0.8877  0.2806  0.0111
  715TMC3    H210629   4.354   4.118   1.496  0.2873 -1.6385  0.7012
  715TMC3    C710630   4.292   4.307   1.638  0.5355 -0.0620  0.4409
  715TMC3    C810631   4.212   3.953   1.329  0.0589  0.3814  0.0398
  715TMC3    O110632   4.412   4.299   1.606 -0.5488 -0.0589  0.2319
  715TMC3    O210633   4.139   3.924   1.236 -0.8168 -0.4628 -0.1920
  716MPD2     C10634   3.046   3.404   9.753 -0.4372  0.2283 -0.0809
  716MPD2    C110635   3.076   3.445   9.621 -0.1391  0.7028  0.4730
  716MPD2    C210636   3.133   3.357   9.530  0.1146 -0.3412 -0.1538
  716MPD2    C310637   3.157   3.223   9.568  0.4310  0.3663  0.2847
  716MPD2    C410638   3.126   3.185   9.697  0.1824  0.3938  0.0179
  716MPD2    C510639   3.073   3.275   9.785  0.7436  0.7204 -0.7649
  716MPD2     H10640   3.167   3.395   9.435  0.8728 -2.7840 -0.8521
  716MPD2    H110641   3.158   3.091   9.741 -0.2260  1.3966  2.4443
  716MPD2    H210642   3.004   3.470   9.828 -0.2128  1.3286 -0.9232
  716MPD2    H310643   3.054   3.239   9.885 -0.6811  1.1698 -0.8794
  716MPD2     N10644   3.217   3.142   9.472  0.4335  0.4582  0.3901
  716MPD2    H510645   3.248   3.185   9.385 -1.0940  3.0729  1.1475
  716MPD2    N110646   3.060   3.589   9.602 -0.0055 -0.1128  0.0336
  716MPD2    H710647   3.018   3.643   9.678  1.0519 -1.5113  1.6100
  717TMC3    C110648   3.232   2.950   9.347 -0.0928  0.0691  0.2623
  717TMC3    C210649   3.164   3.014   9.247 -0.3236 -0.0817  0.4606
  717TMC3    C310650   3.215   3.005   9.124 -0.2656 -0.3316 -0.0316
  717TMC3    C410651   3.349   2.888   9.334 -0.3144 -0.4518 -0.3763
  717TMC3    C510652   3.402   2.881   9.208 -0.8583 -0.7713  0.2993
  717TMC3    C610653   3.334   2.941   9.103 -0.9380 -0.9111 -0.0537
  717TMC3     C10654   3.216   3.005   9.477  0.1624 -0.0563 -0.2641
  717TMC3     O10655   3.185   2.923   9.559  0.4292  0.4094 -0.1592
  717TMC3     H10656   3.079   3.079   9.261  0.5613  1.2946 -0.5069
  717TMC3    H110657   3.407   2.853   9.418  1.3275  1.4703 -0.7167
  717TMC3    H210658   3.383   2.940   9.006 -0.7751 -0.6942  0.0287
  717TMC3    C710659   3.534   2.813   9.197 -0.6272  0.6327  0.2848
  717TMC3    C810660   3.142   3.080   9.017 -0.4405 -0.0023 -0.0398
  717TMC3    O110661   3.600   2.796   9.300  0.5317  0.8632  0.3057
  717TMC3    O210662   3.050   3.149   9.046 -0.0775 -0.0753 -0.0695
  718MPD2     C10663   2.761   1.855  12.622  0.1288  0.5194 -0.5292
  718MPD2    C110664   2.664   1.904  12.543 -0.2241 -0.2427  0.0389
  718MPD2    C210665   2.531   1.881  12.581  0.0628 -1.2015  0.3481
  718MPD2    C310666   2.510   1.823  12.707 -0.0777 -0.5715 -0.0581
  718MPD2    C410667   2.610   1.774  12.783 -0.3370  0.6950 -0.6130
  718MPD2    C510668   2.737   1.789  12.735 -0.1681  0.1345 -0.8910
  718MPD2     H10669   2.445   1.912  12.523  1.3103  0.1468 -0.7874
  718MPD2    H110670   2.598   1.729  12.880  0.2899 -1.3332 -1.4834
  718MPD2    H210671   2.864   1.873  12.592  0.2072 -0.8172 -1.0418
  718MPD2    H310672   2.829   1.753  12.778  0.3198  2.0283 -0.3348
  718MPD2     N10673   2.374   1.837  12.750  0.0850  0.0544 -0.2372
  718MPD2    H510674   2.317   1.891  12.686  0.2104  0.9997  0.4381
  718MPD2    N110675   2.686   1.983  12.427  0.4066  0.5856  0.3303
  718MPD2    H710676   2.783   1.988  12.398  0.3883 -1.3175 -0.0861
  719TMC3    C110677   2.649   2.098  12.225 -0.1255 -0.3165  0.2798
  719TMC3    C210678   2.547   2.117  12.136 -0.3821  0.1097  0.1498
  719TMC3    C310679   2.496   2.241  12.121  0.2615 -0.2387 -0.2158
  719TMC3    C410680   2.700   2.204  12.291  0.1269  0.0919 -0.3488
  719TMC3    C510681   2.652   2.331  12.264 -0.9355  0.0184  0.3482
  719TMC3    C610682   2.553   2.351  12.175  0.0111 -0.1239  0.0059
  719TMC3     C10683   2.601   2.009  12.323 -0.2918  0.5599  0.2772
  719TMC3     O10684   2.496   1.956  12.310  0.5448  0.1227 -0.2408
  719TMC3     H10685   2.508   2.036  12.076  0.8644 -2.5924  2.9778
  719TMC3    H110686   2.780   2.195  12.363 -0.0024 -1.9088 -0.4571
  719TMC3    H210687   2.503   2.447  12.166  1.6584  0.9695  2.5296
  719TMC3    C710688   2.718   2.443  12.333  0.2464 -0.3583  0.3729
  719TMC3    C810689   2.353   2.252  12.130 -0.2467  0.6479  0.9681
  719TMC3    O110690   2.749   2.427  12.451  0.4658 -0.1533  0.9352
  719TMC3    O210691   2.287   2.349  12.084 -0.0112 -0.3746 -0.3786
  720MPD2     C10692   1.560   3.512  14.125 -0.0850  0.0608  0.4981
  720MPD2    C110693   1.636   3.515  14.006 -0.2588  0.3869  0.8908
  720MPD2    C210694   1.772   3.543  14.013  0.2174 -0.3369  0.3320
  720MPD2    C310695   1.838   3.562  14.128  0.3656  0.0688  0.0775
  720MPD2    C410696   1.767   3.552  14.250 -0.3417  0.5626 -0.2277
  720MPD2    C510697   1.629   3.529  14.245 -0.0070 -0.0833 -0.5273
  720MPD2     H10698   1.825   3.547  13.918 -1.4883 -0.5375 -0.6437
  720MPD2    H110699   1.804   3.561  14.351  1.3080 -1.8415 -0.6003
  720MPD2    H210700   1.452   3.500  14.125 -0.2177  1.2188  0.0006
  720MPD2    H310701   1.571   3.509  14.333  1.0830 -0.5410  0.0867
  720MPD2     N10702   1.976   3.596  14.127  0.1516  0.2032  0.3552
  720MPD2    H510703   2.022   3.587  14.037  1.0987  1.1241  0.7496
  720MPD2    N110704   1.580   3.494  13.881 -0.0062 -0.0341  0.1238
  720MPD2    H710705   1.635   3.524  13.801 -3.3044 -0.0101 -2.1456
  721TMC3    C110706   2.193   3.615  14.228 -0.0798 -0.3077 -0.1340
  721TMC3    C210707   2.270   3.632  14.338  0.3471 -0.3533  0.3305
  721TMC3    C310708   2.402   3.614  14.327  0.1310  0.1698  0.4510
  721TMC3    C410709   2.251   3.575  14.106 -0.3202 -0.1311 -0.8573
  721TMC3    C510710   2.385   3.573  14.098  0.3288  0.6102 -0.1882
  721TMC3    C610711   2.465   3.589  14.207 -0.2526  0.0807  0.6798
  721TMC3     C10712   2.049   3.623  14.242 -0.5431  0.4519  0.1593
  721TMC3     O10713   2.007   3.647  14.355 -0.1294 -0.1803 -0.2869
  721TMC3     H10714   2.229   3.663  14.434 -0.5410  0.3436 -0.2740
  721TMC3    H110715   2.198   3.551  14.014  0.2061  1.1073 -1.4893
  721TMC3    H210716   2.566   3.552  14.199 -0.8231 -1.5463  0.9813
  721TMC3    C710717   2.444   3.495  13.996  0.4829 -0.0406 -0.0815
  721TMC3    C810718   2.482   3.604  14.443  0.9126 -0.4819  0.5320
  721TMC3    O110719   2.477   3.534  13.885 -0.8279  0.7312  0.2130
  721TMC3    O210720   2.600   3.635  14.432  0.1190  0.4196  0.6104
  722MPD2     C10721   0.350   2.352  13.249  0.8195  0.1090 -0.1548
  722MPD2    C110722   0.389   2.473  13.197  0.9384  0.4633  0.4768
  722MPD2    C210723   0.337   2.517  13.077 -0.3668 -0.1003 -0.4687
  722MPD2    C310724   0.244   2.438  13.013  0.0968 -0.2478  0.4771
  722MPD2    C410725   0.206   2.319  13.061 -0.6519  0.3130 -0.3966
  722MPD2    C510726   0.265   2.279  13.177 -0.1328  0.0627 -0.0965
  722MPD2     H10727   0.360   2.613  13.032  1.4105  0.0069  0.6650
  722MPD2    H110728   0.135   2.255  13.011  0.1585 -0.4569 -0.5543
  722MPD2    H210729   0.386   2.305  13.340 -1.1928 -0.0949  0.5378
  722MPD2    H310730   0.223   2.188  13.217  0.3080 -0.3272 -0.5263
  722MPD2     N10731   0.191   2.489  12.891 -0.7037 -0.4317 -0.5470
  722MPD2    H510732   0.229   2.578  12.860 -1.3761  0.6817  1.8312
  722MPD2    N110733   0.472   2.561  13.269  0.5286 -0.6377  0.1438
  722MPD2    H710734   0.477   2.657  13.236  0.6057 -1.5518 -2.4544
  723TMC3    C110735   0.062   2.531  12.704  0.8986  0.7062 -0.4239
  723TMC3    C210736   4.734   2.487  12.593 -0.3247 -0.3326  0.5291
  723TMC3    C310737   4.729   2.566  12.482 -0.9327 -0.0927  0.0358
  723TMC3    C410738   0.109   2.660  12.708 -0.1062 -0.4437  0.4969
  723TMC3    C510739   0.093   2.743  12.596 -0.2064  0.5432  0.6565
  723TMC3    C610740   0.045   2.691  12.482 -0.1206  0.5969 -0.4295
  723TMC3     C10741   0.087   2.438  12.808  0.1391  0.1152 -0.1947
  723TMC3     O10742   0.036   2.328  12.804  0.5490  0.4928 -0.0584
  723TMC3     H10743   4.694   2.386  12.601 -1.6545  0.0779 -0.9335
  723TMC3    H110744   0.157   2.696  12.798  1.3106  0.4310 -0.6109
  723TMC3    H210745   0.013   2.750  12.397 -0.7053  2.5314  1.1552
  723TMC3    C710746   0.097   2.886  12.612 -0.0961 -0.8178 -0.2384
  723TMC3    C810747   4.603   2.550  12.411  0.4919 -0.1056 -1.2561
  723TMC3    O110748   0.101   2.953  12.510  0.1738  0.1630  0.3450
  723TMC3    O210749   4.530   2.648  12.404 -0.3495 -0.0515 -0.0781
  724TMC3    C110750   0.090   0.894  10.886  0.9404  0.5559 -0.1516
  724TMC3    C210751   0.021   0.922  10.766  0.1722  0.1638 -0.1386
  724TMC3    C310752   0.059   1.025  10.687 -0.1393  0.5399 -0.0450
  724TMC3    C410753   0.200   0.966  10.921  0.5767 -0.4889 -0.1934
  724TMC3    C510754   0.253   1.052  10.833  0.5145  0.3984 -0.0694
  724TMC3    C610755   0.184   1.085  10.713 -0.2001 -0.2298 -0.6013
  724TMC3     C10756   0.047   0.795  10.984 -0.4677  0.5835  0.1991
  724TMC3     O10757   0.109   0.796  11.089 -0.3054  0.6994  0.5491
  724TMC3     H10758   4.661   0.882  10.749  0.0424  0.0035  1.0008
  724TMC3    H110759   0.235   0.960  11.024  0.5467 -0.4196 -0.1799
  724TMC3    H210760   0.225   1.165  10.652 -0.5054  1.5745  1.5181
  724TMC3    C710761   0.380   1.125  10.848 -0.6895  0.5839 -0.7269
  724TMC3    C810762   0.007   1.010  10.553 -0.3081 -0.8262 -0.0428
  724TMC3    O110763   0.397   1.230  10.790 -0.7596 -0.3607  0.6620
  724TMC3    O210764   4.665   0.919  10.538 -0.3125  0.0263  0.1285
  725TMC3    C110765   2.257   3.622  12.833 -0.0822  0.0419  0.8565
  725TMC3    C210766   2.132   3.672  12.810 -0.5866 -0.2718  0.7163
  725TMC3    C310767   2.032   3.579  12.797  0.2673 -0.2243  0.5867
  725TMC3    C410768   2.279   3.488  12.854 -0.5656  0.2426  0.0281
  725TMC3    C510769   2.172   3.400  12.834 -0.0003 -0.1081 -0.7508
  725TMC3    C610770   2.051   3.446  12.799 -1.1621 -0.4861 -0.7825
  725TMC3     C10771   2.365   3.709  12.875 -0.9944  0.1062  0.4573
  725TMC3     O10772   2.341   3.826  12.861  0.0466 -0.1266  0.7926
  725TMC3     H10773   2.111   3.777  12.826 -0.7308 -0.2750  0.5369
  725TMC3    H110774   2.375   3.439  12.864 -1.1023 -0.2989  2.5232
  725TMC3    H210775   1.967   3.380  12.783 -1.2099  0.0040 -2.5213
  725TMC3    C710776   2.215   3.275  12.765 -0.1720 -0.6298 -0.8286
  725TMC3    C810777   1.897   3.616  12.784 -0.1023 -0.6208  0.9505
  725TMC3    O110778   2.331   3.248  12.767 -0.5763 -0.7044 -0.3607
  725TMC3    O210779   1.815   3.541  12.828  0.4920 -0.2609 -0.8247
  726MPD2     C10780   4.169   1.321  11.173 -0.4750 -0.0373  0.0599
  726MPD2    C110781   4.159   1.296  11.039 -0.3511  0.1411  0.0980
  726MPD2    C210782   4.079   1.192  11.000 -0.2239  0.1747 -0.6877
  726MPD2    C310783   4.010   1.108  11.087 -0.9003  0.1469 -0.1161
  726MPD2    C410784   4.025   1.131  11.218  0.5146 -0.1861 -0.6024
  726MPD2    C510785   4.107   1.226  11.262  0.7264 -0.6434 -1.3561
  726MPD2     H10786   4.081   1.170  10.894  0.3338 -1.6553 -0.2929
  726MPD2    H110787   3.985   1.066  11.295 -2.4473  3.6519  1.0786
  726MPD2    H210788   4.235   1.395  11.218 -0.8603  1.2966 -1.5445
  726MPD2    H310789   4.125   1.244  11.367  0.1874 -0.6138 -1.2696
  726MPD2     N10790   3.940   0.990  11.045 -0.2967 -0.0954  0.2319
  726MPD2    H510791   3.909   0.928  11.119 -4.0870  1.5006  0.0184
  726MPD2    N110792   4.243   1.361  10.940 -0.7750 -0.1808 -0.0807
  726MPD2    H710793   4.226   1.339  10.843  0.2784 -0.0912 -0.2838
  727TMC3    C110794   4.386   1.517  10.841  0.6224 -0.0707  0.3233
  727TMC3    C210795   4.509   1.581  10.848  0.5623  0.3792  0.1928
  727TMC3    C310796   4.547   1.655  10.741  0.1106  0.4702 -0.2571
  727TMC3    C410797   4.309   1.528  10.731 -0.1118 -0.1195  0.2054
  727TMC3    C510798   4.341   1.609  10.625  0.1516 -0.7711 -0.2756
  727TMC3    C610799   4.467   1.667  10.628 -0.2002  0.2201  0.5137
  727TMC3     C10800   4.347   1.448  10.963 -0.0519 -0.1993 -0.0050
  727TMC3     O10801   4.411   1.467  11.068 -0.1844 -0.6736  0.5327
  727TMC3     H10802   4.567   1.575  10.940 -1.6934 -0.1085  1.5805
  727TMC3    H110803   4.211   1.481  10.736 -0.0372 -0.0853  2.2794
  727TMC3    H210804   4.502   1.724  10.543  0.2768 -0.5053  0.2210
  727TMC3    C710805   4.258   1.624  10.505 -0.1253 -0.3288 -0.4103
  727TMC3    C810806   4.679   1.713  10.743  0.8833 -0.3810 -0.2454
  727TMC3    O110807   4.306   1.690  10.412  0.2429  0.3666 -0.5989
  727TMC3    O210808   0.024   1.648  10.802 -0.5828 -0.1866  0.3010
  728TMC3    C110809   4.251   3.809  15.172 -0.1112 -0.1369 -0.5249
  728TMC3    C210810   4.381   3.853  15.136  0.4597  0.3677 -0.1364
  728TMC3    C310811   4.397   3.915  15.015 -0.2696  1.0941  0.2887
  728TMC3    C410812   4.143   3.822  15.083  0.0515  0.1602  0.0049
  728TMC3    C510813   4.172   3.874  14.958  0.4295  0.3360  0.6203
  728TMC3    C610814   4.296   3.909  14.918 -0.5583 -0.3220  0.1817
  728TMC3     C10815   4.211   3.803  15.309 -0.8552  0.0739  0.0640
  728TMC3     O10816   4.301   3.825  15.390  0.3216 -0.3047 -0.5564
  728TMC3     H10817   4.464   3.857  15.206 -0.2455  0.5411  0.6831
  728TMC3    H110818   4.042   3.801  15.115  0.8752  0.5158  2.8726
  728TMC3    H210819   4.326   3.948  14.821  1.9354 -5.0187 -0.9597
  728TMC3    C710820   4.054   3.896  14.869  0.2358  0.4779 -0.2067
  728TMC3    C810821   4.536   3.928  14.966 -0.2510 -0.1372  0.1341
  728TMC3    O110822   3.943   3.870  14.907  0.0892 -0.1421  0.3784
  728TMC3    O210823   4.626   3.872  15.032 -0.1205  0.0847  0.0531
  729MPD2     C10824   1.915   4.624  16.434 -0.5840  0.1339  0.5441
  729MPD2    C110825   2.003   4.623  16.540  0.2894 -0.7115  0.5334
  729MPD2    C210826   1.953   4.584  16.663 -0.3172 -0.0863 -0.1203
  729MPD2    C310827   1.818   4.534  16.673 -0.2266 -0.1156  0.1418
  729MPD2    C410828   1.737   4.521  16.563  0.1946  0.4064 -0.1121
  729MPD2    C510829   1.784   4.580  16.447 -0.1365  0.3520 -0.0527
  729MPD2     H10830   2.012   4.596  16.753 -0.5448 -2.7590  0.3751
  729MPD2    H110831   1.638   4.478  16.569  0.4342 -0.5208 -2.4451
  729MPD2    H210832   1.945   4.669  16.340 -0.3513 -1.8830 -0.3483
  729MPD2    H310833   1.723   4.589  16.358  0.2066 -0.4514 -0.3700
  729MPD2     N10834   1.757   4.501  16.796 -0.3623 -0.5410  0.5903
  729MPD2    H510835   1.658   4.480  16.788  0.4135 -2.9732 -2.5566
  729MPD2    N110836   2.125   4.685  16.513  0.3381 -0.3095  0.1409
  729MPD2    H710837   2.133   4.738  16.427 -1.4586  1.2139  0.9134
  730TMC3    C110838   1.699   4.538  17.022  0.3913 -0.1169  0.2960
  730TMC3    C210839   1.728   4.514  17.153 -0.3592 -0.1913 -0.3822
  730TMC3    C310840   1.637   4.571  17.243 -0.3384 -0.3477  0.1374
  730TMC3    C410841   1.599   4.621  16.985  0.1175 -0.0853 -0.3340
  730TMC3    C510842   1.526   4.683  17.080 -0.4496  0.4720  0.0319
  730TMC3    C610843   1.534   4.652  17.209 -0.4851 -0.0065  0.5261
  730TMC3     C10844   1.811   4.522  16.926  0.2361 -0.1694 -0.7790
  730TMC3     O10845   1.927   4.537  16.961 -0.7884 -0.0074  0.1068
  730TMC3     H10846   1.818   4.460  17.179  1.3548  2.8846  0.0711
  730TMC3    H110847   1.574   4.641  16.882  1.1061  0.4403 -0.4711
  730TMC3    H210848   1.466   4.687  17.286 -0.6646  0.3868  0.1853
  730TMC3    C710849   1.480   0.080  17.053 -0.2584 -0.0650  0.1093
  730TMC3    C810850   1.659   4.542  17.385 -0.0784 -0.0009 -0.9263
  730TMC3    O110851   1.490   0.110  16.933 -0.2956  0.2317  0.1363
  730TMC3    O210852   1.563   4.550  17.458 -0.1328 -0.3592  0.4131
  731MPD2     C10853   1.326   3.594  12.555 -0.2411  0.0249  0.6560
  731MPD2    C110854   1.463   3.578  12.553  0.0505  0.6344  0.8179
  731MPD2    C210855   1.528   3.521  12.664 -0.1070  0.3085  0.1282
  731MPD2    C310856   1.464   3.504  12.785 -0.4396 -0.3525 -0.6865
  731MPD2    C410857   1.328   3.521  12.794  0.0556  0.6445  0.3921
  731MPD2    C510858   1.261   3.557  12.676  0.5033  0.6312  0.0869
  731MPD2     H10859   1.635   3.508  12.662 -0.1467  0.0054 -0.0175
  731MPD2    H110860   1.271   3.514  12.886  1.3150  1.4916  1.2285
  731MPD2    H210861   1.264   3.644  12.482  0.6791  1.6607  0.9808
  731MPD2    H310862   1.154   3.562  12.690  0.3354 -0.0836 -0.9205
  731MPD2     N10863   1.544   3.466  12.892 -0.4212 -0.4652  0.0704
  731MPD2    H510864   1.643   3.464  12.869 -0.2184  1.1769  0.7883
  731MPD2    N110865   1.528   3.608  12.433  0.2444  0.1918 -0.3383
  731MPD2    H710866   1.473   3.652  12.360  0.6896  0.3922 -0.5501
  732TMC3    C110867   1.695   3.623  12.269  0.1199  0.2623 -0.2068
  732TMC3    C210868   1.632   3.548  12.172 -0.5038 -0.2969 -0.3587
  732TMC3    C310869   1.691   3.545  12.050 -0.4185 -0.5816 -0.1098
  732TMC3    C410870   1.804   3.700  12.242 -0.3854 -0.0190  0.2856
  732TMC3    C510871   1.868   3.674  12.123  0.3465 -0.3864  0.2120
  732TMC3    C610872   1.807   3.608  12.019  1.1453 -0.5673 -0.2748
  732TMC3     C10873   1.662   3.599  12.410 -0.0862 -0.9647 -0.1278
  732TMC3     O10874   1.756   3.559  12.476 -0.0504  0.2228 -0.0596
  732TMC3     H10875   1.540   3.501  12.207 -0.0732 -1.1455 -0.3651
  732TMC3    H110876   1.859   3.755  12.317  1.0861 -2.7526  1.2183
  732TMC3    H210877   1.861   3.599  11.926  0.7968  2.5356 -0.7722
  732TMC3    C710878   2.010   3.707  12.121 -0.0088 -0.2660 -0.0915
  732TMC3    C810879   1.604   3.514  11.936  0.3132 -0.1075  0.2877
  732TMC3    O110880   2.047   3.791  12.202 -0.0547 -0.0809  0.1608
  732TMC3    O210881   1.653   3.547  11.826 -0.5256  0.1472  0.6125
  733TMC3    C110882   1.970   1.756  12.946 -0.2977 -0.3538  0.2161
  733TMC3    C210883   2.109   1.755  12.965 -0.3329  0.4942 -0.5330
  733TMC3    C310884   2.184   1.836  12.887  0.1213 -0.3046  0.2797
  733TMC3    C410885   1.909   1.831  12.845 -0.5691 -0.3833  0.4147
  733TMC3    C510886   1.994   1.910  12.764 -0.1068  0.0226 -0.2105
  733TMC3    C610887   2.132   1.914  12.785  0.1072  0.4499 -0.0800
  733TMC3     C10888   1.888   1.760  13.067 -0.9081 -0.2427 -0.0601
  733TMC3     O10889   1.798   1.846  13.071  0.1177 -0.0676 -0.5972
  733TMC3     H10890   2.156   1.688  13.036 -2.4641 -0.8474 -0.3867
  733TMC3    H110891   1.803   1.821  12.826 -0.5686 -0.2277  0.3304
  733TMC3    H210892   2.186   2.003  12.758 -2.3353  1.4505 -1.7108
  733TMC3    C710893   1.944   1.954  12.634 -0.0320 -0.3684  0.4788
  733TMC3    C810894   2.319   1.789  12.866 -0.1094 -0.1518  0.3985
  733TMC3    O110895   1.828   1.970  12.628  0.8129 -0.7864 -0.2026
  733TMC3    O210896   2.363   1.716  12.955 -0.0164 -0.0921  0.2258
  734MPD2     C10897   4.702   3.719  12.990  0.1637  0.7655 -0.0894
  734MPD2    C110898   4.566   3.735  12.973 -0.5976  0.2974  0.6261
  734MPD2    C210899   4.518   3.830  12.888  0.5179 -0.8263  0.1147
  734MPD2    C310900   4.599   3.907  12.813  0.7634  0.5954 -0.0512
  734MPD2    C410901   4.732   3.896  12.833  0.0630  0.6021  0.0603
  734MPD2    C510902   0.044   3.798  12.910  0.7741  0.2416 -0.0595
  734MPD2     H10903   4.412   3.840  12.866  0.9148  0.4494 -1.1966
  734MPD2    H110904   0.061   3.963  12.781 -0.3320  0.6060 -0.4476
  734MPD2    H210905   0.009   3.645  13.054 -0.4876  1.4133  1.1378
  734MPD2    H310906   0.150   3.792  12.930  0.5393  0.3812  1.2086
  734MPD2     N10907   4.539   3.989  12.715  0.0713 -0.1887  0.1688
  734MPD2    H510908   4.440   3.986  12.696  0.2972 -1.8000 -0.7035
  734MPD2    N110909   4.494   3.636  13.035  0.1667  0.1771 -0.2591
  734MPD2    H710910   4.542   3.556  13.076 -0.4373 -0.5861 -1.0297
  735TMC3    C110911   4.342   3.470  12.981  0.5735  0.2899  0.1555
  735TMC3    C210912   4.213   3.428  12.976 -0.2605 -0.5939 -0.4529
  735TMC3    C310913   4.164   3.361  12.870  0.3390  0.5218  0.6951
  735TMC3    C410914   4.424   3.422  12.886  0.5260  0.3720  0.3424
  735TMC3    C510915   4.385   3.342  12.789  0.1248  0.5130  0.7958
  735TMC3    C610916   4.255   3.313  12.780  1.0038  0.3486 -0.4552
  735TMC3     C10917   4.359   3.612  13.002 -0.6100 -0.1474 -0.7213
  735TMC3     O10918   4.269   3.688  12.986  0.4001 -0.1747  0.4147
  735TMC3     H10919   4.144   3.475  13.046  0.3148 -0.9261  0.3271
  735TMC3    H110920   4.527   3.458  12.891  0.9494 -1.0851  2.4656
  735TMC3    H210921   4.222   3.264  12.689  3.2160  1.3716 -1.8138
  735TMC3    C710922   4.449   3.346  12.658  0.2920 -1.4071  0.1224
  735TMC3    C810923   4.054   3.436  12.807  0.3466 -0.4027 -0.0556
  735TMC3    O110924   4.457   3.463  12.617  0.5298 -0.5532 -1.2285
  735TMC3    O210925   3.942   3.443  12.858 -0.5245  0.1088  0.5785
  736MPD2     C10926   4.510   3.059  12.453 -0.0449 -0.3643 -0.7085
  736MPD2    C110927   4.510   3.191  12.476  0.1900 -0.8298  0.4452
  736MPD2    C210928   4.558   3.274  12.378 -0.3758  0.0446 -0.5300
  736MPD2    C310929   4.606   3.227  12.253  0.3726 -0.1706 -0.3074
  736MPD2    C410930   4.595   3.092  12.231  0.1208 -0.2364  0.3607
  736MPD2    C510931   4.557   3.013  12.336 -0.2674 -0.4674 -0.0988
  736MPD2     H10932   4.560   3.377  12.413 -2.7882 -0.1243  0.1511
  736MPD2    H110933   4.617   3.054  12.132  0.8188  0.1641  0.3602
  736MPD2    H210934   4.478   2.988  12.529  0.6321  1.1542  1.0030
  736MPD2    H310935   4.546   2.906  12.323 -0.9699 -0.4409  0.2732
  736MPD2     N10936   4.664   3.314  12.163 -0.0301  0.1707 -0.3297
  736MPD2    H510937   4.718   3.276  12.085  0.5011 -0.7585  0.4945
  736MPD2    N110938   4.458   3.220  12.602  0.3464 -0.3300  0.1301
  736MPD2    H710939   4.458   3.145  12.671 -3.8886  0.1837  0.6869
  737TMC3    C110940   0.043   3.518  12.096 -0.2874  0.2059  0.1984
  737TMC3    C210941   0.021   3.641  12.048 -0.1329 -0.6760  0.2343
  737TMC3    C310942   0.082   3.683  11.932  0.0671  0.2066 -0.5985
  737TMC3    C410943   0.134   3.442  12.028  0.2281  0.0348 -0.2054
  737TMC3    C510944   0.193   3.487  11.911 -0.7988  0.4085 -0.9281
  737TMC3    C610945   0.162   3.607  11.854 -0.2453 -0.8272  0.1867
  737TMC3     C10946   4.680   3.455  12.176  0.3220  0.2921  0.5204
  737TMC3     O10947   4.621   3.531  12.251  0.5649 -0.2362  0.1945
  737TMC3     H10948   4.700   3.707  12.109  0.1526 -0.8762  0.7304
  737TMC3    H110949   0.161   3.345  12.068  2.0834  1.2619  1.4684
  737TMC3    H210950   0.222   3.641  11.770  2.1691 -0.1198  2.2104
  737TMC3    C710951   0.260   3.385  11.829 -0.2710 -0.0858 -0.9027
  737TMC3    C810952   0.067   3.827  11.908  0.3123 -0.0518 -0.8953
  737TMC3    O110953   0.221   3.271  11.852  0.0123 -0.5275 -0.0244
  737TMC3    O210954   0.014   3.893  11.990 -0.1598 -0.1218 -0.6756
  738MPD2     C10955   0.383   2.445  14.984  0.7155 -0.0107 -0.2531
  738MPD2    C110956   0.470   2.343  15.014  0.1778 -0.6970 -0.3193
  738MPD2    C210957   0.582   2.374  15.085  0.3858 -0.6836  0.1430
  738MPD2    C310958   0.608   2.504  15.121  0.3462 -0.5867  0.1999
  738MPD2    C410959   0.536   2.607  15.069  0.8950 -0.6136  0.6658
  738MPD2    C510960   0.419   2.572  15.008  0.3850  0.3616 -0.4412
  738MPD2     H10961   0.643   2.293  15.122  0.8464  0.5564  2.1108
  738MPD2    H110962   0.561   2.709  15.093 -0.2127  0.3740 -2.4798
  738MPD2    H210963   0.291   2.424  14.929  1.5604 -1.7365 -1.0241
  738MPD2    H310964   0.361   2.655  14.967  1.1436  1.4710  0.7307
  738MPD2     N10965   0.727   2.544  15.197  0.1643 -0.0207 -0.0471
  738MPD2    H510966   0.732   2.644  15.214 -1.6215  0.2657 -1.1825
  738MPD2    N110967   0.451   2.204  14.980 -0.5036  0.0659 -0.2064
  738MPD2    H710968   0.520   2.143  15.022 -0.3984 -0.2427 -0.8402
  739TMC3    C110969   0.955   2.547  15.251  0.2816  0.7582  0.1180
  739TMC3    C210970   1.000   2.621  15.149 -0.2074 -0.2568 -0.7693
  739TMC3    C310971   1.133   2.621  15.109 -0.2615 -0.6788  0.3004
  739TMC3    C410972   1.046   2.476  15.326  0.4881  0.2497 -0.3275
  739TMC3    C510973   1.184   2.483  15.298 -0.0401 -0.0669  0.0305
  739TMC3    C610974   1.228   2.549  15.187  0.3717 -0.2509  0.3661
  739TMC3     C10975   0.837   2.466  15.225 -0.3005 -0.0474  0.1184
  739TMC3     O10976   0.851   2.344  15.238 -0.1024 -0.3114 -0.0342
  739TMC3     H10977   0.932   2.672  15.081 -0.2640 -1.4389 -1.6028
  739TMC3    H110978   1.013   2.417  15.411  2.7647 -0.7546 -0.1505
  739TMC3    H210979   1.331   2.541  15.154  0.4785 -0.0462  0.6471
  739TMC3    C710980   1.273   2.429  15.397 -0.1890 -0.0857 -0.4464
  739TMC3    C810981   1.147   2.617  14.968  0.4223  0.2670 -0.9320
  739TMC3    O110982   1.215   2.386  15.497 -0.2168  0.0003 -0.7971
  739TMC3    O210983   1.046   2.609  14.900 -0.3926 -0.0337  0.4238
  740TMC3    C110984   1.177   3.927  14.409 -0.1288  0.2946 -0.1239
  740TMC3    C210985   1.228   3.870  14.521 -0.7272  0.6740  0.0984
  740TMC3    C310986   1.364   3.833  14.521  0.4324 -0.4226  1.0824
  740TMC3    C410987   1.252   3.947  14.302 -0.6397 -0.1204  0.0578
  740TMC3    C510988   1.381   3.913  14.303  0.9457 -0.3912 -0.5946
  740TMC3    C610989   1.443   3.863  14.413 -0.4238  0.3473  0.7392
  740TMC3     C10990   1.032   3.973  14.408 -0.4711 -0.1268 -0.1413
  740TMC3     O10991   0.990   4.040  14.313  0.2661  0.8383 -0.3231
  740TMC3     H10992   1.172   3.835  14.606 -0.9167 -0.9156 -0.6735
  740TMC3    H110993   1.198   3.983  14.215  0.0715 -0.1919 -0.4118
  740TMC3    H210994   1.540   3.814  14.406 -0.4514  0.2402  1.0911
  740TMC3    C710995   1.468   3.919  14.193 -0.2579 -0.3339 -0.5320
  740TMC3    C810996   1.423   3.795  14.645  0.8069  0.1328 -0.4855
  740TMC3    O110997   1.588   3.937  14.223 -0.0755  0.2456  0.4317
  740TMC3    O210998   1.344   3.741  14.719  0.4089 -0.1265  0.1082
  741TMC3    C110999   1.092   3.227  14.438  0.1450 -0.2978  0.4021
  741TMC3    C211000   0.971   3.169  14.433  0.2203 -0.6092 -0.4133
  741TMC3    C311001   0.956   3.055  14.507  0.0569  0.3643 -0.8962
  741TMC3    C411002   1.197   3.180  14.520 -0.0523 -0.2447 -0.3537
  741TMC3    C511003   1.173   3.072  14.600 -0.1456  0.1111  0.0846
  741TMC3    C611004   1.055   3.004  14.585  0.5608 -0.2845 -0.7879
  741TMC3     C11005   1.119   3.340  14.355 -0.3515  0.5330 -0.2186
  741TMC3     O11006   1.209   3.411  14.398  0.4831 -0.2372 -0.1456
  741TMC3     H11007   0.887   3.211  14.380  0.3399 -1.3507 -1.1944
  741TMC3    H111008   1.278   3.247  14.546  0.4875 -0.0676 -2.4782
  741TMC3    H211009   1.054   2.908  14.634  0.1229 -0.7224 -1.6674
  741TMC3    C711010   1.255   3.052  14.722 -0.4039 -1.0165  0.3251
  741TMC3    C811011   0.838   2.980  14.483 -0.1037  0.6166  0.0699
  741TMC3    O111012   1.199   3.004  14.820 -0.0944 -0.0473 -0.2344
  741TMC3    O211013   0.761   3.029  14.400 -0.0639 -0.7286  0.5033
  742TMC3    C111014   0.792   1.568  15.170 -0.2058 -0.0195 -0.2192
  742TMC3    C211015   0.732   1.561  15.049  0.6461  0.4561 -0.3920
  742TMC3    C311016   0.735   1.444  14.978  0.8123 -0.0028  0.4272
  742TMC3    C411017   0.867   1.465  15.223 -0.1033  0.3131  0.0024
  742TMC3    C511018   0.869   1.345  15.152 -0.5660  0.5013  0.8797
  742TMC3    C611019   0.810   1.342  15.031  0.0049  0.1941 -0.0741
  742TMC3     C11020   0.787   1.695  15.236  0.7001  0.0767  0.2533
  742TMC3     O11021   0.757   1.789  15.160  0.0194  0.4873  0.0208
  742TMC3     H11022   0.658   1.633  15.017 -2.4145 -2.6619 -0.3168
  742TMC3    H111023   0.938   1.470  15.305 -0.8854 -3.5342  0.9172
  742TMC3    H211024   0.809   1.242  14.990  1.9670  0.7436 -1.4728
  742TMC3    C711025   0.946   1.233  15.193  0.0055 -0.0994  0.8115
  742TMC3    C811026   0.628   1.409  14.888 -0.6333  0.3732 -0.1673
  742TMC3    O111027   0.984   1.144  15.121  0.1762 -0.2485  0.0439
  742TMC3    O211028   0.580   1.292  14.894 -0.0630 -0.5136  0.0324
  743MPD2     C11029   3.572   2.600   1.751 -0.1835 -0.3828  0.2498
  743MPD2    C111030   3.573   2.550   1.624  0.3677 -0.0748  0.0627
  743MPD2    C211031   3.693   2.541   1.555 -0.1732  0.4331  1.0555
  743MPD2    C311032   3.809   2.580   1.614  0.0803 -0.5535 -0.5719
  743MPD2    C411033   3.806   2.632   1.739 -0.3732  0.4305  0.1048
  743MPD2    C511034   3.689   2.638   1.812  0.3144  0.3287  0.8782
  743MPD2     H11035   3.696   2.512   1.450 -0.1889 -2.0465  1.7306
  743MPD2    H111036   3.890   2.664   1.799 -0.1565 -1.1048  0.6166
  743MPD2    H211037   3.477   2.617   1.800  0.3223 -1.3688  1.5809
  743MPD2    H311038   3.689   2.674   1.914  0.4405 -2.5863  1.9038
  743MPD2     N11039   3.929   2.576   1.542  0.4232  0.0112 -0.1911
  743MPD2    H511040   3.928   2.521   1.457  0.3458 -1.1329  0.5520
  743MPD2    N111041   3.447   2.521   1.569 -0.3781 -0.0618 -0.3106
  743MPD2    H711042   3.359   2.534   1.617 -0.6065 -1.0231 -0.4716
  744TMC3    C111043   3.295   2.463   1.404  0.6313  0.4134 -0.5241
  744TMC3    C211044   3.197   2.544   1.456 -0.5383 -0.4202 -0.5409
  744TMC3    C311045   3.083   2.562   1.389 -0.7244  0.1929  0.4219
  744TMC3    C411046   3.271   2.375   1.301  0.4422  0.3403 -0.1653
  744TMC3    C511047   3.157   2.400   1.233 -0.5669 -0.1488 -0.6908
  744TMC3    C611048   3.058   2.490   1.275  0.1177  0.4019  0.1150
  744TMC3     C11049   3.434   2.477   1.442 -0.1426  0.2247 -0.1471
  744TMC3     O11050   3.510   2.420   1.366  0.3740  0.6545 -0.7569
  744TMC3     H11051   3.220   2.613   1.536 -1.1563 -0.3869 -0.3926
  744TMC3    H111052   3.344   2.312   1.252  0.7605  0.8493 -0.3383
  744TMC3    H211053   2.969   2.512   1.217 -2.2813 -0.8863  3.3105
  744TMC3    C711054   3.163   2.374   1.089  0.2832  0.4619  0.2464
  744TMC3    C811055   2.986   2.652   1.442 -0.0766  0.1631  0.6688
  744TMC3    O111056   3.274   2.356   1.036  0.3692  0.5720 -0.2614
  744TMC3    O211057   2.905   2.704   1.366 -0.4720  0.9058  0.9081
  745TMC3    C111058   0.811   1.229  14.015  0.1090 -0.5945  0.6015
  745TMC3    C211059   0.727   1.158  14.102  0.5026 -0.4838  0.2643
  745TMC3    C311060   0.593   1.206  14.094 -0.0702 -0.5328 -1.1141
  745TMC3    C411061   0.768   1.317  13.924  0.1106  0.0140  0.4901
  745TMC3    C511062   0.632   1.343  13.905 -0.1855 -0.0795 -0.3554
  745TMC3    C611063   0.541   1.287  13.997 -0.3451 -0.4674  0.8460
  745TMC3     C11064   0.950   1.241  14.060  1.0120 -0.1118 -0.8063
  745TMC3     O11065   0.993   1.146  14.130  0.2909  0.3619  0.6165
  745TMC3     H11066   0.758   1.091  14.182  0.3533 -0.6885  0.1476
  745TMC3    H111067   0.837   1.366  13.856 -0.2100  0.2965  0.3673
  745TMC3    H211068   0.436   1.316  14.003 -0.2829 -0.3513  1.3979
  745TMC3    C711069   0.587   1.461  13.831 -0.2264 -0.3816 -0.0259
  745TMC3    C811070   0.558   1.254  14.219 -1.0502  0.0697  0.7681
  745TMC3    O111071   0.468   1.489  13.849  0.0374 -0.3817 -0.4673
  745TMC3    O211072   0.458   1.323  14.227  0.2175 -0.3223 -0.0852
  746TMC3    C111073   3.214   3.300  10.964 -0.1057  0.1342 -0.4121
  746TMC3    C211074   3.285   3.256  10.853  0.4533 -0.8220  0.0013
  746TMC3    C311075   3.255   3.133  10.798  0.4845  0.6653  0.8820
  746TMC3    C411076   3.106   3.218  11.010  0.3184  0.2160  0.4594
  746TMC3    C511077   3.072   3.111  10.940  0.7090  0.5224  0.4705
  746TMC3    C611078   3.150   3.056  10.840  0.0802 -0.1637  0.5149
  746TMC3     C11079   3.182   3.439  10.974 -0.6220  0.0746  0.4622
  746TMC3     O11080   3.066   3.469  10.972 -0.0373  0.2305  0.3090
  746TMC3     H11081   3.364   3.318  10.811 -1.6934  0.8506 -1.5819
  746TMC3    H111082   3.044   3.261  11.087  1.0182  0.8898  0.6395
  746TMC3    H211083   3.122   2.973  10.775  1.4096 -0.2397  0.0311
  746TMC3    C711084   2.938   3.067  10.948 -0.6446 -0.1410 -0.6859
  746TMC3    C811085   3.301   3.103  10.664  0.4561  1.0804 -0.3123
  746TMC3    O111086   2.916   2.955  10.905  0.1162  0.4523  1.3807
  746TMC3    O211087   3.303   2.992  10.615 -0.0977 -0.1816  0.0369
  747TMC3    C111088   0.832   3.670  11.088  0.0600  1.0513 -0.1182
  747TMC3    C211089   0.790   3.542  11.127  0.3211  0.2880  0.1215
  747TMC3    C311090   0.837   3.499  11.249  0.1808 -0.6791 -0.0354
  747TMC3    C411091   0.906   3.749  11.173 -0.4409 -0.8046  1.0757
  747TMC3    C511092   0.947   3.698  11.296 -0.4422 -0.1506  0.7617
  747TMC3    C611093   0.919   3.567  11.335  0.4201  0.4743  0.6773
  747TMC3     C11094   0.756   3.740  10.991  0.1216  1.1520 -0.8795
  747TMC3     O11095   0.735   3.860  11.007 -0.0941 -0.0662 -0.4923
  747TMC3     H11096   0.717   3.483  11.072  0.4396 -0.0949  0.3731
  747TMC3    H111097   0.950   3.843  11.143  0.2546 -1.5053 -0.0993
  747TMC3    H211098   0.942   3.531  11.435 -1.1463 -0.6039  0.6465
  747TMC3    C711099   1.050   3.780  11.366  0.2836  0.0416  0.0498
  747TMC3    C811100   0.761   3.392  11.309  0.0681 -0.0680 -0.0007
  747TMC3    O111101   1.043   3.903  11.368  0.3229 -0.2730 -0.4129
  747TMC3    O211102   0.762   3.282  11.250  0.2258 -0.0976 -0.3386
  748MPD2     C11103   2.628   3.273   1.434 -0.9852  0.1921 -0.0483
  748MPD2    C111104   2.682   3.310   1.316 -0.6583  0.4633  0.4818
  748MPD2    C211105   2.804   3.369   1.310 -0.0915  0.0477 -0.1880
  748MPD2    C311106   2.873   3.393   1.427  0.5458  0.2066  0.2741
  748MPD2    C411107   2.816   3.364   1.545  0.3435 -0.4881 -0.2467
  748MPD2    C511108   2.699   3.298   1.549 -0.4102  0.0654 -0.1225
  748MPD2     H11109   2.843   3.398   1.213 -0.4781  0.6640 -0.1577
  748MPD2    H111110   2.860   3.399   1.638  0.1638  1.1710 -0.7906
  748MPD2    H211111   2.526   3.240   1.454 -1.7334  2.1930 -0.6285
  748MPD2    H311112   2.654   3.296   1.647  0.3231  0.5116  0.2189
  748MPD2     N11113   3.002   3.454   1.410 -0.0522  0.1479 -0.4010
  748MPD2    H511114   3.027   3.466   1.313  0.0505 -0.9089 -0.5121
  748MPD2    N111115   2.609   3.279   1.195 -0.1104  0.7001  0.1016
  748MPD2    H711116   2.522   3.229   1.207  0.2342 -0.2576 -1.2842
  749TMC3    C111117   3.192   3.586   1.470  0.3559 -0.4729 -0.0350
  749TMC3    C211118   3.290   3.616   1.562  0.2995 -0.1733 -0.6490
  749TMC3    C311119   3.391   3.696   1.529 -0.3655  0.4194  0.5227
  749TMC3    C411120   3.206   3.627   1.340 -0.0807  0.2022 -0.3473
  749TMC3    C511121   3.305   3.714   1.313  0.2304  0.1894  0.1817
  749TMC3    C611122   3.403   3.741   1.401 -0.4994 -0.0535 -0.5690
  749TMC3     C11123   3.084   3.497   1.511  0.4478 -0.0621 -0.3966
  749TMC3     O11124   3.080   3.463   1.630  0.1808 -0.6197 -0.9521
  749TMC3     H11125   3.290   3.579   1.664  0.4686  0.8034 -0.2840
  749TMC3    H111126   3.126   3.606   1.270 -0.2757 -0.4495  0.0686
  749TMC3    H211127   3.490   3.797   1.369  0.6936 -0.2607  2.3090
  749TMC3    C711128   3.329   3.755   1.179 -0.1159 -1.0318  0.6268
  749TMC3    C811129   3.508   3.658   1.594 -0.4782 -0.7419  0.0104
  749TMC3    O111130   3.372   3.868   1.159  0.5758  0.5139 -0.2039
  749TMC3    O211131   3.514   3.658   1.719  0.7094 -0.0805  0.2237
  750MPD2     C11132   3.288   0.755  11.484  0.5521  0.0135  0.0567
  750MPD2    C111133   3.226   0.664  11.554 -0.5648  1.0930  0.2196
  750MPD2    C211134   3.203   0.538  11.497 -0.0086 -0.6203 -0.3437
  750MPD2    C311135   3.246   0.511  11.369 -0.0474  0.0559  0.0058
  750MPD2    C411136   3.303   0.606  11.292  0.3990  0.4687 -0.4811
  750MPD2    C511137   3.324   0.732  11.350 -0.0353  0.3016  0.4200
  750MPD2     H11138   3.154   0.464  11.560 -1.2844 -0.5992 -1.3046
  750MPD2    H111139   3.348   0.594  11.194 -0.6547  0.3307 -0.9465
  750MPD2    H211140   3.286   0.853  11.530  1.3099  0.6727 -1.3053
  750MPD2    H311141   3.366   0.815  11.294 -0.5463 -0.1954 -0.6940
  750MPD2     N11142   3.224   0.386  11.308  1.2677  0.0457 -0.0364
  750MPD2    H511143   3.276   0.363  11.224  0.6107 -2.0449  0.1212
  750MPD2    N111144   3.181   0.700  11.683  0.0662 -0.4349  0.0727
  750MPD2    H711145   3.191   0.798  11.711  0.4693  0.2023 -2.3063
  751TMC3    C111146   3.138   0.177  11.258 -0.6380  0.1657 -0.3606
  751TMC3    C211147   3.024   0.113  11.212  0.5672 -0.5440 -0.8927
  751TMC3    C311148   3.034   4.735  11.138 -0.4416  0.5146 -0.3618
  751TMC3    C411149   3.263   0.122  11.228  0.4541 -0.1323  0.6342
  751TMC3    C511150   3.265   0.009  11.148  0.2238 -0.1901  0.1717
  751TMC3    C611151   3.156   4.696  11.097 -0.5915  0.6526 -0.3983
  751TMC3     C11152   3.134   0.289  11.350 -0.4728  0.1857 -0.5875
  751TMC3     O11153   3.035   0.308  11.420 -0.2940  0.4564  0.0864
  751TMC3     H11154   2.936   0.175  11.220 -0.3377 -2.1325  1.6672
  751TMC3    H111155   3.356   0.167  11.260 -0.1797  1.2409  0.5443
  751TMC3    H211156   3.158   4.612  11.028  0.8743  0.7122 -0.4214
  751TMC3    C711157   3.394   4.687  11.120  0.3204  0.0915 -0.4996
  751TMC3    C811158   2.927   4.653  11.098 -0.6156 -0.3103 -0.2791
  751TMC3    O111159   3.495   0.017  11.138  0.6725 -0.1111  0.4938
  751TMC3    O211160   2.944   4.574  11.005 -0.2921 -0.6232  0.0942
  752TMC3    C111161   2.856   4.290  17.293  0.0184  0.2572 -0.2604
  752TMC3    C211162   2.803   4.213  17.192  1.3519 -0.3268 -0.1098
  752TMC3    C311163   2.793   4.073  17.223 -0.0123 -0.1376 -0.5198
  752TMC3    C411164   2.869   4.246  17.413 -0.4056  0.4266 -0.2332
  752TMC3    C511165   2.849   4.111  17.444  0.0358 -0.2408 -0.0423
  752TMC3    C611166   2.812   4.021  17.349 -0.6932 -0.0433  0.1030
  752TMC3     C11167   2.858   4.434  17.276 -0.5289 -0.1799  0.5293
  752TMC3     O11168   2.911   4.500  17.362  0.4276  0.4507 -0.4804
  752TMC3     H11169   2.794   4.231  17.086 -0.5623 -0.2913  0.0556
  752TMC3    H111170   2.925   4.309  17.481 -3.2032  2.1899  0.4332
  752TMC3    H211171   2.771   3.925  17.375 -0.7742 -0.2231 -0.7088
  752TMC3    C711172   2.886   4.070  17.576  0.1489 -1.0331 -0.5987
  752TMC3    C811173   2.763   3.979  17.115 -0.7131  0.3197 -0.7121
  752TMC3    O111174   2.932   4.162  17.646  0.4789 -0.0199  0.3899
  752TMC3    O211175   2.728   4.022  17.007  0.3473 -0.1261 -0.4410
  753TMC3    C111176   4.126   1.573  12.925 -0.4765  0.5682  0.4323
  753TMC3    C211177   4.174   1.520  13.044  0.4275 -0.3495 -1.0992
  753TMC3    C311178   4.124   1.402  13.087  0.2476  0.0923  0.4768
  753TMC3    C411179   4.028   1.506  12.851  0.1083 -0.2737  0.8555
  753TMC3    C511180   3.985   1.388  12.903  0.6480  0.1211 -0.5072
  753TMC3    C611181   4.030   1.337  13.023  0.1584 -0.4003 -0.9861
  753TMC3     C11182   4.174   1.705  12.879 -0.2759 -0.5364  0.3758
  753TMC3     O11183   4.246   1.761  12.959  0.4029 -0.2419  0.2575
  753TMC3     H11184   4.235   1.580  13.110 -1.2490  0.0130  0.1400
  753TMC3    H111185   4.001   1.535  12.750 -0.8397  0.4991  1.3230
  753TMC3    H211186   4.012   1.235  13.053 -1.0596  0.6393  1.8187
  753TMC3    C711187   3.886   1.312  12.825 -0.4107 -0.4952  0.0598
  753TMC3    C811188   4.203   1.320  13.173  0.3222 -0.8725 -0.6033
  753TMC3    O111189   3.838   1.373  12.733 -0.0366 -0.2340 -0.8008
  753TMC3    O211190   4.202   1.197  13.160  0.1668  0.0661 -0.0424
  754MPD2     C11191   3.444   4.722  12.995 -0.3217 -0.2004  0.0410
  754MPD2    C111192   3.431   4.582  12.970 -0.1893 -0.4064  0.0145
  754MPD2    C211193   3.302   4.529  12.966 -0.6734  0.0946  0.7100
  754MPD2    C311194   3.196   4.608  13.000 -0.0767 -0.2044 -0.0481
  754MPD2    C411195   3.212   0.005  13.025  0.0616 -0.6084  0.3273
  754MPD2    C511196   3.337   0.063  13.016 -0.1635 -0.5568 -0.0513
  754MPD2     H11197   3.290   4.430  12.925  2.5526  0.2109 -0.5673
  754MPD2    H111198   3.135   0.076  13.054 -0.7915 -1.1850 -0.5230
  754MPD2    H211199   3.543   0.027  12.997  0.4310 -1.8194 -1.1785
  754MPD2    H311200   3.351   0.170  13.023 -2.7406 -0.1874 -0.2960
  754MPD2     N11201   3.068   4.556  13.001 -0.3892  0.3283 -0.2119
  754MPD2    H511202   2.999   4.630  13.013 -1.4943 -1.0169  1.7485
  754MPD2    N111203   3.546   4.507  12.928  0.2732 -0.0994 -0.2690
  754MPD2    H711204   3.629   4.564  12.922 -1.1768  1.8992 -1.5287
  755MPD2     C11205   2.442   0.325  13.102 -0.4101 -0.1676 -0.3698
  755MPD2    C111206   2.387   0.220  13.171 -0.3513 -0.0387  0.9753
  755MPD2    C211207   2.440   0.092  13.157 -0.3702  0.4718  0.4016
  755MPD2    C311208   2.560   0.075  13.091  1.0242  0.0988 -0.6980
  755MPD2    C411209   2.620   0.187  13.035  0.1348 -0.2893  0.1848
  755MPD2    C511210   2.556   0.301  13.026 -0.4966  0.0860 -0.2340
  755MPD2     H11211   2.383   0.013  13.206 -0.6315  0.7835  0.6071
  755MPD2    H111212   2.725   0.187  13.007  0.2475  0.3908  0.6219
  755MPD2    H211213   2.398   0.422  13.080  0.0846 -0.0154 -0.6862
  755MPD2    H311214   2.609   0.384  12.981 -0.2301 -0.1617 -0.3721
  755MPD2     N11215   2.627   4.686  13.066  0.3198 -0.3199  0.0737
  755MPD2    H511216   2.722   4.698  13.032  0.2974 -0.3188  0.0112
  755MPD2    N111217   2.272   0.233  13.252  0.2396  0.0679 -0.1241
  755MPD2    H711218   2.226   0.148  13.282  0.6773  0.3612  1.3457
  756MPD2     C11219   2.480   1.240  10.029 -0.1924  0.3443 -0.0372
  756MPD2    C111220   2.401   1.192  10.125 -0.7174  0.5307 -0.1638
  756MPD2    C211221   2.274   1.242  10.147 -0.0034  0.9255 -0.0259
  756MPD2    C311222   2.230   1.354  10.072 -0.9168 -0.5388  0.5065
  756MPD2    C411223   2.302   1.399   9.969 -0.8992  0.7207  0.5990
  756MPD2    C511224   2.427   1.336   9.955  0.3737  0.9605 -0.3161
  756MPD2     H11225   2.206   1.205  10.222  1.3289  0.1026  0.7831
  756MPD2    H111226   2.279   1.479   9.900 -1.2199 -0.2974 -0.4804
  756MPD2    H211227   2.581   1.207  10.005  0.4151 -0.9436  4.1816
  756MPD2    H311228   2.482   1.358   9.864 -0.8690  2.3584 -0.7327
  756MPD2     N11229   2.102   1.397  10.102 -0.4283 -0.1568  0.1262
  756MPD2    H511230   2.044   1.332  10.154 -0.8992 -0.7830 -1.1567
  756MPD2    N111231   2.448   1.086  10.204  0.0555 -0.4994 -0.3341
  756MPD2    H711232   2.390   1.064  10.285  0.1872  0.0908 -0.0754
  757MPD2     C11233   1.589   0.864  10.296  0.3030  0.1837 -0.9706
  757MPD2    C111234   1.716   0.903  10.337  0.0761  0.0382 -0.2400
  757MPD2    C211235   1.750   1.034  10.346  0.0462 -0.1532 -0.5946
  757MPD2    C311236   1.659   1.131  10.296 -0.1030 -0.0959  0.1699
  757MPD2    C411237   1.531   1.093  10.259  0.0173  0.1016  0.1456
  757MPD2    C511238   1.497   0.958  10.258  0.2364 -0.4825 -0.0475
  757MPD2     H11239   1.849   1.064  10.376 -0.1012 -0.4093  0.1704
  757MPD2    H111240   1.453   1.160  10.226  0.2972  0.9095  1.1255
  757MPD2    H211241   1.567   0.758  10.285  1.0264  0.0423 -1.0834
  757MPD2    H311242   1.396   0.926  10.236  0.2976 -1.1197  0.5861
  757MPD2     N11243   1.707   1.263  10.275  0.2255 -0.1444  0.4507
  757MPD2    H511244   1.806   1.275  10.294  0.2306 -2.7593  2.1353
  757MPD2    N111245   1.802   0.795  10.366  0.8705  0.0604  0.0586
  757MPD2    H711246   1.750   0.708  10.364  0.4858  0.2783  0.4025
  758MPD2     C11247   3.088   4.114  15.762 -0.2731 -0.3490  0.0591
  758MPD2    C111248   3.169   4.082  15.869 -0.3635  0.4983  0.1960
  758MPD2    C211249   3.118   4.099  15.998  0.7597 -0.8226 -0.1772
  758MPD2    C311250   2.993   4.154  16.030 -0.7081  0.2705  0.9124
  758MPD2    C411251   2.912   4.181  15.923  0.0050  0.4575  0.2359
  758MPD2    C511252   2.959   4.149  15.796  0.1794 -0.3389  0.1590
  758MPD2     H11253   3.180   4.057  16.076  1.6365 -0.2344 -0.5559
  758MPD2    H111254   2.814   4.224  15.941 -1.5511 -3.2158  0.6524
  758MPD2    H211255   3.115   4.095  15.659 -0.0327 -0.3094  0.1149
  758MPD2    H311256   2.891   4.173  15.716  2.3839  0.9526 -1.3519
  758MPD2     N11257   2.954   4.196  16.161  0.1259 -0.3207 -0.3167
  758MPD2    H511258   2.869   4.251  16.168  0.0258 -0.6436  1.1243
  758MPD2    N111259   3.303   4.039  15.841 -0.3527 -0.3573  0.1429
  758MPD2    H711260   3.333   4.006  15.750 -1.7537 -0.3260 -0.3303
  759MPD2     C11261   1.621   3.595  10.044  0.4899  0.7706 -0.0729
  759MPD2    C111262   1.552   3.508   9.967  0.8299  0.2997 -0.1338
  759MPD2    C211263   1.577   3.508   9.830  0.0334  0.1765  0.4429
  759MPD2    C311264   1.649   3.608   9.773 -0.1224  0.3227  0.8267
  759MPD2    C411265   1.704   3.707   9.850 -0.1773 -1.0263  0.2439
  759MPD2    C511266   1.690   3.693   9.987 -0.6364  1.0070 -0.2896
  759MPD2     H11267   1.533   3.431   9.768 -0.7174  1.5843 -0.7577
  759MPD2    H111268   1.762   3.786   9.804 -1.4297  0.2476  0.8416
  759MPD2    H211269   1.599   3.611  10.149 -1.1085  0.0326 -0.2909
  759MPD2    H311270   1.718   3.776  10.050  3.4037 -1.0479  0.6170
  759MPD2     N11271   1.666   3.589   9.633 -0.2884 -0.1300  0.0727
  759MPD2    H511272   1.616   3.507   9.602 -0.1549  0.9939 -3.1095
  759MPD2    N111273   1.465   3.416  10.016 -0.0376  0.0518  0.3657
  759MPD2    H711274   1.410   3.364   9.948 -1.0306  0.9755  0.4528
  760MPD2     C11275   0.996   0.039  12.055  0.2783  0.1012 -0.3208
  760MPD2    C111276   1.090   0.113  12.124 -0.2423 -0.2261  0.0416
  760MPD2    C211277   1.190   0.043  12.188  0.2093  0.9217  0.2328
  760MPD2    C311278   1.205   4.643  12.177 -0.7128  0.6480 -0.3784
  760MPD2    C411279   1.110   4.574  12.112 -0.1553 -0.5024  1.2268
  760MPD2    C511280   1.004   4.637  12.054 -0.2199 -0.5909 -0.0983
  760MPD2     H11281   1.259   0.104  12.245  1.0266  0.7933 -0.6108
  760MPD2    H111282   1.115   4.467  12.099  3.1664 -0.3388  1.1340
  760MPD2    H211283   0.908   0.077  12.005 -0.3066  0.5200  1.0333
  760MPD2    H311284   0.924   4.590  11.999 -1.7698  0.1334  1.4956
  760MPD2     N11285   1.307   4.568  12.236  0.1112  0.2338 -0.3116
  760MPD2    H511286   1.311   4.467  12.241  1.1454  0.2524 -0.6006
  760MPD2    N111287   1.081   0.252  12.136  0.2410 -0.4215  0.3501
  760MPD2    H711288   1.139   0.304  12.201  1.1030 -0.7185 -0.1789
  761MPD2     C11289   2.458   4.489  11.191 -0.0484  0.6653  0.6927
  761MPD2    C111290   2.558   4.441  11.112 -0.2445  0.5237 -1.3178
  761MPD2    C211291   2.678   4.508  11.108  0.0397 -0.3821 -0.9308
  761MPD2    C311292   2.690   4.630  11.167 -0.5424 -0.1228  0.0574
  761MPD2    C411293   2.589   4.679  11.239  0.2396 -0.3730  0.2580
  761MPD2    C511294   2.476   4.605  11.257 -0.5843 -0.1851 -0.2072
  761MPD2     H11295   2.762   4.459  11.061  0.7851  0.0838 -0.0886
  761MPD2    H111296   2.610   0.032  11.291 -0.1786  0.4217 -0.9748
  761MPD2    H211297   2.359   4.446  11.206 -0.4151  0.6688 -1.5938
  761MPD2    H311298   2.395   4.650  11.312  0.3136  1.1177  0.0629
  761MPD2     N11299   2.814   4.700  11.162  0.3333 -0.3637  0.6955
  761MPD2    H511300   2.820   0.044  11.219  3.8370  0.3614 -0.6987
  761MPD2    N111301   2.535   4.319  11.047 -0.1118 -0.3846  0.5495
  761MPD2    H711302   2.455   4.265  11.080 -0.3359  0.6857  1.7292
  762MPD2     C11303   2.790   4.129  10.321  0.2612  0.6004  0.4686
  762MPD2    C111304   2.832   4.043  10.422 -0.2702  0.2132 -0.4868
  762MPD2    C211305   2.956   3.972  10.408 -0.4259 -0.7393  0.9000
  762MPD2    C311306   3.033   4.004  10.297 -0.3917 -0.5744  0.1044
  762MPD2    C411307   2.981   4.077  10.196 -0.1171 -1.0305 -0.0794
  762MPD2    C511308   2.865   4.148  10.214  0.0413  0.2453  0.1173
  762MPD2     H11309   2.995   3.901  10.480  0.4297 -0.4308  0.7458
  762MPD2    H111310   3.039   4.100  10.107 -2.6522  1.2599 -1.1130
  762MPD2    H211311   2.696   4.181  10.330 -0.3232 -0.3506 -0.1012
  762MPD2    H311312   2.842   4.214  10.131 -5.0531 -0.3959  1.0324
  762MPD2     N11313   3.168   3.958  10.283  1.0085 -0.1860 -0.4149
  762MPD2    H511314   3.197   3.878  10.340  0.6463  0.0433  0.0878
  762MPD2    N111315   2.742   4.030  10.529  0.6021 -0.9587  0.2547
  762MPD2    H711316   2.665   4.096  10.535 -0.2669 -1.7934 -2.0455
  763MPD2     C11317   0.537   4.355  16.191  0.9746  0.4449 -0.3338
  763MPD2    C111318   0.419   4.411  16.141 -0.5805 -1.3322  0.0656
  763MPD2    C211319   0.407   4.553  16.157  0.4468 -0.4463  0.6734
  763MPD2    C311320   0.511   4.636  16.201 -0.0448  0.2737  0.5748
  763MPD2    C411321   0.625   4.578  16.239 -0.1081  0.0260 -0.5742
  763MPD2    C511322   0.638   4.440  16.238  0.0318  0.6853 -0.6692
  763MPD2     H11323   0.314   4.600  16.126  0.6653 -0.3705  0.1395
  763MPD2    H111324   0.712   4.635  16.269 -0.9621  0.7094  0.6273
  763MPD2    H211325   0.556   4.249  16.199 -2.1739 -0.2124 -1.8250
  763MPD2    H311326   0.734   4.390  16.249 -0.3996 -0.0049 -0.0912
  763MPD2     N11327   0.491   0.034  16.215  0.1079 -0.5415 -0.5932
  763MPD2    H511328   0.573   0.094  16.221  0.8921 -1.8151  1.2357
  763MPD2    N111329   0.314   4.343  16.088 -0.7844  0.4477 -0.0925
  763MPD2    H711330   0.237   4.399  16.054  1.0156  1.3997 -2.5639
  764MPD2     C11331   2.783   0.856  17.625 -0.4304 -0.4087  0.4261
  764MPD2    C111332   2.822   0.742  17.557  0.1629 -0.6331 -0.3595
  764MPD2    C211333   2.895   0.646  17.622  0.4457 -0.7529 -0.4513
  764MPD2    C311334   2.926   0.654  17.756 -0.5959  0.0406 -0.1600
  764MPD2    C411335   2.887   0.768   0.065  0.1786 -0.7640  0.1732
  764MPD2    C511336   2.824   0.867  17.753  0.4186  0.1280 -1.0179
  764MPD2     H11337   2.933   0.557  17.574  0.6122 -1.5091  1.0924
  764MPD2    H111338   2.907   0.788   0.170 -0.1541 -1.3218  0.3420
  764MPD2    H211339   2.723   0.934  17.580  0.3780 -0.1734 -0.2463
  764MPD2    H311340   2.802   0.959   0.050 -0.0936 -1.8622  2.2978
  764MPD2     N11341   2.998   0.549   0.060  0.3076  0.3180 -0.1599
  764MPD2    H511342   3.029   0.469   0.006  0.3509  0.6736 -0.6616
  764MPD2    N111343   2.780   0.715  17.420 -0.0819 -0.0423  0.2956
  764MPD2    H711344   2.812   0.630  17.375  0.4223  1.3936 -2.0624
  765MPD2     C11345   2.991   3.673  15.086 -0.4368  0.5382 -0.3375
  765MPD2    C111346   3.008   3.735  15.203 -0.1828  0.4901 -0.6775
  765MPD2    C211347   3.106   3.689  15.291  0.4530 -0.2713 -0.6524
  765MPD2    C311348   3.179   3.577  15.257 -0.2606 -0.4885  0.1883
  765MPD2    C411349   3.150   3.511  15.139 -0.1134 -0.0559 -0.2489
  765MPD2    C511350   3.055   3.559  15.052  0.5342 -0.3720  0.5541
  765MPD2     H11351   3.129   3.739  15.384  1.0388  0.4077 -1.1695
  765MPD2    H111352   3.202   3.420  15.113 -0.0119 -1.4201  4.6737
  765MPD2    H211353   2.920   3.717  15.017  1.8359  3.1903 -1.0140
  765MPD2    H311354   3.030   3.503  14.963 -2.1452  0.3258  0.8670
  765MPD2     N11355   3.281   3.532  15.342 -0.1510  0.6427  0.2599
  765MPD2    H511356   3.285   3.589  15.426  2.0649  2.4353 -1.0790
  765MPD2    N111357   2.936   3.852  15.231 -0.5713  0.4798  0.2876
  765MPD2    H711358   2.866   3.880  15.163  1.2434  0.9465 -1.3924
  766MPD2     C11359   2.367   3.932  14.990  0.2646 -0.2982  0.5849
  766MPD2    C111360   2.496   3.973  14.991 -0.0355  0.1459  0.1340
  766MPD2    C211361   2.577   3.938  14.887 -0.0071 -0.6986 -0.1139
  766MPD2    C311362   2.537   3.854  14.781  0.6070  0.2500 -0.3762
  766MPD2    C411363   2.402   3.815  14.773  0.1384 -0.2260 -0.4001
  766MPD2    C511364   2.323   3.860  14.880  0.0295 -0.1558 -1.1406
  766MPD2     H11365   2.681   3.967  14.882 -0.4160  0.6098 -1.0009
  766MPD2    H111366   2.353   3.752  14.700 -2.4592  0.7087  0.5456
  766MPD2    H211367   2.304   3.947  15.076  1.1126 -2.9601  1.6840
  766MPD2    H311368   2.221   3.825  14.870 -0.0218 -0.3597  0.0341
  766MPD2     N11369   2.621   3.818  14.673  0.0654 -0.0573 -1.1323
  766MPD2    H511370   2.581   3.778  14.588 -1.0845  1.3987 -1.2840
  766MPD2    N111371   2.561   4.035  15.102  0.0273  0.6478 -0.3624
  766MPD2    H711372   2.661   4.053  15.096 -0.3940  3.1010  0.0259
  767MPD2     C11373   2.325   4.127  14.671  0.5929  0.0151  0.9956
  767MPD2    C111374   2.444   4.173  14.612 -0.2608 -0.2154 -0.7567
  767MPD2    C211375   2.481   4.138  14.486 -0.2085  0.3638 -0.0144
  767MPD2    C311376   2.403   4.048  14.413  0.2259  0.0833  0.0601
  767MPD2    C411377   2.278   4.010  14.469 -0.2513  0.9042  0.6510
  767MPD2    C511378   2.245   4.052  14.592  0.2681  0.0043 -0.4055
  767MPD2     H11379   2.581   4.154  14.449  0.1145  1.5831  1.3810
  767MPD2    H111380   2.217   3.932  14.425 -1.8580  2.4794  0.0802
  767MPD2    H211381   2.301   4.141  14.775  1.2048 -3.1987  1.5642
  767MPD2    H311382   2.151   4.016  14.634  0.8026  0.5950  1.3095
  767MPD2     N11383   2.447   4.004  14.287  0.1614 -0.7315  0.1257
  767MPD2    H511384   2.545   4.027  14.274 -0.2342  1.1844  0.5089
  767MPD2    N111385   2.520   4.254  14.696 -0.2202  0.1226 -0.2281
  767MPD2    H711386   2.482   4.266  14.789  0.0542  0.4764 -0.1617
  768MPD2     C11387   2.903   2.992  10.251  0.3945 -0.4554  0.2104
  768MPD2    C111388   2.839   2.903  10.340  0.8950 -0.1929 -0.1952
  768MPD2    C211389   2.908   2.833  10.434  0.3609 -0.5322  0.2915
  768MPD2    C311390   3.041   2.848  10.442  0.0528  0.7112 -0.8029
  768MPD2    C411391   3.107   2.934  10.352  0.3396 -0.1579 -0.2606
  768MPD2    C511392   3.037   3.002  10.251 -0.2209 -0.1222 -0.7439
  768MPD2     H11393   2.858   2.775  10.511  2.8394  0.5780  2.7658
  768MPD2    H111394   3.215   2.932  10.354  0.3368  0.7730  0.7007
  768MPD2    H211395   2.842   3.057  10.189 -1.3414 -1.8175  0.5221
  768MPD2    H311396   3.083   3.077  10.187  0.6732 -0.0228  0.0043
  768MPD2     N11397   3.113   2.802  10.550  0.0883 -0.5038 -0.6116
  768MPD2    H511398   3.197   2.857  10.564 -0.1658  0.1275 -1.5160
  768MPD2    N111399   2.705   2.874  10.342 -0.0011 -0.1123  0.3390
  768MPD2    H711400   2.676   2.799  10.404 -3.1285  1.3105  0.6094
  769MPD2     C11401   4.434   0.062  15.138  0.2854  0.8733  0.0948
  769MPD2    C111402   4.428   0.197  15.096  0.2524 -0.1748 -0.2461
  769MPD2    C211403   4.429   0.299  15.194 -0.7257  0.6165  0.0629
  769MPD2    C311404   4.453   0.268  15.327  0.4225  0.0000  0.1883
  769MPD2    C411405   4.445   0.132  15.367 -0.0419 -0.2466  0.3536
  769MPD2    C511406   4.433   0.035  15.271  0.4011 -0.0468 -0.6026
  769MPD2     H11407   4.420   0.403  15.162  0.1375  0.0192 -2.1384
  769MPD2    H111408   4.450   0.097  15.469  3.7684  0.8632  0.5281
  769MPD2    H211409   4.423   4.721  15.066 -0.2229  1.9760 -1.0778
  769MPD2    H311410   4.433   4.672  15.304  0.1529 -0.2644 -1.2773
  769MPD2     N11411   4.469   0.368  15.429  0.1418  0.2336  0.5250
  769MPD2    H511412   4.460   0.329  15.522 -0.7419 -0.5703  0.1020
  769MPD2    N111413   4.398   0.212  14.958 -0.3664 -0.2922 -0.1556
  769MPD2    H711414   4.373   0.126  14.910  1.5950 -0.3669 -1.0169
  770MPD2     C11415   3.582   0.045  14.632  1.0617 -0.4150  0.6826
  770MPD2    C111416   3.688   0.009  14.712 -0.1915 -0.4171  0.0493
  770MPD2    C211417   3.787   0.105  14.740 -0.1506  0.1219 -0.0954
  770MPD2    C311418   3.795   0.225  14.677 -0.4831  0.3262 -0.2440
  770MPD2    C411419   3.690   0.256  14.598  1.2858 -0.0076 -0.1396
  770MPD2    C511420   3.584   0.170  14.575 -0.2835  0.4526 -0.3466
  770MPD2     H11421   3.867   0.081  14.810 -0.4170  0.6777  0.4008
  770MPD2    H111422   3.696   0.352  14.548 -3.2988 -0.5008 -1.6573
  770MPD2    H211423   3.500   4.715  14.618 -0.8568  2.3454 -1.7830
  770MPD2    H311424   3.505   0.193  14.505  0.2549 -0.1104 -1.1342
  770MPD2     N11425   3.900   0.311  14.703  0.0412  0.5983  0.4328
  770MPD2    H511426   3.961   0.293  14.782  0.4156 -0.3892 -0.0856
  770MPD2    N111427   3.692   4.623  14.761 -0.4088  0.7224 -0.6205
  770MPD2    H711428   3.609   4.569  14.737 -0.1365  0.0253 -0.0249
  771MPD2     C11429   0.385   3.466  13.711 -0.3361  0.7396  0.4885
  771MPD2    C111430   0.273   3.548  13.720  0.5462  0.0613 -0.7522
  771MPD2    C211431   0.144   3.487  13.709  0.2781  0.2342  0.4613
  771MPD2    C311432   0.139   3.348  13.677  0.2230  0.2456 -0.1266
  771MPD2    C411433   0.249   3.272  13.661 -0.5559 -0.2192 -0.0482
  771MPD2    C511434   0.370   3.335  13.685 -0.4015  0.2073 -0.2124
  771MPD2     H11435   0.052   3.541  13.727 -0.0941  0.3500 -1.7684
  771MPD2    H111436   0.249   3.165  13.649 -0.5210 -0.4530  2.1964
  771MPD2    H211437   0.487   3.500  13.728 -0.2441 -0.3757  2.2035
  771MPD2    H311438   0.460   3.274  13.688 -0.6777 -0.3454 -3.1536
  771MPD2     N11439   0.006   3.297  13.646  0.1311  0.0591 -0.4283
  771MPD2    H511440   4.677   3.372  13.650 -0.7769 -0.5823 -3.6546
  771MPD2    N111441   0.282   3.689  13.745  0.1388 -0.3378  0.1537
  771MPD2    H711442   0.192   3.735  13.752  0.6077  0.9644 -2.2592
  772MPD2     C11443   4.590   4.190  13.943 -0.1142  0.0998  0.3878
  772MPD2    C111444   4.642   4.066  13.942 -0.7095 -0.4638 -0.0184
  772MPD2    C211445   4.564   3.959  13.989  0.4451  0.1573 -0.1785
  772MPD2    C311446   4.441   3.980  14.046  0.3794 -0.3900 -0.4507
  772MPD2    C411447   4.386   4.100  14.038 -1.0778  0.2200  0.0656
  772MPD2    C511448   4.457   4.206  13.987  0.5885 -0.5203  0.6673
  772MPD2     H11449   4.611   3.862  13.988 -3.6841 -1.8123  2.2720
  772MPD2    H111450   4.285   4.114  14.074 -1.2301  0.2184 -0.3538
  772MPD2    H211451   4.638   4.283  13.914 -0.2211 -0.0590 -0.2951
  772MPD2    H311452   4.414   4.305  13.988 -0.6603 -1.0179 -2.3342
  772MPD2     N11453   4.348   3.885  14.107  0.1834  0.5783 -0.3979
  772MPD2    H511454   4.256   3.922  14.126  0.4036  0.5578  0.7334
  772MPD2    N111455   0.036   4.047  13.888 -0.1305 -0.4111 -0.6283
  772MPD2    H711456   0.064   3.950  13.874  0.6039 -0.3697  0.5121
  773MPD2     C11457   3.850   4.430   0.304 -0.1582 -0.2501 -0.0615
  773MPD2    C111458   3.880   4.377   0.181  0.4764 -0.1409 -0.0402
  773MPD2    C211459   3.986   4.293   0.173 -0.2257 -0.0394  0.0046
  773MPD2    C311460   4.057   4.247   0.282 -0.0662 -0.0875  0.1025
  773MPD2    C411461   4.016   4.288   0.405 -0.2611  0.0742  0.4010
  773MPD2    C511462   3.915   4.381   0.421 -0.3127  0.4274 -0.4657
  773MPD2     H11463   4.016   4.255   0.076 -2.1794  0.1207 -0.6597
  773MPD2    H111464   4.066   4.252   0.494 -1.5110  1.0066  1.4822
  773MPD2    H211465   3.781   4.513   0.314  0.4373  0.2483 -0.0594
  773MPD2    H311466   3.900   4.436   0.513  1.0605 -0.6648  0.4273
  773MPD2     N11467   4.172   4.160   0.258  0.0062 -0.0488  0.1939
  773MPD2    H511468   4.192   4.122   0.167  1.9424 -0.7960  0.9519
  773MPD2    N111469   3.810   4.401   0.061 -0.0092 -0.1615 -0.2606
  773MPD2    H711470   3.827   4.328  17.749  3.4291  1.3096 -1.0139
  774MPD2     C11471   3.174   3.488  13.112  0.4623  0.6914  0.3351
  774MPD2    C111472   3.243   3.532  13.227  0.3927  0.0934  0.0359
  774MPD2    C211473   3.310   3.651  13.220  0.1428  0.1756 -0.5014
  774MPD2    C311474   3.316   3.718  13.103  0.0829  0.2636  0.5987
  774MPD2    C411475   3.255   3.672  12.987  0.3843  0.0864  0.2126
  774MPD2    C511476   3.175   3.562  12.999 -0.0002 -0.1728 -0.5914
  774MPD2     H11477   3.354   3.691  13.310  0.6147 -1.3219 -0.0635
  774MPD2    H111478   3.253   3.726  12.893  0.3569 -0.5935 -0.1792
  774MPD2    H211479   3.124   3.392  13.118 -0.9054  1.4073  0.3915
  774MPD2    H311480   3.110   3.526  12.920  0.0411 -2.5840  0.4806
  774MPD2     N11481   3.376   3.843  13.120  0.1888 -0.5753 -0.2890
  774MPD2    H511482   3.391   3.868  13.217  0.7490  1.8031 -0.9975
  774MPD2    N111483   3.242   3.458  13.351  0.5723 -0.6468 -0.3727
  774MPD2    H711484   3.284   3.509  13.428  1.2241 -0.1753 -1.0370
  775MPD2     C11485   4.626   0.242  15.739  0.0394  0.2307  0.4727
  775MPD2    C111486   4.614   0.361  15.806 -0.0852 -0.3688 -0.1396
  775MPD2    C211487   4.692   0.469  15.762  0.0099 -0.2505  0.1075
  775MPD2    C311488   0.023   0.456  15.637  0.6698 -0.0781 -0.8104
  775MPD2    C411489   0.025   0.340  15.570 -0.7037 -0.1744  0.0799
  775MPD2    C511490   4.697   0.234  15.621 -0.0807 -0.3472  0.6330
  775MPD2     H11491   4.693   0.558  15.823 -1.3187  0.1482 -0.4499
  775MPD2    H111492   0.089   0.324  15.484 -1.5566 -2.2692 -0.1630
  775MPD2    H211493   4.575   0.151  15.769  0.4685 -0.9734 -2.4568
  775MPD2    H311494   4.698   0.140  15.568  1.1328 -0.2806  0.5207
  775MPD2     N11495   0.121   0.552  15.582 -0.6911 -0.6434  0.1338
  775MPD2    H511496   0.174   0.520  15.502  0.7508  0.3422  0.7121
  775MPD2    N111497   4.542   0.363  15.929  0.6796  0.4007  0.9354
  775MPD2    H711498   4.494   0.280  15.961 -1.4036  0.6536 -1.4775
  776MPD2     C11499   2.465   0.984  11.946  0.1769  0.6992  0.2329
  776MPD2    C111500   2.586   1.035  11.928  0.3815  0.2021 -0.2743
  776MPD2    C211501   2.600   1.164  11.884 -0.3536 -0.0345  1.3630
  776MPD2    C311502   2.492   1.243  11.850 -0.3654  0.1143  0.3976
  776MPD2    C411503   2.370   1.191  11.879 -0.8305 -0.0056  0.0084
  776MPD2    C511504   2.355   1.063  11.920  0.1818  0.2109 -0.4197
  776MPD2     H11505   2.699   1.203  11.863 -0.1294 -0.9137  0.7798
  776MPD2    H111506   2.279   1.250  11.869  0.4223  1.8463 -0.5282
  776MPD2    H211507   2.451   0.878  11.962 -0.2770  0.9939  1.7789
  776MPD2    H311508   2.254   1.028  11.936 -0.9174  2.7911 -1.6087
  776MPD2     N11509   2.499   1.371  11.791 -0.6145  0.0106 -0.3312
  776MPD2    H511510   2.410   1.418  11.784 -0.9236 -0.5102  0.0282
  776MPD2    N111511   2.699   0.950  11.945  0.2100 -0.1912 -0.2966
  776MPD2    H711512   2.666   0.860  11.980  3.2275 -1.1375  0.1256
  777MPD2     C11513   3.670   3.153   0.625  1.5036 -0.6351 -0.0848
  777MPD2    C111514   3.727   3.038   0.675  0.1095 -0.1599 -0.6428
  777MPD2    C211515   3.704   2.915   0.613  0.6948 -0.1199  1.0360
  777MPD2    C311516   3.645   2.912   0.492 -0.7416  0.0817 -0.3248
  777MPD2    C411517   3.611   3.028   0.427  0.0175  0.5280 -0.0923
  777MPD2    C511518   3.612   3.146   0.504 -0.0010 -0.3306 -0.0808
  777MPD2     H11519   3.732   2.821   0.659 -1.4016 -0.4768  1.5658
  777MPD2    H111520   3.570   3.023   0.327 -0.9470  5.7266  0.0337
  777MPD2    H211521   3.681   3.249   0.673 -1.3783 -0.3882  0.0850
  777MPD2    H311522   3.561   3.232   0.462  0.4799 -0.4691 -0.9499
  777MPD2     N11523   3.614   2.784   0.437  0.3168 -0.0805 -0.6013
  777MPD2    H511524   3.622   2.706   0.501  1.4599 -1.3223 -2.2632
  777MPD2    N111525   3.805   3.052   0.795 -0.4005  0.0859  0.4524
  777MPD2    H711526   3.801   3.138   0.848 -2.2343 -0.5713  1.3753
  778MPD2     C11527   0.050   3.619  14.836  0.7593  0.2474 -1.3811
  778MPD2    C111528   0.106   3.499  14.799 -0.3804 -0.4076  0.5086
  778MPD2    C211529   0.204   3.501  14.699 -0.1145  0.4733 -0.5566
  778MPD2    C311530   0.262   3.619  14.650  0.5016 -0.4416  0.4956
  778MPD2    C411531   0.215   3.736  14.704 -0.2773  0.4573 -0.3603
  778MPD2    C511532   0.110   3.729  14.791 -0.0914  0.3687  0.8643
  778MPD2     H11533   0.246   3.407  14.664 -0.6836  0.6920 -1.8458
  778MPD2    H111534   0.250   3.837  14.685 -1.7876  0.6824 -1.9916
  778MPD2    H211535   4.712   3.627  14.912  0.5701 -0.4689 -1.4975
  778MPD2    H311536   0.073   3.820  14.838 -0.6489 -0.9322  2.9695
  778MPD2     N11537   0.369   3.616  14.560 -0.4961  0.5992 -0.0662
  778MPD2    H511538   0.413   3.525  14.546 -1.1707  0.7067 -2.9016
  778MPD2    N111539   0.064   3.374  14.846  0.3323 -0.1375  0.4165
  778MPD2    H711540   0.068   3.288  14.792 -0.4690  0.8545 -1.2506
  779MPD2     C11541   4.427   2.200  14.232 -0.7480 -0.3940  0.1441
  779MPD2    C111542   4.533   2.167  14.152  0.1477  0.2500 -0.0994
  779MPD2    C211543   4.637   2.264  14.141  0.0271  0.0374  0.2091
  779MPD2    C311544   4.625   2.390  14.197 -0.6217 -0.5305  0.2759
  779MPD2    C411545   4.514   2.420  14.275 -0.5583 -0.6186 -0.3112
  779MPD2    C511546   4.423   2.323  14.296 -0.5881  0.1429  0.5293
  779MPD2     H11547   4.721   2.238  14.078 -1.5286  0.3309 -2.0131
  779MPD2    H111548   4.495   2.517  14.320 -1.1288 -0.2423 -1.3781
  779MPD2    H211549   4.341   2.137  14.253 -0.2818 -0.3089  2.2943
  779MPD2    H311550   4.334   2.345  14.354 -0.1559  1.1339  0.8201
  779MPD2     N11551   4.712   2.493  14.160  0.6031 -0.3678  0.8536
  779MPD2    H511552   4.690   2.586  14.195 -1.1956 -0.9955  1.3848
  779MPD2    N111553   4.532   2.040  14.095 -0.5355  0.1550  0.5193
  779MPD2    H711554   4.457   1.982  14.131  0.1588 -0.2298  1.3564
  780MPD2     C11555   3.669   1.926   0.805 -0.0981 -0.2785 -0.5436
  780MPD2    C111556   3.755   1.823   0.761 -0.4484  0.5148 -0.4100
  780MPD2    C211557   3.839   1.846   0.650  0.0175 -0.2731  0.6915
  780MPD2    C311558   3.855   1.976   0.598 -0.1396 -0.0851 -0.5053
  780MPD2    C411559   3.763   2.074   0.643 -0.3102  0.1480  0.1314
  780MPD2    C511560   3.674   2.051   0.744 -0.4749 -0.5533 -0.2894
  780MPD2     H11561   3.901   1.768   0.609 -0.4580 -0.6229  0.6344
  780MPD2    H111562   3.753   2.174   0.602 -1.4791  0.4996  1.2650
  780MPD2    H211563   3.596   1.914   0.885  0.8997  1.3843  0.6146
  780MPD2    H311564   3.609   2.130   0.780  0.1526 -0.3290  0.3609
  780MPD2     N11565   3.940   2.003   0.485  0.3349 -0.6272 -0.7480
  780MPD2    H511566   3.986   1.927   0.436  2.4101 -0.4631  0.9348
  780MPD2    N111567   3.740   1.702   0.838 -0.4214  0.1306 -0.0282
  780MPD2    H711568   3.660   1.700   0.900 -0.2477 -1.2750  0.1437
  781MPD2     C11569   0.809   4.198  12.064 -0.4659 -0.1601  0.2752
  781MPD2    C111570   0.901   4.174  12.161 -0.4288  0.0117 -0.6462
  781MPD2    C211571   1.036   4.187  12.123 -0.5400 -0.4930 -0.0099
  781MPD2    C311572   1.069   4.225  11.996  0.5103  0.1463  1.2283
  781MPD2    C411573   0.974   4.239  11.894  0.1831  0.7999 -0.2348
  781MPD2    C511574   0.844   4.226  11.935 -0.2632 -0.2314  0.4181
  781MPD2     H11575   1.112   4.162  12.196 -0.2603  0.1950 -0.0695
  781MPD2    H111576   1.001   4.259  11.792 -1.6890 -0.7969 -1.0481
  781MPD2    H211577   0.701   4.189  12.072 -0.6470  0.6349 -1.2788
  781MPD2    H311578   0.759   4.243  11.870 -0.0548  0.9016  0.4399
  781MPD2     N11579   1.199   4.241  11.955  0.1790  0.7409  0.3026
  781MPD2    H511580   1.227   4.234  11.858 -0.4456 -2.7329  0.3590
  781MPD2    N111581   0.856   4.135  12.286  0.0836  0.5680  0.0445
  781MPD2    H711582   0.924   4.078  12.336  0.1222 -0.4991 -1.2429
  782MPD2     C11583   4.002   0.077  10.586  0.3713 -0.5451  0.3957
  782MPD2    C111584   4.031   0.105  10.718 -0.2672 -0.6312 -0.2470
  782MPD2    C211585   4.014   0.230  10.774 -0.0458 -0.6498  0.3244
  782MPD2    C311586   3.972   0.333  10.690 -0.3865 -0.4034  0.1750
  782MPD2    C411587   3.943   0.305  10.559 -0.7439  0.1831 -0.5045
  782MPD2    C511588   3.952   0.178  10.510  0.3580 -0.5983  0.1529
  782MPD2     H11589   4.041   0.239  10.878  1.0252 -2.3095  0.1940
  782MPD2    H111590   3.910   0.370  10.479  1.1966 -2.0753 -3.1502
  782MPD2    H211591   4.020   4.717  10.546  1.4538  0.6991 -2.2390
  782MPD2    H311592   3.928   0.147  10.409  1.1598  0.5898 -0.4009
  782MPD2     N11593   3.942   0.464  10.737  0.3531 -0.6567  0.5222
  782MPD2    H511594   3.961   0.472  10.837 -1.4539  0.6366  0.7569
  782MPD2    N111595   4.087   0.010  10.806  0.1271  0.7331 -0.3989
  782MPD2    H711596   4.118   0.052  10.893  0.5606  0.5648 -0.4692
  783MPD2     C11597   3.450   4.332  11.145 -0.2238 -0.0728 -0.0427
  783MPD2    C111598   3.491   4.461  11.122 -0.5794  0.2457 -0.2290
  783MPD2    C211599   3.625   4.486  11.104 -0.5194  0.3741  0.1532
  783MPD2    C311600   3.713   4.381  11.117  0.1670  1.3491  1.0445
  783MPD2    C411601   3.672   4.251  11.140 -0.1647  0.7389  0.6021
  783MPD2    C511602   3.538   4.228  11.156 -0.2992  0.4719 -0.4478
  783MPD2     H11603   3.667   4.578  11.066 -1.1029  0.2990 -0.6707
  783MPD2    H111604   3.730   4.160  11.147 -0.6525  0.2268 -2.0426
  783MPD2    H211605   3.350   4.296  11.165 -0.9093  1.9341  0.1443
  783MPD2    H311606   3.502   4.126  11.170  0.7582  0.3374  1.3668
  783MPD2     N11607   3.854   4.407  11.095 -0.8085  0.1564  0.3727
  783MPD2    H511608   3.893   4.500  11.090  0.1821 -0.4362 -2.5043
  783MPD2    N111609   3.380   4.551  11.123 -0.8092  0.0266 -0.3196
  783MPD2    H711610   3.285   4.517  11.123  0.2794 -2.9960  0.5908
  784MPD2     C11611   1.582   4.342   0.557 -0.4151 -0.3925 -0.2288
  784MPD2    C111612   1.568   4.394   0.688  0.4183 -0.4071 -0.7224
  784MPD2    C211613   1.486   4.504   0.697 -1.0875  0.7502 -0.2363
  784MPD2    C311614   1.407   4.546   0.596 -0.1203 -0.4758  0.3941
  784MPD2    C411615   1.424   4.499   0.467  0.0182  0.2452  0.4186
  784MPD2    C511616   1.508   4.393   0.455  0.5393  0.0094 -0.0106
  784MPD2     H11617   1.459   4.544   0.794  2.6535  0.7774  0.7898
  784MPD2    H111618   1.344   4.519   0.397 -0.6776 -1.5013  0.7107
  784MPD2    H211619   1.645   4.255   0.544 -0.1852  0.3000 -3.6915
  784MPD2    H311620   1.511   4.344   0.358 -0.5989  0.9767 -0.5396
  784MPD2     N11621   1.291   4.620   0.637 -0.3261 -0.0904  0.2898
  784MPD2    H511622   1.278   4.627   0.738  2.5060  0.5412  0.6086
  784MPD2    N111623   1.641   4.358   0.805 -0.2898 -0.4179  0.3070
  784MPD2    H711624   1.609   4.402   0.891 -1.7018 -0.6544 -0.1030
  785MPD2     C11625   1.611   3.217  10.748  0.4791 -0.1458 -0.8886
  785MPD2    C111626   1.543   3.326  10.799 -0.4823  1.2054 -0.3557
  785MPD2    C211627   1.413   3.326  10.768 -0.2391  0.3456  0.3898
  785MPD2    C311628   1.351   3.238  10.680 -0.7147  0.5686  0.1216
  785MPD2    C411629   1.424   3.133  10.634  0.7881 -0.8501  0.2550
  785MPD2    C511630   1.552   3.120  10.670  0.0078 -0.2102 -0.0686
  785MPD2     H11631   1.352   3.412  10.791 -0.3569  0.4064 -0.1423
  785MPD2    H111632   1.378   3.047  10.586 -2.7222  1.6071 -0.8660
  785MPD2    H211633   1.716   3.201  10.773  0.1879  0.0747  0.4613
  785MPD2    H311634   1.609   3.033  10.640 -1.1193 -1.9345  2.7793
  785MPD2     N11635   1.213   3.255  10.657 -0.8145  0.8874  0.2590
  785MPD2    H511636   1.172   3.338  10.698 -2.1838 -0.0333  0.7608
  785MPD2    N111637   1.606   3.420  10.883 -0.2875 -0.2601 -0.4808
  785MPD2    H711638   1.706   3.415  10.898 -0.4842  1.5236  1.5393
  786MPD2     C11639   0.293   1.498  14.499 -0.2767 -0.6895  0.4147
  786MPD2    C111640   0.326   1.382  14.569  0.3168 -0.6594 -0.6656
  786MPD2    C211641   0.429   1.386  14.665 -0.5840 -0.1802  0.6633
  786MPD2    C311642   0.484   1.506  14.713 -0.5065 -1.5650  0.1356
  786MPD2    C411643   0.439   1.624  14.658 -1.1040 -0.1829 -0.9489
  786MPD2    C511644   0.348   1.612  14.556  0.1065 -0.2755  0.0840
  786MPD2     H11645   0.475   1.294  14.698  0.3129 -0.0650 -0.2630
  786MPD2    H111646   0.468   1.724  14.686 -1.3753 -0.0221 -1.2382
  786MPD2    H211647   0.228   1.510  14.413 -0.4810 -0.0930  0.6488
  786MPD2    H311648   0.314   1.708  14.520 -0.4176 -1.1452 -1.6887
  786MPD2     N11649   0.572   1.514  14.817 -0.1410 -0.1873 -0.1119
  786MPD2    H511650   0.596   1.610  14.839 -0.0251 -0.3841  0.6149
  786MPD2    N111651   0.285   1.252  14.526  0.2990 -0.3200  0.8273
  786MPD2    H711652   0.330   1.169  14.565  0.2058 -0.0219  1.5789
  787MPD2     C11653   0.687   1.112  14.623 -0.1303 -0.1556 -0.3993
  787MPD2    C111654   0.683   1.035  14.509  0.3610 -0.5410  0.0185
  787MPD2    C211655   0.802   1.000  14.441  0.2591 -0.1857  0.5858
  787MPD2    C311656   0.926   1.049  14.479  0.1017  1.2148 -0.5303
  787MPD2    C411657   0.927   1.148  14.576  0.2178 -1.0297 -0.1859
  787MPD2    C511658   0.809   1.173  14.647 -0.6216  0.1111  0.4906
  787MPD2     H11659   0.791   0.941  14.351  0.2809 -0.3119  0.6659
  787MPD2    H111660   1.019   1.200  14.599 -0.2752 -0.8481  1.4377
  787MPD2    H211661   0.604   1.142  14.685  1.1346  3.1564 -0.2847
  787MPD2    H311662   0.804   1.257  14.715 -2.1868 -0.2602  0.8484
  787MPD2     N11663   1.040   1.010  14.410  1.0286  0.2409  0.0298
  787MPD2    H511664   1.033   0.958  14.323  0.0410  1.8994 -0.8796
  787MPD2    N111665   0.562   0.973  14.489  0.2752 -0.2342  0.4115
  787MPD2    H711666   0.483   1.012  14.539 -0.0802  0.2164 -0.4930
  788MPD2     C11667   2.512   4.019   1.299  0.4613 -0.6827  0.3426
  788MPD2    C111668   2.453   4.002   1.174 -0.4286 -0.5221 -0.8272
  788MPD2    C211669   2.400   4.110   1.106 -0.9505  0.2636 -0.5512
  788MPD2    C311670   2.406   4.239   1.164 -0.1521  0.6565  0.4894
  788MPD2    C411671   2.457   4.257   1.290  0.3300 -0.4034  0.5555
  788MPD2    C511672   2.518   4.147   1.350  0.3490 -0.2538  0.1590
  788MPD2     H11673   2.359   4.099   1.007  0.4280 -1.9042 -0.8649
  788MPD2    H111674   2.460   4.352   1.341 -1.4772 -1.7663  3.2531
  788MPD2    H211675   2.553   3.939   1.361  2.1404  0.1066  0.2422
  788MPD2    H311676   2.569   4.153   1.445 -1.5330 -1.6762  1.2616
  788MPD2     N11677   2.355   4.345   1.089 -0.7575 -0.7812  0.2226
  788MPD2    H511678   2.298   4.325   1.008 -1.3690 -0.1523  0.5067
  788MPD2    N111679   2.448   3.869   1.127 -0.9927  0.4751  0.2154
  788MPD2    H711680   2.509   3.802   1.174  0.4955  1.0017 -0.9732
  789MPD2     C11681   2.779   3.798  16.387  0.4563  0.0345 -0.3623
  789MPD2    C111682   2.735   3.912  16.322 -0.0235 -0.3725  0.8955
  789MPD2    C211683   2.683   4.012  16.399 -0.4419 -0.0997 -0.4757
  789MPD2    C311684   2.661   4.003  16.534 -0.6600 -0.2988  0.3026
  789MPD2    C411685   2.707   3.890  16.593  0.0327 -0.3080  0.4346
  789MPD2    C511686   2.771   3.790  16.524  0.5199  0.1548 -0.3123
  789MPD2     H11687   2.644   4.094  16.341  2.2319 -0.2931 -2.5317
  789MPD2    H111688   2.687   3.874  16.698 -0.8705 -1.4995  0.0788
  789MPD2    H211689   2.814   3.709  16.336  2.3062 -0.2139  1.3810
  789MPD2    H311690   2.804   3.700  16.576  0.3776  0.3346  0.0856
  789MPD2     N11691   2.574   4.089  16.606  0.0352 -0.3207  0.3506
  789MPD2    H511692   2.535   4.053  16.693 -1.6781  2.7169  0.8447
  789MPD2    N111693   2.732   3.935  16.182  0.0502 -0.5954  0.1454
  789MPD2    H711694   2.670   4.008  16.148  0.4654  0.1811  1.0449
  790MPD2     C11695   3.900   1.252  13.433 -0.0472  0.0036 -0.4168
  790MPD2    C111696   3.805   1.154  13.395  0.4246  0.1004  0.4659
  790MPD2    C211697   3.723   1.171  13.287  1.1326  0.1332  0.1265
  790MPD2    C311698   3.709   1.293  13.223  0.0678 -0.4526  0.2129
  790MPD2    C411699   3.791   1.393  13.269 -0.2676 -0.4240 -0.0003
  790MPD2    C511700   3.886   1.370  13.370  0.1481 -0.7097  0.0307
  790MPD2     H11701   3.659   1.090  13.254 -0.0518  0.7487  0.8833
  790MPD2    H111702   3.775   1.494  13.232  0.8185 -0.9302 -1.8256
  790MPD2    H211703   3.980   1.224  13.500 -3.7447 -1.2900  3.4527
  790MPD2    H311704   3.960   1.446  13.395 -0.0108 -0.0922 -1.3943
  790MPD2     N11705   3.620   1.303  13.105  0.2129  0.4153  0.0206
  790MPD2    H511706   3.575   1.215  13.083 -0.2644  1.1760 -2.0921
  790MPD2    N111707   3.812   1.035  13.467  0.2433  0.0474 -0.3415
  790MPD2    H711708   3.867   1.041  13.552 -0.8915  1.4983  0.2773
  791MPD2     C11709   2.916   1.412  12.703  0.3853  0.3177  0.7701
  791MPD2    C111710   2.970   1.305  12.774  0.4140  0.0582  0.3469
  791MPD2    C211711   2.892   1.209  12.844 -0.5710 -0.1877  0.2204
  791MPD2    C311712   2.757   1.224  12.834  0.0779  0.6437  0.5891
  791MPD2    C411713   2.705   1.339  12.771  0.0082 -0.4112 -0.1680
  791MPD2    C511714   2.780   1.429  12.707 -0.7229 -0.3108 -0.0790
  791MPD2     H11715   2.932   1.122  12.896 -1.2445 -1.4430 -1.3640
  791MPD2    H111716   2.599   1.358  12.781  0.0914 -0.1069  0.1374
  791MPD2    H211717   2.967   1.483  12.640 -1.4051  1.6645  0.8446
  791MPD2    H311718   2.728   1.509  12.656  2.4594  1.9895  0.2677
  791MPD2     N11719   2.686   1.128  12.900  0.1038 -0.5054 -0.6312
  791MPD2    H511720   2.744   1.050  12.930 -0.5449 -0.1639  1.5440
  791MPD2    N111721   3.116   1.300  12.772  0.2629 -0.4775 -0.2810
  791MPD2    H711722   3.158   1.368  12.709  0.1765  0.0646  0.2438
  792MPD2     C11723   3.351   1.242  11.425  0.6291 -0.2008  0.5124
  792MPD2    C111724   3.259   1.352  11.419  0.1691 -0.6073 -0.5486
  792MPD2    C211725   3.119   1.320  11.428  0.0505  0.6101 -0.0835
  792MPD2    C311726   3.074   1.187  11.433  0.4476  0.1918  0.0113
  792MPD2    C411727   3.161   1.087  11.408 -0.3790  0.2508 -0.0018
  792MPD2    C511728   3.297   1.113  11.404  0.7493 -0.4643 -0.7424
  792MPD2     H11729   3.043   1.397  11.430 -1.2254 -0.6603  0.0166
  792MPD2    H111730   3.129   0.985  11.394 -1.8327  0.9299 -1.5613
  792MPD2    H211731   3.458   1.256  11.426  0.8262 -1.5504 -1.0681
  792MPD2    H311732   3.360   1.027  11.384  2.4024  0.8386 -1.0853
  792MPD2     N11733   2.946   1.143  11.449  0.3149 -0.2209  0.3709
  792MPD2    H511734   2.938   1.041  11.451  1.5382 -0.3251 -0.8065
  792MPD2    N111735   3.308   1.480  11.409  0.5831 -0.7580  0.0051
  792MPD2    H711736   3.407   1.490  11.388  0.2859  0.4167 -0.8118
  793MPD2     C11737   2.238   1.007  10.877  0.6582  0.1096 -0.0446
  793MPD2    C111738   2.375   1.022  10.877 -0.3056  0.8877  0.0349
  793MPD2    C211739   2.441   1.070  10.990 -0.0374  1.0685  0.3154
  793MPD2    C311740   2.366   1.100  11.103 -0.4620 -0.0276  0.1673
  793MPD2    C411741   2.225   1.089  11.098  0.2329  0.4203  0.0031
  793MPD2    C511742   2.163   1.048  10.986 -0.0759 -0.0699  0.7925
  793MPD2     H11743   2.549   1.072  10.981 -0.3253  1.5416 -2.9310
  793MPD2    H111744   2.165   1.104  11.187 -3.1748 -1.9888 -1.9207
  793MPD2    H211745   2.180   0.944  10.811  0.8228  1.7195 -1.7281
  793MPD2    H311746   2.056   1.029  10.980 -0.0371  0.2705 -0.9830
  793MPD2     N11747   2.426   1.147  11.221  0.4237  0.0227  0.5169
  793MPD2    H511748   2.527   1.152  11.213  0.5242 -2.3355  0.4323
  793MPD2    N111749   2.449   0.997  10.760  0.7648 -0.0663 -0.3204
  793MPD2    H711750   2.548   1.020  10.760  1.0128 -1.1989 -2.2626
  794MPD2     C11751   3.489   0.296  17.318  0.3227  0.3793  0.2879
  794MPD2    C111752   3.480   0.174  17.258  0.3457  0.0647 -0.4271
  794MPD2    C211753   3.464   0.174  17.122  0.0111  0.0010 -0.3721
  794MPD2    C311754   3.442   0.292  17.052  0.2713 -0.0763 -0.3058
  794MPD2    C411755   3.461   0.408  17.122 -0.8385 -0.3955 -0.0411
  794MPD2    C511756   3.486   0.412  17.251 -0.2716  0.0204 -0.1806
  794MPD2     H11757   3.461   0.080  17.068 -0.9926  0.6394 -1.4309
  794MPD2    H111758   3.446   0.498  17.065 -0.0150  0.3687  0.9414
  794MPD2    H211759   3.479   0.309  17.425  2.3925  2.0650  0.2809
  794MPD2    H311760   3.485   0.506  17.305 -0.2332 -0.6628  1.0135
  794MPD2     N11761   3.430   0.295  16.910  0.2340  0.1744 -0.3298
  794MPD2    H511762   3.435   0.385  16.863  1.9880 -0.2480 -0.9299
  794MPD2    N111763   3.488   0.049  17.323 -0.8644  0.4583 -0.3512
  794MPD2    H711764   3.468   4.707  17.267  0.1147  0.2602 -0.4045
  795MPD2     C11765   1.057   2.718  13.869 -0.0963 -0.8820 -0.6051
  795MPD2    C111766   0.977   2.621  13.833 -0.0767 -0.1701 -0.3580
  795MPD2    C211767   1.008   2.492  13.877 -0.5019 -0.5745 -0.0500
  795MPD2    C311768   1.124   2.464  13.949  0.2835  0.1151  0.2591
  795MPD2    C411769   1.197   2.571  13.993 -0.0927 -0.2305 -0.1175
  795MPD2    C511770   1.167   2.701  13.945 -0.4371 -0.0921  0.2441
  795MPD2     H11771   0.933   2.421  13.844 -3.8352  2.1535  1.6339
  795MPD2    H111772   1.294   2.560  14.041 -0.2466 -0.2535  0.1897
  795MPD2    H211773   1.043   2.819  13.831 -0.6686  0.8441  4.1272
  795MPD2    H311774   1.215   2.790  13.985 -0.8788  0.9267 -1.5224
  795MPD2     N11775   1.179   2.328  13.967  0.6901  0.1426 -0.3572
  795MPD2    H511776   1.118   2.256  13.930  2.6258  0.0223 -3.3436
  795MPD2    N111777   0.860   2.641  13.756 -0.8183 -0.1070  0.0059
  795MPD2    H711778   0.817   2.560  13.712  0.9057 -1.1931  0.3318
  796MPD2     C11779   0.633   3.669  15.884 -0.3962 -0.2933 -0.3107
  796MPD2    C111780   0.704   3.746  15.973 -0.4802  0.1971  0.4444
  796MPD2    C211781   0.701   3.889  15.965 -0.5304 -0.3517 -0.2548
  796MPD2    C311782   0.622   3.945  15.870 -0.1970  0.2813 -0.0100
  796MPD2    C411783   0.538   3.863  15.789  0.2975  0.4630 -0.0080
  796MPD2    C511784   0.547   3.728  15.795  0.2902 -0.2933 -0.4540
  796MPD2     H11785   0.763   3.951  16.029  0.2633 -0.8009 -0.5832
  796MPD2    H111786   0.462   3.897  15.720  0.2098  1.3920  0.5516
  796MPD2    H211787   0.627   3.561  15.892 -0.7977 -0.2595 -0.1850
  796MPD2    H311788   0.480   3.669  15.733  3.1646 -0.3547 -3.5074
  796MPD2     N11789   0.633   4.086  15.855 -0.0109 -0.2932  0.2429
  796MPD2    H511790   0.703   4.125  15.918  1.2897 -0.4109 -1.1204
  796MPD2    N111791   0.779   3.674  16.056  0.1444  0.3301  0.0159
  796MPD2    H711792   0.785   3.574  16.041  0.6665  0.6207 -1.6518
  797MPD2     C11793   1.977   3.128  17.395  0.1612 -0.0341 -0.6253
  797MPD2    C111794   1.964   3.237  17.478  0.2192 -0.2790 -0.4486
  797MPD2    C211795   1.856   3.321  17.459  0.7061  0.4276 -0.1421
  797MPD2    C311796   1.761   3.296  17.364 -0.0817  0.2379 -0.1029
  797MPD2    C411797   1.772   3.182  17.291  0.3257 -0.6035 -0.1583
  797MPD2    C511798   1.873   3.099  17.312 -1.7331 -0.3718  0.3448
  797MPD2     H11799   1.853   3.413  17.516 -3.6951 -0.0751  0.4491
  797MPD2    H111800   1.701   3.144  17.218 -0.1005 -1.7075  0.8278
  797MPD2    H211801   2.055   3.053  17.399  2.5199  2.5428  1.6965
  797MPD2    H311802   1.876   3.005  17.258 -1.0211  0.2291 -0.6487
  797MPD2     N11803   1.664   3.400  17.345 -0.0097 -0.3744  0.1042
  797MPD2    H511804   1.674   3.484  17.400 -0.3469 -0.6455  0.5755
  797MPD2    N111805   2.061   3.288  17.561 -0.5863  0.0808  0.8274
  797MPD2    H711806   2.036   3.375  17.608 -0.5683 -0.1926  1.3454
  798MPD2     C11807   1.910   4.019  17.577  0.0542 -0.6986  0.9733
  798MPD2    C111808   1.860   3.893  17.555 -0.5922 -0.2950  0.6166
  798MPD2    C211809   1.927   3.788  17.621  0.5997  0.9895  0.3023
  798MPD2    C311810   2.038   3.809  17.704  0.2099  0.6639  0.3045
  798MPD2    C411811   2.076   3.940  17.731 -0.5277 -0.7068 -0.1648
  798MPD2    C511812   2.012   4.042  17.665 -0.5826 -0.1811 -0.2194
  798MPD2     H11813   1.901   3.684  17.604  0.4812  0.8192  1.4979
  798MPD2    H111814   2.166   3.971   0.026 -1.2869  0.4211  0.5010
  798MPD2    H211815   1.870   4.102  17.519 -0.0655 -0.4081  1.4749
  798MPD2    H311816   2.048   4.142  17.685  2.4358 -0.9586 -1.7794
  798MPD2     N11817   2.111   3.702  17.748 -0.1149  0.4960 -1.1119
  798MPD2    H511818   2.064   3.612  17.742  1.3794 -0.5386  2.5974
  798MPD2    N111819   1.760   3.878  17.457  0.5733 -0.1858 -0.5846
  798MPD2    H711820   1.730   3.965  17.413  0.2422  0.4488  0.9133
  799MPD2     C11821   0.703   0.412  14.625  0.0702  0.4904  0.2141
  799MPD2    C111822   0.650   0.322  14.534  0.7884  0.3272  0.2941
  799MPD2    C211823   0.602   0.375  14.416 -0.0871  0.7165 -0.3818
  799MPD2    C311824   0.612   0.508  14.388 -0.0178  0.2422  0.8102
  799MPD2    C411825   0.673   0.592  14.475 -0.6507 -0.0712 -0.7533
  799MPD2    C511826   0.711   0.547  14.596  0.1064 -0.2451 -0.0118
  799MPD2     H11827   0.561   0.303  14.347  1.9075  0.1990 -1.0306
  799MPD2    H111828   0.679   0.699  14.456  0.9910  0.1250  1.0118
  799MPD2    H211829   0.745   0.375  14.718 -1.9039 -0.7253  0.6156
  799MPD2    H311830   0.761   0.616  14.664  0.2617  0.6619 -1.0538
  799MPD2     N11831   0.571   0.555  14.259  0.4051  0.4545  0.4092
  799MPD2    H511832   0.600   0.650  14.239  0.5460  0.6694  1.6386
  799MPD2    N111833   0.647   0.184  14.554  0.3102  0.4454 -0.4331
  799MPD2    H711834   0.592   0.127  14.491  2.3092 -0.9476 -0.9453
  800MPD2     C11835   0.806   1.659  14.405  0.3909  0.2614  0.1471
  800MPD2    C111836   0.892   1.552  14.406  0.5146  0.0111 -0.4849
  800MPD2    C211837   0.844   1.431  14.362 -0.0463 -0.1394  0.1043
  800MPD2    C311838   0.714   1.417  14.324  0.4400  0.3427 -0.5954
  800MPD2    C411839   0.625   1.525  14.347 -0.2166 -0.8966 -1.0750
  800MPD2    C511840   0.670   1.642  14.391  0.1329  0.6198  0.3690
  800MPD2     H11841   0.914   1.348  14.354  0.1756  0.0793 -0.2278
  800MPD2    H111842   0.518   1.510  14.336 -0.4994  0.4539 -0.1083
  800MPD2    H211843   0.844   1.759  14.420 -0.6052  0.7572 -0.6336
  800MPD2    H311844   0.606   1.728  14.398 -1.6212 -0.5682 -0.9968
  800MPD2     N11845   0.681   1.292  14.278  0.2303 -0.2702  0.6338
  800MPD2    H511846   0.754   1.225  14.259  1.1675  1.0815 -0.5295
  800MPD2    N111847   1.028   1.575  14.419 -0.7998  0.4970 -0.4307
  800MPD2    H711848   1.046   1.674  14.434  1.1111 -0.0815  1.0407
  801MPD2     C11849   1.440   2.169  14.308 -0.0661 -0.8459  0.1709
  801MPD2    C111850   1.330   2.101  14.360  0.0910 -0.1721  0.8935
  801MPD2    C211851   1.221   2.172  14.395  0.4365  0.2200 -0.2045
  801MPD2    C311852   1.225   2.316  14.404 -0.5304  0.5546 -0.6243
  801MPD2    C411853   1.337   2.378  14.366 -0.5405 -0.0186  0.0498
  801MPD2    C511854   1.441   2.303  14.320 -0.1219 -0.0063  0.3243
  801MPD2     H11855   1.135   2.135  14.450 -0.2681 -0.1435 -1.5357
  801MPD2    H111856   1.336   2.486  14.374 -0.5073  0.0728 -1.1962
  801MPD2    H211857   1.525   2.120  14.262  0.3879  1.0972 -1.0482
  801MPD2    H311858   1.516   2.361  14.267  0.2336  1.1165  2.0668
  801MPD2     N11859   1.116   2.391  14.450 -0.5997 -0.2136  0.3753
  801MPD2    H511860   1.114   2.489  14.478  0.2033  0.6427 -2.6343
  801MPD2    N111861   1.339   1.960  14.380 -0.0696  0.0820  0.0549
  801MPD2    H711862   1.260   1.928  14.437  0.7385  0.2431  1.2675
  802MPD2     C11863   0.782   2.204   0.126 -0.5420 -0.0828 -0.2269
  802MPD2    C111864   0.762   2.297   0.028  0.0489  1.0707  0.3329
  802MPD2    C211865   0.832   2.278  17.667 -0.3733 -0.0372 -0.0031
  802MPD2    C311866   0.914   2.166  17.652  0.5012 -0.6063  0.7490
  802MPD2    C411867   0.909   2.066  17.745  0.2621 -0.2225  0.0201
  802MPD2    C511868   0.850   2.087   0.110 -0.2594  0.4268  0.1018
  802MPD2     H11869   0.826   2.356  17.592  0.1167  0.2556  0.2688
  802MPD2    H111870   0.943   1.964  17.728  0.2509 -0.0807 -0.8477
  802MPD2    H211871   0.703   2.207   0.200 -1.0911  1.7031 -0.8740
  802MPD2    H311872   0.857   2.005   0.180 -1.8104  0.4928  0.3433
  802MPD2     N11873   0.975   2.149  17.526 -0.5465  0.0298  0.2253
  802MPD2    H511874   0.962   2.220  17.454  1.1434 -1.3341 -1.4431
  802MPD2    N111875   0.681   2.408   0.050  0.7112  0.4125  0.1599
  802MPD2    H711876   0.653   2.451  17.719  1.2411  0.2492 -0.0900
  803MPD2     C11877   0.779   0.842  12.368 -0.8441 -0.1146 -0.5870
  803MPD2    C111878   0.838   0.961  12.401  0.5686 -0.0142  0.1714
  803MPD2    C211879   0.951   0.972  12.473 -0.1242  0.3226  0.2370
  803MPD2    C311880   1.031   0.860  12.493 -1.0411  0.2662  0.1361
  803MPD2    C411881   0.985   0.739  12.449 -0.5962 -0.4497  0.2206
  803MPD2    C511882   0.867   0.735  12.387 -0.0417  0.0375  0.3613
  803MPD2     H11883   0.973   1.073  12.505 -0.5168  0.5602 -0.2516
  803MPD2    H111884   1.048   0.653  12.468  0.7283  0.2135 -1.1222
  803MPD2    H211885   0.689   0.830  12.310 -1.8149  0.2530  0.8285
  803MPD2    H311886   0.842   0.643  12.335 -0.5087  1.3118 -1.6844
  803MPD2     N11887   1.147   0.863  12.581 -0.3888 -1.1743  0.3121
  803MPD2    H511888   1.196   0.777  12.603  0.6708 -1.6086 -3.7551
  803MPD2    N111889   0.778   1.087  12.368 -0.5007  0.1086 -0.3824
  803MPD2    H711890   0.831   1.173  12.375  0.8991 -0.6548 -1.5255
  804MPD2     C11891   1.392   1.798  17.183 -0.2272  0.5691  0.0886
  804MPD2    C111892   1.361   1.784  17.317  0.3171  0.0308  0.2456
  804MPD2    C211893   1.388   1.896  17.399 -0.1613 -0.3481 -0.0332
  804MPD2    C311894   1.411   2.025  17.357 -0.2141  0.2215 -0.1621
  804MPD2    C411895   1.426   2.033  17.216 -0.4532 -0.0328  0.1900
  804MPD2    C511896   1.427   1.926  17.138  0.8971 -0.8391 -0.1423
  804MPD2     H11897   1.392   1.874  17.506  3.6128  0.4212 -0.0289
  804MPD2    H111898   1.469   2.120  17.168 -1.1461  0.6425  0.7944
  804MPD2    H211899   1.383   1.727  17.102 -1.7937  1.5876 -0.6475
  804MPD2    H311900   1.456   1.942  17.035  1.4787  0.2377  0.1933
  804MPD2     N11901   1.429   2.126  17.450 -0.2330  0.9645 -0.0132
  804MPD2    H511902   1.446   2.100  17.547 -0.4131 -1.2258 -0.5605
  804MPD2    N111903   1.341   1.657  17.372 -0.6330 -0.4423 -0.0610
  804MPD2    H711904   1.335   1.647  17.473  0.0536  1.7577  0.2023
  805MPD2     C11905   0.292   0.088  15.317  0.0942 -0.7582  0.3575
  805MPD2    C111906   0.315   0.220  15.306 -0.5986 -0.4056  0.7089
  805MPD2    C211907   0.420   0.277  15.372 -0.3667  0.6660 -0.7766
  805MPD2    C311908   0.500   0.206  15.453 -0.5738  0.2082  0.1594
  805MPD2    C411909   0.470   0.074  15.473  0.1457 -0.3827 -0.1956
  805MPD2    C511910   0.361   0.014  15.407  0.2874 -0.1497 -0.4035
  805MPD2     H11911   0.439   0.382  15.352  2.1598  0.0916 -1.3522
  805MPD2    H111912   0.540   0.005  15.517  2.5172  2.9902  1.2826
  805MPD2    H211913   0.211   0.038  15.265  0.5805 -0.1575 -0.9636
  805MPD2    H311914   0.338   4.650  15.427 -1.5149  0.5153  0.9253
  805MPD2     N11915   0.605   0.276  15.519  0.1477  0.1160  0.0937
  805MPD2    H511916   0.629   0.370  15.490  3.6985 -0.8691 -0.2046
  805MPD2    N111917   0.231   0.298  15.225  0.0539  0.1181  0.5371
  805MPD2    H711918   0.252   0.397  15.226 -0.7580  0.3350 -2.0675
  806MPD2     C11919   0.827   4.326   0.136 -0.7066  0.1470 -0.6724
  806MPD2    C111920   0.790   4.408   0.243 -0.6616 -0.0545  0.4508
  806MPD2    C211921   0.829   4.537   0.246 -0.3595 -0.1518 -0.2021
  806MPD2    C311922   0.924   4.588   0.162  0.1514 -0.5073 -0.1244
  806MPD2    C411923   0.955   4.513   0.050  0.3120 -0.7447 -0.5542
  806MPD2    C511924   0.906   4.387   0.037 -0.2894  0.0975 -0.1134
  806MPD2     H11925   0.786   4.605   0.319 -0.3240  0.3310 -0.6338
  806MPD2    H111926   1.024   4.542  17.728  2.1053 -0.8511  0.9843
  806MPD2    H211927   0.795   4.222   0.137  1.1695 -0.4394  1.3377
  806MPD2    H311928   0.948   4.319  17.720  0.5093 -1.8641  2.1578
  806MPD2     N11929   0.949   4.729   0.186 -0.5053  0.0003 -0.2756
  806MPD2    H511930   0.908   0.035   0.266 -0.9494  0.3643 -0.7099
  806MPD2    N111931   0.698   4.345   0.327  0.0589  0.3832  0.1308
  806MPD2    H711932   0.693   4.246   0.308 -2.5406 -0.1167  3.3980
  807MPD2     C11933   0.728   3.745   0.222  0.1796 -0.3870  0.2628
  807MPD2    C111934   0.706   3.721   0.353 -0.5280 -0.8182 -0.1872
  807MPD2    C211935   0.701   3.588   0.394 -0.1038 -0.1552  0.4648
  807MPD2    C311936   0.722   3.484   0.309  0.0287  0.1734 -0.6262
  807MPD2    C411937   0.749   3.512   0.168  0.1470  0.7783  0.1710
  807MPD2    C511938   0.753   3.645   0.131 -0.6972 -0.2266  0.3020
  807MPD2     H11939   0.689   3.575   0.501 -0.8162 -2.7962  0.0618
  807MPD2    H111940   0.762   3.433   0.095  2.6522  0.8153  0.5897
  807MPD2    H211941   0.727   3.844   0.179  0.2528 -1.2933 -1.8633
  807MPD2    H311942   0.780   3.665   0.028  1.9889  0.8943  1.2325
  807MPD2     N11943   0.709   3.348   0.359 -0.1998  0.0206 -0.2754
  807MPD2    H511944   0.696   3.342   0.460 -0.2326 -0.1097 -0.2876
  807MPD2    N111945   0.664   3.826   0.443 -1.0682 -0.0596  0.1679
  807MPD2    H711946   0.622   3.805   0.533 -1.6556  1.3269  0.2214
  808MPD2     C11947   0.585   2.132  10.172 -0.3693 -0.1597 -0.5242
  808MPD2    C111948   0.551   2.087  10.049  0.1736 -0.0023 -0.0069
  808MPD2    C211949   0.557   2.179   9.943 -0.4020 -0.2500 -0.0802
  808MPD2    C311950   0.607   2.308   9.962 -0.1606  0.1421  0.5893
  808MPD2    C411951   0.656   2.342  10.090  0.5344 -0.1534  0.8251
  808MPD2    C511952   0.638   2.258  10.192 -0.0316  0.4225  0.5784
  808MPD2     H11953   0.530   2.150   9.842 -0.1163 -3.3201  0.7066
  808MPD2    H111954   0.711   2.432  10.117  0.3437  0.7137 -1.5991
  808MPD2    H211955   0.573   2.068  10.258 -4.8142  0.6926 -0.5394
  808MPD2    H311956   0.678   2.284  10.289  0.3531  1.5567  0.1206
  808MPD2     N11957   0.612   2.408   9.862 -0.2589 -0.0223 -0.1222
  808MPD2    H511958   0.646   2.500   9.889  0.7884 -0.3567 -0.2820
  808MPD2    N111959   0.515   1.955  10.012 -0.4555  0.4202  0.1042
  808MPD2    H711960   0.470   1.950   9.921 -0.4901  1.8765  0.0392
  809MPD2     C11961   0.895   2.897   8.938 -0.2223 -0.4295 -0.3526
  809MPD2    C111962   0.942   2.787   9.009  0.3430  0.2095  0.1570
  809MPD2    C211963   0.863   2.743   9.112 -0.1720 -0.6706  0.3151
  809MPD2    C311964   0.733   2.788   9.138  0.6736 -0.2061  0.7800
  809MPD2    C411965   0.681   2.891   9.058  0.3488  0.7237 -0.3915
  809MPD2    C511966   0.768   2.938   8.959 -0.4599 -0.2764 -0.3154
  809MPD2     H11967   0.902   2.666   9.178 -0.3271 -1.5337 -0.6133
  809MPD2    H111968   0.583   2.935   9.071 -0.0187 -0.3175  0.4188
  809MPD2    H211969   0.947   2.935   8.851 -1.1513  1.9943  0.1665
  809MPD2    H311970   0.744   3.034   8.915  0.6457  1.5414  3.0369
  809MPD2     N11971   0.658   2.739   9.246  0.9670  0.0451  0.1777
  809MPD2    H511972   0.572   2.786   9.275 -0.0665 -1.4427 -0.4863
  809MPD2    N111973   1.079   2.748   8.998 -0.3056  0.1999 -0.3745
  809MPD2    H711974   1.105   2.675   9.063 -0.5745  0.7559  0.3651
  810MPD2     C11975   0.618   1.212  11.214 -0.4610  0.5433  0.2778
  810MPD2    C111976   0.510   1.296  11.178  0.2467  0.6169  0.3510
  810MPD2    C211977   0.530   1.416  11.107  0.2472 -0.2767  0.1359
  810MPD2    C311978   0.658   1.463  11.070  0.0026 -0.1710  0.2351
  810MPD2    C411979   0.755   1.372  11.104  0.5407  0.9206 -0.2274
  810MPD2    C511980   0.740   1.255  11.176  0.2993 -0.1810  0.0720
  810MPD2     H11981   0.451   1.474  11.060 -2.2551 -2.1501  2.0256
  810MPD2    H111982   0.856   1.399  11.077  0.5937 -0.2750 -1.2441
  810MPD2    H211983   0.607   1.114  11.259  0.7424  0.8821  1.3094
  810MPD2    H311984   0.824   1.194  11.208 -0.0347 -0.1819  0.9398
  810MPD2     N11985   0.673   1.576  10.976  1.0627  0.5753 -0.4026
  810MPD2    H511986   0.583   1.615  10.950  0.1356 -0.8489  0.6215
  810MPD2    N111987   0.377   1.261  11.217 -0.6966  0.1318 -0.2952
  810MPD2    H711988   0.363   1.167  11.253  0.9426 -0.2238 -0.5774
  811MPD2     C11989   4.352   1.107  10.768 -0.2731  0.4847  0.1189
  811MPD2    C111990   4.460   1.191  10.777  0.0686  0.6288 -0.3577
  811MPD2    C211991   4.505   1.251  10.670  0.2098  0.1195  0.0266
  811MPD2    C311992   4.450   1.242  10.539  0.5477 -0.2082  0.0510
  811MPD2    C411993   4.345   1.155  10.523 -0.2622  0.3625 -0.0514
  811MPD2    C511994   4.302   1.089  10.636  0.4990  0.1021  0.3195
  811MPD2     H11995   4.597   1.307  10.679 -1.0675  2.1332  0.6354
  811MPD2    H111996   4.309   1.128  10.424  1.1499 -0.4963 -0.3316
  811MPD2    H211997   4.313   1.059  10.857 -1.2822 -3.3242 -2.3886
  811MPD2    H311998   4.214   1.028  10.618 -0.0265  1.1365 -0.6336
  811MPD2     N11999   4.502   1.325  10.441 -0.0429  0.7300  0.0909
  811MPD2    H512000   4.582   1.380  10.471 -0.2043  0.6164  0.7115
  811MPD2    N112001   4.537   1.186  10.900 -0.8999 -0.1523  0.3276
  811MPD2    H712002   4.482   1.151  10.977 -0.5671  0.9672  1.0718
  812MPD2     C12003   3.636   1.071  11.970 -0.2055  0.1714  0.0582
  812MPD2    C112004   3.661   1.175  12.047  0.0098 -0.0282 -0.2486
  812MPD2    C212005   3.721   1.147  12.169 -1.2530  0.2036  0.0934
  812MPD2    C312006   3.745   1.015  12.205  0.1917  0.3271  0.1894
  812MPD2    C412007   3.692   0.915  12.129  0.2225 -1.2856 -1.0320
  812MPD2    C512008   3.640   0.939  12.007 -0.6579 -0.2680 -0.2784
  812MPD2     H12009   3.750   1.227  12.236  0.8232 -0.4365 -0.0166
  812MPD2    H112010   3.694   0.813  12.165 -0.9176 -0.9004  0.1302
  812MPD2    H212011   3.606   1.100  11.870 -1.5022 -0.0648  0.3787
  812MPD2    H312012   3.619   0.861  11.934 -0.9902  0.2511 -0.7420
  812MPD2     N12013   3.814   0.993  12.335  0.4385 -0.1202  0.2535
  812MPD2    H512014   3.865   1.071  12.375  1.1538  0.6104 -2.0970
  812MPD2    N112015   3.637   1.306  11.995  0.0252  0.6379  0.4138
  812MPD2    H712016   3.583   1.311  11.909 -0.1076 -0.3435  0.4370
  813MPD2     C12017   3.018   2.597  12.672  0.4385 -0.4168  0.0954
  813MPD2    C112018   3.051   2.712  12.752  0.1897  0.6248  1.0718
  813MPD2    C212019   2.990   2.734  12.874 -0.4260  0.4668  0.8450
  813MPD2    C312020   2.901   2.642  12.927  0.2868 -0.1568  0.0579
  813MPD2    C412021   2.869   2.530  12.852  0.2252 -0.5103 -0.2981
  813MPD2    C512022   2.924   2.516  12.727 -0.0460  0.0011  0.2280
  813MPD2     H12023   3.033   2.812  12.935 -0.3217  0.0602  1.2932
  813MPD2    H112024   2.811   2.447  12.889 -1.0103  0.0683 -0.9598
  813MPD2    H212025   3.063   2.575  12.576 -0.3268 -0.9692 -0.1322
  813MPD2    H312026   2.906   2.423  12.674 -0.2406 -0.3229  0.8637
  813MPD2     N12027   2.863   2.660  13.064 -0.0404  0.2444  0.2556
  813MPD2    H512028   2.899   2.748  13.099 -1.2233  1.1916 -0.8683
  813MPD2    N112029   3.141   2.801  12.705  0.0123  0.0248  0.5566
  813MPD2    H712030   3.150   2.886  12.759  2.0365  0.0780  0.1577
  814MPD2     C12031   3.156   4.034  12.486 -0.2253  0.4974  0.0781
  814MPD2    C112032   3.258   4.051  12.402  0.1279  0.0071  0.4378
  814MPD2    C212033   3.364   4.130  12.442 -0.1422  0.4956 -0.2393
  814MPD2    C312034   3.344   4.223  12.545 -0.5518  0.8576 -0.0823
  814MPD2    C412035   3.226   4.223  12.609 -0.0215  0.1791 -0.2625
  814MPD2    C512036   3.142   4.118  12.589 -0.2374 -0.0789  0.0543
  814MPD2     H12037   3.449   4.132  12.375  0.2983 -0.1051  0.3136
  814MPD2    H112038   3.199   4.293  12.687 -0.6269 -1.3173  0.8672
  814MPD2    H212039   3.065   3.985  12.454 -1.2925  1.0178  2.3231
  814MPD2    H312040   3.050   4.129  12.645 -0.5209 -1.1730 -0.2001
  814MPD2     N12041   3.432   4.324  12.580  0.0008  0.4815 -0.1435
  814MPD2    H512042   3.397   4.398  12.640  2.2559  0.1973  1.5285
  814MPD2    N112043   3.275   3.975  12.280  0.2221  0.1211  0.1316
  814MPD2    H712044   3.340   4.007  12.209 -0.1839 -0.4942 -0.5159
  815MPD2     C12045   4.018   3.150  11.724 -0.1215  0.1596 -0.2523
  815MPD2    C112046   3.990   3.014  11.744  0.6690 -0.0197 -0.2073
  815MPD2    C212047   3.853   2.977  11.772 -0.3822  0.2170 -0.2034
  815MPD2    C312048   3.754   3.075  11.785 -0.0952  0.4640  0.1378
  815MPD2    C412049   3.785   3.205  11.764  0.4531  0.4542 -0.3001
  815MPD2    C512050   3.919   3.242  11.748 -0.5327  0.4163 -0.1221
  815MPD2     H12051   3.827   2.872  11.773 -0.1966  0.1712 -0.2975
  815MPD2    H112052   3.708   3.282  11.762 -0.4242 -0.4885 -2.6779
  815MPD2    H212053   4.119   3.187  11.706 -0.5075  0.3866 -1.9209
  815MPD2    H312054   3.942   3.346  11.733  0.0236  0.1812 -0.8714
  815MPD2     N12055   3.618   3.033  11.822 -0.1167 -0.2558  0.0504
  815MPD2    H512056   3.596   2.934  11.829 -2.2303  0.5865  5.4604
  815MPD2    N112057   4.094   2.924  11.709 -0.3923 -0.1232  0.6039
  815MPD2    H712058   4.185   2.962  11.684 -0.4431  0.6839  1.6180
  816MPD2     C12059   4.141   1.138  17.289  0.3036 -0.7685 -1.2178
  816MPD2    C112060   4.199   1.264  17.308 -0.2103  0.2146 -0.3355
  816MPD2    C212061   4.339   1.278  17.307 -0.3091 -0.2902  0.4607
  816MPD2    C312062   4.420   1.168  17.294 -0.1741 -0.2110 -0.3104
  816MPD2    C412063   4.361   1.043  17.283 -0.0255 -0.0474  0.4766
  816MPD2    C512064   4.225   1.032  17.290  0.4682  0.1216  0.2249
  816MPD2     H12065   4.385   1.372  17.332  0.2385  0.0689 -1.9389
  816MPD2    H112066   4.423   0.954  17.284 -0.4402 -0.3387  0.4119
  816MPD2    H212067   4.033   1.128  17.286  0.1619  0.2282  0.4520
  816MPD2    H312068   4.187   0.931  17.287  1.2213 -0.1061 -1.7248
  816MPD2     N12069   4.551   1.196  17.280  0.8198 -0.0403 -0.6026
  816MPD2    H512070   4.580   1.294  17.283  0.4509  0.0559 -0.2647
  816MPD2    N112071   4.115   1.384  17.320  0.0210  0.5511 -0.7796
  816MPD2    H712072   4.021   1.375  17.283 -0.4035 -1.4588  0.7926
  817MPD2     C12073   3.359   3.386   9.884 -0.3999 -0.4173  0.3564
  817MPD2    C112074   3.419   3.433   9.771 -0.1527 -0.1195  0.0373
  817MPD2    C212075   3.428   3.566   9.737 -0.1803  0.0896  0.4483
  817MPD2    C312076   3.357   3.655   9.825  0.7127 -1.0215 -0.1542
  817MPD2    C412077   3.288   3.607   9.941 -0.1951 -0.2939 -0.3311
  817MPD2    C512078   3.286   3.473   9.965 -0.1685 -0.0244 -0.4162
  817MPD2     H12079   3.488   3.599   9.654 -0.5830 -0.0483  0.1053
  817MPD2    H112080   3.219   3.669   9.997  1.8140  2.5685 -1.0083
  817MPD2    H212081   3.371   3.284   9.918 -1.1561 -0.7034 -0.2251
  817MPD2    H312082   3.225   3.431  10.044  2.0550  0.6959  1.6682
  817MPD2     N12083   3.390   3.789   9.798  0.1014  0.4624 -0.4325
  817MPD2    H512084   3.445   3.801   9.713 -0.7392  1.6672 -0.8123
  817MPD2    N112085   3.490   3.347   9.681  0.3966 -0.8130  0.3113
  817MPD2    H712086   3.532   3.394   9.602 -0.6988 -0.7028 -0.2028
  818MPD2     C12087   2.194   3.718   9.375  0.1554 -0.1427  0.5903
  818MPD2    C112088   2.127   3.631   9.457 -0.7031  0.5261 -0.7678
  818MPD2    C212089   2.100   3.508   9.395 -0.2555  0.4651  0.0320
  818MPD2    C312090   2.122   3.485   9.264 -0.6050 -0.3519 -1.2278
  818MPD2    C412091   2.183   3.580   9.182 -1.2652  0.4369 -0.1343
  818MPD2    C512092   2.220   3.697   9.241  0.1230 -0.0220  0.3299
  818MPD2     H12093   2.045   3.431   9.448  0.1905  1.3572  1.7691
  818MPD2    H112094   2.206   3.557   9.078  1.8782  0.2817  0.5905
  818MPD2    H212095   2.215   3.814   9.420  1.6101 -0.5289  0.7346
  818MPD2    H312096   2.272   3.777   9.189 -1.3365  1.0029  0.4478
  818MPD2     N12097   2.113   3.355   9.208 -0.3554  0.1960 -0.1958
  818MPD2    H512098   2.164   3.342   9.122  0.5012  1.1092  0.1786
  818MPD2    N112099   2.094   3.654   9.594 -0.4871  0.5983  0.7201
  818MPD2    H712100   2.047   3.577   9.642 -2.9069  0.9281 -1.0903
  819MPD2     C12101   1.051   0.087  15.536  1.0644  0.3138  0.6802
  819MPD2    C112102   1.048   4.694  15.507  0.3643  0.2412  0.1971
  819MPD2    C212103   1.158   4.616  15.547  0.0661 -0.6860  0.3155
  819MPD2    C312104   1.275   4.675  15.595 -0.2181  1.2119  0.4211
  819MPD2    C412105   1.273   0.070  15.624 -0.8333 -1.1185  0.3596
  819MPD2    C512106   1.158   0.143  15.597 -0.1690  0.0875  0.0091
  819MPD2     H12107   1.169   4.516  15.507  3.7696 -0.6455  1.1784
  819MPD2    H112108   1.352   0.105  15.690  1.0095 -2.4267 -1.1495
  819MPD2    H212109   0.961   0.145  15.519  0.8112 -0.3145 -0.1388
  819MPD2    H312110   1.148   0.251  15.610  1.3793 -0.1147  2.9089
  819MPD2     N12111   1.387   4.593  15.613 -0.5934  0.6880  0.1383
  819MPD2    H512112   1.378   4.494  15.595  1.2105  0.1688  2.0643
  819MPD2    N112113   0.933   4.648  15.440 -0.3854  0.0503 -0.1021
  819MPD2    H712114   0.882   4.718  15.386  0.1477  0.5365  0.0287
  820MPD2     C12115   0.214   4.707  14.757 -0.2232  0.0241  0.3072
  820MPD2    C112116   0.305   0.047  14.817  0.3848 -0.2174  0.2555
  820MPD2    C212117   0.396   0.000  14.906 -0.3056 -0.6890  0.5807
  820MPD2    C312118   0.377   4.612  14.946  0.2816 -1.1379  0.1743
  820MPD2    C412119   0.290   4.529  14.882 -0.0646 -0.3010  0.6145
  820MPD2    C512120   0.202   4.579  14.789  0.2112 -0.2527 -0.2173
  820MPD2     H12121   0.455   0.074  14.958  0.6844 -0.1612 -1.2726
  820MPD2    H112122   0.289   4.425  14.911  3.9535 -0.6486 -0.3835
  820MPD2    H212123   0.134   4.733  14.689 -2.4761 -1.2425  2.4876
  820MPD2    H312124   0.141   4.507  14.734 -2.3394  2.3395 -0.7692
  820MPD2     N12125   0.451   4.564  15.059 -0.7391 -0.3458 -1.0183
  820MPD2    H512126   0.418   4.475  15.096 -0.6096 -1.1737 -2.9005
  820MPD2    N112127   0.305   0.180  14.773 -1.0731 -0.0563  0.5217
  820MPD2    H712128   0.236   0.203  14.702 -3.8557 -0.7861  2.9728
  821MPD2     C12129   0.561   1.704  13.655 -0.7535  0.4518  0.4372
  821MPD2    C112130   0.682   1.639  13.687 -0.0542  0.4422  0.1725
  821MPD2    C212131   0.801   1.685  13.637 -0.0440  0.3707  0.3005
  821MPD2    C312132   0.806   1.793  13.552  0.0190 -0.2258  0.6075
  821MPD2    C412133   0.689   1.849  13.512  0.4821 -1.3086  0.0570
  821MPD2    C512134   0.569   1.807  13.568 -1.2353 -0.8001  0.3645
  821MPD2     H12135   0.893   1.639  13.671  0.2654  0.3678 -0.5394
  821MPD2    H112136   0.696   1.931  13.441 -0.9980 -0.0230  1.3978
  821MPD2    H212137   0.461   1.689  13.695 -1.7294  1.1091 -1.7782
  821MPD2    H312138   0.476   1.854  13.540 -0.6771 -0.2691 -0.6159
  821MPD2     N12139   0.933   1.835  13.493 -0.0861 -0.3410  0.7440
  821MPD2    H512140   0.927   1.914  13.429 -0.0572 -0.6466  0.3578
  821MPD2    N112141   0.684   1.527  13.766 -0.4628 -0.2520  0.3881
  821MPD2    H712142   0.773   1.483  13.789  1.2662  2.5994 -0.8714
  822MPD2     C12143   1.724   1.326  15.551  0.4893 -0.2542 -0.0143
  822MPD2    C112144   1.754   1.284  15.679  0.5891 -0.0557  1.1503
  822MPD2    C212145   1.705   1.350  15.783 -0.7295 -0.2163  0.7370
  822MPD2    C312146   1.622   1.462  15.771  0.1842  0.4286 -0.1883
  822MPD2    C412147   1.592   1.502  15.645 -0.4414 -0.4922 -0.0011
  822MPD2    C512148   1.647   1.438  15.536  1.2337  0.4515 -0.0328
  822MPD2     H12149   1.733   1.305  15.877 -0.8737  0.0264  0.8961
  822MPD2    H112150   1.535   1.592  15.623 -0.2363  0.0280  1.5680
  822MPD2    H212151   1.789   1.292  15.471  1.3027  0.0724  0.5035
  822MPD2    H312152   1.625   1.480  15.438 -0.2565  0.8423  0.4582
  822MPD2     N12153   1.575   1.529  15.882  0.1671 -0.8358 -0.5239
  822MPD2    H512154   1.594   1.483  15.970 -0.6035  2.2709  1.2958
  822MPD2    N112155   1.848   1.185  15.712  0.0373 -0.6778  0.9124
  822MPD2    H712156   1.876   1.181  15.809 -0.8934 -1.4576  1.1470
  823MPD2     C12157   1.378   1.569  16.705  1.0677 -0.3145  0.0708
  823MPD2    C112158   1.403   1.504  16.587 -1.2112  0.1876  0.0372
  823MPD2    C212159   1.450   1.376  16.590 -0.5866  0.0345  0.3342
  823MPD2    C312160   1.458   1.311  16.710  0.7414 -0.4770  0.3931
  823MPD2    C412161   1.420   1.373  16.825 -0.3560  0.3205  0.5901
  823MPD2    C512162   1.376   1.504  16.829  0.4129 -0.6588 -0.1760
  823MPD2     H12163   1.482   1.327  16.499  1.6256  1.7369  0.1802
  823MPD2    H112164   1.406   1.315  16.916  0.0828  1.0517  1.1287
  823MPD2    H212165   1.355   1.674  16.697  0.1014 -0.5379 -0.1382
  823MPD2    H312166   1.334   1.558  16.913 -1.6263  0.8534 -2.1636
  823MPD2     N12167   1.516   1.181  16.728  0.7819  0.3029 -0.2333
  823MPD2    H512168   1.522   1.151  16.825  1.2394 -1.1799 -0.7165
  823MPD2    N112169   1.387   1.582  16.467 -0.0381 -0.4499  0.0198
  823MPD2    H712170   1.345   1.674  16.476  1.2274  0.2622 -1.4457
  824MPD2     C12171   2.194   0.634  15.256  0.5401  0.0200  0.4567
  824MPD2    C112172   2.281   0.678  15.357  0.0759  0.2347  0.5830
  824MPD2    C212173   2.413   0.652  15.349  1.1515 -1.0157  0.3366
  824MPD2    C312174   2.468   0.574  15.256  0.1148 -0.5587 -0.4566
  824MPD2    C412175   2.385   0.524  15.160 -0.1810  0.1039 -0.3228
  824MPD2    C512176   2.250   0.565  15.152  1.0965  0.5700 -0.1846
  824MPD2     H12177   2.480   0.685  15.427 -0.5549 -1.1331  1.8578
  824MPD2    H112178   2.417   0.460  15.079  1.7711 -0.0427  0.5637
  824MPD2    H212179   2.089   0.661  15.255  0.0134 -2.0291  0.6516
  824MPD2    H312180   2.177   0.521  15.085  0.5509  0.0492  0.7647
  824MPD2     N12181   2.604   0.542  15.263 -0.6429 -0.3182  0.6035
  824MPD2    H512182   2.649   0.587  15.342 -2.6387 -0.4093  1.7920
  824MPD2    N112183   2.219   0.747  15.464  0.8089 -0.0564  0.0820
  824MPD2    H712184   2.121   0.772  15.455  0.7700 -0.3548 -0.3117
  825MPD2     C12185   3.377   0.823  15.474 -0.0032 -0.0439 -0.5190
  825MPD2    C112186   3.240   0.816  15.471  0.0429 -0.0393 -0.6916
  825MPD2    C212187   3.165   0.907  15.539  0.3350  0.0430 -0.2942
  825MPD2    C312188   3.226   1.005  15.613  0.2872  0.1123  0.3047
  825MPD2    C412189   3.363   1.011  15.626  0.2455 -1.7046  0.4948
  825MPD2    C512190   3.437   0.924  15.543 -0.5641  0.4444 -0.0941
  825MPD2     H12191   3.057   0.902  15.542  0.3631  0.4417  2.0461
  825MPD2    H112192   3.419   1.076  15.692  0.5636 -0.7702 -0.6757
  825MPD2    H212193   3.433   0.743  15.425  1.2898 -0.6378  1.9104
  825MPD2    H312194   3.545   0.927  15.548 -0.6497 -1.8153  3.7682
  825MPD2     N12195   3.149   1.103  15.678  0.1344  0.5907  0.5100
  825MPD2    H512196   3.200   1.166  15.738 -0.9041 -0.7562  2.8150
  825MPD2    N112197   3.182   0.720  15.382 -0.4281 -0.8085 -0.1539
  825MPD2    H712198   3.245   0.653  15.340 -1.5762 -2.1476  0.2477
  826MPD2     C12199   2.368   0.167  13.567 -0.2007 -0.0190 -0.1042
  826MPD2    C112200   2.421   0.290  13.554 -0.1011 -0.5838  0.2528
  826MPD2    C212201   2.346   0.401  13.593  0.0272 -0.7692 -0.4864
  826MPD2    C312202   2.238   0.393  13.670  0.0208 -0.1992 -0.2231
  826MPD2    C412203   2.193   0.270  13.700  0.4748  0.1912  0.0454
  826MPD2    C512204   2.255   0.163  13.642 -0.3180  0.3476  0.6203
  826MPD2     H12205   2.392   0.498  13.577 -2.8265  0.6898  0.2082
  826MPD2    H112206   2.097   0.249  13.744  0.8932  2.4509  2.0330
  826MPD2    H212207   2.410   0.077  13.525  0.9013  0.3192  0.2856
  826MPD2    H312208   2.209   0.065  13.654  0.9256 -0.3982 -0.7846
  826MPD2     N12209   2.167   0.510  13.717  0.0661  0.4496 -0.3821
  826MPD2    H512210   2.108   0.489  13.797 -0.2971  1.1855 -0.4623
  826MPD2    N112211   2.541   0.292  13.477  0.4088  0.1412  0.2733
  826MPD2    H712212   2.584   0.202  13.460 -1.8603 -0.5176 -1.7747
  827MPD2     C12213   2.983   2.422   9.857 -0.2466 -0.1940 -0.0238
  827MPD2    C112214   2.943   2.365   9.972 -0.2733  0.0892 -0.4151
  827MPD2    C212215   2.818   2.303   9.971  0.8047  0.4823 -0.0509
  827MPD2    C312216   2.734   2.301   9.859 -0.3438 -0.0925  1.0894
  827MPD2    C412217   2.782   2.371   9.745 -0.2160 -0.4056 -0.7719
  827MPD2    C512218   2.907   2.432   9.750 -0.3030  0.2374 -1.0388
  827MPD2     H12219   2.787   2.261  10.067  0.9895 -1.2706 -0.7555
  827MPD2    H112220   2.732   2.384   9.649  0.5239 -1.7810 -1.3449
  827MPD2    H212221   3.082   2.467   9.853  0.0505 -0.8088  0.4808
  827MPD2    H312222   2.940   2.498   9.671 -1.9295 -0.6409 -2.4507
  827MPD2     N12223   2.602   2.253   9.873 -0.3718 -0.3952 -0.3983
  827MPD2    H512224   2.585   2.214   9.965 -1.6216  0.1225 -0.4164
  827MPD2    N112225   3.036   2.361  10.077  0.0649 -0.3770 -0.0125
  827MPD2    H712226   3.125   2.409  10.071 -0.0367 -0.1932 -0.0530
  828MPD2     C12227   1.491   2.227  12.394 -0.4269  0.1618 -0.1288
  828MPD2    C112228   1.424   2.289  12.298 -0.4719 -0.1236 -0.1286
  828MPD2    C212229   1.444   2.243  12.167 -0.1888 -0.4010  0.4164
  828MPD2    C312230   1.533   2.141  12.134 -0.5637  0.3806 -0.4528
  828MPD2    C412231   1.602   2.079  12.242  0.4590 -0.1171  0.0370
  828MPD2    C512232   1.575   2.123  12.367 -0.1101 -0.1342  0.5259
  828MPD2     H12233   1.387   2.296  12.091  2.4564  3.8241  1.3606
  828MPD2    H112234   1.661   1.988  12.229  0.3963  0.2567 -2.8250
  828MPD2    H212235   1.484   2.251  12.499 -0.4238  0.4490 -0.1937
  828MPD2    H312236   1.624   2.068  12.447 -1.1414  0.9919  1.9317
  828MPD2     N12237   1.541   2.084  12.004  0.3891 -0.1543 -0.2581
  828MPD2    H512238   1.628   2.041  11.976  0.1233  0.4578 -2.0364
  828MPD2    N112239   1.329   2.387  12.319 -0.1450  0.1681  0.5183
  828MPD2    H712240   1.274   2.405  12.236  0.5048  0.5816  0.1807
  829MPD2     C12241   0.742   2.985  11.796  0.3244 -0.0395  0.3870
  829MPD2    C112242   0.841   2.888  11.772 -0.0946  0.7796 -0.4094
  829MPD2    C212243   0.892   2.815  11.874  0.2904  0.1093 -0.5040
  829MPD2    C312244   0.850   2.844  12.006  0.4295  0.6077 -0.1342
  829MPD2    C412245   0.750   2.932  12.024  0.3490  0.1064  0.5468
  829MPD2    C512246   0.688   2.998  11.924 -0.5021 -0.3720  0.1984
  829MPD2     H12247   0.970   2.743  11.853 -1.0092 -1.1830 -0.8905
  829MPD2    H112248   0.708   2.948  12.122 -1.8920 -2.1991 -0.0075
  829MPD2    H212249   0.692   3.033  11.713 -0.6298 -0.4808  0.7071
  829MPD2    H312250   0.609   3.068  11.948  0.4228  1.1453 -1.1795
  829MPD2     N12251   0.899   2.782  12.122 -0.4791 -0.3427 -0.0182
  829MPD2    H512252   0.867   2.816  12.212 -0.5340 -0.8218  0.1381
  829MPD2    N112253   0.874   2.870  11.638 -0.5090 -0.3163  0.3178
  829MPD2    H712254   0.816   2.918  11.570 -0.5005 -0.7989 -0.0291
  830MPD2     C12255   2.287   4.349  15.611  0.1175  0.3352  0.3304
  830MPD2    C112256   2.216   4.456  15.647  0.4846  0.8268 -0.7558
  830MPD2    C212257   2.289   4.560  15.706  1.1106  0.7702 -0.0513
  830MPD2    C312258   2.425   4.564  15.708 -0.0309  0.1587  0.1322
  830MPD2    C412259   2.491   4.461  15.653 -0.1827  0.5092  0.6113
  830MPD2    C512260   2.422   4.354  15.608  0.6313 -0.6868 -0.0650
  830MPD2     H12261   2.235   4.649  15.739 -0.3031  0.6413 -1.9726
  830MPD2    H112262   2.599   4.459  15.641 -0.5829 -0.8708 -2.7450
  830MPD2    H212263   2.238   4.256  15.586  1.0849 -0.5315  1.5946
  830MPD2    H312264   2.478   4.273  15.561 -0.8602 -1.8283  0.1501
  830MPD2     N12265   2.497   4.681  15.741 -0.9356 -0.7369 -0.0552
  830MPD2    H512266   2.597   4.681  15.722 -0.4750  0.1051  2.4455
  830MPD2    N112267   2.078   4.447  15.635 -0.4238  0.2023 -0.4355
  830MPD2    H712268   2.047   4.359  15.594  2.9260 -1.3396  0.3563
  831MPD2     C12269   1.872   1.015  16.135  0.1769 -0.0473  0.2144
  831MPD2    C112270   1.816   1.142  16.128 -0.6708 -0.4050 -0.1775
  831MPD2    C212271   1.675   1.159  16.140  0.1713 -0.0275  0.0075
  831MPD2    C312272   1.593   1.050  16.159  0.3320 -0.1447  0.3601
  831MPD2    C412273   1.644   0.921  16.169  0.3600  0.4621 -0.5103
  831MPD2    C512274   1.781   0.912  16.150 -0.4258 -0.3712 -0.3663
  831MPD2     H12275   1.635   1.259  16.130  0.7540  0.2214  0.1668
  831MPD2    H112276   1.577   0.837  16.180 -1.1856  1.7086 -0.3474
  831MPD2    H212277   1.978   0.992  16.129  0.4048  1.4778 -1.6496
  831MPD2    H312278   1.813   0.809  16.153  0.6362 -0.0748 -1.5190
  831MPD2     N12279   1.452   1.059  16.175 -0.1039  0.1940  0.2554
  831MPD2    H512280   1.409   0.976  16.216  0.9057 -0.3036  0.3051
  831MPD2    N112281   1.909   1.248  16.110 -0.0113  0.3969 -0.0728
  831MPD2    H712282   2.004   1.216  16.092 -0.7028 -0.4681 -2.0460
  832MPD2     C12283   0.718   2.305  16.905  0.5606  0.7808 -0.0556
  832MPD2    C112284   0.672   2.429  16.952  0.2850  0.8085  0.4382
  832MPD2    C212285   0.545   2.472  16.928 -0.3439  0.5079 -0.9788
  832MPD2    C312286   0.453   2.380  16.877 -0.9531 -0.2476  0.2368
  832MPD2    C412287   0.504   2.264  16.828  0.4353 -0.4861 -0.6833
  832MPD2    C512288   0.633   2.222  16.838 -0.4106 -0.6600  0.7015
  832MPD2     H12289   0.512   2.567  16.968  3.1244  0.5373  1.7727
  832MPD2    H112290   0.430   2.200  16.780 -1.6210  1.9178 -0.7198
  832MPD2    H212291   0.820   2.276  16.926 -0.1405 -1.1898  0.5606
  832MPD2    H312292   0.661   2.126  16.798  3.8572 -0.3410  2.9803
  832MPD2     N12293   0.312   2.396  16.893  0.1855  0.5365 -0.4960
  832MPD2    H512294   0.269   2.310  16.862  0.3272  0.9528 -1.8191
  832MPD2    N112295   0.762   2.497  17.036  1.0501 -0.1047 -0.0218
  832MPD2    H712296   0.839   2.445  17.079 -1.4076 -0.7207  3.6257
  833MPD2     C12297   2.391   4.046  12.104 -0.2275 -0.0630 -0.3794
  833MPD2    C112298   2.413   4.175  12.153 -0.0280  1.1965  0.1307
  833MPD2    C212299   2.492   4.262  12.074 -0.1765 -1.1822 -0.5544
  833MPD2    C312300   2.560   4.222  11.957  0.1416  0.6475  0.7724
  833MPD2    C412301   2.546   4.089  11.919  1.0759 -0.3170 -0.6677
  833MPD2    C512302   2.462   4.010  11.996 -0.1529 -0.0981  0.2030
  833MPD2     H12303   2.499   4.364  12.108  1.8227 -1.9495  1.3396
  833MPD2    H112304   2.603   4.044  11.839  2.0240 -1.5047  0.6741
  833MPD2    H212305   2.323   3.976  12.153 -0.6529 -0.0765 -0.9849
  833MPD2    H312306   2.442   3.913  11.951  1.0271  0.8900 -2.4558
  833MPD2     N12307   2.639   4.312  11.885  0.0467 -0.4548 -0.4239
  833MPD2    H512308   2.679   4.287  11.796  0.1629 -2.2858  0.1296
  833MPD2    N112309   2.363   4.214  12.279  0.1997 -0.4077  0.0133
  833MPD2    H712310   2.414   4.294  12.313 -1.9599  0.7076  0.6195
  834MPD2     C12311   2.016   4.344  11.457  0.2401  0.8016  0.8851
  834MPD2    C112312   2.115   4.300  11.379  0.1169 -0.2059 -0.0257
  834MPD2    C212313   2.244   4.344  11.417  0.0269 -0.2363  0.1810
  834MPD2    C312314   2.270   4.438  11.510  0.3358  0.1898  0.1632
  834MPD2    C412315   2.163   4.485  11.588 -0.0279  0.3680 -0.6459
  834MPD2    C512316   2.041   4.437  11.556  0.3189 -0.1575 -0.3308
  834MPD2     H12317   2.329   4.296  11.369 -1.2457 -0.1799 -2.1102
  834MPD2    H112318   2.163   4.549  11.675  0.9948  0.6437 -0.8511
  834MPD2    H212319   1.914   4.308  11.454 -0.7354  3.8629 -3.6902
  834MPD2    H312320   1.956   4.465  11.616  0.4245 -1.5184  0.4480
  834MPD2     N12321   2.399   4.473  11.544 -0.7021  0.0183  0.3065
  834MPD2    H512322   2.483   4.428  11.508 -0.6589 -0.9881  1.6313
  834MPD2    N112323   2.090   4.201  11.280 -0.2517  0.0484 -0.3482
  834MPD2    H712324   1.994   4.173  11.267 -0.1795  0.0661 -0.9327
  835MPD2     C12325   1.804   2.757  11.083  0.1447 -0.6895 -0.0500
  835MPD2    C112326   1.676   2.745  11.144 -0.7598  0.6970  0.7331
  835MPD2    C212327   1.666   2.669  11.261 -0.4193  0.1673 -0.0424
  835MPD2    C312328   1.764   2.586  11.306  0.2344 -1.0235  0.2918
  835MPD2    C412329   1.879   2.589  11.238  0.7639  0.5191 -0.2985
  835MPD2    C512330   1.892   2.668  11.128 -0.0965  0.2949 -0.5015
  835MPD2     H12331   1.568   2.664  11.308 -0.5831 -1.3354 -0.5440
  835MPD2    H112332   1.957   2.519  11.267  0.9000  1.6280  2.0088
  835MPD2    H212333   1.828   2.820  10.998  0.3111  0.3946  0.8052
  835MPD2    H312334   1.990   2.660  11.082  0.8608  0.6979  1.4522
  835MPD2     N12335   1.750   2.494  11.413  0.1237  0.0899 -0.5759
  835MPD2    H512336   1.831   2.438  11.437 -0.2450 -0.7093 -1.2354
  835MPD2    N112337   1.568   2.821  11.103 -0.4140  0.2290  0.2098
  835MPD2    H712338   1.482   2.827  11.157  0.0738 -0.1474  1.0362
  836MPD2     C12339   1.395   2.732  12.026 -0.7340 -0.4901  0.0583
  836MPD2    C112340   1.492   2.630  12.056  0.1261 -0.5968  0.9682
  836MPD2    C212341   1.547   2.633  12.186 -0.0652  0.0263 -0.0320
  836MPD2    C312342   1.508   2.736  12.277 -0.4992  0.1816 -0.2285
  836MPD2    C412343   1.421   2.837  12.239  0.3737 -0.3194 -0.1121
  836MPD2    C512344   1.366   2.830  12.113  0.0749  0.4486 -0.2135
  836MPD2     H12345   1.617   2.555  12.212  0.1051 -0.0515 -0.7199
  836MPD2    H112346   1.390   2.911  12.312 -0.3116  1.6124 -2.3741
  836MPD2    H212347   1.341   2.726  11.932 -1.8258 -1.2737  0.7458
  836MPD2    H312348   1.301   2.908  12.076 -1.5484 -1.3665 -1.1897
  836MPD2     N12349   1.542   2.736  12.412  0.0983 -0.2996 -0.1160
  836MPD2    H512350   1.512   2.818  12.464 -0.8117 -0.1153 -0.9370
  836MPD2    N112351   1.537   2.540  11.953  0.0859 -0.2916 -0.0754
  836MPD2    H712352   1.485   2.540  11.866 -1.3415 -0.5173  0.7865
  837MPD2     C12353   0.160   1.958  10.331 -0.5420  0.7232 -0.4437
  837MPD2    C112354   0.028   1.958  10.300 -0.1711 -0.3626 -0.0326
  837MPD2    C212355   4.710   2.066  10.237 -0.4096 -0.7627 -0.6953
  837MPD2    C312356   0.045   2.180  10.200 -0.2191  0.9909 -0.3493
  837MPD2    C412357   0.175   2.176  10.244 -0.9456  0.3864  0.0549
  837MPD2    C512358   0.239   2.067  10.301 -0.6904 -0.0759 -0.1227
  837MPD2     H12359   4.605   2.070  10.209 -0.8717 -0.5485  1.0731
  837MPD2    H112360   0.239   2.258  10.213 -1.2447  0.7346  0.3661
  837MPD2    H212361   0.213   1.876  10.379  0.0408  1.4341  0.1351
  837MPD2    H312362   0.342   2.070  10.334 -0.9318 -2.5613  0.8478
  837MPD2     N12363   4.726   2.281  10.123  0.1720  0.3037  0.3442
  837MPD2    H512364   4.636   2.262  10.081 -0.1404 -1.0349  1.6171
  837MPD2    N112365   4.695   1.837  10.300  0.6384 -0.0478 -0.3426
  837MPD2    H712366   4.596   1.845  10.283  0.6301  1.2289  0.2623
  838MPD2     C12367   3.844   4.595  11.791 -0.2471  0.3129  0.3463
  838MPD2    C112368   3.752   4.490  11.784  0.1051 -0.8210  0.3683
  838MPD2    C212369   3.667   4.454  11.886  0.7247 -0.0556  0.6465
  838MPD2    C312370   3.668   4.534  11.998 -0.3212 -0.3455  0.3833
  838MPD2    C412371   3.749   4.647  12.008 -0.4018  0.0150  0.7950
  838MPD2    C512372   3.841   4.668  11.912  1.0047  1.2213  0.3732
  838MPD2     H12373   3.603   4.366  11.887  0.8034 -0.1124  0.7087
  838MPD2    H112374   3.770   4.697  12.102 -2.2620 -0.6611  1.5592
  838MPD2    H212375   3.912   4.636  11.717 -0.6392 -0.1840 -0.2923
  838MPD2    H312376   3.908   0.011  11.934  0.1349  2.5241 -1.8537
  838MPD2     N12377   3.567   4.523  12.101  0.6219 -0.2546  0.1857
  838MPD2    H512378   3.576   4.587  12.179  3.6613 -1.3437  0.7178
  838MPD2    N112379   3.746   4.406  11.670  0.0434 -1.0051 -0.2071
  838MPD2    H712380   3.663   4.348  11.663  2.2103 -4.1764  0.4114
  839MPD2     C12381   2.862   4.554  11.455 -0.4538  0.2931  0.2512
  839MPD2    C112382   2.945   4.455  11.408 -0.1879 -0.4166  0.4848
  839MPD2    C212383   3.082   4.456  11.421  0.7335  0.3561 -0.1518
  839MPD2    C312384   3.144   4.567  11.481  0.4023  0.4798 -0.1766
  839MPD2    C412385   3.063   4.663  11.536  0.9374 -0.0357  0.3424
  839MPD2    C512386   2.926   4.653  11.522 -0.1308 -0.1987  0.1273
  839MPD2     H12387   3.140   4.368  11.396  1.8795  0.2344  2.9636
  839MPD2    H112388   3.098   0.004  11.600  1.6047  1.0432 -1.3752
  839MPD2    H212389   2.755   4.539  11.459 -0.4585  0.7152  1.6415
  839MPD2    H312390   2.876   0.000  11.564  0.3633  1.4648 -2.7727
  839MPD2     N12391   3.281   4.588  11.500 -0.0441 -0.4446 -0.1976
  839MPD2    H512392   3.324   4.673  11.533  2.3326 -1.7903  0.2016
  839MPD2    N112393   2.893   4.348  11.336 -0.3816  0.5241  0.0471
  839MPD2    H712394   2.962   4.280  11.307 -0.7596 -0.8115  2.3028
  840MPD2     C12395   3.418   2.800  10.097 -0.5846 -0.9845 -0.0728
  840MPD2    C112396   3.433   2.754  10.223  0.6742  0.1986 -0.3978
  840MPD2    C212397   3.539   2.806  10.298 -0.2898 -0.5021 -0.1033
  840MPD2    C312398   3.641   2.879  10.235  0.2663 -0.9112  0.1929
  840MPD2    C412399   3.619   2.912  10.103  0.5720 -0.8065  0.1294
  840MPD2    C512400   3.500   2.886  10.042 -0.0601  0.5254 -0.6310
  840MPD2     H12401   3.545   2.780  10.403  0.2478  2.5544  0.6037
  840MPD2    H112402   3.697   2.969  10.053 -1.2385  2.5911  1.1943
  840MPD2    H212403   3.323   2.785  10.047 -0.5084 -1.0851 -0.1885
  840MPD2    H312404   3.487   2.919   9.939 -0.8119 -0.9140 -0.9986
  840MPD2     N12405   3.756   2.934  10.296  0.2825  0.1319 -0.4524
  840MPD2    H512406   3.745   2.943  10.396  1.4756 -0.9026 -0.2208
  840MPD2    N112407   3.330   2.673  10.269  0.5043 -0.1969  0.2180
  840MPD2    H712408   3.248   2.651  10.213  1.2991 -0.1831 -0.9462
  841MPD2     C12409   4.199   1.544  14.800  0.2299  0.0516 -0.0145
  841MPD2    C112410   4.106   1.643  14.806 -0.2263  0.4770 -0.3948
  841MPD2    C212411   4.129   1.745  14.896  0.2008 -0.2642  0.3101
  841MPD2    C312412   4.232   1.743  14.985  0.2021  0.4830 -0.0490
  841MPD2    C412413   4.331   1.648  14.969  0.0356  0.3094  0.1625
  841MPD2    C512414   4.311   1.548  14.876 -0.1244  0.6380  0.0568
  841MPD2     H12415   4.075   1.838  14.909  1.5092  0.7598 -1.5360
  841MPD2    H112416   4.422   1.640  15.028  0.8103  1.4636 -0.8711
  841MPD2    H212417   4.189   1.460  14.732  0.4170  0.0862 -0.0852
  841MPD2    H312418   4.385   1.469  14.866  0.8972  1.4962  0.8437
  841MPD2     N12419   4.251   1.861  15.063 -0.4328 -0.3960  0.4627
  841MPD2    H512420   4.187   1.937  15.049 -0.1196 -0.6883 -2.5797
  841MPD2    N112421   3.995   1.640  14.725  0.3847  0.1194  0.3997
  841MPD2    H712422   3.983   1.556  14.670 -0.2121  0.5036 -0.0476
  842MPD2     C12423   4.250   2.442  16.554 -0.4038  0.7781  0.6942
  842MPD2    C112424   4.128   2.452  16.611 -0.8957 -0.5418 -0.7560
  842MPD2    C212425   4.114   2.415  16.746  0.1705 -0.4533  0.5654
  842MPD2    C312426   4.223   2.359  16.810 -0.3664 -0.4336  0.5411
  842MPD2    C412427   4.343   2.340  16.750 -0.4405 -0.1190  0.3265
  842MPD2    C512428   4.354   2.383  16.618  0.3212  0.1010 -0.2900
  842MPD2     H12429   4.026   2.454  16.795  0.4336 -0.5568  1.1296
  842MPD2    H112430   4.433   2.308  16.802  1.1942  0.2917 -2.2085
  842MPD2    H212431   4.266   2.466  16.449 -1.1657  1.2371  0.6867
  842MPD2    H312432   4.451   2.370  16.570  0.5980  0.0731  0.2720
  842MPD2     N12433   4.215   2.327  16.945  0.3520  0.0441  0.3327
  842MPD2    H512434   4.297   2.292  16.995  1.4238  0.6857 -0.9969
  842MPD2    N112435   4.035   2.520  16.535  0.1598 -0.3998  0.3971
  842MPD2    H712436   4.072   2.552  16.446 -4.0784 -1.1176 -1.6239
  843MPD2     C12437   1.373   3.863  17.618  0.7946  0.2804 -0.0703
  843MPD2    C112438   1.356   3.763  17.715  0.1640  0.3268  0.0211
  843MPD2    C212439   1.451   3.759   0.061 -0.9867 -1.0313 -0.3318
  843MPD2    C312440   1.560   3.847   0.063  0.2171 -0.0849 -0.1492
  843MPD2    C412441   1.568   3.950  17.731  0.5266 -0.4556  0.1420
  843MPD2    C512442   1.476   3.953  17.625 -1.0894 -0.3101 -0.3299
  843MPD2     H12443   1.444   3.684   0.138 -0.2117 -1.8012 -1.0215
  843MPD2    H112444   1.644   4.028  17.729 -1.4155  1.3848 -1.6441
  843MPD2    H212445   1.305   3.869  17.533 -0.0045 -1.8382  0.4126
  843MPD2    H312446   1.493   4.017  17.538 -0.3283 -2.1128 -1.5164
  843MPD2     N12447   1.665   3.830   0.155  0.2950 -0.4574 -0.1731
  843MPD2    H512448   1.733   3.904   0.173  0.0251 -0.3452  0.3823
  843MPD2    N112449   1.237   3.683  17.701 -0.6174 -0.1869 -0.0264
  843MPD2    H712450   1.178   3.711  17.624  2.2343 -1.1177 -2.5657
  844MPD2     C12451   0.099   2.400  16.526  0.5496 -0.0320  0.4673
  844MPD2    C112452   0.212   2.333  16.499  0.3939  0.4536 -0.6727
  844MPD2    C212453   0.332   2.397  16.523  0.0851  0.0312  0.2923
  844MPD2    C312454   0.330   2.533  16.568  0.2036 -0.5673 -0.0375
  844MPD2    C412455   0.217   2.599  16.598 -0.8178  0.3517 -0.0619
  844MPD2    C512456   0.106   2.526  16.583  0.5013  0.4307  0.9590
  844MPD2     H12457   0.420   2.343  16.491  0.5493  0.2254  1.2622
  844MPD2    H112458   0.216   2.693  16.650 -0.3022  0.5435 -0.3942
  844MPD2    H212459   0.001   2.354  16.525  1.3194 -1.6337 -1.7895
  844MPD2    H312460   0.013   2.572  16.615  0.8806  1.8228  0.0924
  844MPD2     N12461   0.457   2.594  16.603 -0.2638 -0.3656  0.0137
  844MPD2    H512462   0.530   2.533  16.567  0.2607 -0.2221  0.8303
  844MPD2    N112463   0.214   2.204  16.436  0.0953  0.1102  0.6984
  844MPD2    H712464   0.301   2.166  16.400 -0.9704 -2.7158  1.0837
  845MPD2     C12465   0.683   3.537  16.810 -0.2676 -0.2298  0.8763
  845MPD2    C112466   0.627   3.450  16.894 -0.6567  0.5691  0.5853
  845MPD2    C212467   0.644   3.315  16.866 -0.1053 -0.3111 -0.4363
  845MPD2    C312468   0.728   3.273  16.769  0.3126 -0.1222  0.9694
  845MPD2    C412469   0.802   3.368  16.690  0.2584  0.2402  0.3161
  845MPD2    C512470   0.778   3.500  16.717 -0.0741  0.2302 -0.4102
  845MPD2     H12471   0.604   3.242  16.936  0.2053 -1.4850 -1.4773
  845MPD2    H112472   0.886   3.350  16.623  0.3811  0.7079  0.3443
  845MPD2    H212473   0.661   3.643  16.817  2.6638  0.4420  0.1188
  845MPD2    H312474   0.830   3.583  16.671 -2.1356 -0.6255 -4.2086
  845MPD2     N12475   0.733   3.133  16.752  0.1199  0.2935 -0.0435
  845MPD2    H512476   0.674   3.085  16.819  0.8475 -0.2019  0.2436
  845MPD2    N112477   0.549   3.507  16.991  0.2106 -0.2262 -0.5522
  845MPD2    H712478   0.515   3.601  16.977 -2.1438 -0.6734  2.2004
  846MPD2     C12479   1.696   3.911  13.738 -1.1709 -0.1700  0.1230
  846MPD2    C112480   1.566   3.947  13.714  0.2961  0.7299 -0.2355
  846MPD2    C212481   1.479   3.947  13.820  0.2066 -0.1831 -0.5345
  846MPD2    C312482   1.517   3.912  13.951  0.3823  0.0092  0.2664
  846MPD2    C412483   1.641   3.851  13.956  0.2161 -0.5302 -0.0823
  846MPD2    C512484   1.733   3.868  13.862  0.2024  0.4293  0.6945
  846MPD2     H12485   1.376   3.982  13.811  0.0507 -0.1256  1.3031
  846MPD2    H112486   1.671   3.814  14.053  0.4800  2.0520  0.8174
  846MPD2    H212487   1.776   3.915  13.665 -0.7273  0.2705  0.6347
  846MPD2    H312488   1.837   3.843  13.877  0.8811  3.0624  0.2597
  846MPD2     N12489   1.421   3.914  14.059  0.4601  0.1862  0.2996
  846MPD2    H512490   1.322   3.929  14.047  0.3199  0.6907  2.1228
  846MPD2    N112491   1.544   3.991  13.586  0.4021  0.3059 -0.7108
  846MPD2    H712492   1.631   3.988  13.534  1.3966  0.3699  0.9454
  847MPD2     C12493   1.775   4.342  14.730 -0.0687 -0.4567  0.7212
  847MPD2    C112494   1.799   4.475  14.738  0.4464  0.1927  0.6912
  847MPD2    C212495   1.923   4.523  14.687 -0.1479  0.3784 -0.5855
  847MPD2    C312496   2.023   4.446  14.635 -0.1031  0.6008  0.0643
  847MPD2    C412497   1.996   4.307  14.638  0.0059  0.0731  0.4155
  847MPD2    C512498   1.881   4.258  14.693  0.2780  0.4804  0.7668
  847MPD2     H12499   1.938   4.630  14.694 -2.8838  0.7544 -0.5173
  847MPD2    H112500   2.072   4.243  14.594 -0.8313  0.2126 -1.2257
  847MPD2    H212501   1.676   4.308  14.759 -0.6592 -1.2114 -2.1441
  847MPD2    H312502   1.869   4.150  14.690 -0.3334  0.4858  3.1598
  847MPD2     N12503   2.149   4.493  14.593 -0.4069  0.8277  0.0939
  847MPD2    H512504   2.222   4.427  14.572 -1.3347  0.4806 -2.0374
  847MPD2    N112505   1.702   4.573  14.772 -0.1004  0.1953 -0.2972
  847MPD2    H712506   1.732   4.668  14.751 -1.3868  0.9422  1.2797
  848MPD2     C12507   4.414   2.786  16.665 -0.2133  0.1241  0.0734
  848MPD2    C112508   4.547   2.816  16.677  0.2912  1.1619  0.1020
  848MPD2    C212509   4.607   2.904  16.590 -0.3487  0.4701  0.2501
  848MPD2    C312510   4.537   2.957  16.483 -0.0221 -0.1633  0.5094
  848MPD2    C412511   4.406   2.922  16.467 -0.3248  0.1874  0.6567
  848MPD2    C512512   4.345   2.845  16.561  0.7095 -0.1107 -0.1705
  848MPD2     H12513   4.705   2.943  16.613 -0.7360  1.3956  0.3026
  848MPD2    H112514   4.346   2.954  16.383  0.6946  0.1055 -0.0894
  848MPD2    H212515   4.361   2.713  16.726 -2.3025  0.4811 -1.2824
  848MPD2    H312516   4.237   2.833  16.555  0.8873 -1.0588 -1.4292
  848MPD2     N12517   4.591   3.042  16.377 -0.2384 -0.0898 -0.4202
  848MPD2    H512518   4.519   3.062  16.309  0.1857 -0.1422 -0.8857
  848MPD2    N112519   4.612   2.774  16.795  0.8304  0.1525  0.0385
  848MPD2    H712520   4.712   2.792  16.792  0.7093  0.5455 -1.6841
  849MPD2     C12521   3.639   2.693  14.208 -0.2252 -0.0924  0.6698
  849MPD2    C112522   3.718   2.719  14.107 -0.2007  0.6364 -0.7356
  849MPD2    C212523   3.854   2.695  14.126 -0.4094  0.5998  0.2935
  849MPD2    C312524   3.894   2.652  14.247 -0.4079 -0.1237 -0.2044
  849MPD2    C412525   3.808   2.604  14.343 -0.1487 -0.2421 -0.1079
  849MPD2    C512526   3.677   2.631  14.317 -0.1248  0.4147 -0.0856
  849MPD2     H12527   3.924   2.723  14.048  0.3116  2.2212  1.5135
  849MPD2    H112528   3.848   2.561  14.433  1.2521  2.8900  0.7670
  849MPD2    H212529   3.533   2.717  14.205 -0.8160 -2.8978 -0.8355
  849MPD2    H312530   3.601   2.607  14.391 -0.8887  1.3475 -0.5770
  849MPD2     N12531   4.033   2.635  14.261 -0.3813 -0.0230 -0.3505
  849MPD2    H512532   4.071   2.644  14.167  1.5123  0.5042  0.4609
  849MPD2    N112533   3.663   2.794  14.000  0.3823  1.2035 -0.5961
  849MPD2    H712534   3.562   2.798  13.990  0.2157  1.9011  1.2329
  850MPD2     C12535   1.808   0.577  14.841  0.2679 -0.1456 -0.1656
  850MPD2    C112536   1.784   0.650  14.951  0.7040  0.0168 -0.7562
  850MPD2    C212537   1.869   0.751  14.998  0.8390  0.0950  0.0249
  850MPD2    C312538   1.980   0.779  14.916 -0.5528  0.3668  0.3547
  850MPD2    C412539   2.000   0.705  14.798  0.3291 -0.1688 -0.5467
  850MPD2    C512540   1.912   0.609  14.757  0.8872  0.0375  0.0445
  850MPD2     H12541   1.858   0.790  15.098  0.5337  0.2012 -0.0486
  850MPD2    H112542   2.086   0.726  14.735 -0.2439  0.7929 -1.0030
  850MPD2    H212543   1.746   0.493  14.812 -1.1494 -0.1325  2.8084
  850MPD2    H312544   1.932   0.564  14.661 -3.0130 -3.5102  0.8888
  850MPD2     N12545   2.084   0.866  14.957 -0.4691 -0.7473  0.3340
  850MPD2    H512546   2.161   0.879  14.892  0.4227 -0.0303  1.5458
  850MPD2    N112547   1.674   0.607  15.038 -0.0675 -0.4971  0.5273
  850MPD2    H712548   1.644   0.511  15.036  1.3590 -0.8806 -2.8322
  851MPD2     C12549   1.892   0.705  15.851  0.5709 -1.0077 -0.4003
  851MPD2    C112550   1.895   0.630  15.737  0.0991  0.3082 -0.6288
  851MPD2    C212551   2.009   0.553  15.712  0.1149 -0.1612  0.1310
  851MPD2    C312552   2.120   0.556  15.799 -0.4586  0.3121  0.1011
  851MPD2    C412553   2.113   0.635  15.912  0.4544  0.5168  0.6614
  851MPD2    C512554   1.995   0.702  15.937  0.7514 -0.1220 -0.0435
  851MPD2     H12555   2.016   0.494  15.622  3.8922  1.4000 -0.5524
  851MPD2    H112556   2.190   0.655  15.985  1.4805 -2.2123  0.3374
  851MPD2    H212557   1.804   0.766  15.869  2.6885  1.6250  1.0353
  851MPD2    H312558   1.997   0.771  16.020 -0.6580  2.1692 -1.8960
  851MPD2     N12559   2.233   0.487  15.762 -0.4579  0.2493 -0.4670
  851MPD2    H512560   2.225   0.447  15.669  1.4149  0.4262 -0.7067
  851MPD2    N112561   1.791   0.656  15.644 -0.0940  0.4245  0.0733
  851MPD2    H712562   1.737   0.741  15.659  1.8469  1.3397  1.8612
  852MPD2     C12563   1.158   3.644   9.989  0.2130  0.1263  0.3024
  852MPD2    C112564   1.208   3.673  10.114  0.3927  0.0151 -0.0842
  852MPD2    C212565   1.307   3.761  10.135 -0.0152 -0.0752 -0.7680
  852MPD2    C312566   1.363   3.835  10.037 -0.3156 -0.1881 -0.4856
  852MPD2    C412567   1.307   3.822   9.911  0.2473  0.1426  0.7969
  852MPD2    C512568   1.202   3.731   9.889 -0.1150  0.1344  0.0590
  852MPD2     H12569   1.351   3.771  10.233 -1.7377 -0.0536  0.0057
  852MPD2    H112570   1.337   3.892   9.833 -1.3740  0.7359  0.6950
  852MPD2    H212571   1.090   3.567   9.955  3.3203 -1.7279 -1.7387
  852MPD2    H312572   1.168   3.719   9.786 -1.6010  0.7639  0.4823
  852MPD2     N12573   1.471   3.921  10.071  0.0956 -0.0430 -0.1456
  852MPD2    H512574   1.494   3.929  10.170 -0.7957 -3.0034  0.3256
  852MPD2    N112575   1.158   3.601  10.227 -0.6322  0.3177  0.2147
  852MPD2    H712576   1.207   3.616  10.315 -0.5703  2.6473 -0.2184
  853MPD2     C12577   3.236   3.417  12.274  0.5203 -0.1191  0.1113
  853MPD2    C112578   3.109   3.385  12.227  0.3757  0.0279 -0.2023
  853MPD2    C212579   3.093   3.362  12.092  0.2688 -0.0677 -0.1232
  853MPD2    C312580   3.198   3.386  12.001  0.1635  0.5805  0.0678
  853MPD2    C412581   3.324   3.427  12.044 -0.9976 -0.2782  0.6415
  853MPD2    C512582   3.345   3.436  12.184 -0.2304 -0.2602  0.2519
  853MPD2     H12583   2.997   3.334  12.052 -0.4698  2.4239 -0.0975
  853MPD2    H112584   3.396   3.451  11.966  0.9072 -0.3905  2.3635
  853MPD2    H212585   3.238   3.437  12.381  0.5040 -0.6955  0.2243
  853MPD2    H312586   3.442   3.463  12.224  0.8517 -0.3615 -2.3301
  853MPD2     N12587   3.181   3.371  11.862 -0.3854 -0.3891  0.4012
  853MPD2    H512588   3.261   3.391  11.803 -1.0092 -0.4313 -0.4592
  853MPD2    N112589   3.011   3.361  12.322  0.6772  0.3777  0.0262
  853MPD2    H712590   3.040   3.366  12.419 -4.0143  2.7488  1.2826
  854MPD2     C12591   4.734   3.768  13.359 -0.2731  1.0523 -0.9015
  854MPD2    C112592   0.093   3.836  13.286  0.0287  0.1022 -0.2415
  854MPD2    C212593   0.222   3.783  13.287  0.8989  0.6236 -0.1718
  854MPD2    C312594   0.241   3.659  13.343  0.0112 -0.1086 -0.0207
  854MPD2    C412595   0.140   3.590  13.396 -0.5604 -0.8754  0.1205
  854MPD2    C512596   0.018   3.646  13.413 -0.3557 -0.2904  0.3763
  854MPD2     H12597   0.304   3.850  13.260  0.1096  0.6638 -2.5106
  854MPD2    H112598   0.147   3.489  13.435  1.6927 -1.6194 -2.1846
  854MPD2    H212599   4.635   3.810  13.372 -0.1764  0.4148  1.9651
  854MPD2    H312600   4.677   3.589  13.458  0.0424 -1.5007 -0.4342
  854MPD2     N12601   0.364   3.593  13.346  0.2124  0.2018  0.0180
  854MPD2    H512602   0.372   3.504  13.394  0.6047  1.8619  2.9762
  854MPD2    N112603   0.061   3.967  13.242 -0.4588 -0.2321 -0.1674
  854MPD2    H712604   4.706   4.002  13.256  0.9940  3.6191  0.1369
  855MPD2     C12605   1.178   3.191  13.814  0.3636  0.9548 -0.0188
  855MPD2    C112606   1.053   3.163  13.851  0.2957 -0.2070 -0.1335
  855MPD2    C212607   0.945   3.190  13.753  0.4178  0.4682  0.6255
  855MPD2    C312608   0.977   3.249  13.630 -0.3574 -0.3974 -0.9706
  855MPD2    C412609   1.107   3.274  13.599  0.4881  0.6534 -0.2744
  855MPD2    C512610   1.208   3.245  13.690  0.7706  0.0510  0.1623
  855MPD2     H12611   0.842   3.171  13.783 -0.2557  1.8572 -0.7671
  855MPD2    H112612   1.144   3.325  13.511  2.0564  1.5700  0.9258
  855MPD2    H212613   1.263   3.166  13.877 -0.7588  0.5969  1.3643
  855MPD2    H312614   1.311   3.270  13.670  1.0236 -1.0230  0.0962
  855MPD2     N12615   0.883   3.299  13.533  0.0716 -0.1987  0.1527
  855MPD2    H512616   0.915   3.325  13.441 -2.3715 -1.7703 -1.1594
  855MPD2    N112617   1.023   3.098  13.974 -0.0664  0.3795 -0.4150
  855MPD2    H712618   0.925   3.093  13.999 -0.1306 -2.2092 -1.1946
  856MPD2     C12619   3.035   3.826  13.400  0.1046  0.2410  0.3337
  856MPD2    C112620   3.036   3.938  13.481  0.0870  0.2780 -0.1023
  856MPD2    C212621   2.915   4.000  13.506  0.5431 -0.1783  0.1150
  856MPD2    C312622   2.796   3.957  13.440 -0.1362 -0.2213 -0.0422
  856MPD2    C412623   2.802   3.858  13.347  0.3372  0.4766 -0.5758
  856MPD2    C512624   2.920   3.791  13.331 -0.4078  0.0007  0.5435
  856MPD2     H12625   2.915   4.081  13.579  2.8800  0.1475 -0.2438
  856MPD2    H112626   2.717   3.826  13.288 -0.4225 -0.3981  1.0170
  856MPD2    H212627   3.124   3.767  13.382  0.8487  1.1878  0.9162
  856MPD2    H312628   2.912   3.705  13.265 -2.9132 -0.5124  1.5130
  856MPD2     N12629   2.678   4.024  13.457 -0.0862 -0.1339  0.5079
  856MPD2    H512630   2.594   3.994  13.408 -0.1033  1.5758 -0.5074
  856MPD2    N112631   3.152   3.981  13.552 -0.0711 -0.2652 -0.1190
  856MPD2    H712632   3.137   4.065  13.606  0.8131 -0.9054  1.1022
  857MPD2     C12633   4.203   2.241  12.293  0.0513  0.0922  0.2691
  857MPD2    C112634   4.316   2.165  12.317 -0.5719  0.1631  0.8985
  857MPD2    C212635   4.438   2.234  12.350  0.0902 -0.2782  0.0790
  857MPD2    C312636   4.448   2.366  12.347  0.2382 -0.3127 -0.1309
  857MPD2    C412637   4.342   2.441  12.308  0.9550  0.1765  0.4138
  857MPD2    C512638   4.217   2.381  12.284 -0.0564  0.1604  0.5124
  857MPD2     H12639   4.526   2.175  12.376  1.2676  1.1224 -0.7435
  857MPD2    H112640   4.336   2.550  12.305 -1.0506  0.1045  1.8767
  857MPD2    H212641   4.107   2.191  12.279 -0.1139  0.5222 -0.1422
  857MPD2    H312642   4.129   2.434  12.248  1.3001  0.6196 -2.1404
  857MPD2     N12643   4.571   2.421  12.391  0.4319  0.2774 -0.0067
  857MPD2    H512644   4.652   2.361  12.402 -0.0786 -0.7357 -1.9012
  857MPD2    N112645   4.310   2.029  12.312  0.0519 -0.0491 -0.6758
  857MPD2    H712646   4.217   1.989  12.304 -0.7630  1.6433  0.4644
  858MPD2     C12647   0.400   0.866  16.560 -0.9701 -0.2690  0.1959
  858MPD2    C112648   0.434   0.739  16.593  0.3294  0.9458 -0.7697
  858MPD2    C212649   0.462   0.703  16.727  0.0495 -0.3389  0.2667
  858MPD2    C312650   0.438   0.798  16.830  0.4974  0.6702  0.5013
  858MPD2    C412651   0.389   0.916  16.786 -0.3927  0.8225 -0.4146
  858MPD2    C512652   0.381   0.958  16.659  0.0281  0.3462 -1.2050
  858MPD2     H12653   0.475   0.600  16.757 -0.2828 -0.0701  1.3528
  858MPD2    H112654   0.358   0.991  16.858  1.5880  1.7250 -0.5245
  858MPD2    H212655   0.382   0.906  16.460  1.1073 -0.5328 -0.2644
  858MPD2    H312656   0.362   1.062  16.638 -2.6317  0.4604  1.7611
  858MPD2     N12657   0.452   0.772  16.970 -0.0755  0.0045 -1.0027
  858MPD2    H512658   0.427   0.843  17.038 -0.4421  0.2439 -1.3846
  858MPD2    N112659   0.434   0.644  16.486 -0.0264 -0.1667  0.0572
  858MPD2    H712660   0.398   0.683  16.400 -0.6381  1.2484  0.9492
  859MPD2     C12661   3.482   2.921  15.340 -0.0607 -0.3785 -0.0159
  859MPD2    C112662   3.592   2.838  15.346  0.7461 -0.6545 -0.6523
  859MPD2    C212663   3.600   2.746  15.452 -0.0191  0.7162 -0.2307
  859MPD2    C312664   3.501   2.741  15.546  0.4869  0.0828 -0.0000
  859MPD2    C412665   3.387   2.813  15.530 -0.1320 -0.3667  0.1208
  859MPD2    C512666   3.380   2.896  15.425 -0.3100  0.5329 -0.0819
  859MPD2     H12667   3.686   2.680  15.460 -1.0452 -0.5605  0.1237
  859MPD2    H112668   3.302   2.810  15.597 -1.6736 -0.4489 -1.8182
  859MPD2    H212669   3.477   3.004  15.270  4.2963  1.1401  1.4430
  859MPD2    H312670   3.291   2.957  15.412  0.2985  0.9394 -2.4303
  859MPD2     N12671   3.512   2.663  15.666 -0.2268 -0.9114 -0.4558
  859MPD2    H512672   3.445   2.678  15.741  1.2145  0.1326  0.6469
  859MPD2    N112673   3.694   2.865  15.256  0.6481 -0.5847  0.2575
  859MPD2    H712674   3.675   2.939  15.189  3.0467 -0.9250 -0.7877
  860MPD2     C12675   1.362   3.499  11.760  0.0157  0.6515 -0.3139
  860MPD2    C112676   1.353   3.499  11.894  0.3685  0.3005 -0.0357
  860MPD2    C212677   1.231   3.486  11.953 -0.4524  0.0484 -0.7826
  860MPD2    C312678   1.115   3.486  11.885 -0.4617 -0.0912 -0.2721
  860MPD2    C412679   1.121   3.490  11.747 -0.0667 -0.3040  0.3723
  860MPD2    C512680   1.244   3.492  11.691  0.3709  0.1494 -0.5810
  860MPD2     H12681   1.230   3.463  12.059  1.0934 -0.6835 -0.9277
  860MPD2    H112682   1.036   3.468  11.683  0.5110  0.1283 -0.5499
  860MPD2    H212683   1.451   3.504  11.698  0.8240  0.7847  0.8633
  860MPD2    H312684   1.253   3.490  11.583  1.1004 -0.6530 -0.5030
  860MPD2     N12685   0.998   3.464  11.960  0.6464 -0.6580  0.1439
  860MPD2    H512686   1.008   3.445  12.059 -0.1084 -2.1040 -0.0564
  860MPD2    N112687   1.469   3.504  11.973 -0.0117 -0.4192  0.0500
  860MPD2    H712688   1.445   3.505  12.072  1.2428 -0.0419  0.3401
  861MPD2     C12689   4.604   1.859  11.070 -0.9276  0.0053  0.2234
  861MPD2    C112690   4.491   1.799  11.123 -0.4179  0.1974 -0.5107
  861MPD2    C212691   4.365   1.820  11.065 -0.6722 -0.2548  0.2739
  861MPD2    C312692   4.356   1.903  10.955 -1.1851  0.2245  0.2593
  861MPD2    C412693   4.473   1.962  10.903 -0.0614  0.1754 -0.6332
  861MPD2    C512694   4.599   1.937  10.961 -0.0457 -0.3082  0.2383
  861MPD2     H12695   4.275   1.784  11.114 -0.6098 -0.3481  0.3215
  861MPD2    H112696   4.481   2.017  10.811 -0.0860  1.5837  0.2105
  861MPD2    H212697   4.706   1.840  11.101 -1.2146  1.6195  2.1077
  861MPD2    H312698   4.678   1.999  10.921 -0.8795  0.1102 -0.7621
  861MPD2     N12699   4.234   1.954  10.904 -0.3157 -0.1876 -1.0877
  861MPD2    H512700   4.246   2.038  10.849 -1.7350 -0.0206 -1.1328
  861MPD2    N112701   4.498   1.718  11.238 -0.7144 -0.2042  0.0556
  861MPD2    H712702   4.413   1.685  11.281 -0.8587 -1.6996 -1.3709
  862MPD2     C12703   3.410   1.810  11.108 -1.2912 -0.1635 -0.4537
  862MPD2    C112704   3.503   1.758  11.024  0.8581 -0.0324  0.1425
  862MPD2    C212705   3.504   1.631  10.991  0.5708  0.8994  0.3048
  862MPD2    C312706   3.408   1.547  11.029  0.6109  0.0021  0.3998
  862MPD2    C412707   3.299   1.598  11.091 -0.3056  0.6368  0.1548
  862MPD2    C512708   3.299   1.732  11.125  0.1800 -0.1908 -0.3239
  862MPD2     H12709   3.588   1.592  10.935 -0.2287 -0.9057  0.3812
  862MPD2    H112710   3.217   1.531  11.113  0.2239  0.2811  1.0367
  862MPD2    H212711   3.408   1.914  11.135 -0.5686 -0.1579 -0.4139
  862MPD2    H312712   3.213   1.762  11.184  0.6075 -1.2759  0.8585
  862MPD2     N12713   3.408   1.411  10.996 -0.8308 -0.2439  0.1371
  862MPD2    H512714   3.340   1.356  11.048 -0.1764 -0.6224  0.5936
  862MPD2    N112715   3.619   1.829  10.994  0.6579 -0.7100 -0.1010
  862MPD2    H712716   3.677   1.788  10.921  0.1768 -3.8664  1.2628
  863MPD2     C12717   3.417   3.915  16.380 -0.5286 -0.3677 -1.3635
  863MPD2    C112718   3.414   4.012  16.480  0.0769  0.1754  0.1117
  863MPD2    C212719   3.528   4.025  16.562 -0.3225  0.2064  0.6679
  863MPD2    C312720   3.632   3.930  16.553 -0.3459 -0.9935 -0.3486
  863MPD2    C412721   3.627   3.828  16.462 -0.4676  0.7760  0.1437
  863MPD2    C512722   3.529   3.829  16.368  0.1168 -0.1260 -0.1942
  863MPD2     H12723   3.517   4.096  16.643  1.3539  0.2964  0.8189
  863MPD2    H112724   3.700   3.748  16.466 -1.9749 -0.7456 -2.5674
  863MPD2    H212725   3.342   3.917  16.302  0.7295 -0.1706 -2.5787
  863MPD2    H312726   3.530   3.747  16.297 -1.5907 -0.4536  0.1763
  863MPD2     N12727   3.744   3.920  16.642 -0.4218 -1.0837 -0.4033
  863MPD2    H512728   3.816   3.856  16.610  0.2607  0.1101 -1.2675
  863MPD2    N112729   3.292   4.088  16.488  0.0817  0.0929 -0.1843
  863MPD2    H712730   3.226   4.071  16.413  0.0885 -1.6490  0.2148
  864MPD2     C12731   3.880   0.258  17.362  0.4187  0.3370 -0.7107
  864MPD2    C112732   4.001   0.234  17.291 -0.4658  0.0333 -0.1072
  864MPD2    C212733   4.081   0.346  17.252 -0.4353  0.2301  0.0458
  864MPD2    C312734   4.038   0.475  17.270 -0.0424  0.4019 -0.0830
  864MPD2    C412735   3.910   0.495  17.320  0.1015 -0.0880  0.2885
  864MPD2    C512736   3.831   0.389  17.364 -0.0740  0.2275  0.6047
  864MPD2     H12737   4.175   0.327  17.202 -0.8794  0.5703 -0.9140
  864MPD2    H112738   3.874   0.597  17.330 -1.5497 -0.7982  1.5022
  864MPD2    H212739   3.822   0.175  17.402  0.5135  0.2992 -0.6507
  864MPD2    H312740   3.735   0.410  17.409  0.1884 -0.8522  1.6657
  864MPD2     N12741   4.115   0.591  17.233  0.3716  0.0562 -0.0015
  864MPD2    H512742   4.072   0.682  17.247  1.2658  0.8031 -2.0868
  864MPD2    N112743   4.036   0.101  17.262 -0.1991 -0.4804 -1.0647
  864MPD2    H712744   3.967   0.040  17.305 -0.8186  0.9015 -0.1286
  865MPD2     C12745   4.199   0.941  16.346 -0.6725 -0.8428 -0.6227
  865MPD2    C112746   4.189   0.821  16.417  0.2208  0.1897 -0.9488
  865MPD2    C212747   4.157   0.832  16.548  0.6529  0.6144  0.7645
  865MPD2    C312748   4.142   0.958  16.609  0.1060  0.4852 -0.0542
  865MPD2    C412749   4.160   1.073  16.540 -0.2112 -0.4912  0.0717
  865MPD2    C512750   4.194   1.058  16.407  0.0592 -0.5853  0.2753
  865MPD2     H12751   4.152   0.737  16.599  2.5817  0.3591  0.4982
  865MPD2    H112752   4.144   1.171  16.585 -1.6757  0.5628 -2.7303
  865MPD2    H212753   4.226   0.941  16.241 -1.5834 -1.7271 -0.8620
  865MPD2    H312754   4.210   1.149  16.350 -1.5062  0.3512  1.3507
  865MPD2     N12755   4.143   0.974  16.749  0.4468  0.4598 -0.1715
  865MPD2    H512756   4.166   1.067  16.784 -1.2598  0.5600  0.6936
  865MPD2    N112757   4.213   0.706  16.341 -0.3512 -0.3869  0.2629
  865MPD2    H712758   4.230   0.728  16.243  1.8581 -2.3996  0.1766
  866MPD2     C12759   0.279   2.270  11.599  0.0806  0.1202  0.4496
  866MPD2    C112760   0.291   2.266  11.460 -0.4604 -0.2052 -0.3169
  866MPD2    C212761   0.177   2.296  11.384  0.5507 -0.6318  0.4051
  866MPD2    C312762   0.058   2.334  11.452  0.3313 -0.0846  0.9672
  866MPD2    C412763   0.059   2.348  11.591 -0.2039  0.1230 -0.6356
  866MPD2    C512764   0.169   2.322  11.664 -0.3136  0.7534 -0.0584
  866MPD2     H12765   0.179   2.288  11.276  0.8274  0.9107  0.2938
  866MPD2    H112766   4.710   2.374  11.648 -0.4706 -0.1336 -0.9369
  866MPD2    H212767   0.366   2.249  11.660  0.0094  2.4497  1.3507
  866MPD2    H312768   0.171   2.332  11.772 -2.4051  0.2522  0.0346
  866MPD2     N12769   4.672   2.365  11.385  0.5502 -0.2932 -0.1015
  866MPD2    H512770   4.588   2.365  11.441 -0.9729 -0.1066 -2.4057
  866MPD2    N112771   0.415   2.222  11.408 -0.1190  0.0187  0.4377
  866MPD2    H712772   0.483   2.190  11.476  0.6340  1.8425  0.5325
  867MPD2     C12773   2.862   0.565  16.417  0.6761  0.9448 -0.3050
  867MPD2    C112774   2.941   0.559  16.525 -0.5104  0.1738  0.3861
  867MPD2    C212775   2.891   0.604  16.647  0.1513  0.4231 -0.2510
  867MPD2    C312776   2.754   0.634  16.654 -0.4986  0.7944 -0.2316
  867MPD2    C412777   2.669   0.618  16.544 -0.3455 -0.4739 -0.2150
  867MPD2    C512778   2.729   0.590  16.425  0.6390  0.1709  0.1479
  867MPD2     H12779   2.952   0.625  16.734 -0.3863 -1.7671  0.6529
  867MPD2    H112780   2.566   0.653  16.544  0.0780  0.7785  0.8452
  867MPD2    H212781   2.899   0.546  16.317 -2.0514 -0.5330 -1.0205
  867MPD2    H312782   2.674   0.606  16.332  1.2355 -0.0675 -0.2455
  867MPD2     N12783   2.689   0.683  16.770  0.6082 -0.3229 -0.0016
  867MPD2    H512784   2.591   0.708  16.759  0.5731 -1.1413 -1.7019
  867MPD2    N112785   3.062   0.499  16.510 -0.6009 -0.8267  0.2212
  867MPD2    H712786   3.083   0.458  16.419 -0.6199  0.3058 -0.2926
  868MPD2     C12787   4.413   0.578  13.372  0.0569 -0.2631 -0.0857
  868MPD2    C112788   4.502   0.495  13.435 -0.0948  0.2276 -0.3901
  868MPD2    C212789   4.453   0.418  13.542  0.7530  0.2944 -0.5695
  868MPD2    C312790   4.324   0.406  13.565 -0.0240  0.2405  0.2483
  868MPD2    C412791   4.236   0.501  13.515 -0.1695 -0.5193 -0.0192
  868MPD2    C512792   4.288   0.591  13.422 -0.3612 -0.5034  0.4885
  868MPD2     H12793   4.517   0.349  13.597  0.2787 -0.5247 -1.0508
  868MPD2    H112794   4.129   0.508  13.535 -0.0022  1.1863  0.2726
  868MPD2    H212795   4.434   0.650  13.294 -3.7371  0.4843 -0.4397
  868MPD2    H312796   4.211   0.648  13.372  0.3272  1.0420  1.2002
  868MPD2     N12797   4.274   0.299  13.646  0.2868 -0.1935 -0.0828
  868MPD2    H512798   4.348   0.236  13.677 -0.2325 -1.3950 -1.3234
  868MPD2    N112799   4.636   0.486  13.392  0.3141 -0.5240  0.6561
  868MPD2    H712800   4.657   0.535  13.305 -3.5823  2.0658  1.1609
  869MPD2     C12801   1.218   1.796   0.626  0.6928 -0.2590  0.1838
  869MPD2    C112802   1.147   1.824   0.512 -0.1942  0.0127  0.2417
  869MPD2    C212803   1.127   1.957   0.483 -0.6365  0.7964 -0.2513
  869MPD2    C312804   1.168   2.059   0.565  0.6526 -0.4152  0.0052
  869MPD2    C412805   1.230   2.027   0.686 -0.8147 -0.2108  0.5730
  869MPD2    C512806   1.253   1.892   0.716  0.5789 -0.8889  0.2537
  869MPD2     H12807   1.060   1.981   0.401  0.8425 -0.3055 -1.7803
  869MPD2    H112808   1.267   2.100   0.757  0.5803 -0.5939  0.2438
  869MPD2    H212809   1.248   1.697   0.658 -0.7789 -0.4955  0.8071
  869MPD2    H312810   1.299   1.867   0.811  0.2631  0.0414  0.6503
  869MPD2     N12811   1.137   2.196   0.539  0.2359 -0.6683  1.0724
  869MPD2    H512812   1.141   2.269   0.610 -1.7009  0.7344 -0.2561
  869MPD2    N112813   1.093   1.721   0.436 -0.1455 -0.5038 -0.0818
  869MPD2    H712814   1.080   1.628   0.476  1.0607 -0.0728  1.3190
  870MPD2     C12815   1.023   0.372   1.901 -0.4170  0.2432  0.1229
  870MPD2    C112816   0.999   0.391   1.766  0.2569  0.4924  0.0711
  870MPD2    C212817   0.945   0.507   1.721 -0.1002 -0.1841  0.7219
  870MPD2    C312818   0.927   0.618   1.811 -0.6525  0.4145 -0.1820
  870MPD2    C412819   0.956   0.603   1.946 -0.9068  0.6205 -0.7577
  870MPD2    C512820   0.996   0.474   1.987  0.3426 -0.6389  0.1727
  870MPD2     H12821   0.942   0.525   1.614 -2.4449  1.5006  1.0670
  870MPD2    H112822   0.948   0.678   2.024  0.1065  0.6265 -0.6645
  870MPD2    H212823   1.062   0.280   1.944 -1.4925 -1.4222 -2.4437
  870MPD2    H312824   1.004   0.446   2.092 -0.6087 -0.0578  0.4042
  870MPD2     N12825   0.908   0.746   1.758  0.6629 -0.0647  0.0427
  870MPD2    H512826   0.922   0.755   1.658  0.8945 -0.1717  0.0645
  870MPD2    N112827   1.026   0.283   1.678 -0.2808  0.6379  0.0557
  870MPD2    H712828   1.094   0.217   1.713  0.0887  0.9368 -0.0966
  871MPD2     C12829   2.052   0.770  16.360 -0.2156 -0.2274  0.6859
  871MPD2    C112830   1.970   0.681  16.431  0.4329  0.4691  0.8728
  871MPD2    C212831   2.024   0.553  16.446  0.4716  0.4374  0.5545
  871MPD2    C312832   2.159   0.537  16.415 -0.3555 -0.0223  0.2673
  871MPD2    C412833   2.228   0.623  16.334 -0.4353 -0.1633  0.0396
  871MPD2    C512834   2.173   0.744  16.306  0.0061  0.4218 -0.1404
  871MPD2     H12835   1.968   0.474  16.496 -0.5989  1.7550  1.4547
  871MPD2    H112836   2.329   0.607  16.299 -1.1562  0.2495 -2.2361
  871MPD2    H212837   2.017   0.870  16.338  0.8450 -0.5864 -2.5884
  871MPD2    H312838   2.226   0.817  16.246  1.6611 -1.1918 -0.6368
  871MPD2     N12839   2.217   0.415  16.456 -0.6534 -0.3118  0.4685
  871MPD2    H512840   2.155   0.348  16.501  0.1730 -1.6338 -0.3629
  871MPD2    N112841   1.854   0.733  16.490 -0.3998  0.3385 -0.0062
  871MPD2    H712842   1.845   0.834  16.499  0.6905  0.1382  3.2960
  872MPD2     C12843   2.805   3.129  13.968 -0.2778  0.3681  0.1696
  872MPD2    C112844   2.792   3.247  13.893 -0.1266  0.7704 -1.0371
  872MPD2    C212845   2.676   3.324  13.919 -0.5705 -0.3958 -0.1432
  872MPD2    C312846   2.584   3.288  14.013  0.5511  0.0093  0.0078
  872MPD2    C412847   2.599   3.166  14.080  0.7900 -0.8974 -0.6289
  872MPD2    C512848   2.712   3.090  14.058 -0.0943  0.1567 -0.6163
  872MPD2     H12849   2.660   3.419  13.870 -0.5739 -0.1014  0.4340
  872MPD2    H112850   2.530   3.134  14.158 -1.3592 -0.5274 -2.3708
  872MPD2    H212851   2.889   3.061  13.960 -0.0818  0.5238  0.8575
  872MPD2    H312852   2.719   2.993  14.105 -1.8086  0.0722 -0.5306
  872MPD2     N12853   2.475   3.370  14.047 -0.0337 -0.1125 -0.1761
  872MPD2    H512854   2.425   3.327  14.125 -1.5228  1.1907 -0.4127
  872MPD2    N112855   2.897   3.299  13.819 -0.1889  0.1837 -0.6276
  872MPD2    H712856   2.878   3.390  13.777  0.9225  0.5698 -0.3072
  873MPD2     C12857   3.836   3.596   0.804  0.0407  0.0358 -0.5120
  873MPD2    C112858   3.938   3.513   0.845 -0.1769  0.2414  0.4657
  873MPD2    C212859   3.983   3.414   0.754 -0.3635  0.0925 -0.4308
  873MPD2    C312860   3.928   3.394   0.623  0.5206  0.0525  0.2189
  873MPD2    C412861   3.838   3.490   0.577 -0.5373 -0.4168  0.5716
  873MPD2    C512862   3.788   3.575   0.677 -0.5439  0.1316  0.1469
  873MPD2     H12863   4.057   3.343   0.789 -0.5489 -0.3253 -0.8999
  873MPD2    H112864   3.780   3.484   0.485  0.9494  0.5493 -0.4397
  873MPD2    H212865   3.794   3.670   0.872  0.3991 -0.1267 -0.1140
  873MPD2    H312866   3.705   3.635   0.643  0.4525  2.3102  1.5728
  873MPD2     N12867   3.958   3.288   0.535 -0.8100  0.7078  0.3061
  873MPD2    H512868   3.904   3.295   0.450 -0.4319  2.1045  0.1768
  873MPD2    N112869   3.995   3.543   0.976  0.2683 -0.6351 -0.0698
  873MPD2    H712870   3.959   3.630   1.013 -0.6513 -0.4625 -1.3479
  874MPD2     C12871   3.885   3.259  16.128  0.4070  0.1785 -0.2879
  874MPD2    C112872   3.970   3.165  16.175 -0.8706 -0.0626  0.1548
  874MPD2    C212873   4.107   3.181  16.164  0.0792  0.5125 -0.3231
  874MPD2    C312874   4.158   3.282  16.095  0.4996  1.0658  0.1679
  874MPD2    C412875   4.070   3.378  16.044 -0.3938  0.2574 -0.1640
  874MPD2    C512876   3.937   3.369  16.060  0.1785  0.0256  0.7302
  874MPD2     H12877   4.170   3.108  16.214 -0.5692 -0.0059 -0.2595
  874MPD2    H112878   4.107   3.463  15.988 -0.2963 -1.1799 -2.2944
  874MPD2    H212879   3.777   3.254  16.114  0.3337 -2.4792  1.2681
  874MPD2    H312880   3.864   3.438  16.020 -0.0059  0.8926  2.5708
  874MPD2     N12881   4.302   3.307  16.090 -0.5476  0.7377  0.5440
  874MPD2    H512882   4.341   3.390  16.047 -0.3989  0.9503  1.0865
  874MPD2    N112883   3.906   3.052  16.236 -0.6075 -0.1167  0.2117
  874MPD2    H712884   3.805   3.054  16.226 -0.4783 -1.5241 -1.2715
  875MPD2     C12885   4.527   1.483  14.464 -0.0063 -0.0787  1.2706
  875MPD2    C112886   4.618   1.573  14.416  0.1838  0.1129 -0.5032
  875MPD2    C212887   4.719   1.629  14.492  0.2408 -0.3101  0.5976
  875MPD2    C312888   4.719   1.596  14.630  0.2430  0.6495  0.4533
  875MPD2    C412889   4.635   1.499  14.676 -0.2901  0.3344 -0.1856
  875MPD2    C512890   4.544   1.438  14.594 -0.0257  0.3364  0.9616
  875MPD2     H12891   0.039   1.711  14.453  0.0012 -0.3951  0.0507
  875MPD2    H112892   4.617   1.484  14.782 -1.6626 -1.4337 -0.6634
  875MPD2    H212893   4.436   1.451  14.414  0.0408  2.0080 -0.1713
  875MPD2    H312894   4.472   1.371  14.639  0.5354 -0.2625  0.9675
  875MPD2     N12895   0.061   1.671  14.726  0.1839 -0.2890 -0.4784
  875MPD2    H512896   0.055   1.641  14.822  2.9134  1.0967  0.1314
  875MPD2    N112897   4.607   1.614  14.280  0.8362 -0.2944 -0.4762
  875MPD2    H712898   4.680   1.674  14.241  1.9857  0.1337  2.3568
  876MPD2     C12899   3.798   2.861  15.979  0.2840  0.3807 -0.5524
  876MPD2    C112900   3.927   2.867  15.923  0.1515 -0.0965  0.0242
  876MPD2    C212901   4.005   2.759  15.952  0.7454  0.3623 -0.0155
  876MPD2    C312902   3.962   2.652  16.035  0.5198  0.7366 -0.2623
  876MPD2    C412903   3.837   2.654  16.097 -0.1293 -0.3379 -0.1253
  876MPD2    C512904   3.753   2.763  16.067 -0.3640  0.5218 -0.3091
  876MPD2     H12905   4.102   2.742  15.908  1.6164  1.4044  1.5100
  876MPD2    H112906   3.797   2.586  16.171  0.9640 -0.3392  0.4672
  876MPD2    H212907   3.728   2.942  15.963 -1.2287 -0.7449  0.4118
  876MPD2    H312908   3.658   2.767  16.118 -0.8486  0.5171 -1.2182
  876MPD2     N12909   4.059   2.554  16.057 -0.2319  0.3485 -0.8466
  876MPD2    H512910   4.146   2.567  16.006  0.2151 -1.7456 -0.6053
  876MPD2    N112911   3.964   2.966  15.839  0.0616  0.3170  0.0401
  876MPD2    H712912   3.890   3.024  15.802  0.2854 -1.2562 -2.9129
  877MPD2     C12913   3.724   3.360  15.258  0.0627 -0.6671 -0.6382
  877MPD2    C112914   3.863   3.366  15.274  0.1088 -0.2619  0.4625
  877MPD2    C212915   3.948   3.405  15.171 -0.4400  0.0150  0.1324
  877MPD2    C312916   3.903   3.439  15.043  0.0680 -0.0380  0.3024
  877MPD2    C412917   3.766   3.433  15.031  0.3060 -0.0162  0.5940
  877MPD2    C512918   3.683   3.395  15.135 -0.6944 -0.3379 -0.0144
  877MPD2     H12919   4.053   3.403  15.198 -0.1536  0.1997 -0.9699
  877MPD2    H112920   3.722   3.474  14.940 -0.6951 -1.3583  0.4751
  877MPD2    H212921   3.654   3.317  15.328  0.8828 -0.7654  0.1246
  877MPD2    H312922   3.577   3.394  15.114 -0.7119  1.1880 -0.0338
  877MPD2     N12923   3.988   3.480  14.940  0.0725  0.6786  0.3525
  877MPD2    H512924   3.941   3.492  14.851 -2.1157  0.9085  1.5416
  877MPD2    N112925   3.933   3.338  15.396 -0.0750 -0.1329 -0.3455
  877MPD2    H712926   4.033   3.348  15.407 -0.4329  0.0095  2.6748
  878MPD2     C12927   3.301   2.720  13.064 -0.1918 -0.3553 -0.5929
  878MPD2    C112928   3.400   2.815  13.048  0.3469  0.5544  0.3483
  878MPD2    C212929   3.473   2.855  13.159 -0.2072  0.2745  0.5891
  878MPD2    C312930   3.439   2.812  13.287  0.3914 -0.4501 -0.7219
  878MPD2    C412931   3.332   2.720  13.306  0.2018 -0.2944 -0.5815
  878MPD2    C512932   3.270   2.672  13.190  0.4753  0.7711  0.0205
  878MPD2     H12933   3.563   2.915  13.150 -0.7582  1.0226 -0.0098
  878MPD2    H112934   3.306   2.672  13.400 -1.0997 -0.0259 -0.8084
  878MPD2    H212935   3.235   2.686  12.985  0.0692 -1.2776 -0.4048
  878MPD2    H312936   3.196   2.594  13.201 -0.4221  1.2246 -2.6319
  878MPD2     N12937   3.521   2.854  13.388  0.6056 -0.0375 -0.6565
  878MPD2    H512938   3.587   2.930  13.376  1.7801 -0.4905  2.7335
  878MPD2    N112939   3.426   2.856  12.912  0.0102  0.1632 -0.1305
  878MPD2    H712940   3.378   2.821  12.830  1.8970 -1.2025 -0.6538
  879MPD2     C12941   4.518   3.373  17.269 -0.9145 -0.1658  0.6251
  879MPD2    C112942   4.468   3.486  17.220  0.1769  0.5562 -0.1563
  879MPD2    C212943   4.374   3.484  17.120  0.1807  0.5516 -0.1814
  879MPD2    C312944   4.346   3.367  17.053  0.0495  0.1889 -0.6537
  879MPD2    C412945   4.399   3.250  17.106 -0.0393 -0.2862  0.1793
  879MPD2    C512946   4.485   3.252  17.209  0.5723  0.1330 -0.0102
  879MPD2     H12947   4.334   3.578  17.085  1.4566  1.0927 -0.2020
  879MPD2    H112948   4.382   3.154  17.058  0.5391  0.5503 -1.7133
  879MPD2    H212949   4.593   3.366  17.348 -0.5554 -1.2066  0.1902
  879MPD2    H312950   4.515   3.159  17.257 -1.2279 -0.6769 -0.4871
  879MPD2     N12951   4.260   3.346  16.945  0.7377 -0.4157  0.1602
  879MPD2    H512952   4.233   3.254  16.913  1.0363 -0.8082  1.0399
  879MPD2    N112953   4.519   3.604  17.286  0.3278 -0.1786 -0.4531
  879MPD2    H712954   4.589   3.588  17.358 -1.0789  0.6618  1.1120
  880MPD2     C12955   0.682   0.610   0.345  0.4804 -0.0505 -0.2366
  880MPD2    C112956   0.746   0.620   0.466  0.1593 -0.7706 -0.0055
  880MPD2    C212957   0.770   0.504   0.537  0.2727  0.1517  0.2190
  880MPD2    C312958   0.753   0.377   0.492 -0.4272  0.1124 -0.3941
  880MPD2    C412959   0.690   0.368   0.367 -0.0262 -0.0503  0.6387
  880MPD2    C512960   0.654   0.484   0.303 -0.0890 -0.1939 -0.0556
  880MPD2     H12961   0.819   0.503   0.634 -0.7101  1.9871  0.7445
  880MPD2    H112962   0.658   0.279   0.313 -0.0859 -1.0483  2.3113
  880MPD2    H212963   0.658   0.696   0.284  0.0958  1.2325  1.7308
  880MPD2    H312964   0.599   0.473   0.210 -3.3867 -1.2733  2.0054
  880MPD2     N12965   0.789   0.262   0.576  0.3679  0.1494 -0.0402
  880MPD2    H512966   0.825   0.290   0.667 -0.4876 -1.6957  0.8618
  880MPD2    N112967   0.788   0.754   0.498 -0.6214 -0.0774 -0.2984
  880MPD2    H712968   0.780   0.829   0.430  0.7570  2.0893  1.8861
  881MPD2     C12969   1.344   1.514   0.197 -0.6194  0.1948 -0.4552
  881MPD2    C112970   1.310   1.393   0.150  0.1591 -0.2369 -0.3764
  881MPD2    C212971   1.233   1.310   0.229  0.5132 -0.2551  0.3973
  881MPD2    C312972   1.222   1.342   0.368  0.0798 -0.6778 -0.2376
  881MPD2    C412973   1.278   1.456   0.416 -0.1111  0.3724  0.3783
  881MPD2    C512974   1.334   1.543   0.329  0.8101  0.6318 -0.6472
  881MPD2     H12975   1.178   1.225   0.191  0.6393  0.3623 -1.1663
  881MPD2    H112976   1.290   1.483   0.520 -0.4948  1.3905  0.1664
  881MPD2    H212977   1.397   1.584   0.134 -0.2264  0.4916  0.2131
  881MPD2    H312978   1.393   1.627   0.364  1.5957  0.5279 -1.7273
  881MPD2     N12979   1.155   1.260   0.465 -0.1498 -0.4787  0.9323
  881MPD2    H512980   1.150   1.294   0.560 -0.8136  0.2874  0.6220
  881MPD2    N112981   1.314   1.382   0.014  0.2432  1.3712 -0.6513
  881MPD2    H712982   1.348   1.460  17.715 -0.2099 -0.7537 -3.9445
  882MPD2     C12983   4.341   3.266  14.261  0.5410 -0.2240 -0.3540
  882MPD2    C112984   4.230   3.320  14.328 -0.1391 -0.1416  0.1533
  882MPD2    C212985   4.098   3.277  14.299 -0.0411  0.2679  0.0672
  882MPD2    C312986   4.085   3.178  14.208  0.4465  0.2152  0.1815
  882MPD2    C412987   4.195   3.122  14.139 -0.1695  0.3293  0.2426
  882MPD2    C512988   4.320   3.167  14.171  0.1197 -0.0043  0.3134
  882MPD2     H12989   4.009   3.310  14.351  1.1124  1.8686  1.0584
  882MPD2    H112990   4.187   3.052  14.057 -1.2397 -0.0688  0.6773
  882MPD2    H212991   4.442   3.300  14.281  0.6600 -1.1231  0.5637
  882MPD2    H312992   4.404   3.128  14.116 -0.8603  0.8620 -1.7910
  882MPD2     N12993   3.958   3.122  14.167  0.2073 -0.0050 -0.5149
  882MPD2    H512994   3.952   3.029  14.128  0.3934  0.6918 -2.1877
  882MPD2    N112995   4.255   3.410  14.431  0.3821  0.6077  0.0496
  882MPD2    H712996   4.343   3.399  14.482  1.1092  1.2667 -1.0695
  883MPD2     C12997   1.238   3.157  16.093  0.4985 -0.0379 -0.5319
  883MPD2    C112998   1.250   3.271  16.015  0.2931 -0.0146  0.5159
  883MPD2    C212999   1.324   3.375  16.062  0.4623  0.0068  0.9761
  883MPD2    C313000   1.391   3.366  16.186 -0.2749 -0.5551  0.6099
  883MPD2    C413001   1.369   3.262  16.272  0.2409  0.4327  0.5458
  883MPD2    C513002   1.294   3.156  16.221  0.3295 -0.4601 -0.3605
  883MPD2     H13003   1.326   3.467  16.004  2.4443  0.4186  1.6850
  883MPD2    H113004   1.419   3.251  16.367 -0.2772  0.6492  0.8443
  883MPD2    H213005   1.167   3.080  16.065 -0.8791  2.1837 -3.1440
  883MPD2    H313006   1.284   3.069  16.284  1.0429 -0.9380 -0.9052
  883MPD2     N13007   1.481   3.467  16.210  0.0087  0.5455 -0.2851
  883MPD2    H513008   1.497   3.536  16.137 -1.7256 -0.5514 -1.6855
  883MPD2    N113009   1.192   3.277  15.882  0.0720  0.0898  0.3682
  883MPD2    H713010   1.218   3.358  15.826  0.1345  0.4228  0.8732
  884MPD2     C13011   3.288   4.015  14.909  0.6173 -0.3298  0.0803
  884MPD2    C113012   3.316   4.150  14.929 -0.8192  0.4531 -0.3831
  884MPD2    C213013   3.227   4.246  14.957 -0.4033 -0.1658 -0.7317
  884MPD2    C313014   3.091   4.202  14.957 -0.2594 -0.0276 -0.5979
  884MPD2    C413015   3.063   4.069  14.943 -0.0371 -0.7795  0.0596
  884MPD2    C513016   3.157   3.980  14.922  0.2338 -0.3928 -0.3882
  884MPD2     H13017   3.249   4.350  14.976 -2.0423  0.2617 -1.1367
  884MPD2    H113018   2.961   4.033  14.942 -0.4282  0.3464 -0.2575
  884MPD2    H213019   3.361   3.936  14.894  1.9838  0.1598  4.2073
  884MPD2    H313020   3.119   3.879  14.910  1.6031 -0.8729 -0.7254
  884MPD2     N13021   2.991   4.301  14.994  0.3076 -0.0075  0.2539
  884MPD2    H513022   3.015   4.398  14.975 -0.6659  0.3050  0.5863
  884MPD2    N113023   3.449   4.199  14.914  0.4837 -0.0597 -0.3999
  884MPD2    H713024   3.454   4.300  14.922 -2.7101  0.2071 -1.5590
  885MPD2     C13025   1.038   3.958   0.161  0.1946  0.5524 -0.4337
  885MPD2    C113026   1.173   3.990   0.170  0.5523  0.8369 -0.1393
  885MPD2    C213027   1.223   4.082   0.077 -0.3491 -0.1997  0.1742
  885MPD2    C313028   1.155   4.118  17.719 -0.6141  0.4335 -0.2059
  885MPD2    C413029   1.028   4.064  17.705  0.3574  0.8959  0.4146
  885MPD2    C513030   0.968   3.989   0.044 -1.4725  0.4632  0.1070
  885MPD2     H13031   1.326   4.116   0.078 -0.8675  1.3809  0.0841
  885MPD2    H113032   0.971   4.100  17.620 -0.4514 -0.4163  0.4073
  885MPD2    H213033   0.986   3.900   0.236  1.3327  0.5661  0.3691
  885MPD2    H313034   0.862   3.969   0.034 -1.4116  0.4256 -0.4773
  885MPD2     N13035   1.217   4.207  17.630 -0.0212  0.5129 -0.6667
  885MPD2    H513036   1.310   4.239  17.655 -0.4170  0.6394  0.6036
  885MPD2    N113037   1.244   3.942   0.285 -0.1629 -0.3150  0.0663
  885MPD2    H713038   1.188   3.876   0.338 -0.9202  1.6848  1.7816
  886MPD2     C13039   2.646   2.628  14.978  0.7666  0.4169  0.6377
  886MPD2    C113040   2.780   2.638  15.004  0.3082 -0.5375 -0.1448
  886MPD2    C213041   2.861   2.678  14.900  0.0821  0.1677  0.9848
  886MPD2    C313042   2.811   2.708  14.775 -0.0684  0.1353  0.3821
  886MPD2    C413043   2.678   2.683  14.748 -0.8537  0.0297  0.4033
  886MPD2    C513044   2.606   2.632  14.848 -0.5999 -0.3642  0.1337
  886MPD2     H13045   2.968   2.688  14.916  0.0591  1.0337  0.6472
  886MPD2    H113046   2.632   2.695  14.651 -0.8965 -0.7722  0.3246
  886MPD2    H213047   2.578   2.585  15.049 -1.2794  1.1596 -0.8746
  886MPD2    H313048   2.503   2.605  14.831 -0.2146 -2.1439  0.6822
  886MPD2     N13049   2.897   2.782  14.693 -0.2495 -0.3982  0.2007
  886MPD2    H513050   2.981   2.814  14.741  0.6581  0.2457 -1.8223
  886MPD2    N113051   2.820   2.608  15.135 -1.2603  0.0806 -0.1048
  886MPD2    H713052   2.748   2.592  15.204  0.3401  1.4076  1.8611
  887MPD2     C13053   3.001   2.809  15.847 -0.6503 -0.7116  0.3615
  887MPD2    C113054   3.012   2.837  15.712 -0.0514  0.1217  0.1924
  887MPD2    C213055   3.080   2.944  15.674  0.3571 -0.8116 -0.1741
  887MPD2    C313056   3.142   3.023  15.758  0.5407 -0.2423  0.2490
  887MPD2    C413057   3.126   3.004  15.897 -0.3740  1.1558 -1.2082
  887MPD2    C513058   3.047   2.897  15.938 -0.1246 -0.6551 -0.4651
  887MPD2     H13059   3.072   2.958  15.567  2.5152 -0.0368 -0.2263
  887MPD2    H113060   3.179   3.058  15.974 -0.2343 -0.8792  0.1160
  887MPD2    H213061   2.950   2.719  15.878  0.9137 -1.1516  1.6198
  887MPD2    H313062   3.026   2.871  16.042  2.0513  2.6635  0.8015
  887MPD2     N13063   3.225   3.129  15.709 -0.2602 -0.0629 -0.0579
  887MPD2    H513064   3.225   3.128  15.607  3.1312 -0.2668 -0.0676
  887MPD2    N113065   2.964   2.750  15.615 -1.1446  0.2807  0.1583
  887MPD2    H713066   2.990   2.774  15.520  0.2848  3.1388  1.2608
  888MPD2     C13067   0.299   2.873  14.776 -0.1965  0.1595 -0.3753
  888MPD2    C113068   0.239   2.891  14.903  0.0207  0.4001 -0.0756
  888MPD2    C213069   0.269   3.006  14.978  0.8092  0.4789 -0.6312
  888MPD2    C313070   0.351   3.112  14.927  0.1161  0.5621 -1.0251
  888MPD2    C413071   0.408   3.078  14.804 -0.9075  0.4158 -0.3287
  888MPD2    C513072   0.383   2.971  14.726  0.8022  0.3802  0.0077
  888MPD2     H13073   0.238   3.028  15.079  0.2152 -1.9119 -0.2895
  888MPD2    H113074   0.489   3.142  14.772  0.0979 -0.4693  0.4441
  888MPD2    H213075   0.290   2.780  14.722 -0.8777 -1.1568  2.0133
  888MPD2    H313076   0.441   2.939  14.640  0.8355  0.7564 -0.1088
  888MPD2     N13077   0.372   3.233  14.994 -0.6828  0.2056 -0.2253
  888MPD2    H513078   0.327   3.243  15.085  1.6537 -0.5087  1.0276
  888MPD2    N113079   0.151   2.798  14.953  0.5609 -0.1616  0.6770
  888MPD2    H713080   0.120   2.819  15.047 -0.5468  0.7715  0.1055
  889MPD2     C13081   0.021   3.160  12.701 -0.1541 -0.4528 -0.3849
  889MPD2    C113082   0.056   3.061  12.786  0.0395 -0.0794  0.2983
  889MPD2    C213083   0.008   3.066  12.916 -0.2554 -0.6292 -0.0733
  889MPD2    C313084   4.716   3.190  12.972 -0.0683  0.2344 -0.0677
  889MPD2    C413085   4.722   3.302  12.892  0.2902  0.3366 -0.0328
  889MPD2    C513086   0.006   3.286  12.757  0.0942 -0.2352  0.0606
  889MPD2     H13087   0.027   2.985  12.985 -0.7166 -2.4715 -2.1099
  889MPD2    H113088   4.728   3.402  12.933  0.7646  0.6173 -0.7665
  889MPD2    H213089   0.055   3.167  12.598 -0.4753  0.3835 -0.4348
  889MPD2    H313090   0.014   3.380  12.704  2.0567 -0.2525  0.3318
  889MPD2     N13091   4.678   3.197  13.107 -0.0944  0.5684  0.4425
  889MPD2    H513092   4.659   3.106  13.148 -0.0529  0.1703 -0.4462
  889MPD2    N113093   0.078   2.924  12.744  0.0151 -0.4234 -0.3639
  889MPD2    H713094   0.076   2.849  12.812  0.2572 -0.3812 -0.3085
  890MPD2     C13095   3.819   4.123  14.467 -0.5054  0.1536  0.7423
  890MPD2    C113096   3.956   4.119  14.452 -0.2641  0.1375  0.5415
  890MPD2    C213097   4.038   4.070  14.544  0.1908 -0.1606  1.1331
  890MPD2    C313098   3.993   4.001  14.652  0.1876 -0.5032  0.5099
  890MPD2    C413099   3.855   3.998  14.666  0.8006  0.1065  0.0794
  890MPD2    C513100   3.769   4.070  14.583  0.1556 -0.8021  0.7419
  890MPD2     H13101   4.146   4.074  14.546  0.1855  0.8697 -0.3804
  890MPD2    H113102   3.799   3.948  14.743 -0.5779 -0.6194 -1.4019
  890MPD2    H213103   3.761   4.180  14.395 -0.4741  0.8731  1.2954
  890MPD2    H313104   3.661   4.071  14.591  0.0567  1.8508 -1.2656
  890MPD2     N13105   4.086   3.952  14.752 -0.7893 -0.5328  0.2312
  890MPD2    H513106   4.184   3.968  14.728 -0.7728 -0.8093  0.1145
  890MPD2    N113107   4.021   4.183  14.347  0.1862 -0.2579 -0.7215
  890MPD2    H713108   3.975   4.263  14.306 -0.9325 -0.6594 -0.2314
  891MPD2     C13109   1.980   2.518  16.326  0.5773 -0.0944  0.7813
  891MPD2    C113110   1.995   2.639  16.391 -0.1893 -0.1935 -0.1984
  891MPD2    C213111   2.080   2.654  16.494  0.3406 -0.1588 -0.3460
  891MPD2    C313112   2.142   2.539  16.541 -0.1935  0.1335  0.3247
  891MPD2    C413113   2.114   2.417  16.492  0.1512  0.5176  0.4424
  891MPD2    C513114   2.039   2.403  16.379 -0.0010 -0.9198  0.4862
  891MPD2     H13115   2.113   2.746  16.541  0.3153 -0.5801  0.4857
  891MPD2    H113116   2.166   2.325  16.518 -0.7883 -0.0481  0.3219
  891MPD2    H213117   1.948   2.525  16.223  0.4596 -0.2319  0.8090
  891MPD2    H313118   2.027   2.305  16.335  3.1425 -1.0783  0.0211
  891MPD2     N13119   2.240   2.550  16.639 -0.3372  0.4790 -0.1902
  891MPD2    H513120   2.269   2.643  16.668  1.4771 -0.3337  0.6138
  891MPD2    N113121   1.935   2.748  16.323  0.2110  0.1038 -0.4577
  891MPD2    H713122   1.866   2.723  16.254  0.1652  0.9453 -0.7210
  892MPD2     C13123   3.414   3.753  14.215  0.9410  0.0731 -0.0586
  892MPD2    C113124   3.336   3.665  14.283  1.0794  0.7209  0.0114
  892MPD2    C213125   3.367   3.528  14.275  0.1774 -0.3970 -0.2738
  892MPD2    C313126   3.478   3.486  14.207 -0.4804  0.1047 -0.0830
  892MPD2    C413127   3.557   3.574  14.142 -0.1984  0.7577 -0.1848
  892MPD2    C513128   3.524   3.705  14.148 -0.2309  0.6986  0.2729
  892MPD2     H13129   3.302   3.455  14.322  0.3354  0.0360  0.6101
  892MPD2    H113130   3.639   3.553  14.074  0.4426 -0.5561  0.9987
  892MPD2    H213131   3.392   3.859  14.220  0.2422 -0.0786 -0.0330
  892MPD2    H313132   3.574   3.778  14.086 -0.0947 -0.3038 -0.7961
  892MPD2     N13133   3.506   3.350  14.179 -0.0870  0.3687  0.2572
  892MPD2    H513134   3.591   3.333  14.126 -2.2343  0.6936 -3.3203
  892MPD2    N113135   3.216   3.716  14.335 -0.3956  0.6161  0.3108
  892MPD2    H713136   3.200   3.813  14.310  0.0116  0.9042  1.1707
  893MPD2     C13137   0.753   0.711   1.359  0.0232  0.1888  0.1476
  893MPD2    C113138   0.700   0.816   1.432  0.1080 -0.1338 -0.4949
  893MPD2    C213139   0.638   0.793   1.553  0.4262  0.0264 -0.2182
  893MPD2    C313140   0.624   0.665   1.600  0.4857  0.1526  0.1286
  893MPD2    C413141   0.667   0.564   1.514  0.2398 -0.9825 -0.2962
  893MPD2    C513142   0.736   0.583   1.398 -0.1591  0.6356  0.2806
  893MPD2     H13143   0.590   0.875   1.606 -1.4304 -1.3854  0.3094
  893MPD2    H113144   0.641   0.462   1.540  0.2269 -1.0762 -0.6806
  893MPD2    H213145   0.806   0.720   1.265 -0.1372  0.3728  0.0750
  893MPD2    H313146   0.765   0.498   1.338  1.5343 -1.0995  3.5534
  893MPD2     N13147   0.564   0.623   1.720  0.1301  0.5284  0.6598
  893MPD2    H513148   0.559   0.522   1.731 -0.9535  0.5943  0.7595
  893MPD2    N113149   0.698   0.939   1.362 -0.9163  0.1671 -0.0812
  893MPD2    H713150   0.737   0.945   1.268  0.3457  0.4975  0.4527
  894MPD2     C13151   2.918   3.776   1.106 -0.4796  0.3645  0.7969
  894MPD2    C113152   2.887   3.852   1.220  0.0891  0.5205 -0.3149
  894MPD2    C213153   2.945   3.975   1.226  0.2629 -0.2127 -0.0340
  894MPD2    C313154   3.026   4.026   1.126 -0.0401 -0.3679 -0.2915
  894MPD2    C413155   3.059   3.951   1.012  0.2678  0.4437 -0.0075
  894MPD2    C513156   3.006   3.823   1.008 -0.3066  0.5150 -0.8204
  894MPD2     H13157   2.930   4.043   1.309 -1.7857  0.5955 -1.0780
  894MPD2    H113158   3.124   3.988   0.934  1.4669 -0.6804  0.4431
  894MPD2    H213159   2.889   3.673   1.088 -1.7473  0.5167  1.9523
  894MPD2    H313160   3.031   3.760   0.923  2.5007 -2.5997  2.2689
  894MPD2     N13161   3.070   4.161   1.141 -0.1186 -0.3029  0.0266
  894MPD2    H513162   3.051   4.211   1.227 -1.3871  0.2368 -0.5703
  894MPD2    N113163   2.805   3.791   1.329 -0.3724 -0.0499 -0.0143
  894MPD2    H713164   2.795   3.844   1.415 -0.2170  1.5995 -1.0180
  895MPD2     C13165   2.651   2.547  13.660 -0.0109 -1.0341 -0.1847
  895MPD2    C113166   2.567   2.592  13.566 -0.4643 -0.1087 -0.0245
  895MPD2    C213167   2.507   2.502  13.482  0.0242 -0.1722 -0.5575
  895MPD2    C313168   2.531   2.370  13.490  0.2725 -0.1217 -1.0147
  895MPD2    C413169   2.629   2.323  13.580  0.3471 -0.3002  0.0478
  895MPD2    C513170   2.687   2.417  13.665  0.3020  0.2569  0.8647
  895MPD2     H13171   2.429   2.536  13.416 -0.6233  0.0749  0.3332
  895MPD2    H113172   2.667   2.222  13.572 -0.5971 -0.6223 -0.3339
  895MPD2    H213173   2.699   2.623  13.723 -2.1860  0.0780  0.1218
  895MPD2    H313174   2.762   2.389  13.738 -0.6479  1.1337  2.1678
  895MPD2     N13175   2.453   2.280  13.415 -0.0745 -0.2156  0.7382
  895MPD2    H513176   2.470   2.181  13.428  0.9582  0.1054  1.8547
  895MPD2    N113177   2.520   2.725  13.548 -0.2628  0.6097 -0.5010
  895MPD2    H713178   2.461   2.745  13.469 -0.3498 -0.4093 -0.6992
  896MPD2     C13179   4.539   0.406   1.467  0.5251  0.1862 -0.2440
  896MPD2    C113180   4.539   0.288   1.398 -0.0603 -0.2893  0.1903
  896MPD2    C213181   4.442   0.192   1.419  0.3501  0.0944  0.1277
  896MPD2    C313182   4.337   0.224   1.503 -0.0545  0.8257 -0.3656
  896MPD2    C413183   4.339   0.342   1.576 -0.2524  0.3480  0.9215
  896MPD2    C513184   4.441   0.432   1.565 -0.1503  0.5407 -0.2614
  896MPD2     H13185   4.442   0.102   1.358 -1.7454  0.5827 -0.5657
  896MPD2    H113186   4.261   0.372   1.645 -0.4447  0.8034  0.5165
  896MPD2    H213187   4.627   0.465   1.485  2.9054 -3.9657  1.7651
  896MPD2    H313188   4.449   0.512   1.637 -0.5773 -0.7817  1.2479
  896MPD2     N13189   4.235   0.123   1.509  0.5606 -0.0785 -0.2814
  896MPD2    H513190   4.245   0.057   1.433 -0.7963 -1.7050  0.9703
  896MPD2    N113191   4.652   0.261   1.313  0.2966 -0.2682 -0.0989
  896MPD2    H713192   4.712   0.340   1.296  4.7296 -3.5098  0.4480
  897MPD2     C13193   0.906   2.772  10.235 -0.3135 -0.3841  0.4128
  897MPD2    C113194   0.813   2.862  10.269  0.4123  1.4614 -0.0482
  897MPD2    C213195   0.702   2.815  10.334 -0.1898 -0.1366  0.2495
  897MPD2    C313196   0.695   2.691  10.385  0.1427  0.2071 -0.1685
  897MPD2    C413197   0.800   2.602  10.360  0.3624  0.5079  0.2365
  897MPD2    C513198   0.907   2.644  10.286  0.3688 -0.5415  0.3987
  897MPD2     H13199   0.634   2.897  10.357 -0.5749 -0.2754 -0.3899
  897MPD2    H113200   0.787   2.496  10.381  1.9982  0.0102 -1.3191
  897MPD2    H213201   0.990   2.805  10.175 -1.7665  0.6282 -1.0598
  897MPD2    H313202   0.977   2.567  10.256 -0.3282 -1.1450  0.3245
  897MPD2     N13203   0.570   2.629  10.426 -1.0176 -0.3948 -0.4379
  897MPD2    H513204   0.573   2.531  10.454 -0.2581 -0.9275 -2.3123
  897MPD2    N113205   0.814   2.997  10.219 -0.1937 -0.8084  0.3262
  897MPD2    H713206   0.881   3.026  10.148 -1.3067 -0.7514 -0.7091
  898MPD2     C13207   2.656   3.282  17.506  0.1417 -0.1729 -0.7128
  898MPD2    C113208   2.785   3.233  17.523 -0.6261 -0.3640  0.4807
  898MPD2    C213209   2.893   3.316  17.501 -0.1196 -0.1709 -0.2104
  898MPD2    C313210   2.871   3.450  17.469  0.2053  0.1048  0.6139
  898MPD2    C413211   2.742   3.498  17.467 -0.0701 -0.2601  0.4959
  898MPD2    C513212   2.632   3.418  17.492  0.0871  0.2339  0.1322
  898MPD2     H13213   2.995   3.280  17.511 -0.1738 -0.0098  0.9514
  898MPD2    H113214   2.706   3.597  17.441  0.9866 -0.1606 -0.6027
  898MPD2    H213215   2.572   3.218  17.529  0.1474  0.3166  0.6879
  898MPD2    H313216   2.533   3.462  17.493  0.7160  1.6367  2.2717
  898MPD2     N13217   2.988   3.525  17.437 -0.3794  0.3916  0.4748
  898MPD2    H513218   3.080   3.484  17.433 -0.7439 -0.3275 -0.6850
  898MPD2    N113219   2.803   3.098  17.551 -0.1159  0.4365 -0.0035
  898MPD2    H713220   2.897   3.063  17.537  1.1889  4.2651 -0.6239
  899MPD2     C13221   3.807   3.380  16.979  0.3624 -0.1558  1.0038
  899MPD2    C113222   3.857   3.486  17.056 -0.6001  0.5161 -0.3154
  899MPD2    C213223   3.860   3.480  17.193 -0.3431  0.1375  0.1122
  899MPD2    C313224   3.811   3.364  17.254 -0.8784  0.6266  0.0385
  899MPD2    C413225   3.759   3.261  17.177  0.4179 -0.1217  0.7379
  899MPD2    C513226   3.762   3.265  17.041 -0.2992  0.3614  0.0246
  899MPD2     H13227   3.879   3.564  17.259 -0.7687  1.0517 -0.9280
  899MPD2    H113228   3.704   3.184  17.229 -0.1162 -0.5883 -0.5166
  899MPD2    H213229   3.793   3.387  16.872  1.5555 -2.1106  0.7269
  899MPD2    H313230   3.708   3.190  16.985  0.4829  0.1946 -0.5020
  899MPD2     N13231   3.783   3.349  17.394  0.1460 -0.3691  1.0691
  899MPD2    H513232   3.727   3.272  17.429  1.2511 -2.3486 -1.4797
  899MPD2    N113233   3.898   3.598  16.985 -0.7817  0.3071  0.4815
  899MPD2    H713234   3.863   3.602  16.890 -0.6084  0.8779  0.4466
  900MPD2     C13235   2.685   0.795  12.599  0.0970  0.5093  0.2762
  900MPD2    C113236   2.587   0.701  12.635  0.3955 -0.2403 -0.3446
  900MPD2    C213237   2.456   0.747  12.647 -0.5698  0.9373  0.8549
  900MPD2    C313238   2.423   0.878  12.628 -0.1165  0.3698  0.8890
  900MPD2    C413239   2.521   0.964  12.592  0.8445  0.0413  0.3205
  900MPD2    C513240   2.641   0.920  12.567 -0.1527 -0.7585 -0.9328
  900MPD2     H13241   2.371   0.683  12.667  1.6171 -2.0641  0.3407
  900MPD2    H113242   2.499   1.066  12.561  0.1805 -0.3111 -0.3563
  900MPD2    H213243   2.793   0.781  12.596 -0.0187 -0.0788 -1.0936
  900MPD2    H313244   2.709   0.996  12.530  0.3023 -1.1637 -0.9247
  900MPD2     N13245   2.287   0.916  12.636  0.1598  0.3781 -0.2600
  900MPD2    H513246   2.224   0.843  12.667  0.5931  0.5388  0.9948
  900MPD2    N113247   2.624   0.566  12.637  0.8428 -0.2233  0.6746
  900MPD2    H713248   2.721   0.546  12.615  0.7326 -0.8885  0.7984
  901MPD2     C13249   2.413   4.235  12.800 -0.0262 -0.0383 -0.7403
  901MPD2    C113250   2.538   4.247  12.746  0.0282 -0.5680  0.0855
  901MPD2    C213251   2.594   4.369  12.716  0.2974 -0.3138  0.1050
  901MPD2    C313252   2.517   4.483  12.739 -0.2647 -0.1073  0.4035
  901MPD2    C413253   2.400   4.472  12.801  0.2071 -0.0564  0.9925
  901MPD2    C513254   2.342   4.347  12.828 -0.7009  0.2407 -0.0510
  901MPD2     H13255   2.693   4.388  12.676  0.2745 -1.9483 -0.7229
  901MPD2    H113256   2.344   4.559  12.833  1.2283  1.5696 -1.6446
  901MPD2    H213257   2.373   4.135  12.815  1.4195 -0.3340  1.1040
  901MPD2    H313258   2.240   4.346  12.865 -0.8062 -0.8504 -0.3666
  901MPD2     N13259   2.566   4.606  12.700  0.0374  0.0899  0.2676
  901MPD2    H513260   2.654   4.598  12.650 -1.2556  1.5985 -2.2578
  901MPD2    N113261   2.588   4.128  12.700 -0.2202  0.0371  0.4801
  901MPD2    H713262   2.529   4.045  12.697 -0.2537  0.1094 -0.9895
  902MPD2     C13263   2.022   3.015  12.592 -0.7143  0.1091 -0.4895
  902MPD2    C113264   2.131   3.088  12.628 -0.3199 -0.0585  0.5943
  902MPD2    C213265   2.252   3.041  12.573  0.7273 -0.5726  0.1542
  902MPD2    C313266   2.261   2.942  12.479  0.3470 -0.6257 -0.5607
  902MPD2    C413267   2.151   2.859  12.466  0.3783 -0.2658  0.5767
  902MPD2    C513268   2.026   2.901  12.512  0.7715  0.0086  0.5205
  902MPD2     H13269   2.343   3.097  12.594  0.2991 -0.6640  2.2122
  902MPD2    H113270   2.151   2.764  12.413  3.1255  0.0201  0.0356
  902MPD2    H213271   1.925   3.054  12.619 -1.1176 -1.9488  1.0602
  902MPD2    H313272   1.935   2.847  12.490 -0.5631  2.2603  0.4594
  902MPD2     N13273   2.375   2.913  12.394 -0.2944 -0.0433 -0.4399
  902MPD2    H513274   2.358   2.843  12.323 -3.0179 -0.6936  0.8495
  902MPD2    N113275   2.115   3.212  12.697 -0.7343 -0.4759 -0.0535
  902MPD2    H713276   2.020   3.248  12.706 -0.8718 -1.2241  1.4391
  903MPD2     C13277   2.494   3.538  12.087  0.3518 -1.1838 -0.2861
  903MPD2    C113278   2.411   3.433  12.069 -0.3454  0.7498 -0.1139
  903MPD2    C213279   2.271   3.458  12.069  0.0547 -0.2812 -0.0421
  903MPD2    C313280   2.218   3.584  12.102 -0.1078  0.2917 -0.2483
  903MPD2    C413281   2.309   3.684  12.133 -0.5445 -0.1501 -0.6049
  903MPD2    C513282   2.437   3.666  12.116  0.1562 -0.3065  0.1076
  903MPD2     H13283   2.207   3.378  12.033  0.3334 -0.8483  0.7265
  903MPD2    H113284   2.273   3.785  12.149  0.6498 -0.0371  1.3316
  903MPD2    H213285   2.602   3.523  12.085  0.6656  0.9993  0.0829
  903MPD2    H313286   2.498   3.754  12.133 -1.1586  0.8712 -1.2231
  903MPD2     N13287   2.084   3.604  12.070  0.1386 -0.1262  0.0851
  903MPD2    H513288   2.029   3.524  12.041 -0.3669 -0.4813  2.0315
  903MPD2    N113289   2.470   3.304  12.060  0.2325  0.2051 -0.6007
  903MPD2    H713290   2.570   3.296  12.076  0.3645  0.9196 -1.1093
  904MPD2     C13291   2.414   1.937  13.710  0.0495 -0.4509 -0.3879
  904MPD2    C113292   2.468   2.039  13.774  0.0426 -0.0561  0.0989
  904MPD2    C213293   2.591   2.019  13.835  0.4241 -0.3700  0.2685
  904MPD2    C313294   2.668   1.902  13.829  0.7809  0.3195 -0.5772
  904MPD2    C413295   2.603   1.797  13.768  0.2621 -0.2706  0.5216
  904MPD2    C513296   2.478   1.819  13.703 -0.0573 -0.4626  0.0039
  904MPD2     H13297   2.634   2.108  13.881  0.1153  0.1367 -0.4248
  904MPD2    H113298   2.657   1.704  13.753  0.4548 -0.1210  0.2808
  904MPD2    H213299   2.323   1.945  13.652 -0.3544 -1.7415  0.0599
  904MPD2    H313300   2.426   1.749  13.639 -1.0007  1.6141 -1.5163
  904MPD2     N13301   2.794   1.897  13.877 -0.4719  0.5296  0.2302
  904MPD2    H513302   2.830   1.982  13.920 -2.2051  0.6565  1.4500
  904MPD2    N113303   2.416   2.168  13.791 -0.0533 -0.0130 -0.2299
  904MPD2    H713304   2.464   2.233  13.852  0.5425 -0.1830 -0.5145
  905MPD2     C13305   2.011   2.676  13.271  0.2137  0.2392 -0.6526
  905MPD2    C113306   2.024   2.546  13.330  0.7079 -0.1413 -0.2551
  905MPD2    C213307   1.991   2.433  13.260  0.7030 -0.2828  0.4675
  905MPD2    C313308   1.963   2.446  13.123 -0.0660 -0.8279 -0.0677
  905MPD2    C413309   1.950   2.575  13.072 -0.3460 -0.5690  0.0380
  905MPD2    C513310   1.959   2.690  13.146  0.0370 -0.2656  0.6653
  905MPD2     H13311   1.989   2.337  13.311  1.4589 -1.0850 -1.0284
  905MPD2    H113312   1.927   2.597  12.968  0.9213  1.1638  0.1216
  905MPD2    H213313   2.027   2.763  13.334 -0.0222 -0.4345  0.3296
  905MPD2    H313314   1.955   2.788  13.099 -0.4012 -1.4016 -1.6700
  905MPD2     N13315   1.942   2.335  13.036  0.2294  0.4637  0.3331
  905MPD2    H513316   1.879   2.355  12.959  3.0022  0.4869 -1.9043
  905MPD2    N113317   2.077   2.525  13.463  0.2755  0.0765  0.3746
  905MPD2    H713318   2.079   2.430  13.496 -0.6248  0.4060  1.3643
  906MPD2     C13319   4.220   3.142  10.996 -0.0546 -0.3951 -0.7976
  906MPD2    C113320   4.114   3.099  10.926  0.4500  0.2057 -0.0332
  906MPD2    C213321   4.013   3.028  10.992  0.4789  0.4530  0.1256
  906MPD2    C313322   4.040   2.985  11.124  0.4424 -0.5001 -0.2232
  906MPD2    C413323   4.142   3.039  11.199  0.2795  0.2051 -0.0800
  906MPD2    C513324   4.234   3.112  11.130  0.9278  0.9278  0.0568
  906MPD2     H13325   3.931   2.996  10.929 -0.1708 -1.0638  1.7511
  906MPD2    H113326   4.153   3.029  11.307 -2.8949 -1.1507  0.1133
  906MPD2    H213327   4.300   3.196  10.945 -1.0973  1.1845 -0.7675
  906MPD2    H313328   4.326   3.148  11.176  0.3845  1.5410  0.6655
  906MPD2     N13329   3.957   2.888  11.180  0.2091  0.2812 -0.3171
  906MPD2    H513330   3.973   2.864  11.278  0.1992 -0.3499 -0.4684
  906MPD2    N113331   4.104   3.126  10.788  0.1154 -0.3708  0.0188
  906MPD2    H713332   4.180   3.181  10.749 -1.7902  2.0582 -0.2733
  907MPD2     C13333   2.971   1.717  16.235 -0.3993 -0.6707  0.1894
  907MPD2    C113334   3.060   1.615  16.210  0.1522 -0.5253  0.6239
  907MPD2    C213335   3.152   1.572  16.298 -0.0690  0.1910  0.0903
  907MPD2    C313336   3.170   1.653  16.414  0.5385 -0.9197 -0.0419
  907MPD2    C413337   3.072   1.749  16.448  0.2180  0.0258 -0.1224
  907MPD2    C513338   2.979   1.783  16.357 -0.0330  0.5521  0.3130
  907MPD2     H13339   3.227   1.496  16.278  1.3925  1.2633  1.4919
  907MPD2    H113340   3.073   1.810  16.538 -0.8114  2.7366 -1.9638
  907MPD2    H213341   2.902   1.761  16.165  0.9844  3.5522  1.4550
  907MPD2    H313342   2.911   1.866  16.375 -2.7161 -1.4962 -0.4440
  907MPD2     N13343   3.283   1.627  16.503  0.1200 -0.1661 -0.2081
  907MPD2    H513344   3.340   1.547  16.479  2.4893  1.2117  0.7342
  907MPD2    N113345   3.033   1.549  16.087 -0.3880  0.4212  0.0898
  907MPD2    H713346   2.957   1.581  16.028  1.0793  1.0477 -1.4604
  908MPD2     C13347   0.229   3.074   9.558 -0.8736 -0.0499  0.1004
  908MPD2    C113348   0.282   2.980   9.641  0.4749  0.0147 -0.5366
  908MPD2    C213349   0.359   3.013   9.748 -0.3452  0.5331 -0.3856
  908MPD2    C313350   0.393   3.148   9.766  0.0960  0.3097 -0.8462
  908MPD2    C413351   0.334   3.243   9.690  0.0569  0.2370 -0.5343
  908MPD2    C513352   0.248   3.206   9.586  0.4108 -0.8998 -0.3282
  908MPD2     H13353   0.407   2.943   9.815  1.8119  1.3412 -1.0884
  908MPD2    H113354   0.367   3.346   9.679  1.0229  0.1988  2.0713
  908MPD2    H213355   0.178   3.041   9.469  0.6192  1.7250 -1.4270
  908MPD2    H313356   0.209   3.285   9.524 -1.4716 -0.0465  1.9424
  908MPD2     N13357   0.485   3.178   9.872 -0.3088  0.1756 -0.9102
  908MPD2    H513358   0.516   3.105   9.935 -0.1321 -0.9562 -2.3379
  908MPD2    N113359   0.262   2.844   9.606  0.3675  0.2835 -0.2157
  908MPD2    H713360   0.225   2.835   9.512 -1.2153  1.5360  0.2678
  909MPD2     C13361   1.308   0.657  11.677  0.0958  0.0514 -0.0455
  909MPD2    C113362   1.248   0.781  11.661 -0.1323 -0.5906  0.5558
  909MPD2    C213363   1.109   0.787  11.665 -0.4478  0.0438  0.2405
  909MPD2    C313364   1.022   0.679  11.678 -0.6700 -0.2651 -0.2469
  909MPD2    C413365   1.083   0.553  11.682 -0.5870 -0.9888  0.6762
  909MPD2    C513366   1.225   0.546  11.680 -0.2902 -0.3368  0.0228
  909MPD2     H13367   1.075   0.889  11.654 -0.9941  0.1805  3.1807
  909MPD2    H113368   1.023   0.464  11.697  0.5047 -1.7340  0.6532
  909MPD2    H213369   1.415   0.643  11.676  0.0926 -0.2273  3.2257
  909MPD2    H313370   1.279   0.453  11.688  0.4019 -0.0194 -0.9434
  909MPD2     N13371   0.881   0.696  11.677  0.7337  0.4296  0.0745
  909MPD2    H513372   0.852   0.793  11.676  3.3509  1.2041 -1.1769
  909MPD2    N113373   1.324   0.897  11.643 -0.8706  0.7647 -0.6437
  909MPD2    H713374   1.277   0.986  11.651  0.5009  1.4507 -0.0920
  910MPD2     C13375   2.465   2.300  16.356 -0.0700 -0.2799  0.2756
  910MPD2    C113376   2.544   2.209  16.289 -0.3519  0.0541 -0.7372
  910MPD2    C213377   2.548   2.223  16.153  0.0241  0.2760  0.0145
  910MPD2    C313378   2.479   2.321  16.080 -0.8899 -0.3205  0.3581
  910MPD2    C413379   2.403   2.407  16.154  0.2901  0.3647 -0.8291
  910MPD2    C513380   2.396   2.399  16.291  0.3051 -0.2879 -0.4973
  910MPD2     H13381   2.610   2.152  16.100  1.1210  0.5707  0.9040
  910MPD2    H113382   2.346   2.485  16.107 -0.1090  0.7990  0.3582
  910MPD2    H213383   2.449   2.295  16.463  1.4654  4.1968  0.6905
  910MPD2    H313384   2.327   2.473  16.331  1.5522  1.0409 -0.7752
  910MPD2     N13385   2.466   2.313  15.943  0.3458  0.2439  0.0734
  910MPD2    H513386   2.400   2.375  15.897 -0.3739 -0.9321 -0.5032
  910MPD2    N113387   2.596   2.093  16.349  0.1805 -0.2024 -0.0693
  910MPD2    H713388   2.628   2.016  16.291  2.0188  1.0218 -0.6548
  911MPD2     C13389   0.488   2.313  16.115  0.3469  0.2450 -0.4121
  911MPD2    C113390   0.561   2.416  16.168  0.5305 -0.9426 -0.0211
  911MPD2    C213391   0.502   2.529  16.216 -0.4782  0.0946  0.2962
  911MPD2    C313392   0.365   2.534  16.223 -0.6395 -0.6169  0.0422
  911MPD2    C413393   0.283   2.428  16.178 -0.3373 -0.4627  0.1482
  911MPD2    C513394   0.350   2.316  16.122 -0.0298  0.4003 -0.3166
  911MPD2     H13395   0.557   2.617  16.248 -1.6252  0.6735  0.6941
  911MPD2    H113396   0.174   2.428  16.178 -0.3365 -0.7914  1.1062
  911MPD2    H213397   0.533   2.225  16.071 -1.6128 -1.0406  0.1878
  911MPD2    H313398   0.291   2.227  16.103  0.7306 -0.2924  0.5683
  911MPD2     N13399   0.288   2.648  16.248 -0.7708 -0.0328  0.3421
  911MPD2    H513400   0.189   2.635  16.228 -0.6135 -2.3794  1.0666
  911MPD2    N113401   0.697   2.400  16.160 -0.1988 -0.1962  0.6636
  911MPD2    H713402   0.726   2.313  16.117 -1.4309 -0.0783 -0.4185
  912MPD2     C13403   0.043   2.466  15.775  0.4089 -0.2486  0.0149
  912MPD2    C113404   4.733   2.491  15.897 -0.3052 -0.7061  0.7765
  912MPD2    C213405   4.715   2.383  15.981 -0.5200 -0.0635 -0.5305
  912MPD2    C313406   0.003   2.252  15.944  0.9661  0.3558  0.6552
  912MPD2    C413407   0.042   2.229  15.814  0.0812 -0.2318  0.3332
  912MPD2    C513408   0.078   2.337  15.735 -0.1014  0.0117 -0.3480
  912MPD2     H13409   4.672   2.396  16.079  0.4007  0.9086 -0.2676
  912MPD2    H113410   0.064   2.131  15.774 -4.9742 -1.1576 -0.1658
  912MPD2    H213411   0.089   2.547  15.718  0.1285 -0.2484 -0.2166
  912MPD2    H313412   0.117   2.314  15.637 -2.5672  1.2642 -1.6083
  912MPD2     N13413   4.717   2.153  16.038  0.0802  0.7180  0.5091
  912MPD2    H513414   4.687   2.185  16.129  1.2207  0.8131  0.8433
  912MPD2    N113415   0.003   2.627  15.944 -0.9764 -0.2636 -0.0480
  912MPD2    H713416   0.016   2.700  15.875 -2.4342 -0.5910 -0.6608
  913MPD2     C13417   0.377   4.408  10.945  0.1306  0.1105 -0.8829
  913MPD2    C113418   0.328   4.374  10.817  0.4252 -0.1467 -0.4799
  913MPD2    C213419   0.274   4.456  10.729  0.9227 -0.3074 -0.2721
  913MPD2    C313420   0.258   4.587  10.770 -0.8088 -0.2880 -0.0395
  913MPD2    C413421   0.305   4.631  10.897  0.4881  0.4020  0.5821
  913MPD2    C513422   0.360   4.540  10.981 -0.1262  0.9363 -0.0037
  913MPD2     H13423   0.247   4.424  10.629  0.0309  0.8540 -0.4101
  913MPD2    H113424   0.295   4.730  10.941  0.9499  0.7036  0.0062
  913MPD2    H213425   0.444   4.343  11.000  1.3001  1.7196 -0.3997
  913MPD2    H313426   0.377   4.583  11.079  0.7854 -0.4314  0.4485
  913MPD2     N13427   0.193   4.686  10.688  0.9090 -0.5690  0.6864
  913MPD2    H513428   0.183   0.043  10.718 -1.9344 -0.7621  0.3116
  913MPD2    N113429   0.362   4.243  10.782  0.6008  0.1662 -0.4329
  913MPD2    H713430   0.410   4.187  10.852  1.0428 -0.1900 -1.0170
  914MPD2     C13431   2.922   4.109  11.986  0.3438  0.2422 -1.0232
  914MPD2    C113432   2.927   4.159  12.112  0.0882  0.2888  0.1998
  914MPD2    C213433   2.848   4.103  12.214 -0.0283  0.3862 -0.3162
  914MPD2    C313434   2.794   3.980  12.192  0.4275  0.6832 -0.5652
  914MPD2    C413435   2.808   3.912  12.076  0.2074 -0.1895  0.7770
  914MPD2    C513436   2.868   3.985  11.974 -0.3463 -0.1844  0.4347
  914MPD2     H13437   2.836   4.139  12.315 -2.1937  2.2036 -1.2200
  914MPD2    H113438   2.759   3.820  12.047 -1.2660  0.1221  2.2625
  914MPD2    H213439   2.963   4.142  11.891 -0.4739 -0.7865 -1.7384
  914MPD2    H313440   2.872   3.935  11.878  0.4636 -3.8208  2.3475
  914MPD2     N13441   2.719   3.929  12.299  0.4264 -0.1656 -0.6610
  914MPD2    H513442   2.706   3.992  12.377  0.5301  0.4294 -1.1305
  914MPD2    N113443   3.019   4.265  12.145 -0.1870  0.0081  0.1952
  914MPD2    H713444   3.086   4.296  12.076  1.4135 -2.1954  0.7465
  915MPD2     C13445   1.589   3.885  15.359  0.5081  0.6419 -0.0560
  915MPD2    C113446   1.463   3.834  15.394  1.0474  0.1498  0.7090
  915MPD2    C213447   1.404   3.883  15.506  0.6552  0.0505  0.6147
  915MPD2    C313448   1.470   3.984  15.576 -0.2509 -0.4784  0.0453
  915MPD2    C413449   1.594   4.035  15.537  0.4865  0.8772 -0.3652
  915MPD2    C513450   1.652   3.988  15.423 -0.4480  0.0840 -0.6351
  915MPD2     H13451   1.319   3.829  15.546 -1.1224  1.7236 -0.9235
  915MPD2    H113452   1.649   4.109  15.593 -0.3221  2.5258 -1.7557
  915MPD2    H213453   1.644   3.846  15.274 -1.0347  0.7061 -1.0792
  915MPD2    H313454   1.745   4.028  15.386  0.8109 -0.5398  1.8537
  915MPD2     N13455   1.414   4.049  15.692  0.0621  0.4189 -1.5120
  915MPD2    H513456   1.471   4.116  15.743 -0.5506 -0.4985  0.3479
  915MPD2    N113457   1.403   3.736  15.312 -0.3844  0.1508  0.1258
  915MPD2    H713458   1.452   3.709  15.228  0.2997  0.5271  0.4021
  916MPD2     C13459   4.486   2.396  15.588  0.4462 -0.6017  0.3350
  916MPD2    C113460   4.455   2.284  15.670 -0.0296 -0.5680 -0.2994
  916MPD2    C213461   4.495   2.162  15.621 -0.4061  0.1577 -0.1672
  916MPD2    C313462   4.560   2.141  15.501  0.8191 -0.5506 -0.8412
  916MPD2    C413463   4.591   2.250  15.423  0.2241  0.3052  0.0674
  916MPD2    C513464   4.564   2.372  15.477 -0.4687  0.3467 -0.0200
  916MPD2     H13465   4.453   2.073  15.666  1.8909 -0.3579  0.9531
  916MPD2    H113466   4.653   2.245  15.334 -1.0049  0.3815 -0.7857
  916MPD2    H213467   4.468   2.496  15.626 -0.1599  0.4576 -2.7357
  916MPD2    H313468   4.599   2.452  15.412  2.9116 -0.8122  0.3759
  916MPD2     N13469   4.593   2.013  15.472  0.6016 -0.4455 -0.0625
  916MPD2    H513470   4.569   1.935  15.533 -0.1591 -0.3742 -0.2618
  916MPD2    N113471   4.379   2.301  15.790  0.1530 -0.5591 -0.3988
  916MPD2    H713472   4.329   2.388  15.803  1.3763 -0.2208  1.9601
  917MPD2     C13473   4.186   4.674  11.634 -0.3106  0.3957 -0.6237
  917MPD2    C113474   4.171   4.705  11.764  0.3867  0.1355  0.2761
  917MPD2    C213475   4.127   0.095  11.793 -0.3061 -0.1647 -0.3467
  917MPD2    C313476   4.095   0.190  11.692  0.2785  0.5035 -0.1828
  917MPD2    C413477   4.124   0.148  11.562  0.4784 -0.4801 -0.1944
  917MPD2    C513478   4.173   0.025  11.537  0.2540  0.0614 -0.0406
  917MPD2     H13479   4.115   0.123  11.897 -1.0717 -2.5513  0.2049
  917MPD2    H113480   4.110   0.221  11.483 -0.1258 -0.6211 -0.2153
  917MPD2    H213481   4.208   4.573  11.599 -2.3542 -0.3453  0.2081
  917MPD2    H313482   4.180   0.002  11.431 -0.6734  0.4781 -0.1998
  917MPD2     N13483   4.045   0.321  11.715  0.0950  0.3482  0.7841
  917MPD2    H513484   4.042   0.385  11.636  3.8219 -0.5545 -0.1013
  917MPD2    N113485   4.205   4.605  11.861  0.0389  0.9223  0.3439
  917MPD2    H713486   4.207   4.507  11.833  0.7695  0.6305  1.4432
  918MPD2     C13487   4.048   0.390  12.482  0.3857  0.0415 -0.4444
  918MPD2    C113488   4.150   0.366  12.396  0.5863  0.1965  0.1460
  918MPD2    C213489   4.150   0.238  12.339 -0.1625 -0.6476 -0.1380
  918MPD2    C313490   4.049   0.143  12.362  0.2457  0.4209  0.1923
  918MPD2    C413491   3.946   0.177  12.441 -0.2897 -0.9975  0.8379
  918MPD2    C513492   3.946   0.296  12.500  0.2304  0.1577  0.6782
  918MPD2     H13493   4.229   0.212  12.269  0.2068  1.3778 -0.4784
  918MPD2    H113494   3.854   0.120  12.444 -1.8003  1.4454  0.2992
  918MPD2    H213495   4.043   0.489  12.526 -2.9578 -1.0886  1.7006
  918MPD2    H313496   3.847   0.317  12.539 -0.4177  2.9691 -2.4995
  918MPD2     N13497   4.075   0.009  12.324 -0.7875  1.1741  0.9114
  918MPD2    H513498   4.139   0.010  12.245 -0.1681  0.8890  1.4084
  918MPD2    N113499   4.251   0.455  12.361 -0.1564 -0.7376 -0.2082
  918MPD2    H713500   4.315   0.420  12.291 -1.3778 -1.8776 -0.7696
  919MPD2     C13501   0.108   4.095  11.795  0.0133 -0.4547  0.0649
  919MPD2    C113502   0.077   3.981  11.715 -0.4085  0.3975 -0.3486
  919MPD2    C213503   0.073   3.992  11.577 -0.4294  0.4551 -0.8782
  919MPD2    C313504   0.107   4.118  11.520 -0.0065  0.2648  0.1056
  919MPD2    C413505   0.143   4.219  11.598  0.2783 -0.3655 -0.1567
  919MPD2    C513506   0.131   4.217  11.739 -0.4063 -0.1529 -0.2646
  919MPD2     H13507   0.048   3.906  11.517 -1.2667  2.6377 -3.6629
  919MPD2    H113508   0.160   4.319  11.560 -1.0575  0.5101  1.5423
  919MPD2    H213509   0.129   4.078  11.900 -1.8531  1.1254  0.7039
  919MPD2    H313510   0.170   4.302  11.794  0.6348 -0.4101 -0.6177
  919MPD2     N13511   0.106   4.149  11.383 -0.4223  0.1604 -0.3634
  919MPD2    H513512   0.148   4.238  11.360 -0.2989  0.1887 -0.0246
  919MPD2    N113513   0.072   3.853  11.769  0.3453  0.1692 -0.1755
  919MPD2    H713514   0.087   3.774  11.707 -0.7189  0.0325 -0.2703
  920MPD2     C13515   4.497   0.083  10.752  0.0973  0.1274  0.3748
  920MPD2    C113516   4.456   4.715  10.682  0.3735 -0.4933  0.2665
  920MPD2    C213517   4.495   4.590  10.733  0.3760  0.1506 -0.5024
  920MPD2    C313518   4.576   4.582  10.846 -0.1431 -1.0589 -0.1979
  920MPD2    C413519   4.607   4.694  10.918 -0.0167 -0.6134  0.7551
  920MPD2    C513520   4.576   0.073  10.870 -0.7801 -0.2790 -0.2884
  920MPD2     H13521   4.463   4.495  10.692 -0.5828  0.3077 -0.1163
  920MPD2    H113522   4.670   4.701  11.006 -0.2340  0.4012  0.8373
  920MPD2    H213523   4.488   0.186  10.720 -2.6854 -1.3279 -3.6354
  920MPD2    H313524   4.615   0.167  10.909  1.7696 -1.0232 -1.0514
  920MPD2     N13525   4.626   4.453  10.877  0.1144  0.4690  0.8087
  920MPD2    H513526   4.595   4.376  10.819  3.2587 -0.1083 -0.0608
  920MPD2    N113527   4.380   4.725  10.557 -0.6745  0.4157  0.3373
  920MPD2    H713528   4.360   4.636  10.512 -1.7153  0.4900  0.6724
  921MPD2     C13529   1.485   2.675  16.646  0.2694  0.1959 -0.9930
  921MPD2    C113530   1.454   2.707  16.519 -0.2761  0.2163  0.4327
  921MPD2    C213531   1.365   2.622  16.451 -0.5612 -0.4028  0.0524
  921MPD2    C313532   1.302   2.521  16.519  0.5140 -0.1079  0.1818
  921MPD2    C413533   1.343   2.485  16.639 -0.1399 -0.0080  0.4135
  921MPD2    C513534   1.431   2.563  16.703  0.3513  0.0333 -0.6902
  921MPD2     H13535   1.352   2.632  16.344 -1.6729  1.0037  0.3260
  921MPD2    H113536   1.298   2.408  16.699  1.9679 -1.2037  0.4618
  921MPD2    H213537   1.554   2.734  16.706  0.5977 -0.3402 -0.8402
  921MPD2    H313538   1.461   2.532  16.802 -1.6339  1.2125  0.2819
  921MPD2     N13539   1.209   2.443  16.447  0.0137 -0.1385 -0.1106
  921MPD2    H513540   1.196   2.463  16.348  3.1429 -1.0044 -0.6799
  921MPD2    N113541   1.524   2.813  16.467 -0.1287 -0.3117  1.1791
  921MPD2    H713542   1.581   2.871  16.528 -1.1477  1.4573  0.4716
  922MPD2     C13543   1.967   4.480   0.035  0.0605  0.4668 -0.6369
  922MPD2    C113544   2.045   4.495  17.677 -0.4671 -0.1593  0.3619
  922MPD2    C213545   1.987   4.512  17.554 -0.5551 -0.1442 -0.0395
  922MPD2    C313546   1.851   4.503  17.548  0.0272  0.0826 -0.2039
  922MPD2    C413547   1.772   4.477  17.655  0.1029 -0.2017 -0.2457
  922MPD2    C513548   1.832   4.477   0.024 -0.2780  0.0757  0.4656
  922MPD2     H13549   2.043   4.545  17.467 -0.4871 -1.7492 -0.6208
  922MPD2    H113550   1.669   4.446  17.648  0.7128 -2.5401  1.0469
  922MPD2    H213551   2.005   4.473   0.136  0.5480 -1.6963 -0.9503
  922MPD2    H313552   1.770   4.449   0.108 -0.3090  0.4484  0.5649
  922MPD2     N13553   1.793   4.522  17.415  0.5310  0.1624 -0.8670
  922MPD2    H513554   1.859   4.531  17.338 -0.6256  0.9159 -1.7634
  922MPD2    N113555   2.188   4.492  17.675  0.4060 -0.4540 -0.2223
  922MPD2    H713556   2.240   4.517  17.592 -0.8502  1.5333 -0.4040
  923MPD2     C13557   3.030   3.156   8.515  0.4703  0.0891 -0.0984
  923MPD2    C113558   2.966   3.202   8.632  0.0108  0.4596  0.5082
  923MPD2    C213559   3.015   3.164   8.756  0.3519 -0.2502 -0.1032
  923MPD2    C313560   3.123   3.078   8.768  0.7679  0.2256 -0.1482
  923MPD2    C413561   3.181   3.026   8.648  0.3024  0.2984  0.4043
  923MPD2    C513562   3.139   3.077   8.529 -0.0750 -0.3721  0.8198
  923MPD2     H13563   2.955   3.192   8.842  2.0748 -0.8339  1.2863
  923MPD2    H113564   3.263   2.957   8.662  0.8760  0.8718 -0.1050
  923MPD2    H213565   2.999   3.184   8.415  2.3941  2.5507 -0.0113
  923MPD2    H313566   3.187   3.035   8.442 -0.1623 -2.5711  1.8335
  923MPD2     N13567   3.177   3.036   8.896 -1.0653 -0.0425  0.6008
  923MPD2    H513568   3.253   2.970   8.888  0.2678  1.5073  0.4510
  923MPD2    N113569   2.853   3.281   8.618  0.3306  0.1168 -0.2131
  923MPD2    H713570   2.831   3.298   8.520 -2.4922 -1.4713  0.1318
  924MPD2     C13571   3.696   0.880  16.454  0.2136 -0.1059 -0.9567
  924MPD2    C113572   3.580   0.956  16.454 -0.4302  0.3603 -0.1417
  924MPD2    C213573   3.580   1.095  16.467  0.0919  0.1066  0.2439
  924MPD2    C313574   3.695   1.158  16.505  0.2475  0.3993 -0.0081
  924MPD2    C413575   3.810   1.082  16.517 -0.3502 -0.2779 -0.1630
  924MPD2    C513576   3.811   0.946  16.490  0.3513 -0.1308 -0.1804
  924MPD2     H13577   3.490   1.150  16.444  0.5943  0.2310 -1.3716
  924MPD2    H113578   3.903   1.134  16.539 -0.6161  0.9685 -1.9891
  924MPD2    H213579   3.708   0.775  16.432 -0.7618 -0.4008 -0.0776
  924MPD2    H313580   3.907   0.896  16.491 -0.2719 -1.2849  2.1079
  924MPD2     N13581   3.700   1.292  16.552 -0.3659 -0.3907 -0.0477
  924MPD2    H513582   3.791   1.321  16.586  0.1896 -2.0445 -0.1073
  924MPD2    N113583   3.449   0.898  16.434  0.2200  0.1271  0.7740
  924MPD2    H713584   3.373   0.962  16.414  0.9125  0.4658 -0.7466
  925MPD2     C13585   2.599   3.489  14.684 -0.8198 -0.0333 -0.2337
  925MPD2    C113586   2.463   3.479  14.648  0.1484  0.5540 -0.1274
  925MPD2    C213587   2.384   3.408  14.735 -0.2129 -0.1651 -0.2123
  925MPD2    C313588   2.432   3.357  14.856 -0.3273 -0.2477 -0.2638
  925MPD2    C413589   2.563   3.372  14.888  0.6179  0.7295 -0.2227
  925MPD2    C513590   2.645   3.436  14.798  0.2431 -0.3262  0.1519
  925MPD2     H13591   2.280   3.392  14.710  0.0453  1.9155 -2.6348
  925MPD2    H113592   2.602   3.342  14.984 -0.6326 -0.0078  0.0591
  925MPD2    H213593   2.669   3.550  14.627 -0.2014  0.7773  1.4089
  925MPD2    H313594   2.745   3.459  14.831 -0.1060 -1.2610  1.8725
  925MPD2     N13595   2.354   3.290  14.946  0.0109  0.3511  0.2439
  925MPD2    H513596   2.402   3.238  15.018  0.6164 -0.6031 -0.8399
  925MPD2    N113597   2.406   3.526  14.529  0.5542 -0.2793  0.1343
  925MPD2    H713598   2.308   3.513  14.505  1.2629 -0.6253 -2.5491
  926MPD2     C13599   0.880   2.131  13.744 -0.0399  0.5703 -0.1374
  926MPD2    C113600   0.797   2.206  13.658  0.2613  0.6212  0.0904
  926MPD2    C213601   0.864   2.286  13.571  0.2150  0.3632  0.9800
  926MPD2    C313602   0.995   2.311  13.575  0.6549  0.0193 -0.5163
  926MPD2    C413603   1.069   2.242  13.666  0.4817  0.1678  0.5564
  926MPD2    C513604   1.012   2.151  13.749  0.1512  0.0724 -0.8348
  926MPD2     H13605   0.799   2.346  13.509 -0.9931 -0.8332  1.0881
  926MPD2    H113606   1.177   2.241  13.671  0.5964 -0.3185 -1.9412
  926MPD2    H213607   0.836   2.056  13.810  0.0575  1.0821  0.5042
  926MPD2    H313608   1.077   2.100  13.819 -1.1338  1.1387  1.1456
  926MPD2     N13609   1.069   2.402  13.494 -0.0851  0.4789 -0.1089
  926MPD2    H513610   1.165   2.412  13.525 -0.5191  1.1016  1.0131
  926MPD2    N113611   0.652   2.197  13.635  0.8354 -0.5590  0.9032
  926MPD2    H713612   0.602   2.249  13.563  0.6295  0.4700  1.7775
  927MPD2     C13613   0.310   3.854  17.433 -0.5387  0.1728 -0.2547
  927MPD2    C113614   0.391   3.754  17.474  0.2603  0.0087  0.0664
  927MPD2    C213615   0.505   3.715  17.404 -0.2597 -0.0875 -0.0731
  927MPD2    C313616   0.538   3.782  17.289 -0.4343 -0.3888  0.6064
  927MPD2    C413617   0.447   3.880  17.245 -0.5671  0.2613  0.8003
  927MPD2    C513618   0.339   3.919  17.319 -0.9548  0.4088 -0.7545
  927MPD2     H13619   0.571   3.645  17.453  0.5662  2.1077  1.9655
  927MPD2    H113620   0.468   3.933  17.153  0.3234 -0.5972  0.5117
  927MPD2    H213621   0.220   3.881  17.488 -0.7504  1.5836 -1.3035
  927MPD2    H313622   0.275   4.001  17.289  0.8341  2.0679  0.0112
  927MPD2     N13623   0.660   3.748  17.231 -0.2662  0.0366  0.0336
  927MPD2    H513624   0.728   3.689  17.279  0.4728  0.5071 -0.4220
  927MPD2    N113625   0.374   3.719  17.611  0.8451 -0.4601  0.0118
  927MPD2    H713626   0.307   3.780  17.657 -1.1034 -2.4223 -0.2443
  928MPD2     C13627   2.908   2.267   0.853  0.2383  0.0970 -0.0774
  928MPD2    C113628   3.022   2.325   0.894 -0.6692 -0.4423  0.6752
  928MPD2    C213629   3.113   2.367   0.797 -0.0425 -0.6114  0.0602
  928MPD2    C313630   3.079   2.347   0.658  0.5931  0.3107 -0.3876
  928MPD2    C413631   2.963   2.287   0.627 -0.4872  0.0547 -0.0103
  928MPD2    C513632   2.877   2.248   0.724  0.6094 -0.2645 -0.0247
  928MPD2     H13633   3.203   2.421   0.822 -0.1885  0.7591 -2.3618
  928MPD2    H113634   2.931   2.276   0.524  1.0999 -1.1126 -0.3758
  928MPD2    H213635   2.834   2.239   0.927 -0.8784  1.9429 -0.4920
  928MPD2    H313636   2.785   2.194   0.701 -0.4958  2.4493 -1.9723
  928MPD2     N13637   3.161   2.386   0.547  0.2727  0.3371  0.2998
  928MPD2    H513638   3.123   2.374   0.453  0.6892  3.4109 -0.2647
  928MPD2    N113639   3.039   2.348   1.031 -0.3006 -0.0311  0.2854
  928MPD2    H713640   2.962   2.318   1.091  0.3077 -0.8947  0.6208
  929MPD2     C13641   2.849   2.830   9.389  0.1422 -0.6849 -0.8265
  929MPD2    C113642   2.747   2.820   9.485 -0.3887 -0.4886  0.4799
  929MPD2    C213643   2.621   2.862   9.448 -0.5755 -0.7402 -0.1200
  929MPD2    C313644   2.598   2.909   9.323 -1.0928 -0.3114  0.4439
  929MPD2    C413645   2.697   2.905   9.229  0.2530 -0.6416  0.4355
  929MPD2    C513646   2.828   2.862   9.258 -0.8785  0.0169  0.2273
  929MPD2     H13647   2.549   2.858   9.529  0.8199  1.0268  1.1957
  929MPD2    H113648   2.680   2.939   9.128 -1.3588 -2.0803  0.2311
  929MPD2    H213649   2.952   2.803   9.409 -0.0849 -0.0294  1.1727
  929MPD2    H313650   2.908   2.864   9.185 -0.7449  0.5666  0.3887
  929MPD2     N13651   2.464   2.943   9.296 -0.6148  0.5786  0.1865
  929MPD2    H513652   2.398   2.934   9.374 -1.1008  2.1480 -0.0326
  929MPD2    N113653   2.776   2.767   9.611 -0.0684  0.3774 -0.2321
  929MPD2    H713654   2.875   2.759   9.632 -0.1737  1.0720  0.5106
  930MPD2     C13655   0.668   4.110  13.652  1.0921  0.0318  0.1201
  930MPD2    C113656   0.668   4.241  13.682  0.2224  0.5484  0.5622
  930MPD2    C213657   0.672   4.328  13.580  0.2909 -0.4940  0.3980
  930MPD2    C313658   0.685   4.288  13.446  0.1367 -0.5258 -0.0243
  930MPD2    C413659   0.686   4.153  13.413  0.2574  0.5051  0.7695
  930MPD2    C513660   0.679   4.065  13.519  0.2848  0.2218  0.1272
  930MPD2     H13661   0.662   4.431  13.615 -4.1946  0.0191 -2.4000
  930MPD2    H113662   0.688   4.123  13.309 -0.2673 -0.2766  0.9903
  930MPD2    H213663   0.660   4.034  13.728  1.6532 -2.2099 -2.0692
  930MPD2    H313664   0.680   3.960  13.493 -4.5239  0.1337  0.3910
  930MPD2     N13665   0.696   4.373  13.336  0.0345  0.1757  0.5291
  930MPD2    H513666   0.708   4.331  13.244  0.9424 -0.1042  0.7686
  930MPD2    N113667   0.667   4.283  13.819 -0.3797  0.4888 -0.1683
  930MPD2    H713668   0.661   4.217  13.896  0.3406  0.8621  0.2093
  931MPD2     C13669   0.211   3.075   0.148  0.4209  0.4925  0.4251
  931MPD2    C113670   0.253   3.144   0.259  0.4648 -0.3542 -0.3151
  931MPD2    C213671   0.238   3.088   0.384  0.0895 -0.0489 -0.3934
  931MPD2    C313672   0.167   2.969   0.398 -0.1387  0.4439 -0.2110
  931MPD2    C413673   0.126   2.891   0.292 -0.0092 -0.2000  0.4497
  931MPD2    C513674   0.157   2.949   0.165 -0.1360 -0.1231  0.1279
  931MPD2     H13675   0.268   3.149   0.468 -1.0119  1.4361 -1.0858
  931MPD2    H113676   0.081   2.793   0.300  0.5411 -0.4361  0.7069
  931MPD2    H213677   0.234   3.107   0.047  0.5189  0.6319  0.4912
  931MPD2    H313678   0.146   2.890   0.075 -0.6875  0.4607 -0.1899
  931MPD2     N13679   0.128   2.927   0.527  0.7379 -0.4132  0.1441
  931MPD2    H513680   0.080   2.839   0.539  1.5925 -0.8507  0.3718
  931MPD2    N113681   0.321   3.272   0.237  0.3095  0.6656  0.1165
  931MPD2    H713682   0.345   3.302   0.143 -2.2753  0.0532 -0.7609
  932MPD2     C13683   1.815   3.507  11.262 -0.5184 -0.4826 -0.2863
  932MPD2    C113684   1.933   3.497  11.182  0.8206 -0.1182 -0.7916
  932MPD2    C213685   1.971   3.367  11.144  0.6927  0.2663  0.3382
  932MPD2    C313686   1.902   3.254  11.193 -0.0867 -0.3629  0.0138
  932MPD2    C413687   1.781   3.268  11.252 -0.3356  0.2200 -0.4040
  932MPD2    C513688   1.738   3.392  11.282 -0.4632 -0.2361 -0.4100
  932MPD2     H13689   2.069   3.361  11.097  0.3317 -2.3554 -0.0843
  932MPD2    H113690   1.714   3.185  11.272  0.1381 -0.4498 -1.6422
  932MPD2    H213691   1.762   3.599  11.283  3.0699  2.3220 -3.3798
  932MPD2    H313692   1.641   3.406  11.327 -0.6274  1.0158 -1.1483
  932MPD2     N13693   1.939   3.122  11.170 -0.3473 -0.1646  0.2501
  932MPD2    H513694   1.883   3.048  11.211 -1.3905 -0.6449 -2.0497
  932MPD2    N113695   1.999   3.608  11.124  0.3504  0.6478  0.0757
  932MPD2    H713696   2.071   3.584  11.056 -0.2192  1.6321 -0.8765
  933MPD2     C13697   2.903   2.714   1.794 -0.0689 -0.2130  0.5904
  933MPD2    C113698   2.887   2.719   1.658  0.5678 -0.5226 -0.0292
  933MPD2    C213699   2.774   2.791   1.608 -0.2892  0.3197 -0.0277
  933MPD2    C313700   2.678   2.839   1.692  0.3496 -0.1863  0.2892
  933MPD2    C413701   2.695   2.831   1.832  0.2844 -0.1675 -0.6776
  933MPD2    C513702   2.811   2.776   1.873  0.2843  0.1984 -0.0457
  933MPD2     H13703   2.764   2.807   1.501 -1.7478  0.2605  0.1084
  933MPD2    H113704   2.636   2.887   1.904  0.4880  1.4835 -1.8017
  933MPD2    H213705   2.986   2.660   1.838  0.1567 -1.1727 -1.0089
  933MPD2    H313706   2.823   2.764   1.980  0.2645 -1.8704 -0.2788
  933MPD2     N13707   2.548   2.872   1.636  0.2354 -0.3708 -0.0671
  933MPD2    H513708   2.566   2.877   1.536  3.6328 -2.2288  0.4335
  933MPD2    N113709   2.983   2.657   1.578  0.1525 -0.0682  0.3887
  933MPD2    H713710   3.056   2.612   1.633  2.3819  0.1072 -2.3620
  934MPD2     C13711   4.440   4.734   1.871 -0.7469  0.0466  0.6252
  934MPD2    C113712   4.495   4.668   1.761  0.0515  0.0666  0.2830
  934MPD2    C213713   4.430   4.550   1.724 -0.2532  0.0102  0.1870
  934MPD2    C313714   4.311   4.506   1.780 -0.8739 -0.4925  0.1031
  934MPD2    C413715   4.257   4.574   1.883 -0.1709  0.1215 -0.0044
  934MPD2    C513716   4.317   4.692   1.928 -0.0770 -0.4209  0.0424
  934MPD2     H13717   4.484   4.504   1.642  0.0982  1.3859 -0.3686
  934MPD2    H113718   4.166   4.545   1.934 -0.6648  0.8647 -0.4633
  934MPD2    H213719   4.471   0.093   1.903 -2.0507  1.2074 -1.6185
  934MPD2    H313720   4.282   0.015   2.009 -0.1563  0.2840 -0.5347
  934MPD2     N13721   4.240   4.395   1.735 -0.1087  0.5422 -0.3337
  934MPD2    H513722   4.150   4.372   1.779  0.4549  0.6859  0.9021
  934MPD2    N113723   4.618   4.711   1.701 -0.0391  0.1069 -0.1015
  934MPD2    H713724   4.658   4.651   1.630 -2.5853 -2.6043  0.7857
  935MPD2     C13725   4.574   3.623   1.183 -0.1738 -0.2476 -0.3481
  935MPD2    C113726   4.469   3.670   1.110 -0.0260  0.0883 -0.3492
  935MPD2    C213727   4.392   3.761   1.176  0.1760  0.6727 -0.4285
  935MPD2    C313728   4.412   3.809   1.304 -0.3130  0.0267  0.8018
  935MPD2    C413729   4.529   3.772   1.362  0.3613  0.3437 -0.3880
  935MPD2    C513730   4.603   3.674   1.308  0.1520 -0.6799 -0.2456
  935MPD2     H13731   4.306   3.787   1.114 -1.1144 -0.0061  1.0731
  935MPD2    H113732   4.555   3.801   1.463 -0.5223 -2.4044  0.6234
  935MPD2    H213733   4.628   3.538   1.142 -0.7315 -1.1292  0.7514
  935MPD2    H313734   4.693   3.638   1.357 -0.8864  0.3871  2.4358
  935MPD2     N13735   4.330   3.898   1.376 -0.0640  0.3714  0.1320
  935MPD2    H513736   4.370   3.935   1.462 -0.6271  1.2587  0.0090
  935MPD2    N113737   4.439   3.625   0.979 -0.5557  0.3245  0.3351
  935MPD2    H713738   4.361   3.671   0.932  0.5699  2.9863  1.0405
  936MPD2     C13739   1.946   2.096  12.370 -0.6883  0.1805 -0.4536
  936MPD2    C113740   2.053   2.028  12.419  0.1336 -0.3521 -0.5428
  936MPD2    C213741   2.174   2.043  12.360  0.4078  0.4083 -0.0066
  936MPD2    C313742   2.183   2.126  12.255  0.6203  0.8168  0.0812
  936MPD2    C413743   2.069   2.193  12.197 -0.2869  0.3638 -0.4210
  936MPD2    C513744   1.952   2.181  12.260 -0.6757  0.2807  0.0599
  936MPD2     H13745   2.268   1.997  12.390 -0.2890  0.3870  2.2142
  936MPD2    H113746   2.072   2.247  12.102  0.5390  0.2941 -0.4365
  936MPD2    H213747   1.858   2.095  12.434 -1.6058 -1.8340 -1.7622
  936MPD2    H313748   1.872   2.240  12.217 -1.5128  0.7421  2.2440
  936MPD2     N13749   2.312   2.145  12.209  0.2889  0.3937  0.0195
  936MPD2    H513750   2.391   2.090  12.241 -0.7891 -0.1805  1.6931
  936MPD2    N113751   2.049   1.965  12.546 -0.5258  0.0168  0.4415
  936MPD2    H713752   2.139   1.926  12.574 -0.0461  0.1118 -1.0040
  937MPD2     C13753   0.420   3.234  11.644 -1.0652 -0.2441  0.0809
  937MPD2    C113754   0.451   3.364  11.675  0.0892 -0.3749  0.5569
  937MPD2    C213755   0.557   3.422  11.608 -0.4007  0.5991 -0.4223
  937MPD2    C313756   0.616   3.356  11.505  0.1094  0.2507  0.1095
  937MPD2    C413757   0.584   3.226  11.477 -0.2031  0.3555  0.3223
  937MPD2    C513758   0.490   3.162  11.546  0.1914  0.0330  0.2563
  937MPD2     H13759   0.593   3.521  11.632  0.1654 -0.1291  1.6969
  937MPD2    H113760   0.624   3.169  11.393  1.8394  0.4277  1.2310
  937MPD2    H213761   0.331   3.184  11.679 -2.1207  1.3191 -0.3858
  937MPD2    H313762   0.452   3.065  11.519 -1.1650  0.4454  0.6674
  937MPD2     N13763   0.702   3.430  11.425 -0.6248  0.4499  0.2321
  937MPD2    H513764   0.707   3.528  11.450 -1.7644  0.5803 -0.0627
  937MPD2    N113765   0.368   3.443  11.758 -0.1836 -0.3184  0.6332
  937MPD2    H713766   0.393   3.541  11.768  0.8170 -0.2552 -2.7041
  938MPD2     C13767   3.407   3.612   0.684  0.7452  1.3127 -0.2577
  938MPD2    C113768   3.419   3.733   0.750 -0.6550 -0.5064  0.0667
  938MPD2    C213769   3.379   3.740   0.881  0.1743  0.3173 -0.1164
  938MPD2    C313770   3.324   3.635   0.952  0.1000  0.3942  0.2683
  938MPD2    C413771   3.310   3.517   0.888  0.0024 -0.4595  0.3225
  938MPD2    C513772   3.351   3.509   0.759 -0.1752 -0.4968 -0.0913
  938MPD2     H13773   3.387   3.833   0.936  0.8304 -0.1753  0.6127
  938MPD2    H113774   3.263   3.433   0.938  0.1653 -0.8863 -0.2519
  938MPD2    H213775   3.428   3.607   0.578  0.5699  0.4253 -0.2446
  938MPD2    H313776   3.330   3.416   0.707 -1.0052 -0.6439  0.5000
  938MPD2     N13777   3.306   3.644   1.091  0.3550 -0.3032 -0.0896
  938MPD2    H513778   3.272   3.557   1.131  0.9237 -1.0768 -1.2822
  938MPD2    N113779   3.470   3.854   0.693 -0.0772  0.2787  0.7725
  938MPD2    H713780   3.466   3.936   0.753 -0.4979  0.2359  0.8023
  939MPD2     C13781   4.523   0.034   0.989 -0.0160  0.0435 -0.4669
  939MPD2    C113782   4.451   0.146   0.955  0.1543 -0.1979 -0.4561
  939MPD2    C213783   4.455   0.190   0.825  0.0193 -0.3057 -0.7336
  939MPD2    C313784   4.510   0.110   0.726  0.5231  0.7792  0.3787
  939MPD2    C413785   4.583   4.732   0.757  0.2526  0.1071  0.0154
  939MPD2    C513786   4.579   4.696   0.890  0.3847 -0.1926 -0.2010
  939MPD2     H13787   4.399   0.277   0.793  0.4362 -0.5133 -2.0419
  939MPD2    H113788   4.628   4.667   0.683  1.8737  0.0475  1.0413
  939MPD2    H213789   4.524   0.001   1.092  0.5983  1.0517 -0.1439
  939MPD2    H313790   4.625   4.601   0.916  1.2088  0.5323  0.9993
  939MPD2     N13791   4.496   0.150   0.589  0.3869 -0.1470 -1.0071
  939MPD2    H513792   4.466   0.246   0.576 -0.2534 -0.1808  0.1260
  939MPD2    N113793   4.392   0.230   1.057 -0.1823  0.5598 -0.5639
  939MPD2    H713794   4.365   0.184   1.143 -0.5919 -0.3891 -1.1992
  940MPD2     C13795   3.152   1.362  13.249 -0.6077  0.2364  0.8818
  940MPD2    C113796   3.270   1.440  13.259  0.2951  0.0134 -0.4134
  940MPD2    C213797   3.298   1.536  13.166 -0.1692  0.4909  0.3382
  940MPD2    C313798   3.217   1.554  13.056  0.2416 -0.2011 -0.0872
  940MPD2    C413799   3.099   1.484  13.051 -0.3980  0.2171  0.8486
  940MPD2    C513800   3.067   1.394  13.148 -0.8149  0.3013  0.2379
  940MPD2     H13801   3.384   1.600  13.183 -0.3769  1.0591 -0.7180
  940MPD2    H113802   3.037   1.502  12.964  1.3227  2.0754 -0.0087
  940MPD2    H213803   3.126   1.291  13.327 -1.4575 -0.1472  0.2425
  940MPD2    H313804   2.975   1.338  13.138 -1.5797  1.2872  1.7793
  940MPD2     N13805   3.243   1.640  12.948 -0.5183  0.3632  0.2104
  940MPD2    H513806   3.171   1.641  12.876  0.0961  0.4502 -0.4062
  940MPD2    N113807   3.363   1.420  13.366  0.4310 -0.4340 -0.2685
  940MPD2    H713808   3.427   1.498  13.377  1.0449 -1.1262  1.0295
  941MPD2     C13809   1.834   1.523  10.559  0.4448  0.2592  0.3332
  941MPD2    C113810   1.919   1.410  10.547 -0.6362  0.6908  0.0673
  941MPD2    C213811   1.866   1.283  10.571  0.0763  0.1081  0.2775
  941MPD2    C313812   1.742   1.282  10.627  0.1673 -0.2678 -0.2257
  941MPD2    C413813   1.660   1.390  10.643  0.1152 -0.8352 -0.0725
  941MPD2    C513814   1.706   1.514  10.604 -0.1521  0.2401 -0.0661
  941MPD2     H13815   1.916   1.191  10.545 -1.4200 -0.1348 -1.7164
  941MPD2    H113816   1.563   1.372  10.686  0.2021  0.1486  0.5359
  941MPD2    H213817   1.875   1.621  10.537 -0.4297  0.9323  1.7417
  941MPD2    H313818   1.656   1.606  10.632 -0.4202  0.3162 -0.8043
  941MPD2     N13819   1.677   1.154  10.663  0.7765 -0.6954  0.1603
  941MPD2    H513820   1.578   1.155  10.686  1.1973  0.8788  1.9073
  941MPD2    N113821   2.050   1.419  10.497 -0.3084 -0.5288 -0.0903
  941MPD2    H713822   2.090   1.330  10.468  2.2587  0.3824  0.7637
  942MPD2     C13823   2.038   2.799   8.873 -0.4251  0.6768  0.8590
  942MPD2    C113824   2.101   2.689   8.941  0.1687  0.1217 -0.6193
  942MPD2    C213825   2.241   2.685   8.936 -1.5108 -0.2212  0.1093
  942MPD2    C313826   2.316   2.782   8.869 -0.5732 -0.1509  0.5590
  942MPD2    C413827   2.251   2.893   8.814  0.0909 -0.7415  0.1382
  942MPD2    C513828   2.116   2.897   8.810 -0.3306  0.1265  0.1845
  942MPD2     H13829   2.296   2.612   8.993  1.9215  0.7802 -1.9085
  942MPD2    H113830   2.305   2.981   8.782  0.0173 -0.0685  1.8849
  942MPD2    H213831   1.934   2.824   8.891 -1.2202 -1.9446 -0.0908
  942MPD2    H313832   2.068   2.987   8.773 -0.7447 -0.0131  0.3790
  942MPD2     N13833   2.464   2.782   8.856  0.8560  0.0773 -0.1133
  942MPD2    H513834   2.510   2.862   8.814  1.4070  0.7112  1.6963
  942MPD2    N113835   2.029   2.592   9.008 -0.3106  0.7294  0.1640
  942MPD2    H713836   2.079   2.526   9.068 -1.6974 -0.3659  0.1067
  943MPD2     C13837   0.718   1.491   9.918  0.1500  0.0906 -0.9078
  943MPD2    C113838   0.680   1.419  10.034 -0.0015 -0.2234  0.3761
  943MPD2    C213839   0.736   1.460  10.158  0.2611 -0.1413 -0.4084
  943MPD2    C313840   0.821   1.566  10.174  0.6362 -0.6967 -0.2524
  943MPD2    C413841   0.862   1.623  10.058  0.1754 -0.0103 -0.3788
  943MPD2    C513842   0.814   1.591   9.932 -0.5677 -0.2688 -0.6303
  943MPD2     H13843   0.700   1.406  10.245 -1.8518  3.0058  0.6614
  943MPD2    H113844   0.928   1.709  10.063  0.3236 -0.3739  3.6259
  943MPD2    H213845   0.666   1.471   9.826 -2.9115  1.0262  0.6276
  943MPD2    H313846   0.851   1.643   9.845  1.2597 -3.1466 -1.5987
  943MPD2     N13847   0.890   1.594  10.291 -0.0816 -0.1029  0.0472
  943MPD2    H513848   0.977   1.647  10.280 -0.5043  0.4208 -0.7809
  943MPD2    N113849   0.585   1.313  10.032  0.0296 -0.1354  0.2317
  943MPD2    H713850   0.543   1.299   9.941 -2.9640  1.7308  1.3283
  944MPD2     C13851   0.737   0.071  11.059  0.2604 -0.2977  0.4612
  944MPD2    C113852   0.654   0.153  10.980  0.4885 -0.2600 -0.6582
  944MPD2    C213853   0.584   0.257  11.045 -0.7129  0.0198  0.4128
  944MPD2    C313854   0.589   0.271  11.180  0.4647  0.1390  0.0622
  944MPD2    C413855   0.674   0.191  11.258  0.0609  0.4520  0.7203
  944MPD2    C513856   0.745   0.087  11.199 -0.5642 -0.2216 -0.3310
  944MPD2     H13857   0.511   0.319  10.993 -0.0980  0.3424 -0.0590
  944MPD2    H113858   0.690   0.204  11.364  1.1046 -0.3474  0.6619
  944MPD2    H213859   0.807   4.735  11.028  1.0659  0.4630  0.4136
  944MPD2    H313860   0.814   0.026  11.256  1.3603  1.1166 -1.2177
  944MPD2     N13861   0.507   0.381  11.233  0.3154 -0.3041 -0.3053
  944MPD2    H513862   0.459   0.435  11.163 -0.0787 -0.9960 -0.5610
  944MPD2    N113863   0.641   0.113  10.843 -0.8011  0.6926 -0.0371
  944MPD2    H713864   0.705   0.041  10.811 -0.1897  1.2041  0.0416
    1TMC1    C113865   4.641   0.430  14.426  0.6457  0.1122  0.1195
    1TMC1    C213866   0.033   0.421  14.444 -0.7397  0.4050  0.5096
    1TMC1    C313867   0.103   0.326  14.368 -0.6099  0.0896 -0.1485
    1TMC1    C413868   4.568   0.333  14.362 -0.2744 -0.0285  0.4146
    1TMC1    C513869   4.637   0.225  14.309  1.0881 -0.4903 -0.2294
    1TMC1    C613870   0.035   0.221  14.309 -0.2360 -0.3998  0.0363
    1TMC1     C13871   4.566   0.513  14.515  0.2339 -0.0538 -0.2360
    1TMC1     O13872   4.615   0.550  14.624 -0.2509  0.4836 -0.0845
    1TMC1     H13873   0.081   0.501  14.499 -0.4597 -0.0682  0.9633
    1TMC1    H113874   4.461   0.322  14.365 -0.1188 -1.7168 -0.0829
    1TMC1    H213875   0.093   0.139  14.267  0.9841  0.8555 -0.7206
    1TMC1    C713876   4.566   0.111  14.259  0.2984  0.6177  0.3450
    1TMC1    C813877   0.224   0.283  14.434  0.5406  0.1820 -0.0446
    1TMC1    O113878   4.454   0.082  14.294  0.0109 -0.4095  0.0063
    1TMC1    O213879   0.231   0.173  14.491  0.0286  0.0995  0.0794
    1TMC1    O313880   4.623   0.054  14.151 -0.3896  0.2796 -0.0367
    1TMC1    H313881   4.686   0.116  14.109  1.4093 -1.6924 -0.2415
    1TMC1    O513882   0.298   0.394  14.456  0.1626  0.7266 -0.0814
    1TMC1    H513883   0.277   0.466  14.392 -0.7327  0.3333 -0.2144
    2MPD2     C13884   4.175   0.811  14.653 -0.2683  0.4798 -0.5128
    2MPD2    C113885   4.177   0.799  14.516 -0.2424 -1.2150  1.0220
    2MPD2    C213886   4.269   0.711  14.456 -0.2132  1.0918 -0.6943
    2MPD2    C313887   4.360   0.638  14.526  0.1876  0.0198  0.1229
    2MPD2    C413888   4.356   0.648  14.670 -0.0660  0.3859 -0.1317
    2MPD2    C513889   4.263   0.737  14.729  0.1200 -0.3277  0.3605
    2MPD2     H13890   4.280   0.700  14.349 -1.6033  0.7040 -0.7962
    2MPD2    H113891   4.410   0.580  14.734  1.9391  3.0030  0.9839
    2MPD2    H213892   4.094   0.865  14.700 -1.0595 -1.7960  0.7382
    2MPD2    H313893   4.243   0.738  14.836 -0.4283  1.1269  0.2456
    2MPD2     N13894   4.448   0.557  14.460  0.2703 -0.2254 -0.0608
    2MPD2    H513895   4.440   0.558  14.359  1.5551 -1.1961 -0.1792
    2MPD2    N113896   4.107   0.897  14.441 -0.8405 -0.3349 -0.6391
    2MPD2    H713897   4.039   0.952  14.492 -1.5624  0.4938 -2.4952
    3TMC2    C113898   4.098   1.067  14.278 -0.3001 -0.5268  0.1529
    3TMC2    C213899   4.069   1.154  14.383 -0.4538  0.1005 -0.0212
    3TMC2    C313900   4.054   1.289  14.353  0.3214  0.3124  0.4744
    3TMC2    C413901   4.119   1.113  14.152 -0.1499  0.3313  0.4165
    3TMC2    C513902   4.118   1.244  14.126 -0.7256 -0.1368 -0.1356
    3TMC2    C613903   4.075   1.333  14.228 -0.0945  0.2114  0.0631
    3TMC2     C13904   4.138   0.935  14.315 -0.0051 -0.0536 -0.3242
    3TMC2     O13905   4.213   0.879  14.236  0.5646 -0.1122  0.3887
    3TMC2     H13906   4.070   1.127  14.488  0.7727 -1.1246 -0.3466
    3TMC2    H113907   4.146   1.051  14.067 -0.6272 -0.1869  0.6480
    3TMC2    H213908   4.070   1.440  14.211  1.2682  0.2852  0.1448
    3TMC2    C713909   4.132   1.280  13.988  0.5122  0.2647  0.0014
    3TMC2    C813910   4.079   1.383  14.457 -0.5441 -0.1578  0.1086
    3TMC2    O113911   4.110   1.203  13.896 -0.3683 -0.1133  0.8006
    3TMC2    O213912   4.177   1.456  14.443 -0.4601 -0.1109  0.1589
    3TMC2    O513913   3.973   1.393  14.539  0.3139  0.3477  0.1168
    3TMC2    H513914   3.889   1.348  14.515  0.2576  0.0953  0.7903
    4TMC2    C113915   4.209   2.251  13.976 -1.5900  0.5020  0.1531
    4TMC2    C213916   4.321   2.328  13.949  0.0861 -0.2286  0.0504
    4TMC2    C313917   4.418   2.285  13.865  0.5841 -0.5420 -0.3506
    4TMC2    C413918   4.196   2.129  13.913 -0.1116 -0.3551  0.0144
    4TMC2    C513919   4.297   2.088  13.823  0.3239 -0.3588 -0.6941
    4TMC2    C613920   4.404   2.171  13.791 -0.4834  0.1648  0.2722
    4TMC2     C13921   4.078   2.302  13.989  0.4253  0.1385 -0.7795
    4TMC2     O13922   4.063   2.381  14.085 -0.0939  0.4647  0.3285
    4TMC2     H13923   4.328   2.425  13.996  0.1726 -1.0046  1.6526
    4TMC2    H113924   4.116   2.059  13.929 -1.8169  1.7582  0.7285
    4TMC2    H213925   4.464   2.148  13.703  0.9523  0.7882  1.0946
    4TMC2    C713926   4.279   1.964  13.752 -0.0729  0.2573 -0.0770
    4TMC2    C813927   4.511   2.393  13.835  0.4225 -0.0111  0.3757
    4TMC2    O113928   4.308   1.959  13.632 -0.1658 -0.3108 -0.0129
    4TMC2    O213929   4.483   2.511  13.849  0.3798 -0.3830 -0.2304
    4TMC2    O513930   4.627   2.330  13.840 -0.1945 -0.3310  0.1784
    4TMC2    H513931   4.622   2.234  13.858  1.9832 -0.4220  0.3249
    5MPD2     C13932   3.613   2.399  13.804 -0.5095 -0.1335 -0.8930
    5MPD2    C113933   3.684   2.323  13.706 -0.4604  0.7117  0.6163
    5MPD2    C213934   3.816   2.292  13.735 -0.1190  0.5173  0.1650
    5MPD2    C313935   3.864   2.313  13.863  0.1177 -0.7813 -0.0230
    5MPD2    C413936   3.791   2.382  13.955 -0.3542 -0.1832 -0.3760
    5MPD2    C513937   3.670   2.423  13.922 -0.5464 -1.3492 -0.0471
    5MPD2     H13938   3.881   2.247  13.660 -0.6266  0.8981 -0.5055
    5MPD2    H113939   3.825   2.403  14.056 -2.5290 -0.6021  0.4460
    5MPD2    H213940   3.519   2.450  13.784  1.2345  3.1553 -0.7326
    5MPD2    H313941   3.618   2.488  13.992  0.7651 -0.5154  0.1433
    5MPD2     N13942   3.994   2.269  13.883  0.2297 -0.6620  0.3240
    5MPD2    H513943   4.043   2.217  13.811  0.3551 -0.3875  0.2113
    5MPD2    N113944   3.620   2.291  13.586  0.3630  0.0289  0.5203
    5MPD2    H713945   3.524   2.322  13.574  0.2988 -0.9348 -1.4107
    6MPD1     C13946   2.024   2.554  12.650 -0.6123  0.6784 -0.1961
    6MPD1    C113947   2.053   2.433  12.592 -1.2881  0.4934 -0.2282
    6MPD1    C213948   2.161   2.360  12.641 -0.1300  0.1322 -0.2006
    6MPD1    C313949   2.249   2.417  12.739  0.0196 -0.4344 -0.3637
    6MPD1    C413950   2.239   2.549  12.766 -0.0279 -0.6602  0.5328
    6MPD1    C513951   2.120   2.610  12.729  0.3366 -0.2493  0.3927
    6MPD1     H13952   2.181   2.256  12.617  2.5956  0.3163  1.3763
    6MPD1    H113953   2.302   2.600  12.838 -0.7149 -1.2472  1.5464
    6MPD1    H213954   1.940   2.614  12.618 -1.7915 -0.4518  0.8093
    6MPD1    H313955   2.102   2.712  12.761  1.0896 -0.3169  1.0213
    6MPD1     N13956   2.355   2.344  12.800  0.4507 -0.4107 -0.6938
    6MPD1    H513957   2.409   2.387  12.875  1.4833 -0.8847 -1.1630
    6MPD1    N113958   1.959   2.362  12.509 -0.5051 -1.1270  0.1775
    6MPD1    H613959   2.018   2.295  12.459  2.2125  1.8521 -0.5849
    6MPD1    H713960   1.909   2.416  12.439  2.0400  3.4972  1.9128
    7MPD2     C13961   2.738   2.001  13.403 -0.0151  0.4107  0.4283
    7MPD2    C113962   2.817   2.056  13.308  1.2259 -0.1622  0.1872
    7MPD2    C213963   2.945   2.082  13.330  0.3981 -0.3281 -0.6791
    7MPD2    C313964   3.009   2.043  13.447 -0.3143  0.0382 -0.0643
    7MPD2    C413965   2.934   1.989  13.545  0.3231 -0.1493  0.1872
    7MPD2    C513966   2.797   1.973  13.526 -0.0888 -0.5703 -0.3954
    7MPD2     H13967   3.000   2.107  13.241 -1.6457  1.7984 -1.3279
    7MPD2    H113968   2.975   1.976  13.644 -0.4827  1.1282  0.6901
    7MPD2    H213969   2.638   1.965  13.382  0.6473 -0.5463 -1.1546
    7MPD2    H313970   2.730   1.928  13.599 -0.9573 -0.4271 -1.1095
    7MPD2     N13971   3.151   2.045  13.460  0.2278  0.2178  0.6007
    7MPD2    H513972   3.186   2.006  13.547  0.1776 -2.3166 -0.5293
    7MPD2    N113973   2.775   2.074  13.173 -0.3055 -0.0005  0.3155
    7MPD2    H713974   2.843   2.113  13.109  0.6688 -0.6595  0.9386
    8TMC3    C113975   3.374   2.052  13.383  0.3881  0.3305  0.3060
    8TMC3    C213976   3.449   2.141  13.454 -0.7828  0.5777  0.1938
    8TMC3    C313977   3.569   2.182  13.399  0.1220  0.2613  0.6855
    8TMC3    C413978   3.415   1.992  13.268  0.1096 -0.0418 -1.0171
    8TMC3    C513979   3.529   2.050  13.205  0.2633 -0.6114  0.1137
    8TMC3    C613980   3.608   2.145  13.269  0.4521 -0.3431 -0.9784
    8TMC3     C13981   3.239   2.091  13.367  0.6989 -0.3307  0.2237
    8TMC3     O13982   3.217   2.129  13.253  0.7675 -0.1891 -0.0403
    8TMC3     H13983   3.421   2.171  13.555 -1.4670 -0.3308  0.2772
    8TMC3    H113984   3.351   1.919  13.219 -1.4929  0.8458 -0.2282
    8TMC3    H213985   3.695   2.189  13.220  1.0545 -0.4914 -0.0575
    8TMC3    C713986   3.520   2.091  13.065 -0.5482 -0.2851 -0.0048
    8TMC3    C813987   3.675   2.220  13.479  0.2781  0.2866  0.1673
    8TMC3    O113988   3.623   2.118  13.004  0.0162 -0.2304  0.3482
    8TMC3    O213989   3.791   2.187  13.455 -0.2235  0.5285 -0.6990
    9TMC3    C113990   2.538   2.220  12.826 -0.1174 -0.0183 -0.0354
    9TMC3    C213991   2.641   2.210  12.743 -0.2236 -0.5285  0.1073
    9TMC3    C313992   2.745   2.133  12.784  0.2994  0.4841 -0.5103
    9TMC3    C413993   2.528   2.155  12.939  0.5790 -0.4301  0.6364
    9TMC3    C513994   2.638   2.087  12.985  0.7671 -0.1217  0.4531
    9TMC3    C613995   2.751   2.083  12.911 -0.4493 -0.0900  0.3169
    9TMC3     C13996   2.420   2.241  12.752  0.5525  0.0514 -0.0557
    9TMC3     O13997   2.403   2.175  12.648 -0.2720 -0.3983 -0.6974
    9TMC3     H13998   2.630   2.253  12.644 -0.5167 -1.1020 -0.1096
    9TMC3    H113999   2.431   2.144  12.987 -0.0378  0.9561 -0.2876
    9TMC3    H214000   2.836   2.025  12.944 -0.0552 -0.3044 -1.0836
    9TMC3    C714001   2.643   2.060  13.127  0.0814 -0.4315 -0.7140
    9TMC3    C814002   2.877   2.163  12.721  0.3957  0.4390  0.3204
    9TMC3    O114003   2.535   2.063  13.185 -0.0710 -0.0062 -0.1598
    9TMC3    O214004   2.889   2.156  12.601 -0.0777  0.0459  0.6488
   10MPD2     C14005   3.390   2.161  12.800 -0.5691 -0.6521 -0.4872
   10MPD2    C114006   3.324   2.123  12.914  0.6188  0.3139 -0.1333
   10MPD2    C214007   3.189   2.121  12.914  0.1673 -0.1849 -0.4168
   10MPD2    C314008   3.123   2.143  12.794  0.1501  0.9219  0.6907
   10MPD2    C414009   3.181   2.157  12.673 -0.4743  0.1668 -0.5243
   10MPD2    C514010   3.318   2.168  12.681 -0.4152  0.8215 -0.1704
   10MPD2     H14011   3.135   2.123  13.008 -0.3355 -1.7735 -0.6746
   10MPD2    H114012   3.122   2.176  12.584  0.0125  1.6629 -0.5146
   10MPD2    H214013   3.497   2.160  12.786 -0.6239  0.6112 -0.9816
   10MPD2    H314014   3.377   2.191  12.593  0.5232 -0.7009  0.0660
   10MPD2     N14015   2.978   2.152  12.811 -0.2419  0.2776 -0.2619
   10MPD2    H514016   2.953   2.159  12.909  0.7808  1.2423 -0.0574
   10MPD2    N114017   3.389   2.089  13.031 -0.7019  0.5011 -0.4018
   10MPD2    H714018   3.319   2.067  13.102 -1.0111 -0.7804 -1.0972
   11MPD2     C14019   4.129   1.470  13.740  0.1228  0.6860  0.5240
   11MPD2    C114020   4.160   1.503  13.867 -0.1678  0.4664  0.2967
   11MPD2    C214021   4.194   1.632  13.896  0.6167  0.4725  0.4593
   11MPD2    C314022   4.200   1.729  13.800  0.7152 -0.0871 -0.0055
   11MPD2    C414023   4.166   1.694  13.675  0.0914 -0.1788  0.1643
   11MPD2    C514024   4.122   1.567  13.647 -0.0129  0.2191 -0.4966
   11MPD2     H14025   4.233   1.667  13.991 -1.1200  0.8196  1.0345
   11MPD2    H114026   4.162   1.764  13.592 -1.5964 -0.4760 -0.0045
   11MPD2    H214027   4.102   1.368  13.719 -0.5144  1.2561 -1.4039
   11MPD2    H314028   4.088   1.542  13.547 -0.3679 -1.2789 -0.0130
   11MPD2     N14029   4.234   1.862  13.836 -0.5060 -0.0231 -0.6371
   11MPD2    H514030   4.221   1.884  13.934 -1.0815  0.8378 -0.9062
   11MPD2    N114031   4.157   1.415  13.977 -0.0499 -0.6151  0.4783
   11MPD2    H714032   4.186   1.459  14.063 -3.6635 -1.7112  2.2406
    1MPD1     C14033   1.842   2.778  16.725  0.6193 -0.1174 -0.1892
    1MPD1    C114034   1.921   2.717  16.816 -0.0659 -0.0130  0.0380
    1MPD1    C214035   1.995   2.796  16.901  0.2424 -0.2716 -0.2131
    1MPD1    C314036   1.999   2.930  16.883 -0.2951  0.3597 -0.0544
    1MPD1    C414037   1.920   2.996  16.796 -0.0889  0.1736 -0.5984
    1MPD1    C514038   1.840   2.915  16.716  0.1973 -0.3892 -0.7630
    1MPD1     H14039   2.043   2.753  16.989  0.7780 -0.6569 -0.6883
    1MPD1    H114040   1.926   3.103  16.782 -1.7664  0.4243  0.4789
    1MPD1    H214041   1.787   2.721  16.651  1.7962  1.2988 -2.1629
    1MPD1    H314042   1.788   2.956  16.631 -0.1980 -2.4391 -1.4986
    1MPD1     N14043   2.081   3.012  16.963  0.0984  0.3741  0.3111
    1MPD1    H514044   2.064   3.112  16.961 -1.9000  0.0425  0.5167
    1MPD1    N114045   1.903   2.578  16.830  0.6746  0.4709 -0.5254
    1MPD1    H614046   1.887   2.519  16.748 -0.2391  0.1498 -0.1265
    1MPD1    H714047   1.981   2.539  16.883  0.8861  0.7671 -0.6255
    2MPD1     C14048   1.986   3.820  17.145 -0.5484  0.3428 -0.4489
    2MPD1    C114049   1.964   3.727  17.046 -0.2035  0.2390  0.3540
    2MPD1    C214050   2.021   3.603  17.068 -0.2836  0.2581  0.2543
    2MPD1    C314051   2.106   3.572  17.171 -0.4697 -0.3451  0.0244
    2MPD1    C414052   2.136   3.665  17.266 -0.1609 -0.7867 -0.0758
    2MPD1    C514053   2.067   3.788  17.253 -0.4691  0.3521  0.7638
    2MPD1     H14054   2.015   3.525  16.993  1.9629  0.5895 -0.2707
    2MPD1    H114055   2.187   3.650  17.361  0.4479  1.1757 -0.0877
    2MPD1    H214056   1.953   3.920  17.121 -0.8498  0.7209  1.5112
    2MPD1    H314057   2.088   3.865  17.326  0.8329  0.4294  0.3014
    2MPD1     N14058   2.165   3.441  17.162 -0.2471  0.1012 -0.6874
    2MPD1    H514059   2.139   3.383  17.083  0.5451 -0.6699 -0.3785
    2MPD1    N114060   1.906   3.760  16.922 -0.0314  0.2977  0.1066
    2MPD1    H614061   1.836   3.834  16.927 -0.3792 -0.0059 -0.2063
    2MPD1    H714062   1.865   3.674  16.885  0.4348  0.3461 -0.5233
    3TMC3    C114063   2.311   3.268  17.197  0.8588  0.2903  0.3097
    3TMC3    C214064   2.431   3.232  17.236 -0.1085 -0.0077  0.5569
    3TMC3    C314065   2.474   3.104  17.205  0.6790 -0.1565  0.6885
    3TMC3    C414066   2.223   3.178  17.143  0.1393  0.2443 -0.3563
    3TMC3    C514067   2.272   3.052  17.116  0.6015 -0.3816  0.2712
    3TMC3    C614068   2.398   3.009  17.149 -0.7534  0.1355 -0.3344
    3TMC3     C14069   2.265   3.398  17.243 -0.3488 -0.1837 -0.7010
    3TMC3     O14070   2.320   3.452  17.338 -0.2101  0.2043 -0.2043
    3TMC3     H14071   2.489   3.303  17.294  1.5011  0.7589 -1.9980
    3TMC3    H114072   2.118   3.203  17.134  0.3433  0.4898 -2.1636
    3TMC3    H214073   2.432   2.914  17.110  1.8241  0.1625  1.8361
    3TMC3    C714074   2.191   2.962  17.034 -0.6626 -0.2228  0.3072
    3TMC3    C814075   2.616   3.089  17.197  0.5092 -0.4163  0.6454
    3TMC3    O114076   2.236   2.852  17.007 -0.0523  0.6360 -0.1852
    3TMC3    O214077   2.686   3.189  17.199  0.3979  0.0510  0.3916
    4MPD1     C14078   3.049   2.817  17.236  0.0117 -0.3625 -0.2097
    4MPD1    C114079   2.941   2.727  17.248 -0.1534  0.6368  0.2659
    4MPD1    C214080   2.817   2.769  17.215  0.5558  0.2543 -0.3200
    4MPD1    C314081   2.785   2.906  17.191  0.6763 -0.0425 -0.1598
    4MPD1    C414082   2.897   2.992  17.205 -0.5041 -0.8520  0.5774
    4MPD1    C514083   3.026   2.950  17.208  0.8619  0.0520 -1.0092
    4MPD1     H14084   2.727   2.709  17.211 -0.6470  2.2875 -3.3055
    4MPD1    H114085   2.892   3.099  17.191  1.3651 -0.8645 -0.2890
    4MPD1    H214086   3.151   2.788  17.256 -0.8292 -1.4472  2.5180
    4MPD1    H314087   3.107   3.022  17.210 -0.8203  1.9572 -1.6465
    4MPD1     N14088   2.650   2.957  17.200  0.0011 -0.0911  0.0554
    4MPD1    H514089   2.579   2.887  17.215  0.5953 -1.0167 -1.5120
    4MPD1    N114090   2.963   2.586  17.250  0.4720 -0.6727  0.1456
    4MPD1    H614091   2.906   2.516  17.299  2.5995 -1.4218  1.5695
    4MPD1    H714092   3.053   2.567  17.294  1.5174  2.0620 -0.8399
    1TCq1    O114093   2.862   2.513  11.666  0.1746  0.1547 -0.6568
    1TCq1    C114094   2.875   2.644  11.659 -0.3992  0.0937  0.8406
    1TCq1    O214095   2.901   2.706  11.756 -0.0765  0.1523  0.4133
    1TCq1    C214096   2.739   2.671  11.598 -0.4628  0.1991 -0.2327
    1TCq1    C314097   2.711   2.637  11.465 -0.9952 -0.9919  0.2566
    1TCq1    C414098   2.604   2.691  11.397  0.0854  0.2085 -0.0722
    1TCq1    C514099   2.542   2.798  11.456 -0.2587 -0.1578 -0.1854
    1TCq1    C614100   2.570   2.832  11.582 -0.0440 -0.4371 -0.0804
    1TCq1    C714101   2.666   2.768  11.662  0.4842 -0.1568  1.4062
    1TCq1    C814102   2.528   2.959  11.637  0.6786 -0.6398  0.0283
    1TCq1    O414103   2.601   3.021  11.716 -0.4692  0.3046  0.2516
    1TCq1    C914104   2.617   2.690  11.250  0.4337  0.7583 -0.0729
    1TCq1    O514105   2.700   2.606  11.196 -0.0770  0.3001  0.8196
    1TCq1    O614106   2.541   2.766  11.187 -0.4195  0.1529  0.2277
    1TCq1    H114107   2.815   2.475  11.589 -0.5340 -2.2003  0.9391
    1TCq1    H214108   2.797   2.596  11.414  0.1065  1.0364  0.4696
    1TCq1    H314109   2.479   2.865  11.400  0.1024 -0.2721 -0.7255
    1TCq1    H414110   2.688   2.803  11.762  1.6890  1.3820  0.5984
    2MPD1     C14111   2.218   3.376  11.615 -0.3294  0.8224 -0.1217
    2MPD1    C114112   2.177   3.279  11.529 -0.4297 -0.8173  0.5407
    2MPD1    C214113   2.242   3.155  11.514 -0.0460 -0.1603  0.6329
    2MPD1    C314114   2.345   3.124  11.593  0.2772  0.3204 -0.0784
    2MPD1    C414115   2.389   3.214  11.687  0.1092 -0.1588 -0.3427
    2MPD1    C514116   2.325   3.339  11.696  0.2684  0.3155 -0.3860
    2MPD1     H14117   2.199   3.078  11.451 -2.9790  0.3634  1.9623
    2MPD1    H114118   2.472   3.199  11.756 -0.4264 -3.6866 -0.4970
    2MPD1    H214119   2.166   3.469  11.635  0.5302  1.0266  1.1563
    2MPD1    H314120   2.346   3.411  11.774 -0.2682  0.3859 -0.3003
    2MPD1     N14121   2.412   2.999  11.575  0.0635  0.3429 -0.3033
    2MPD1    H514122   2.365   2.933  11.514  0.1762  0.4059 -0.4605
    2MPD1    N114123   2.061   3.305  11.458 -0.1225 -0.6255  0.2691
    2MPD1    H614124   2.060   3.259  11.367 -0.1681 -0.6300  0.2716
    2MPD1    H714125   2.074   3.404  11.441  2.0212 -1.1316 -1.0190
    1TMC1    C114126   2.170   2.091   0.428 -0.0906  0.3382 -1.2988
    1TMC1    C214127   2.115   2.077   0.304  0.2894 -0.1605  0.8587
    1TMC1    C314128   2.045   1.964   0.283 -0.3808 -1.2864  0.1154
    1TMC1    C414129   2.159   2.001   0.530 -0.8266  0.2343 -0.6884
    1TMC1    C514130   2.088   1.885   0.503 -0.3426 -0.3224 -0.5615
    1TMC1    C614131   2.030   1.869   0.382 -0.9730 -0.7505  0.0269
    1TMC1     C14132   2.229   2.225   0.459 -0.4008  0.4509 -1.1442
    1TMC1     O14133   2.317   2.228   0.545  0.2879 -0.4289 -0.0797
    1TMC1     H14134   2.133   2.152   0.228  2.5506 -0.2266  1.3365
    1TMC1    H114135   2.172   2.030   0.634  0.6165  2.1747 -1.4035
    1TMC1    H214136   1.967   1.782   0.366 -2.6746  0.7209 -1.3088
    1TMC1    C714137   2.070   1.779   0.605  0.3195  0.8724 -0.5254
    1TMC1    C814138   1.976   1.944   0.163 -0.3448 -0.4633 -0.2632
    1TMC1    O114139   2.046   1.666   0.567 -0.2752  0.0825  0.1789
    1TMC1    O214140   1.928   1.834   0.131 -0.2585  0.0420 -0.1098
    1TMC1    O314141   2.055   1.830   0.731  0.2464  0.4168 -0.6259
    1TMC1    H314142   2.046   1.928   0.735 -1.7131  0.1722  0.9868
    1TMC1    O514143   1.928   2.063   0.118 -0.0138 -0.2018  0.1378
    1TMC1    H514144   1.952   2.144   0.168  0.8731  0.0474 -0.7148
    2MPD1     C14145   2.312   2.721   0.359 -0.2492 -0.2880  0.5252
    2MPD1    C114146   2.218   2.674   0.271 -0.4603  0.3594 -0.3945
    2MPD1    C214147   2.174   2.543   0.290  0.2243 -0.6320  0.2693
    2MPD1    C314148   2.225   2.464   0.393  0.2542 -0.6250  0.0581
    2MPD1    C414149   2.317   2.515   0.482 -0.1074  0.3395  0.6121
    2MPD1    C514150   2.358   2.643   0.460  0.2054  0.4634  0.0302
    2MPD1     H14151   2.104   2.497   0.221 -0.7974  0.4861  0.5592
    2MPD1    H114152   2.355   2.464   0.570 -0.4646 -0.2517  0.4193
    2MPD1    H214153   2.361   2.817   0.345  1.0653 -0.5529  3.2837
    2MPD1    H314154   2.436   2.692   0.519 -0.7478 -1.0026  2.4821
    2MPD1     N14155   2.174   2.330   0.391  0.0628  0.3520 -0.0817
    2MPD1    H514156   2.095   2.306   0.331  0.6547  0.5009 -0.9327
    2MPD1    N114157   2.195   2.744   0.159  0.6042 -0.0561 -0.4231
    2MPD1    H614158   2.198   2.845   0.167  2.1708 -0.1169 -0.1660
    2MPD1    H714159   2.107   2.716   0.116  0.3099 -0.8409  0.6816
    1MPD1     C14160   3.894   2.976  12.788  0.2060 -0.6611 -0.2910
    1MPD1    C114161   4.001   2.895  12.762 -0.0918  0.4086  0.1245
    1MPD1    C214162   4.076   2.929  12.651 -0.1598  0.1452  0.2563
    1MPD1    C314163   4.061   3.051  12.582  0.7094 -0.2548  0.3960
    1MPD1    C414164   3.963   3.136  12.627 -0.1939  0.5992  0.2978
    1MPD1    C514165   3.878   3.097  12.730  0.1018 -0.3554  0.0086
    1MPD1     H14166   4.146   2.856  12.612  0.5282 -0.1779  2.0922
    1MPD1    H114167   3.932   3.219  12.564  0.7250 -0.0767 -1.0425
    1MPD1    H214168   3.813   2.953  12.855 -0.1646  0.0062 -0.5141
    1MPD1    H314169   3.788   3.154  12.751 -1.5911 -2.7151 -0.8230
    1MPD1     N14170   4.143   3.080  12.472  0.1487  0.6989 -0.3033
    1MPD1    H514171   4.200   3.000  12.446  0.5652  0.4029  1.4800
    1MPD1    N114172   4.004   2.766  12.805 -0.6237  0.6364  0.1784
    1MPD1    H614173   3.962   2.755  12.897 -2.1315  0.4316 -0.5395
    1MPD1    H714174   4.097   2.727  12.821 -1.5715 -2.8075 -2.7789
    2MPD1     C14175   4.137   4.243  10.516 -0.0450 -0.6147 -0.6254
    2MPD1    C114176   4.195   4.197  10.407 -1.0127  0.0153  0.5136
    2MPD1    C214177   4.268   4.080  10.407  0.0992 -0.1422  0.2553
    2MPD1    C314178   4.272   4.000  10.518  0.7372 -0.0321 -0.5019
    2MPD1    C414179   4.189   4.038  10.625 -0.3786 -0.3814 -0.6680
    2MPD1    C514180   4.119   4.162  10.627 -0.0189  0.5285  0.5732
    2MPD1     H14181   4.322   4.053  10.316 -0.3487 -2.3451  0.6387
    2MPD1    H114182   4.199   3.990  10.721  0.1693 -1.7348 -1.3959
    2MPD1    H214183   4.084   4.337  10.518 -0.3609 -0.8544  2.2616
    2MPD1    H314184   4.081   4.185  10.725 -0.1498 -0.2104  0.6965
    2MPD1     N14185   4.355   3.883  10.520 -0.2890 -0.1743 -0.0935
    2MPD1    H514186   4.406   3.863  10.435 -0.9624  4.6648 -1.6113
    2MPD1    N114187   4.207   4.283  10.290  0.3536  0.2468  0.1589
    2MPD1    H614188   4.122   4.338  10.274  0.9611  1.8798  2.5497
    2MPD1    H714189   4.230   4.236  10.203 -1.6435 -1.5638  0.6168
    3MPD1     C14190   4.683   3.316   9.818  0.1034  0.2086 -0.0154
    3MPD1    C114191   4.726   3.243   9.926  0.0219 -0.3049  0.0799
    3MPD1    C214192   4.679   3.259  10.052  0.1070 -0.2423 -0.5982
    3MPD1    C314193   4.587   3.353  10.083  0.0963 -0.5002  0.1734
    3MPD1    C414194   4.562   3.442   9.975 -0.7966 -0.6559  0.3769
    3MPD1    C514195   4.598   3.419   9.846  0.1848 -0.3120 -0.1117
    3MPD1     H14196   4.711   3.191  10.131 -1.2569 -0.0544  0.1000
    3MPD1    H114197   4.514   3.538   9.987 -0.7812 -0.7641  1.3512
    3MPD1    H214198   4.730   3.316   9.720 -0.4876  0.1262 -0.2989
    3MPD1    H314199   4.579   3.488   9.765 -0.0976 -0.0661  0.1651
    3MPD1     N14200   4.541   3.371  10.217 -0.1261 -0.2421 -0.3197
    3MPD1    H514201   4.574   3.300  10.282 -0.7961  0.6810  1.0050
    3MPD1    N114202   0.082   3.144   9.904 -0.0292 -0.6384  0.0777
    3MPD1    H614203   0.116   3.102   9.990 -1.5990 -2.5594 -0.2435
    3MPD1    H714204   0.161   3.164   9.843 -2.1986  3.0585 -1.4840
    4MPD2     C14205   4.453   3.594  11.818  0.0406  0.3697 -0.2838
    4MPD2    C114206   4.462   3.466  11.862  0.3720  0.0168  0.2402
    4MPD2    C214207   4.554   3.385  11.800 -0.4992 -0.0645 -0.2914
    4MPD2    C314208   4.622   3.420  11.683  0.6370  0.1218 -0.2757
    4MPD2    C414209   4.614   3.553  11.643 -0.5138 -0.2379 -0.1736
    4MPD2    C514210   4.531   3.641  11.713 -0.0048 -0.6580  0.0946
    4MPD2     H14211   4.568   3.288  11.845 -0.9836  0.2890  0.6144
    4MPD2    H114212   4.666   3.581  11.553 -0.6415  0.8242  0.0718
    4MPD2    H214213   4.394   3.670  11.867  0.2348  0.5629 -0.3486
    4MPD2    H314214   4.510   3.742  11.680 -1.4668  0.2162  3.7168
    4MPD2     N14215   4.711   3.333  11.616  0.5416  0.2098 -0.0065
    4MPD2    H514216   0.029   3.380  11.546  0.9020  0.1670  0.2606
    4MPD2    N114217   4.381   3.397  11.960 -0.7584 -0.0288  0.1744
    4MPD2    H714218   4.385   3.296  11.957  4.2331  0.2309 -0.9792
    5TMC3    C114219   4.228   3.342  12.111 -1.1906 -0.1366  0.0103
    5TMC3    C214220   4.236   3.327  12.245 -0.9398  0.5247 -0.5275
    5TMC3    C314221   4.218   3.210  12.298  0.0608 -0.2784  0.2925
    5TMC3    C414222   4.212   3.236  12.022  0.0104  0.1686  0.1061
    5TMC3    C514223   4.218   3.109  12.080  0.6302 -0.5843  0.4256
    5TMC3    C614224   4.216   3.099  12.219  0.2142  0.0613  0.2891
    5TMC3     C14225   4.294   3.451  12.051 -0.5510 -0.1972 -0.0329
    5TMC3     O14226   4.280   3.559  12.095  0.0193  0.8284  0.2430
    5TMC3     H14227   4.255   3.412  12.310 -1.8192 -1.2821  2.1167
    5TMC3    H114228   4.203   3.242  11.914 -0.0659 -1.4315  0.0169
    5TMC3    H214229   4.178   3.009  12.265  3.3859 -2.0690 -1.3001
    5TMC3    C714230   4.332   3.041  12.009 -0.0372  0.2590  0.5271
    5TMC3    C814231   4.146   3.203  12.421 -0.3466  0.1579 -0.1801
    5TMC3    O114232   4.377   3.115  11.922 -0.2940 -0.4191 -0.0923
    5TMC3    O214233   4.096   3.315  12.448  0.3060 -0.3345 -0.5116
    6TMC3    C114234   4.401   3.658  10.580 -0.0863 -0.1334  0.2960
    6TMC3    C214235   4.422   3.632  10.442  0.0213  0.3362  0.3817
    6TMC3    C314236   4.456   3.502  10.407 -0.7040  0.1452 -0.6876
    6TMC3    C414237   4.407   3.552  10.675 -0.1294 -0.3907  0.0771
    6TMC3    C514238   4.440   3.426  10.633 -0.3477  0.7493 -0.1098
    6TMC3    C614239   4.471   3.402  10.501  0.7303  0.6706  0.1067
    6TMC3     C14240   4.354   3.788  10.618 -0.5504 -0.3470 -0.4623
    6TMC3     O14241   4.327   3.808  10.733  0.3602  0.5376 -0.0447
    6TMC3     H14242   4.434   3.700  10.359 -2.4262 -0.2451 -0.4506
    6TMC3    H114243   4.395   3.567  10.782 -1.1959 -0.6980  0.0060
    6TMC3    H214244   4.489   3.303  10.462  0.4072  0.8903 -0.5874
    6TMC3    C714245   4.477   3.332  10.743  0.4529  0.0447 -0.0616
    6TMC3    C814246   4.463   3.475  10.259 -0.4155 -0.4796 -0.1016
    6TMC3    O114247   4.484   3.374  10.855 -0.2116 -0.6943  0.4056
    6TMC3    O214248   4.388   3.541  10.189 -0.7784  0.8241 -0.4063
    7MPD2     C14249   4.616   2.655  11.820  0.0341  0.7510 -0.2282
    7MPD2    C114250   4.594   2.783  11.781  0.0436  0.8455 -0.1622
    7MPD2    C214251   4.514   2.866  11.852  0.3599 -0.3562 -0.0171
    7MPD2    C314252   4.440   2.823  11.966 -0.5481  0.0203  0.8250
    7MPD2    C414253   4.463   2.695  12.007  0.4843  0.3564  0.4348
    7MPD2    C514254   4.543   2.608  11.933 -0.6143 -0.1071 -0.0821
    7MPD2     H14255   4.509   2.967  11.813 -0.6035 -0.9362 -1.4006
    7MPD2    H114256   4.404   2.652  12.087 -0.3847  1.4946  0.4026
    7MPD2    H214257   4.679   2.590  11.761  3.2710  1.6403  2.2774
    7MPD2    H314258   4.543   2.503  11.959 -0.8987 -0.1418 -0.2262
    7MPD2     N14259   4.355   2.907  12.048 -0.2148 -0.2379  0.2147
    7MPD2    H514260   4.302   2.874  12.128 -0.6160  0.8593  0.4101
    7MPD2    N114261   4.672   2.852  11.679  0.1671  0.2312  0.6060
    7MPD2    H714262   4.666   2.954  11.679  0.5326  0.2513  0.8257
    8TMC3    C114263   0.055   2.898  11.493  0.0104  0.5815 -0.2795
    8TMC3    C214264   4.729   2.915  11.380  0.4326 -0.2295 -0.1281
    8TMC3    C314265   4.714   3.043  11.329  0.6507 -0.0852 -0.2427
    8TMC3    C414266   0.091   3.010  11.566  0.3107 -0.2565 -0.2831
    8TMC3    C514267   0.055   3.139  11.528  0.0436  0.4981  0.7526
    8TMC3    C614268   0.003   3.158  11.406  0.1856 -0.7827  0.2612
    8TMC3     C14269   4.736   2.787  11.573 -1.2608  0.2419  0.9211
    8TMC3     O14270   4.739   2.669  11.531  0.4960  0.0500 -0.2917
    8TMC3     H14271   4.678   2.834  11.329  2.0611 -1.1441 -0.2913
    8TMC3    H114272   0.146   3.002  11.660  2.4109  2.6157 -1.2609
    8TMC3    H214273   4.715   3.260  11.384 -0.5875 -0.6836  1.6806
    8TMC3    C714274   4.725   3.199  11.633 -0.4280  0.2291  0.1724
    8TMC3    C814275   4.658   3.074  11.195  0.6657 -0.6646  0.2795
    8TMC3    O114276   4.690   3.122  11.720  0.2173  0.8481  0.0413
    8TMC3    O214277   4.627   3.194  11.185  0.1310 -0.2468  0.2501
    9MPD2     C14278   4.577   2.857  10.917  0.2950  0.2826 -0.5458
    9MPD2    C114279   4.583   2.977  10.985  0.4485 -0.0379  0.3359
    9MPD2    C214280   4.546   3.094  10.915 -0.0015  0.1933 -0.7466
    9MPD2    C314281   4.518   3.088  10.779 -0.2381  0.4906  0.5983
    9MPD2    C414282   4.514   2.965  10.712 -1.2527 -0.0907  0.2150
    9MPD2    C514283   4.535   2.852  10.787 -0.4310 -0.3074 -0.3667
    9MPD2     H14284   4.551   3.185  10.972  1.8259  0.5980 -1.5546
    9MPD2    H114285   4.510   2.959  10.603 -1.6880 -0.0886  0.2334
    9MPD2    H214286   4.607   2.772  10.976 -0.0909  0.9357  0.5900
    9MPD2    H314287   4.556   2.757  10.739 -2.2127 -0.1054 -1.5492
    9MPD2     N14288   4.503   3.204  10.699 -0.5396 -0.5183  0.6234
    9MPD2    H514289   4.480   3.180  10.603  3.5012  0.6971 -0.6445
    9MPD2    N114290   4.629   2.968  11.119  0.1207  0.6202  0.4484
    9MPD2    H714291   4.647   2.879  11.163  1.5925 -0.0445 -1.5106
    1MPD1     C14292   4.316   1.887  16.545 -0.6895  0.2685 -0.3989
    1MPD1    C114293   4.240   1.763  16.546  0.5356  0.1020 -0.8820
    1MPD1    C214294   4.113   1.758  16.605  0.8468  0.1370  0.3470
    1MPD1    C314295   4.059   1.869  16.665  0.9857 -0.2371 -0.1109
    1MPD1    C414296   4.128   1.985  16.663  0.7621 -0.1350 -0.5098
    1MPD1    C514297   4.251   1.996  16.608  0.5448  0.5086  0.4754
    1MPD1     H14298   4.061   1.663  16.597 -1.5610  1.2099  3.4175
    1MPD1    H114299   4.077   2.071  16.705 -1.0527 -0.2641 -2.4683
    1MPD1    H214300   4.415   1.903  16.505 -0.3148  0.5130  0.6249
    1MPD1    H314301   4.308   2.086  16.631  0.6926  0.8451 -1.1971
    1MPD1     N14302   3.933   1.875  16.731  0.3118  0.5373 -0.1650
    1MPD1    H514303   3.912   1.963  16.778 -0.5617  0.9398 -1.2991
    1MPD1    N114304   4.301   1.647  16.502 -0.5899 -0.0540  0.0920
    1MPD1    H614305   4.244   1.581  16.450  1.5143 -1.1207 -0.8454
    1MPD1    H714306   4.377   1.677  16.441  0.9777 -2.3747  0.8807
    2TMC2    C114307   3.568   1.981  16.885 -0.0012  0.4440  0.3664
    2TMC2    C214308   3.539   1.919  17.001 -0.6538  0.2258 -0.2106
    2TMC2    C314309   3.619   1.818  17.050 -0.1192 -0.2093  0.1888
    2TMC2    C414310   3.672   1.930  16.805  0.4080 -0.3564 -0.0807
    2TMC2    C514311   3.749   1.825  16.853 -0.1889 -0.1905 -0.1427
    2TMC2    C614312   3.721   1.765  16.981 -0.5674 -0.5001 -0.2517
    2TMC2     C14313   3.482   2.092  16.844  0.9614  0.2773  0.1785
    2TMC2     O14314   3.395   2.125  16.927 -0.7126 -0.2317  0.3007
    2TMC2     H14315   3.452   1.946  17.060 -1.4608  0.1105 -1.3461
    2TMC2    H114316   3.701   1.973  16.710  0.8578  0.3678  0.3784
    2TMC2    H214317   3.776   1.677  17.012 -0.7128 -0.0326  1.2891
    2TMC2    C714318   3.859   1.764  16.775 -0.0112 -0.9543 -0.7730
    2TMC2    C814319   3.621   1.804  17.195 -0.7787  0.0354  0.1281
    2TMC2    O114320   3.883   1.645  16.777 -0.5575  0.3333 -0.1928
    2TMC2    O214321   3.705   1.740  17.252  0.0624 -0.3914  0.0914
    2TMC2    O514322   3.489   1.793  17.236  0.2487 -0.1369  0.1633
    2TMC2    H514323   3.422   1.833  17.176 -0.8607 -0.3717  1.2493
    3MPD1     C14324   3.346   2.461  16.498 -0.2906 -0.4602  0.6201
    3MPD1    C114325   3.465   2.395  16.455  0.4776  0.0320 -0.0098
    3MPD1    C214326   3.511   2.286  16.529 -0.8380  0.8892 -0.5688
    3MPD1    C314327   3.455   2.254  16.648 -0.7506 -0.4502 -0.1265
    3MPD1    C414328   3.352   2.328  16.700  0.4796  0.5876  1.2184
    3MPD1    C514329   3.298   2.427  16.625  0.3865  0.3474  0.4784
    3MPD1     H14330   3.606   2.241  16.501  0.3802  2.5437  0.9178
    3MPD1    H114331   3.318   2.319  16.802  1.5656 -2.1330  1.3260
    3MPD1    H214332   3.295   2.533  16.435  0.4885 -1.0772 -0.7384
    3MPD1    H314333   3.215   2.478  16.672 -1.3849 -3.7578  1.8048
    3MPD1     N14334   3.520   2.143  16.722  0.3843  0.5425 -0.3782
    3MPD1    H514335   3.589   2.094  16.667  0.8025 -0.0250  0.6627
    3MPD1    N114336   3.525   2.431  16.331 -0.1143 -0.0421 -0.8848
    3MPD1    H614337   3.509   2.528  16.303 -0.9309  0.5581  1.6242
    3MPD1    H714338   3.625   2.412  16.337  0.0497  0.8527 -0.7675
    1TMC1    C114339   2.638   0.944  13.456  0.5066 -0.0919  0.3689
    1TMC1    C214340   2.499   0.936  13.454  0.0441 -0.1400  0.2775
    1TMC1    C314341   2.434   1.028  13.386  0.5098  0.4209 -0.3679
    1TMC1    C414342   2.713   1.048  13.402  0.0956  0.0734 -0.3992
    1TMC1    C514343   2.642   1.143  13.344 -0.4245  0.0147  1.2687
    1TMC1    C614344   2.500   1.133  13.331  0.5471 -0.8286 -0.3051
    1TMC1     C14345   2.714   0.862  13.550 -0.0493 -0.2002  0.4159
    1TMC1     O14346   2.837   0.865  13.548  0.3196 -0.1054 -0.3171
    1TMC1     H14347   2.442   0.852  13.492 -1.9338  1.3648  0.6782
    1TMC1    H114348   2.814   1.067  13.438 -0.6578 -2.0711  2.7896
    1TMC1    H214349   2.449   1.207  13.270 -0.2140  0.0759  1.4300
    1TMC1    C714350   2.709   1.237  13.256  0.0712  0.0286 -0.2009
    1TMC1    C814351   2.296   1.001  13.343 -0.0641 -0.0048 -0.3728
    1TMC1    O114352   2.638   1.318  13.204  0.0446 -0.2166  0.2134
    1TMC1    O214353   2.231   1.089  13.287 -0.8486 -0.6690 -0.0775
    1TMC1    O314354   2.801   1.160  13.193  0.0494  0.5319 -0.2935
    1TMC1    H314355   2.804   1.067  13.223 -0.7803  0.6550  0.1791
    1TMC1    O514356   2.258   0.875  13.349  0.6418  0.2239  0.3064
    1TMC1    H514357   2.322   0.807  13.378 -1.3584 -1.4406  0.7937
    2MPD2     C14358   2.784   0.666  13.760 -1.0075  0.1063 -1.1211
    2MPD2    C114359   2.661   0.681  13.717  0.2714  0.1135  1.1737
    2MPD2    C214360   2.560   0.615  13.787  0.1568  0.4957 -1.0567
    2MPD2    C314361   2.592   0.511  13.869  0.8853  0.2790  0.1656
    2MPD2    C414362   2.725   0.485  13.894 -0.3555  0.1529  0.2797
    2MPD2    C514363   2.814   0.573  13.846  0.6911 -0.8869  0.0116
    2MPD2     H14364   2.457   0.644  13.769 -0.5441 -0.8930  0.7760
    2MPD2    H114365   2.766   0.405  13.954  0.8270 -0.4101 -1.2771
    2MPD2    H214366   2.862   0.726  13.716  1.5945 -0.9156  2.1032
    2MPD2    H314367   2.919   0.568  13.872  1.6751  0.2542 -3.7897
    2MPD2     N14368   2.489   0.429  13.926  0.1589 -0.2523 -0.3015
    2MPD2    H514369   2.389   0.447  13.916 -0.1729 -1.6298  0.5994
    2MPD2    N114370   2.629   0.786  13.629  0.1838 -0.3028 -0.2795
    2MPD2    H714371   2.529   0.797  13.613  0.3115  0.9140 -0.2198
    3TCq1    O114372   2.145   4.689  14.294  0.3453  0.6656  0.5036
    3TCq1    C114373   2.269   4.731  14.259 -0.1187  0.0980  0.4689
    3TCq1    O214374   2.372   4.723  14.324  0.1354  0.1606 -0.0254
    3TCq1    C214375   2.257   0.084  14.148  0.6652 -0.4001  0.8222
    3TCq1    C314376   2.138   0.146  14.112  0.5197 -0.4031 -0.0840
    3TCq1    C414377   2.140   0.269  14.066 -0.0717 -0.0707 -0.5003
    3TCq1    C514378   2.258   0.334  14.040 -0.1410  0.1163 -1.0592
    3TCq1    C614379   2.379   0.266  14.060  0.4229 -0.5638 -0.1096
    3TCq1    C714380   2.379   0.140  14.114  0.4606 -0.3088 -0.2290
    3TCq1    C814381   2.506   0.321  14.009  0.3695  0.0292  0.3272
    3TCq1    O414382   2.601   0.259  14.039  0.0423  0.1367  0.1564
    3TCq1    C914383   2.016   0.333  14.023  0.1810 -0.3412  0.4592
    3TCq1    O514384   2.038   0.446  13.974  0.4972  1.0825 -0.0824
    3TCq1    O614385   1.901   0.293  14.050 -0.1312 -0.0406 -0.7356
    3TCq1    H114386   2.091   4.663  14.216 -0.7300  0.6012  1.2745
    3TCq1    H214387   2.042   0.103  14.140  0.0558  0.9721  0.4459
    3TCq1    H314388   2.255   0.438  14.008  0.2449  0.6932  0.7931
    3TCq1    H414389   2.470   0.083  14.127  0.7808  0.0078 -1.0530
    1MPD2     C14390   2.177   2.097  15.168  0.9248 -0.0963 -0.0762
    1MPD2    C114391   2.081   2.090  15.069  0.2101 -0.8813  0.3716
    1MPD2    C214392   2.048   1.966  15.022  0.0187  0.5325  0.5542
    1MPD2    C314393   2.101   1.851  15.080 -0.0349 -0.0857  0.2965
    1MPD2    C414394   2.203   1.858  15.173 -0.0306 -0.1652 -0.2568
    1MPD2    C514395   2.239   1.985  15.221  0.0120 -0.2874 -0.2156
    1MPD2     H14396   1.965   1.952  14.953  1.4860  1.4206 -1.3980
    1MPD2    H114397   2.243   1.772  15.225 -0.1998 -0.4382 -0.5739
    1MPD2    H214398   2.220   2.194  15.190 -1.3008  0.8937 -0.1733
    1MPD2    H314399   2.321   1.991  15.292  0.9264 -0.4903 -1.2429
    1MPD2     N14400   2.035   1.737  15.034 -0.0703 -0.2163 -1.4841
    1MPD2    H514401   1.973   1.751  14.955 -0.0672 -2.2073 -1.8371
    1MPD2    N114402   2.011   2.204  15.013  0.2584 -0.2880 -0.2770
    1MPD2    H714403   1.956   2.187  14.930  1.9105  0.6888 -1.5669
    2TMC3    C114404   1.927   2.424  14.980  0.3663 -0.5575  0.4442
    2TMC3    C214405   1.821   2.361  14.923  0.7020 -0.1173  0.8658
    2TMC3    C314406   1.760   2.417  14.813 -0.2288 -0.1760 -0.3563
    2TMC3    C414407   1.961   2.550  14.946  0.4999 -0.2317  0.3094
    2TMC3    C514408   1.882   2.611  14.853 -0.1655 -0.2501 -0.0052
    2TMC3    C614409   1.779   2.552  14.784  0.7483 -0.0482 -0.4411
    2TMC3     C14410   2.020   2.337  15.050 -1.0109 -0.0874  0.8102
    2TMC3     O14411   2.089   2.401  15.129  0.0007  0.1176 -0.3397
    2TMC3     H14412   1.793   2.265  14.965  0.3107  0.1816  1.2853
    2TMC3    H114413   2.042   2.600  14.996  0.2591 -0.1905  0.6621
    2TMC3    H214414   1.726   2.599  14.702  0.4792 -0.6887 -0.6395
    2TMC3    C714415   1.936   2.725  14.783  0.7184  0.1344  0.1214
    2TMC3    C814416   1.649   2.342  14.756  0.0593  0.1367 -0.4124
    2TMC3    O114417   1.861   2.776  14.696 -0.3740  0.0294  0.5693
    2TMC3    O214418   1.547   2.408  14.739 -0.1555 -0.6359 -0.0838
    3TCq1    O114419   3.141   3.214  14.895 -0.9043 -0.3539  0.4255
    3TCq1    C114420   3.030   3.248  14.835  0.2677  0.4375 -0.7021
    3TCq1    O214421   3.015   3.349  14.765  0.0230 -0.2161  0.2593
    3TCq1    C214422   2.926   3.153  14.872  0.4155  0.1381 -0.5182
    3TCq1    C314423   2.922   3.113  15.007 -0.2783 -0.0230 -0.2688
    3TCq1    C414424   2.821   3.025  15.042  0.2822 -0.2050 -0.2167
    3TCq1    C514425   2.714   3.004  14.953 -0.2924  0.1080  0.0506
    3TCq1    C614426   2.718   3.058  14.826  0.1583 -0.2088  0.1705
    3TCq1    C714427   2.829   3.125  14.781 -0.2600 -0.2372  0.0255
    3TCq1    C814428   2.592   3.052  14.744  0.0123  0.1521  0.1288
    3TCq1    O414429   2.591   3.116  14.638 -0.0811  0.9125  0.2699
    3TCq1    C914430   2.802   2.979  15.177  0.4413  0.4370  0.4208
    3TCq1    O514431   2.908   2.995  15.247 -0.0951  0.5799  0.2089
    3TCq1    O614432   2.686   2.982  15.218  0.5631 -0.0784  0.8654
    3TCq1    H114433   3.137   3.120  14.925  2.6554 -0.9434 -1.0001
    3TCq1    H214434   3.005   3.126  15.075  0.2981  0.2139 -1.0214
    3TCq1    H314435   2.630   2.945  14.988 -1.1675 -0.2472 -2.6564
    3TCq1    H414436   2.821   3.157  14.678  1.2492  1.1184  0.3146
    4MPD2     C14437   2.304   3.064  14.680  0.5518 -0.1369  0.5493
    4MPD2    C114438   2.361   2.959  14.756  0.1951 -0.8840  0.3000
    4MPD2    C214439   2.276   2.858  14.802 -0.6419 -0.1580  0.2117
    4MPD2    C314440   2.142   2.854  14.764  0.1293 -0.0375  0.3291
    4MPD2    C414441   2.089   2.967  14.698  0.0301  0.0464  0.4945
    4MPD2    C514442   2.170   3.071  14.659  0.1928  0.3781  0.2589
    4MPD2     H14443   2.313   2.787  14.875 -2.5267  0.5239  1.8396
    4MPD2    H114444   1.984   2.975  14.673  0.2492 -0.2187 -0.5170
    4MPD2    H214445   2.352   3.156  14.646  2.0026 -1.8527 -1.9943
    4MPD2    H314446   2.131   3.153  14.601  2.1020  0.7708 -0.4649
    4MPD2     N14447   2.070   2.742  14.804 -0.2682 -0.1452 -0.2014
    4MPD2    H514448   2.119   2.673  14.860  0.1280  0.4522  0.1858
    4MPD2    N114449   2.497   2.962  14.791 -0.3450 -0.2639 -0.1869
    4MPD2    H714450   2.527   2.892  14.858 -0.2847 -1.2141 -1.2029
    5TMC2    C114451   1.762   1.580  14.886  0.0533  0.1852 -0.3045
    5TMC2    C214452   1.674   1.529  14.977 -0.1413 -0.3426  0.1176
    5TMC2    C314453   1.727   1.458  15.082 -0.3568  0.0888  0.8111
    5TMC2    C414454   1.893   1.558  14.909 -0.1392 -0.4296 -0.0106
    5TMC2    C514455   1.944   1.515  15.027  0.6948  0.1322 -0.2342
    5TMC2    C614456   1.862   1.458  15.118 -0.1848 -0.0366 -0.3199
    5TMC2     C14457   1.732   1.715  14.843 -0.0785 -0.0165 -0.3991
    5TMC2     O14458   1.831   1.788  14.841  0.0086  0.1358 -0.6259
    5TMC2     H14459   1.570   1.506  14.959 -0.6641  1.6247  0.7067
    5TMC2    H114460   1.958   1.595  14.830  1.4725  0.0185  1.5201
    5TMC2    H214461   1.894   1.440  15.219  1.2129  0.3630 -0.6885
    5TMC2    C714462   2.041   1.609  15.087  0.2370  0.6800  0.1620
    5TMC2    C814463   1.627   1.398  15.167  0.6625  0.0450 -0.2321
    5TMC2    O114464   2.125   1.562  15.155 -0.2560 -0.5251  0.1774
    5TMC2    O214465   1.517   1.448  15.184  0.0295  0.2675  0.1964
    5TMC2    O514466   1.693   1.305  15.240  0.0276 -0.2133 -0.2224
    5TMC2    H514467   1.786   1.288  15.215 -0.0071 -1.5382  0.5019
    6MPD2     C14468   1.454   2.122  14.725 -0.2578  0.3221 -0.1507
    6MPD2    C114469   1.587   2.110  14.761 -0.1755 -0.1240  0.1724
    6MPD2    C214470   1.629   1.982  14.793  0.2571 -0.2326 -0.0655
    6MPD2    C314471   1.546   1.875  14.789 -0.0340 -0.1761  0.1443
    6MPD2    C414472   1.411   1.890  14.758  0.3025 -0.3094 -0.2966
    6MPD2    C514473   1.370   2.013  14.735  0.8022 -0.2708 -0.2739
    6MPD2     H14474   1.737   1.977  14.803  0.3793  0.9254 -0.8311
    6MPD2    H114475   1.331   1.817  14.759  0.0464 -0.0025  1.3057
    6MPD2    H214476   1.410   2.218  14.700  2.1837  1.1751 -1.2938
    6MPD2    H314477   1.263   2.015  14.720  0.6118 -1.9065  0.8781
    6MPD2     N14478   1.592   1.743  14.823  0.4959 -0.2461  0.3419
    6MPD2    H514479   1.520   1.671  14.822 -0.7950  1.0547 -1.2510
    6MPD2    N114480   1.681   2.213  14.766  0.3286 -0.1979  0.5119
    6MPD2    H714481   1.780   2.191  14.771  0.5972 -0.0619 -3.7215
  945NH4     N114482   1.645   2.113  13.009  0.0848  0.0006  0.1210
  945NH4     H214483   1.588   2.188  13.052  1.9798 -0.7600  3.9426
  945NH4     H314484   1.747   2.114  13.025 -0.0938  0.2236  1.2424
  945NH4     H414485   1.624   2.107  12.907  0.2661 -0.9361  0.1359
  945NH4     H514486   1.605   2.026  13.051  1.3374 -0.2768  0.7242
  946SOD     NA14487   3.382   1.093   5.678 -0.0572  0.4339  0.5251
  947SOD     NA14488   3.719   4.335  16.817 -0.2665 -0.6142 -0.3292
  948SOD     NA14489   1.258   0.096  13.681 -0.4532 -0.2512  0.2655
  949SOD     NA14490   2.992   2.582  17.020  0.3853 -0.7761  0.2493
  950SOD     NA14491   4.619   2.640  13.385  0.1218 -0.1768  0.5582
  951SOD     NA14492   4.456   3.597  11.273  0.3583 -0.4747  0.2138
  952SOD     NA14493   1.500   3.758   4.326 -0.2476 -0.2841  0.1029
  953SOL     OW14494   1.579   3.585   1.097  0.0758  0.2423 -0.3950
  953SOL    HW114495   1.598   3.629   1.180 -0.7258 -1.4253  0.6684
  953SOL    HW214496   1.511   3.639   1.056  0.2128 -0.1937 -1.1780
  954SOL     OW14497   2.918   1.027   8.607  0.0409  0.0476  0.8644
  954SOL    HW114498   2.938   1.012   8.515 -1.7870  0.5823  0.3968
  954SOL    HW214499   3.002   1.003   8.647 -0.1322 -0.2576  1.0475
  955SOL     OW14500   1.651   3.817   3.613 -0.2069 -0.4265 -0.4091
  955SOL    HW114501   1.571   3.779   3.575 -0.1210 -0.0589 -0.9553
  955SOL    HW214502   1.619   3.900   3.647  0.6873 -0.6072  0.8697
  956SOL     OW14503   2.606   4.469   6.259  0.1481 -0.1814  0.1656
  956SOL    HW114504   2.516   4.499   6.274  0.3505  1.6804 -2.2889
  956SOL    HW214505   2.598   4.378   6.287  1.7061 -0.6600 -0.9566
  957SOL     OW14506   0.509   3.425   6.313 -0.2479  0.3438  0.2317
  957SOL    HW114507   0.511   3.471   6.397 -0.7357 -2.4749  1.7997
  957SOL    HW214508   0.602   3.418   6.292 -0.0317  3.0066  0.2623
  958SOL     OW14509   3.860   2.095   7.432  0.5554 -0.0051  0.5281
  958SOL    HW114510   3.818   2.020   7.476  0.4257 -0.8221 -0.9886
  958SOL    HW214511   3.902   2.050   7.358 -0.2022  1.0900 -0.5551
  959SOL     OW14512   3.600   3.824   6.710 -0.0819  0.2400 -0.3113
  959SOL    HW114513   3.516   3.829   6.755 -0.3886  0.1825 -0.8726
  959SOL    HW214514   3.645   3.890   6.762 -0.5469  0.1317  0.2315
  960SOL     OW14515   3.670   1.249  14.810  0.0446 -0.1811 -0.7878
  960SOL    HW114516   3.615   1.176  14.782  1.2902 -1.0841 -0.8795
  960SOL    HW214517   3.619   1.325  14.781  0.2456  0.6489  1.0375
  961SOL     OW14518   2.802   2.477   7.443 -0.0495  0.5654 -0.2451
  961SOL    HW114519   2.881   2.435   7.477 -1.9095 -2.5526  0.1867
  961SOL    HW214520   2.804   2.457   7.350  1.0376  0.3525 -0.1798
  962SOL     OW14521   2.024   0.488   9.764  0.2154 -0.0585 -0.2963
  962SOL    HW114522   2.081   0.559   9.794  2.5816 -1.8967 -0.3993
  962SOL    HW214523   1.983   0.465   9.848 -0.5617  0.6502 -0.4820
  963SOL     OW14524   2.351   2.133   2.077 -0.7655 -0.2050 -0.1102
  963SOL    HW114525   2.279   2.147   2.015 -0.0631  0.4642 -0.7839
  963SOL    HW214526   2.351   2.038   2.093  2.0366  0.3278  3.0054
  964SOL     OW14527   0.106   3.649   6.122 -0.3423  0.9098 -0.0969
  964SOL    HW114528   0.071   3.560   6.124 -0.3772  0.9156 -0.4267
  964SOL    HW214529   0.192   3.635   6.163 -0.5856  2.5216  0.9404
  965SOL     OW14530   4.625   3.718   8.530 -0.6501 -0.0927  0.1605
  965SOL    HW114531   4.679   3.657   8.480  2.7116  2.2586  0.8624
  965SOL    HW214532   4.641   3.684   8.618 -1.6351  2.5827  1.3760
  966SOL     OW14533   4.410   3.975   2.744  0.0738  0.2764  0.5419
  966SOL    HW114534   4.487   3.918   2.744 -1.0836 -1.3593 -3.4102
  966SOL    HW214535   4.348   3.916   2.786  2.1721 -1.5752  1.0536
  967SOL     OW14536   1.413   3.693   2.794  0.2234  0.7986  0.6031
  967SOL    HW114537   1.353   3.688   2.720 -0.1453 -0.9871  1.0256
  967SOL    HW214538   1.440   3.785   2.793  0.6704  0.6792  1.4536
  968SOL     OW14539   3.490   0.716   1.121  0.4020  0.0016  0.1488
  968SOL    HW114540   3.467   0.658   1.194 -0.1202  1.1824  0.9385
  968SOL    HW214541   3.406   0.744   1.087 -1.6261 -3.2254  2.5277
  969SOL     OW14542   2.925   0.003   6.892  0.3432 -0.3445  0.0817
  969SOL    HW114543   2.891   4.653   6.883  1.4724 -0.8567  0.9052
  969SOL    HW214544   2.892   0.026   6.979 -0.0860 -0.8922  0.0690
  970SOL     OW14545   2.554   0.217  10.399  0.1368  0.0600  0.2002
  970SOL    HW114546   2.496   0.276  10.351  2.3053  1.5869 -0.5194
  970SOL    HW214547   2.645   0.218  10.370  0.0466  1.0892 -0.0478
  971SOL     OW14548   2.167   1.836   3.232 -0.0189 -0.4028 -0.1036
  971SOL    HW114549   2.168   1.792   3.146  0.2861  1.8917 -1.2671
  971SOL    HW214550   2.116   1.772   3.281  1.3929 -2.3307 -1.1411
  972SOL     OW14551   4.493   3.391  11.337 -0.1382  0.2790  0.0147
  972SOL    HW114552   4.429   3.348  11.393 -1.1576  0.0665 -1.3240
  972SOL    HW214553   4.543   3.319  11.298 -0.4239  0.2601 -0.3120
  973SOL     OW14554   3.335   0.316   7.133  0.4126  0.0970 -0.0166
  973SOL    HW114555   3.363   0.367   7.209  1.7443  0.2147 -0.5908
  973SOL    HW214556   3.380   0.358   7.061  0.0113  1.7174  0.6749
  974SOL     OW14557   0.713   2.884   6.325  1.5464 -0.2896  0.2505
  974SOL    HW114558   0.783   2.949   6.337  0.7497  0.8308 -1.1236
  974SOL    HW214559   0.709   2.886   6.229 -1.3881 -0.2457  0.3748
  975SOL     OW14560   0.565   2.559   6.292  0.1850  0.1706  0.0813
  975SOL    HW114561   0.575   2.593   6.381 -0.4348 -1.3141  0.7150
  975SOL    HW214562   0.606   2.626   6.237  0.9097  1.0096  1.6251
  976SOL     OW14563   1.602   1.107   0.805 -0.0938 -0.1071  0.7125
  976SOL    HW114564   1.694   1.101   0.830  0.4287  0.9175 -0.9566
  976SOL    HW214565   1.560   1.089   0.889 -3.8354 -0.9162 -1.3490
  977SOL     OW14566   1.748   4.225   1.749  0.6625 -0.3702  0.4246
  977SOL    HW114567   1.781   4.135   1.745 -1.7057 -1.3067  2.3173
  977SOL    HW214568   1.827   4.277   1.760 -0.4613  1.4146 -0.0970
  978SOL     OW14569   4.498   2.197   8.786 -0.1964 -0.7825 -0.2731
  978SOL    HW114570   4.501   2.292   8.779  1.1929 -0.6810  1.6300
  978SOL    HW214571   4.427   2.179   8.725 -0.9798 -2.9184  1.2493
  979SOL     OW14572   4.210   0.747  13.109 -0.5040  0.1780  0.2947
  979SOL    HW114573   4.252   0.720  13.028 -0.5340  1.0270 -0.0055
  979SOL    HW214574   4.281   0.786  13.159 -1.0657  0.7456  0.6491
  980SOL     OW14575   3.460   2.016   9.041  0.7231 -0.2970  0.1036
  980SOL    HW114576   3.434   2.104   9.014  0.9932 -0.2919 -0.1419
  980SOL    HW214577   3.415   1.958   8.980  1.4422 -0.6910 -0.0543
  981SOL     OW14578   3.857   1.113   9.495 -0.1475  0.4704 -0.3915
  981SOL    HW114579   3.809   1.154   9.566  1.7470  2.3178 -0.1777
  981SOL    HW214580   3.941   1.158   9.503 -0.1387  0.7645 -2.1164
  982SOL     OW14581   3.594   2.252   7.904  0.1240  0.6336  0.4519
  982SOL    HW114582   3.566   2.171   7.862 -1.3976  0.9547  0.8679
  982SOL    HW214583   3.665   2.278   7.845  2.0044 -1.0166  2.0056
  983SOL     OW14584   1.048   1.209  12.181  0.3712 -0.0408 -0.0674
  983SOL    HW114585   1.049   1.148  12.108  2.1680  1.6572 -1.4660
  983SOL    HW214586   1.136   1.184  12.209  0.3777  0.5611  0.4554
  984SOL     OW14587   1.380   3.891   1.951  0.2826  0.4480 -0.0711
  984SOL    HW114588   1.458   3.895   2.008 -1.2353 -0.8425  2.1030
  984SOL    HW214589   1.342   3.810   1.984 -2.0003 -0.1192 -4.0829
  985SOL     OW14590   4.320   0.770   6.525 -0.2207  0.1490  0.0974
  985SOL    HW114591   4.316   0.745   6.617  0.7253  0.8410  0.3229
  985SOL    HW214592   4.340   0.863   6.532  0.1161  0.1810 -1.2185
  986SOL     OW14593   4.228   2.558   0.174 -0.5659 -0.3704 -0.1457
  986SOL    HW114594   4.175   2.507   0.235 -1.7258  0.2459 -0.6317
  986SOL    HW214595   4.175   2.632   0.146 -2.9225 -2.3850 -0.9702
  987SOL     OW14596   4.340   1.405   0.181  0.2668  0.8304 -0.7938
  987SOL    HW114597   4.312   1.337   0.242 -1.2438  1.9884 -0.1632
  987SOL    HW214598   4.434   1.395   0.170  0.0367 -3.4746  1.0585
  988SOL     OW14599   3.617   2.289   4.660 -0.0559 -0.6078  0.0319
  988SOL    HW114600   3.579   2.248   4.582 -0.2062 -1.9352  0.7999
  988SOL    HW214601   3.552   2.270   4.727  1.3419  1.0594  1.8286
  989SOL     OW14602   3.260   4.532   8.058 -0.4923 -0.2690  0.0507
  989SOL    HW114603   3.279   4.563   8.147 -1.9242  0.1224  0.2176
  989SOL    HW214604   3.261   4.621   8.022  0.0563 -0.1411  0.3868
  990SOL     OW14605   3.703   1.308   0.182 -0.3150  0.3965 -0.1760
  990SOL    HW114606   3.653   1.303   0.264 -0.7258 -1.6239 -0.5327
  990SOL    HW214607   3.690   1.400   0.158  1.0079  1.0142  1.5087
  991SOL     OW14608   1.850   0.273   8.970  0.2606 -0.4995  0.3550
  991SOL    HW114609   1.844   0.298   9.062  0.5526  1.8698 -0.2711
  991SOL    HW214610   1.885   0.183   8.972 -4.0966 -2.2294 -1.1964
  992SOL     OW14611   3.262   3.785   5.426 -0.3365  0.5526  0.0029
  992SOL    HW114612   3.348   3.814   5.395  1.6759 -1.8312  3.3104
  992SOL    HW214613   3.239   3.758   5.337 -1.2839  1.1568  0.0674
  993SOL     OW14614   3.661   4.310  14.117 -0.1335 -0.2028 -0.3372
  993SOL    HW114615   3.748   4.315  14.077  0.0447 -0.6095 -0.0034
  993SOL    HW214616   3.646   4.217  14.134  1.1224 -0.4272 -0.4487
  994SOL     OW14617   1.637   0.117   7.064  0.1916 -0.0800  0.0298
  994SOL    HW114618   1.723   0.139   7.028  0.4348 -1.9251 -0.4988
  994SOL    HW214619   1.617   0.026   7.042 -0.7684  0.0101  0.5031
  995SOL     OW14620   2.380   0.699   7.022  0.0706 -0.7840  0.3260
  995SOL    HW114621   2.425   0.784   7.024 -2.9966  0.8302  0.4333
  995SOL    HW214622   2.325   0.690   7.100 -0.6360  0.2805 -0.0470
  996SOL     OW14623   4.347   3.053   4.620 -0.0449  0.0838 -0.5687
  996SOL    HW114624   4.255   3.068   4.639  0.4509  0.6883  1.2839
  996SOL    HW214625   4.393   3.135   4.638  1.2675 -0.3046 -2.1075
  997SOL     OW14626   0.840   2.128   7.769  0.1689  0.3067  0.3206
  997SOL    HW114627   0.832   2.058   7.833  1.4776  0.7045  0.8963
  997SOL    HW214628   0.838   2.203   7.828 -0.2986  1.3780 -1.0465
  998SOL     OW14629   3.719   2.538  12.779  0.0612  0.2892  0.1421
  998SOL    HW114630   3.766   2.590  12.844 -0.8614  1.1597  0.1226
  998SOL    HW214631   3.675   2.479  12.841  1.6056 -1.0534 -0.0540
  999SOL     OW14632   2.901   4.181   9.304 -0.0639  0.3735 -0.1255
  999SOL    HW114633   2.867   4.222   9.224  0.1249 -1.7427 -1.2976
  999SOL    HW214634   2.862   4.094   9.302 -2.6331  1.4996  0.0007
 1000SOL     OW14635   1.141   3.852   8.819 -0.0825  0.3370 -0.3977
 1000SOL    HW114636   1.090   3.912   8.873  0.2378  1.3077 -1.1720
 1000SOL    HW214637   1.194   3.921   8.778 -0.3016  0.0457 -1.1750
 1001SOL     OW14638   3.556   2.356  10.587  0.1304  0.9971  0.9575
 1001SOL    HW114639   3.624   2.311  10.638 -1.1430 -0.8443  1.0461
 1001SOL    HW214640   3.579   2.446  10.609  0.3532  1.9943 -3.2972
 1002SOL     OW14641   2.774   4.309  16.863  0.4401  0.1516 -0.6465
 1002SOL    HW114642   2.686   4.278  16.887  1.5788 -0.6844  2.3814
 1002SOL    HW214643   2.752   4.364  16.788 -1.0896  0.4680  0.0261
 1003SOL     OW14644   2.417   1.913   4.493 -0.7167 -0.0808  0.6353
 1003SOL    HW114645   2.398   1.960   4.412 -2.0914  1.1573  1.6675
 1003SOL    HW214646   2.509   1.893   4.475 -0.7601 -1.0395  1.4976
 1004SOL     OW14647   2.560   4.208   6.327  0.1176  0.1457  0.3028
 1004SOL    HW114648   2.644   4.181   6.365  0.1191  2.5279  1.9694
 1004SOL    HW214649   2.513   4.125   6.341 -1.7096  0.7148 -2.6117
 1005SOL     OW14650   0.493   1.187   5.766 -0.3722 -0.7720 -0.1534
 1005SOL    HW114651   0.404   1.167   5.795 -0.1582  0.1516  1.1170
 1005SOL    HW214652   0.545   1.120   5.811 -1.5422 -1.0019  0.8508
 1006SOL     OW14653   0.860   3.710  11.690 -0.5852 -0.2747  0.1877
 1006SOL    HW114654   0.825   3.778  11.748 -0.9020 -1.3976  1.3336
 1006SOL    HW214655   0.848   3.627  11.737 -0.2430 -0.4354 -0.0106
 1007SOL     OW14656   1.204   3.743   3.369  0.5468 -0.4458 -0.6321
 1007SOL    HW114657   1.132   3.728   3.431  2.0714  2.9828  1.9813
 1007SOL    HW214658   1.162   3.742   3.283  0.7864  0.3125 -0.7624
 1008SOL     OW14659   0.505   2.400  10.795 -0.0830  0.6396 -0.1735
 1008SOL    HW114660   0.573   2.426  10.858 -1.9637  0.9806  1.7190
 1008SOL    HW214661   0.468   2.330  10.848  2.4107 -0.3229  0.3110
 1009SOL     OW14662   1.936   0.425   7.723  0.5306 -0.6483  0.3312
 1009SOL    HW114663   1.884   0.405   7.645 -1.6902 -0.7798  1.8713
 1009SOL    HW214664   2.013   0.371   7.702 -0.3396 -1.7961  0.0839
 1010SOL     OW14665   0.807   4.104   9.170 -0.3207  0.1408  0.3384
 1010SOL    HW114666   0.812   4.098   9.265 -1.0663 -0.9891  0.3072
 1010SOL    HW214667   0.751   4.029   9.149 -1.8383  0.8933  1.6593
 1011SOL     OW14668   4.086   4.721  15.281  0.3825 -0.2836 -0.0293
 1011SOL    HW114669   4.123   4.723  15.193  3.4599 -0.0087  1.2850
 1011SOL    HW214670   4.141   4.655  15.321  0.8612 -1.5263 -2.7064
 1012SOL     OW14671   1.909   3.980   2.752 -0.9531 -0.2086 -0.7394
 1012SOL    HW114672   1.986   4.022   2.712 -1.0583 -0.3238 -1.0627
 1012SOL    HW214673   1.840   4.007   2.692  0.8322  0.4246 -2.5435
 1013SOL     OW14674   4.617   1.616  13.341 -0.5689 -0.0395  0.1308
 1013SOL    HW114675   4.581   1.637  13.428  0.2728 -2.0138  0.9644
 1013SOL    HW214676   4.557   1.662  13.283  1.4173  0.8421 -1.2084
 1014SOL     OW14677   3.318   2.988   6.792  0.1191 -0.7903  0.4550
 1014SOL    HW114678   3.305   2.898   6.821  1.4499 -0.5235  1.8726
 1014SOL    HW214679   3.236   3.016   6.751  0.1771 -0.3721  0.6231
 1015SOL     OW14680   1.245   4.623  10.378  0.4440  0.4577 -0.6337
 1015SOL    HW114681   1.235   4.673  10.297 -0.4679 -1.0957 -1.4762
 1015SOL    HW214682   1.185   4.666  10.439 -0.3365 -0.0253 -1.0660
 1016SOL     OW14683   0.894   1.924  14.186  0.0583  0.2573  0.0285
 1016SOL    HW114684   0.822   1.880  14.140 -0.7033  0.7539  0.7592
 1016SOL    HW214685   0.965   1.879  14.139 -0.1308  0.6955 -0.6724
 1017SOL     OW14686   3.667   3.085   2.117 -0.1233 -0.1576  0.0515
 1017SOL    HW114687   3.647   3.004   2.069 -0.8238  0.4605 -0.7076
 1017SOL    HW214688   3.762   3.087   2.126 -0.1730 -0.8062  0.6662
 1018SOL     OW14689   1.176   0.664   7.831  0.5510 -0.3358  0.3789
 1018SOL    HW114690   1.109   0.679   7.764 -1.8230 -1.6318  2.4680
 1018SOL    HW214691   1.201   0.757   7.837  1.0810 -0.3288 -2.0306
 1019SOL     OW14692   2.873   1.842   2.205 -0.0392 -0.3061  0.2144
 1019SOL    HW114693   2.824   1.761   2.216  0.0460 -0.2526  0.9286
 1019SOL    HW214694   2.885   1.839   2.110  1.2392  1.5294  0.3078
 1020SOL     OW14695   3.425   1.275  16.142  0.3869 -0.0766  0.0178
 1020SOL    HW114696   3.387   1.263  16.229 -0.5317  2.4715 -0.0514
 1020SOL    HW214697   3.345   1.286  16.091 -1.4287 -0.1829  2.8525
 1021SOL     OW14698   1.793   0.388   6.801 -0.0577  1.0169  0.1917
 1021SOL    HW114699   1.827   0.322   6.861  1.3882  0.2944 -1.4256
 1021SOL    HW214700   1.872   0.438   6.782  1.0779 -0.4987  0.9408
 1022SOL     OW14701   0.565   2.778   3.905 -0.7497  0.1391 -0.1578
 1022SOL    HW114702   0.509   2.713   3.947  1.2004  0.1522  2.4663
 1022SOL    HW214703   0.648   2.733   3.919 -0.4271  1.3010  1.6995
 1023SOL     OW14704   2.143   4.120   4.865 -0.7604  0.0506  0.1110
 1023SOL    HW114705   2.105   4.201   4.831 -0.0953 -0.3405 -1.5611
 1023SOL    HW214706   2.073   4.096   4.926  1.2312  1.5791  3.0347
 1024SOL     OW14707   3.254   3.531  16.134 -0.1801  0.1499 -0.3590
 1024SOL    HW114708   3.226   3.621  16.150  0.0157  0.4902 -1.8930
 1024SOL    HW214709   3.345   3.547  16.108  0.2419  2.3259  2.4589
 1025SOL     OW14710   2.679   3.017   2.906  0.3287  0.3580  0.0414
 1025SOL    HW114711   2.724   3.077   2.847 -0.1167  0.7796  0.1360
 1025SOL    HW214712   2.673   3.068   2.987 -0.2276  1.2982 -0.6007
 1026SOL     OW14713   1.044   3.960   3.960  0.2190 -0.3123  0.3650
 1026SOL    HW114714   1.055   4.053   3.938  1.2367 -0.9773 -2.0155
 1026SOL    HW214715   0.965   3.928   3.917 -0.7377 -0.4045  2.2334
 1027SOL     OW14716   0.362   2.727   5.244 -0.0505  0.3028 -0.4133
 1027SOL    HW114717   0.424   2.675   5.193 -0.6384 -0.4264 -0.3956
 1027SOL    HW214718   0.316   2.674   5.310  1.0439 -0.0544  0.0713
 1028SOL     OW14719   3.461   1.317   1.755  0.4727 -0.0298 -0.2152
 1028SOL    HW114720   3.529   1.354   1.699  0.4666 -0.6574 -0.6357
 1028SOL    HW214721   3.455   1.228   1.721  1.5069 -0.6249  1.1618
 1029SOL     OW14722   0.459   4.615   9.588  0.2793 -0.0022  0.5924
 1029SOL    HW114723   0.536   4.631   9.533  0.0560  0.5670  0.4480
 1029SOL    HW214724   0.506   4.603   9.670  2.6050 -1.4672 -0.9295
 1030SOL     OW14725   4.714   1.663  12.741  0.0809  0.0846  0.4232
 1030SOL    HW114726   4.696   1.633  12.652  1.7496 -3.5722  1.3374
 1030SOL    HW214727   0.061   1.702  12.725 -0.5301  0.4620 -2.0079
 1031SOL     OW14728   0.921   4.092  17.301 -0.0801 -0.5283  0.2758
 1031SOL    HW114729   0.953   4.160  17.360 -0.8829  0.3723 -0.3306
 1031SOL    HW214730   0.886   4.033  17.369 -1.6722 -0.4697 -0.5027
 1032SOL     OW14731   0.054   2.448  17.660 -0.9455  0.0860 -0.4691
 1032SOL    HW114732   0.031   2.486  17.745  0.8500  3.8458 -1.6634
 1032SOL    HW214733   0.025   2.358  17.674  0.8924 -0.5439 -0.8489
 1033SOL     OW14734   0.292   4.384   9.387  0.0664  0.2605  0.3380
 1033SOL    HW114735   0.265   4.359   9.476  1.0862 -1.1990  0.2316
 1033SOL    HW214736   0.270   4.477   9.387 -0.8902  0.0427  1.7202
 1034SOL     OW14737   4.307   2.386  13.324 -0.8995 -0.0357  0.4510
 1034SOL    HW114738   4.259   2.468  13.314  2.2792  1.8059  0.4760
 1034SOL    HW214739   4.390   2.417  13.289 -1.2104 -0.9987 -1.1495
 1035SOL     OW14740   4.265   3.904   8.513  0.1246  0.3451  0.2112
 1035SOL    HW114741   4.228   3.872   8.595  0.2459 -0.4381 -0.0392
 1035SOL    HW214742   4.207   3.868   8.446  1.4417 -1.6727  0.1454
 1036SOL     OW14743   1.949   2.269  13.830 -0.3276 -0.3232  0.0282
 1036SOL    HW114744   1.854   2.285  13.829  0.0640  2.0669  0.7057
 1036SOL    HW214745   1.965   2.296  13.740 -2.6458  0.4394 -0.1529
 1037SOL     OW14746   2.012   4.374   1.992 -0.3470 -0.1588 -0.6873
 1037SOL    HW114747   1.986   4.300   2.046  0.7138  1.0580  1.4854
 1037SOL    HW214748   2.021   4.333   1.906  2.4088  0.0401 -0.4936
 1038SOL     OW14749   0.780   3.614   3.947 -0.4411 -0.2910 -0.5775
 1038SOL    HW114750   0.807   3.571   3.865 -1.7497  0.7369 -1.5608
 1038SOL    HW214751   0.849   3.575   4.000  0.3730  2.0360  0.0717
 1039SOL     OW14752   2.388   2.549   9.245  0.3081  0.6254  0.5081
 1039SOL    HW114753   2.447   2.551   9.170 -0.2180 -1.5029  0.0266
 1039SOL    HW214754   2.458   2.553   9.310  0.8787  1.4149 -0.1380
 1040SOL     OW14755   0.456   3.040   8.650  0.3245 -0.0887 -0.5232
 1040SOL    HW114756   0.441   2.999   8.736  1.5253  1.4913  0.4273
 1040SOL    HW214757   0.492   3.122   8.682  1.8672 -0.9151 -0.1426
 1041SOL     OW14758   4.102   0.587   0.873  0.0428  0.6049  0.1366
 1041SOL    HW114759   4.034   0.608   0.937 -1.2069  0.7235 -1.2338
 1041SOL    HW214760   4.146   0.671   0.869  1.4988 -0.2320 -1.2905
 1042SOL     OW14761   2.203   0.037   2.089  0.3859  0.0771 -0.1687
 1042SOL    HW114762   2.238   0.010   2.174 -0.6754  0.6529  0.4509
 1042SOL    HW214763   2.266   4.737   2.029  0.2014  0.5221 -0.6524
 1043SOL     OW14764   3.042   3.515   7.798  0.2356  0.7109  0.0451
 1043SOL    HW114765   3.046   3.567   7.718 -0.1162  0.4412 -0.1434
 1043SOL    HW214766   3.028   3.589   7.857 -0.7039  0.7397 -0.2132
 1044SOL     OW14767   3.551   1.936   4.669  0.0497 -0.4655  0.5242
 1044SOL    HW114768   3.578   1.981   4.749 -0.2432 -0.7402  0.7740
 1044SOL    HW214769   3.461   1.969   4.669 -0.7663 -2.6657 -0.4199
 1045SOL     OW14770   0.355   2.849   8.186 -0.2362 -0.1530 -0.3956
 1045SOL    HW114771   0.426   2.846   8.122 -1.3644 -1.2779 -1.6032
 1045SOL    HW214772   0.397   2.913   8.243  1.1483 -2.0626  0.7042
 1046SOL     OW14773   2.048   1.347  15.423 -0.0875  0.0431 -0.4900
 1046SOL    HW114774   2.138   1.319  15.437 -0.2594 -0.4850 -0.4264
 1046SOL    HW214775   2.002   1.270  15.388 -3.5177  1.4142  1.0059
 1047SOL     OW14776   0.761   2.355   7.003 -0.5491  0.2067 -0.2948
 1047SOL    HW114777   0.694   2.372   7.069 -0.2498  0.5616 -0.0883
 1047SOL    HW214778   0.834   2.332   7.060  1.9437 -0.6206 -3.7977
 1048SOL     OW14779   3.875   4.012   8.355  0.5450  0.4429  0.1389
 1048SOL    HW114780   3.784   4.024   8.328  1.2714 -0.9550 -2.9439
 1048SOL    HW214781   3.920   4.079   8.304  0.2608 -0.1367 -0.8660
 1049SOL     OW14782   2.434   2.892   6.183  0.2674  0.3249 -0.2035
 1049SOL    HW114783   2.349   2.852   6.203  0.4647  0.1645  0.3120
 1049SOL    HW214784   2.394   2.979   6.180 -1.6339 -0.5144  0.3020
 1050SOL     OW14785   3.827   2.864   8.493 -0.1410  0.8074 -0.5226
 1050SOL    HW114786   3.810   2.918   8.416 -1.2873 -0.3125 -1.0487
 1050SOL    HW214787   3.916   2.889   8.516 -0.5633  2.6922 -0.8939
 1051SOL     OW14788   3.891   1.952   6.230  1.1283  0.4372 -0.2247
 1051SOL    HW114789   3.947   1.889   6.184  0.2570 -0.8428  0.4473
 1051SOL    HW214790   3.807   1.949   6.184 -0.4984  2.2950  2.6036
 1052SOL     OW14791   2.823   0.280  16.043  0.0253 -0.5356  0.3413
 1052SOL    HW114792   2.888   0.338  16.005  0.2287 -0.4642  0.7954
 1052SOL    HW214793   2.780   0.340  16.104 -2.5975 -3.2859  1.2318
 1053SOL     OW14794   3.313   0.119  10.083  0.3423 -0.4095  0.1182
 1053SOL    HW114795   3.339   0.030  10.106  2.6941  0.4257  0.6597
 1053SOL    HW214796   3.380   0.175  10.122  1.0263  0.0843 -1.7304
 1054SOL     OW14797   1.612   2.039  11.191  0.2612 -0.0477 -0.3649
 1054SOL    HW114798   1.536   2.018  11.244  1.1567  0.8664  1.2720
 1054SOL    HW214799   1.648   1.950  11.184  1.3218  0.1902  2.4224
 1055SOL     OW14800   3.968   3.329   8.778 -0.0232 -0.4548  0.1962
 1055SOL    HW114801   3.952   3.247   8.730 -0.3271  0.1791 -0.7929
 1055SOL    HW214802   3.954   3.303   8.869  0.0105 -1.7849 -0.1749
 1056SOL     OW14803   2.061   1.281   7.048 -0.2341 -1.0142  0.1482
 1056SOL    HW114804   2.122   1.207   7.048  1.5575  0.4454  2.5362
 1056SOL    HW214805   2.067   1.314   7.138 -0.3850 -0.2502 -0.1230
 1057SOL     OW14806   0.706   1.835  13.984 -0.3246 -0.2649  0.0298
 1057SOL    HW114807   0.622   1.846  14.029 -0.1399  0.5114  0.1827
 1057SOL    HW214808   0.675   1.886  13.909 -0.0890  1.0287  0.8101
 1058SOL     OW14809   1.248   2.343   8.549 -0.0618  0.2952 -0.5056
 1058SOL    HW114810   1.271   2.428   8.588  1.1341  0.7807 -2.2859
 1058SOL    HW214811   1.336   2.306   8.539  0.8641  2.9304 -2.0699
 1059SOL     OW14812   0.858   1.457  15.532  0.4030 -0.4383  0.0479
 1059SOL    HW114813   0.769   1.444  15.564  0.2007  0.1515 -0.2706
 1059SOL    HW214814   0.904   1.422  15.608 -2.4118  0.5967  2.2054
 1060SOL     OW14815   0.584   3.452   9.264 -0.4269  0.0265  0.3380
 1060SOL    HW114816   0.679   3.445   9.257 -0.3510 -1.2072  2.5210
 1060SOL    HW214817   0.561   3.491   9.180 -0.6261  3.8429  2.1469
 1061SOL     OW14818   1.285   0.245  13.240 -0.4230 -0.6693  0.1678
 1061SOL    HW114819   1.222   0.187  13.197 -0.7011 -0.8090  0.7610
 1061SOL    HW214820   1.319   0.285  13.160  2.6333 -1.7155  0.9272
 1062SOL     OW14821   4.644   2.408   4.120 -0.2488  0.1515  0.0446
 1062SOL    HW114822   4.659   2.403   4.214  1.4707 -1.1895 -0.3007
 1062SOL    HW214823   4.699   2.482   4.096  0.2224 -0.1784  0.0951
 1063SOL     OW14824   1.509   3.937   4.203 -0.3087 -0.4188  0.1146
 1063SOL    HW114825   1.502   3.908   4.112 -1.3250 -1.4721  0.5317
 1063SOL    HW214826   1.511   4.031   4.186 -0.8989 -0.8140 -2.2284
 1064SOL     OW14827   3.702   1.751   4.345  0.3111 -0.3417 -0.7968
 1064SOL    HW114828   3.768   1.810   4.308  1.9843 -1.0099  1.0872
 1064SOL    HW214829   3.669   1.715   4.263 -0.9768  1.1846 -0.9378
 1065SOL     OW14830   0.490   3.604   5.423 -0.0557 -0.2903  0.4713
 1065SOL    HW114831   0.544   3.682   5.415 -1.8213  1.0163  1.3870
 1065SOL    HW214832   0.448   3.622   5.507 -1.0552  1.4536 -0.3934
 1066SOL     OW14833   3.042   3.484   8.449  0.3041 -0.1577  0.0793
 1066SOL    HW114834   3.100   3.551   8.414  1.5032 -0.8491  0.7335
 1066SOL    HW214835   3.038   3.504   8.542 -2.3775 -0.3271 -0.0100
 1067SOL     OW14836   4.462   4.535  17.618  0.8641 -0.4458  0.4383
 1067SOL    HW114837   4.499   4.595  17.683  0.4176 -1.1214  1.3114
 1067SOL    HW214838   4.534   4.473  17.606 -1.7336 -3.1492 -1.2276
 1068SOL     OW14839   3.324   0.423   5.085 -0.2420  0.4373 -0.0949
 1068SOL    HW114840   3.377   0.503   5.087 -1.1742  1.0507  0.2229
 1068SOL    HW214841   3.312   0.395   5.176  0.2957 -0.1733 -0.2117
 1069SOL     OW14842   2.719   4.631   1.845 -0.1512  0.1746 -0.0542
 1069SOL    HW114843   2.752   4.549   1.810  1.3951  0.5163  0.6187
 1069SOL    HW214844   2.623   4.630   1.839 -0.2240  2.5837  0.8295
 1070SOL     OW14845   4.216   4.013   3.533  0.4097 -0.5396 -1.0399
 1070SOL    HW114846   4.280   4.047   3.595  0.5898 -1.4436 -0.7336
 1070SOL    HW214847   4.164   3.958   3.592 -1.0062  1.3277 -0.5573
 1071SOL     OW14848   3.112   0.598   4.313 -0.0555 -0.7565  0.5085
 1071SOL    HW114849   3.079   0.527   4.368  1.3013 -2.5744 -1.0461
 1071SOL    HW214850   3.084   0.675   4.363  0.8659  0.0105 -0.1564
 1072SOL     OW14851   3.005   2.339   7.549 -0.2442  0.1846  0.6777
 1072SOL    HW114852   3.083   2.394   7.542 -0.4292  0.5642  1.7417
 1072SOL    HW214853   3.024   2.260   7.498  1.0315  1.8706 -1.4818
 1073SOL     OW14854   3.909   2.894   1.284  0.0923 -0.2756  0.3446
 1073SOL    HW114855   3.835   2.835   1.278 -0.3675  0.4295 -0.8026
 1073SOL    HW214856   3.908   2.926   1.375 -1.8147 -1.9023  0.9070
 1074SOL     OW14857   1.875   1.678   7.114 -0.3988 -0.3217 -0.2071
 1074SOL    HW114858   1.921   1.643   7.038  2.0437  2.6695 -0.1205
 1074SOL    HW214859   1.793   1.697   7.069 -1.3126 -2.5283  0.5443
 1075SOL     OW14860   1.459   2.992  12.544 -0.4092 -0.1997  0.6418
 1075SOL    HW114861   1.432   3.030  12.628  0.4561  0.2023  0.7409
 1075SOL    HW214862   1.446   3.070  12.490 -0.2721  0.0632  0.9847
 1076SOL     OW14863   4.100   2.079  14.984  0.4781 -0.3866 -0.3962
 1076SOL    HW114864   4.120   2.136  14.910  2.2018 -1.3705 -0.6750
 1076SOL    HW214865   4.005   2.089  14.989  0.5219 -0.8777  1.3745
 1077SOL     OW14866   4.510   2.734   5.742 -0.1924  0.1900 -0.6899
 1077SOL    HW114867   4.533   2.684   5.664 -1.1007 -0.7210 -0.3834
 1077SOL    HW214868   4.453   2.794   5.693  0.0619  0.6181 -0.4560
 1078SOL     OW14869   3.926   3.816   4.062  0.4647  0.5069 -0.4078
 1078SOL    HW114870   3.856   3.753   4.078  2.5812 -1.4627  1.2142
 1078SOL    HW214871   3.882   3.895   4.093  0.2874  0.2943 -0.1151
 1079SOL     OW14872   0.151   0.504   3.001 -0.3908 -0.0137  0.5487
 1079SOL    HW114873   0.146   0.595   2.971 -1.5506 -0.1117  0.4451
 1079SOL    HW214874   0.131   0.459   2.918 -0.8405 -0.8412  1.1093
 1080SOL     OW14875   4.629   0.780   7.600  0.1313 -0.6591  0.0239
 1080SOL    HW114876   4.713   0.735   7.588  0.5876  1.0225 -3.0977
 1080SOL    HW214877   4.625   0.827   7.516 -0.6903  0.3149  0.6081
 1081SOL     OW14878   2.831   0.004  17.673  0.0221 -0.6888 -0.1431
 1081SOL    HW114879   2.902   0.045  17.722  0.7381 -0.9611 -0.9454
 1081SOL    HW214880   2.867   4.655  17.677  0.0457 -0.5855  1.8276
 1082SOL     OW14881   0.427   3.024   5.534  0.4797 -0.1438  0.2867
 1082SOL    HW114882   0.428   2.929   5.531 -0.1568 -0.1490  0.2172
 1082SOL    HW214883   0.334   3.040   5.516  0.9965  2.6149 -0.0469
 1083SOL     OW14884   2.814   4.700   2.749  0.0247 -0.5629  0.2929
 1083SOL    HW114885   2.908   4.715   2.758  0.1986 -1.0493 -0.8424
 1083SOL    HW214886   2.785   0.016   2.822 -1.0762 -0.3801 -0.2857
 1084SOL     OW14887   1.452   0.197  16.511  0.4425 -0.3133 -0.0728
 1084SOL    HW114888   1.463   0.125  16.573  3.1622 -0.5063 -0.7527
 1084SOL    HW214889   1.503   0.164  16.437 -1.6499  0.5723 -1.8896
 1085SOL     OW14890   2.126   1.403  14.543  0.1236  0.0431  0.2493
 1085SOL    HW114891   2.061   1.413  14.473  1.5581  0.0228 -1.0867
 1085SOL    HW214892   2.208   1.420  14.497 -0.0532 -0.5910 -0.2997
 1086SOL     OW14893   3.746   2.182   3.294 -0.4639 -0.1955 -0.1551
 1086SOL    HW114894   3.703   2.239   3.230  0.6145  0.3752 -0.3801
 1086SOL    HW214895   3.777   2.101   3.254  1.3865  0.2395  0.4274
 1087SOL     OW14896   1.376   2.652   7.775 -0.2893  0.0785  0.2119
 1087SOL    HW114897   1.322   2.671   7.698 -0.0308  0.9089  0.2419
 1087SOL    HW214898   1.457   2.697   7.752 -1.1319  1.0921 -0.7536
 1088SOL     OW14899   4.692   1.061  15.322 -0.1289  0.2147 -0.3028
 1088SOL    HW114900   4.665   1.054  15.413 -0.2040  2.8620 -0.1209
 1088SOL    HW214901   4.631   1.123  15.282 -1.1887 -1.9192 -1.9886
 1089SOL     OW14902   2.158   3.623   5.359 -0.1944  0.7914  0.4813
 1089SOL    HW114903   2.220   3.569   5.407  0.0860  1.8891  1.3540
 1089SOL    HW214904   2.171   3.586   5.271 -1.8498  1.5137 -0.0651
 1090SOL     OW14905   2.518   0.115  16.221  0.2248 -0.5319 -0.4981
 1090SOL    HW114906   2.425   0.135  16.208 -0.3394 -1.6627  1.7534
 1090SOL    HW214907   2.564   0.198  16.212 -0.0943 -0.0612  2.1344
 1091SOL     OW14908   3.788   4.014  12.944 -0.0772 -0.4281  0.0795
 1091SOL    HW114909   3.864   3.992  12.890 -2.1674  1.4477 -3.6154
 1091SOL    HW214910   3.720   4.018  12.876 -0.0333  0.7251  0.0949
 1092SOL     OW14911   3.601   2.030   9.896 -0.3800  0.1971  0.2179
 1092SOL    HW114912   3.650   2.084   9.957  0.3089 -1.6540  1.3121
 1092SOL    HW214913   3.546   2.089   9.845 -0.1172  1.2621  1.1769
 1093SOL     OW14914   4.559   4.199   7.538  0.1906 -0.3283  0.6643
 1093SOL    HW114915   4.528   4.274   7.488  0.7175 -0.0843  0.7029
 1093SOL    HW214916   4.575   4.245   7.620  0.3105  2.3841 -0.8680
 1094SOL     OW14917   2.344   3.661  13.284  0.4009  0.4125  0.6771
 1094SOL    HW114918   2.250   3.647  13.291  0.4141 -0.5871 -1.2552
 1094SOL    HW214919   2.371   3.585  13.234 -1.6960  0.6108 -0.7525
 1095SOL     OW14920   1.562   0.899   0.990 -0.2913 -0.1700 -0.2620
 1095SOL    HW114921   1.616   0.938   1.059  1.0994 -2.4944 -0.0263
 1095SOL    HW214922   1.495   0.851   1.039  1.3703 -0.0744  2.1229
 1096SOL     OW14923   1.109   0.462  16.253 -0.3976  0.1613  0.0233
 1096SOL    HW114924   1.201   0.455  16.276 -0.1729  2.9798  0.0387
 1096SOL    HW214925   1.114   0.451  16.158 -0.0299 -2.6025  0.3838
 1097SOL     OW14926   3.971   4.724   8.613  0.3237  0.7236  0.2543
 1097SOL    HW114927   4.021   0.045   8.667  0.0681 -0.4205  1.7806
 1097SOL    HW214928   4.025   4.647   8.629  0.9006  1.3581  1.3753
 1098SOL     OW14929   1.535   1.893   7.675 -0.2027 -0.1429  0.5910
 1098SOL    HW114930   1.574   1.967   7.629 -2.9519 -0.5005 -2.3318
 1098SOL    HW214931   1.558   1.823   7.614 -1.1369  1.4170 -1.5792
 1099SOL     OW14932   4.185   0.762   3.447  0.4555  0.0654 -0.7512
 1099SOL    HW114933   4.144   0.785   3.530  1.2095  0.6673 -0.5474
 1099SOL    HW214934   4.227   0.682   3.476  0.3389 -0.7946 -2.9757
 1100SOL     OW14935   4.039   1.476   9.161 -0.2323 -0.0972  0.1547
 1100SOL    HW114936   3.992   1.393   9.153 -0.4530  0.1337 -1.0081
 1100SOL    HW214937   4.130   1.446   9.159 -0.2001  0.0629 -0.7350
 1101SOL     OW14938   3.815   3.650  14.770  0.1480  0.1468  0.2841
 1101SOL    HW114939   3.845   3.735  14.803  1.6963  0.2197 -1.2714
 1101SOL    HW214940   3.725   3.670  14.747  0.4587  1.4697  0.2042
 1102SOL     OW14941   2.116   2.480  11.945 -0.7472 -0.0674 -0.0433
 1102SOL    HW114942   2.179   2.441  12.005 -0.9615  1.5229  1.2125
 1102SOL    HW214943   2.160   2.503  11.863 -0.1730  1.9171  0.8238
 1103SOL     OW14944   1.647   2.514   4.545 -0.9307  0.4791  0.3847
 1103SOL    HW114945   1.561   2.509   4.586 -0.6759  1.5845  1.0564
 1103SOL    HW214946   1.696   2.546   4.621  0.2127  0.0354 -0.1648
 1104SOL     OW14947   4.049   3.800   8.354 -0.4251 -0.2889  0.6545
 1104SOL    HW114948   3.994   3.879   8.351  0.0052 -0.1443 -2.8649
 1104SOL    HW214949   3.990   3.747   8.408 -0.8063 -1.3262 -0.8023
 1105SOL     OW14950   2.066   3.168  11.847  0.6663  0.2122 -0.3808
 1105SOL    HW114951   2.096   3.230  11.781  0.6960  1.4114  0.7655
 1105SOL    HW214952   2.132   3.163  11.916  0.2224 -0.2487  0.0117
 1106SOL     OW14953   2.019   4.679  14.984  0.2473  0.5679 -0.5749
 1106SOL    HW114954   1.953   4.644  15.043 -0.5453 -1.0001 -2.3837
 1106SOL    HW214955   2.001   0.032  14.999  0.1414  0.6821 -1.4194
 1107SOL     OW14956   2.031   4.365  14.318  0.0115  0.0826 -0.1500
 1107SOL    HW114957   2.099   4.336  14.258  1.0758  1.6010  0.3201
 1107SOL    HW214958   2.078   4.440  14.354 -1.2459 -0.2028  2.1367
 1108SOL     OW14959   2.110   2.627   7.132 -0.6304  0.1677 -0.1966
 1108SOL    HW114960   2.198   2.603   7.159 -1.3583 -3.4257 -1.0638
 1108SOL    HW214961   2.066   2.602   7.212  1.1051 -0.4573  0.5517
 1109SOL     OW14962   3.341   2.026   5.338  0.0547  0.5708  0.3631
 1109SOL    HW114963   3.286   1.988   5.270 -0.6774  0.1863  1.1712
 1109SOL    HW214964   3.296   2.097   5.383 -0.0316  0.9955 -0.3985
 1110SOL     OW14965   1.256   3.684   2.237 -0.1950 -0.1427  0.4009
 1110SOL    HW114966   1.198   3.621   2.194  0.7039  0.1606 -1.2694
 1110SOL    HW214967   1.289   3.643   2.317  0.4498  0.2805  0.3534
 1111SOL     OW14968   2.975   3.318   2.278 -0.6727 -0.4686  0.3263
 1111SOL    HW114969   3.014   3.396   2.237  0.0508 -0.5189  0.9134
 1111SOL    HW214970   3.051   3.287   2.328  1.4635 -0.2037 -2.7201
 1112SOL     OW14971   3.246   4.356  17.090 -0.5297 -0.3083 -0.5659
 1112SOL    HW114972   3.242   4.306  17.171 -0.1720 -0.7966 -0.8535
 1112SOL    HW214973   3.282   4.287  17.034  0.8582 -1.0777  1.3033
 1113SOL     OW14974   1.084   0.449   9.950 -0.0466 -0.2883 -0.2162
 1113SOL    HW114975   1.057   0.532   9.990 -0.4038 -0.7947  0.5788
 1113SOL    HW214976   1.179   0.444   9.964  0.0989 -1.3087 -1.6337
 1114SOL     OW14977   3.127   3.533   4.327  0.6132  0.0666  0.0989
 1114SOL    HW114978   3.192   3.473   4.290  1.0281  0.4603  0.1966
 1114SOL    HW214979   3.050   3.507   4.277  0.5380 -0.8059  0.6613
 1115SOL     OW14980   4.135   4.071   5.958  0.3266 -0.1519  0.4339
 1115SOL    HW114981   4.119   3.978   5.972 -0.4633  0.1729  1.6867
 1115SOL    HW214982   4.153   4.104   6.046 -0.6379  0.3736  0.4407
 1116SOL     OW14983   3.497   4.172   6.634 -1.1333  0.0360 -0.5787
 1116SOL    HW114984   3.534   4.088   6.607  1.3539 -0.2007  3.5773
 1116SOL    HW214985   3.411   4.142   6.664 -0.3516 -1.6082 -0.0110
 1117SOL     OW14986   4.357   1.587  15.874 -0.9167  0.0957  0.4230
 1117SOL    HW114987   4.345   1.589  15.969 -1.1081 -0.0158  0.4000
 1117SOL    HW214988   4.411   1.662  15.851  2.0983 -1.7852  1.3735
 1118SOL     OW14989   3.687   3.837   4.307  0.3870 -0.3663  0.2351
 1118SOL    HW114990   3.698   3.776   4.235  1.6715  1.6436 -1.2640
 1118SOL    HW214991   3.647   3.785   4.377  3.1199 -0.8121  1.4783
 1119SOL     OW14992   0.261   1.260   9.529 -0.1917 -0.2702 -0.2830
 1119SOL    HW114993   0.250   1.249   9.624 -3.1605  0.1501 -0.5608
 1119SOL    HW214994   0.204   1.336   9.516 -0.9462 -0.7708  0.0408
 1120SOL     OW14995   1.027   1.217   4.375  0.0833 -0.2313 -0.1392
 1120SOL    HW114996   0.999   1.304   4.404 -0.9475 -1.0398  1.2869
 1120SOL    HW214997   1.096   1.201   4.439 -0.6190 -1.0012  0.4264
 1121SOL     OW14998   1.002   0.273   8.173 -0.2984 -0.0385  0.0528
 1121SOL    HW114999   1.091   0.258   8.204 -0.5993 -0.6833  0.6124
 1121SOL    HW215000   0.947   0.281   8.251 -3.7161 -0.3691 -2.3022
 1122SOL     OW15001   0.043   1.748  11.997 -0.9189 -0.0812 -0.3505
 1122SOL    HW115002   0.037   1.718  12.088 -1.3096  0.1751 -0.2901
 1122SOL    HW215003   0.100   1.676  11.970 -1.2436 -0.3053 -0.4421
 1123SOL     OW15004   2.072   0.817   8.331  0.3006  0.0107  0.4745
 1123SOL    HW115005   2.002   0.820   8.396  1.5406  1.1876  1.7416
 1123SOL    HW215006   2.026   0.758   8.271 -0.2886  1.3938 -0.4215
 1124SOL     OW15007   4.453   0.527  13.876 -0.0814  0.3773  0.1351
 1124SOL    HW115008   4.418   0.447  13.837  2.7473 -0.8542  0.1413
 1124SOL    HW215009   4.414   0.597  13.823 -2.7502 -2.0045 -1.0376
 1125SOL     OW15010   1.602   3.828   3.961 -0.3015 -0.3046  0.4289
 1125SOL    HW115011   1.689   3.813   3.999 -0.2859 -1.0178  0.1220
 1125SOL    HW215012   1.616   3.804   3.869  1.2820  2.7958 -0.1375
 1126SOL     OW15013   4.714   3.155  16.779 -0.0372  0.6470  0.1279
 1126SOL    HW115014   0.033   3.080  16.790  0.0063  0.4938 -1.1541
 1126SOL    HW215015   0.036   3.211  16.732 -0.7866  2.3862  1.2513
 1127SOL     OW15016   2.214   1.531   4.102 -0.1346 -0.0662  0.2185
 1127SOL    HW115017   2.212   1.458   4.165  2.0015 -1.3635 -1.2252
 1127SOL    HW215018   2.249   1.602   4.156  2.7691 -2.0739  0.9789
 1128SOL     OW15019   3.930   1.512   1.378  0.7237  0.0474 -0.3485
 1128SOL    HW115020   3.936   1.586   1.437 -0.9462 -1.0473  1.1910
 1128SOL    HW215021   4.021   1.510   1.346  1.4332  0.0271  1.6847
 1129SOL     OW15022   1.070   0.311   7.656  0.2527  0.3102  0.3207
 1129SOL    HW115023   1.111   0.264   7.730  1.6808  0.2009 -0.5459
 1129SOL    HW215024   1.051   0.236   7.599  0.4096  1.6893 -1.5345
 1130SOL     OW15025   0.114   1.662   5.726 -0.1826  0.1365  0.3382
 1130SOL    HW115026   0.118   1.632   5.817  0.8837 -2.8605 -0.6904
 1130SOL    HW215027   0.021   1.640   5.725 -0.6884  2.2691  0.1727
 1131SOL     OW15028   2.062   0.029  12.487 -0.1036  0.4886  0.1779
 1131SOL    HW115029   2.053   0.096  12.420 -2.6330  1.1444  1.1809
 1131SOL    HW215030   2.075   0.092  12.558 -0.9718 -0.9826  1.6317
 1132SOL     OW15031   1.772   3.595   6.950 -0.7144 -0.3784 -0.0300
 1132SOL    HW115032   1.710   3.603   7.022 -0.9667 -0.8785 -0.1952
 1132SOL    HW215033   1.772   3.681   6.907 -1.8522 -0.8666 -1.0117
 1133SOL     OW15034   2.070   2.213   2.311  0.1745 -0.4040 -0.6104
 1133SOL    HW115035   2.086   2.303   2.284 -2.7301  1.1898  3.1307
 1133SOL    HW215036   2.094   2.162   2.233  3.2245  1.8930 -1.1484
 1134SOL     OW15037   2.841   1.469   8.066 -0.0270 -0.4874 -0.2470
 1134SOL    HW115038   2.790   1.448   7.989 -1.4301 -1.0355  0.8413
 1134SOL    HW215039   2.896   1.537   8.027 -0.0029 -1.3982 -1.7653
 1135SOL     OW15040   1.583   3.803   2.118 -0.3056  0.3383 -0.0918
 1135SOL    HW115041   1.663   3.771   2.076 -0.2655 -0.3111  0.4556
 1135SOL    HW215042   1.568   3.739   2.188  0.2666  0.7634  0.4152
 1136SOL     OW15043   2.069   3.523  13.806 -0.8572 -0.0644  0.0132
 1136SOL    HW115044   2.077   3.612  13.841  0.8320 -0.5920  0.9622
 1136SOL    HW215045   2.122   3.531  13.726  2.0208 -1.8504  1.7677
 1137SOL     OW15046   3.055   4.182  13.755 -0.5034  0.4068 -0.3641
 1137SOL    HW115047   3.030   4.096  13.789 -1.0393  1.1910  1.2467
 1137SOL    HW215048   3.006   4.230  13.823  0.2898  0.2630  0.3099
 1138SOL     OW15049   4.543   4.620  11.969  0.2646  0.4946  0.4103
 1138SOL    HW115050   4.637   4.603  11.963 -0.2727 -2.0124 -1.0525
 1138SOL    HW215051   4.507   4.537  12.001 -1.2076  0.9641 -0.0390
 1139SOL     OW15052   4.438   0.836   7.117 -0.4130 -0.2821  0.1525
 1139SOL    HW115053   4.436   0.864   7.208 -0.9971 -0.4383  0.1899
 1139SOL    HW215054   4.483   0.755   7.141  0.7454  0.0536 -0.8863
 1140SOL     OW15055   2.461   1.745   6.078  0.3357  0.1189 -0.5056
 1140SOL    HW115056   2.445   1.738   5.984 -1.2468 -2.5980 -0.0358
 1140SOL    HW215057   2.383   1.710   6.122 -0.6703  2.6436 -0.2564
 1141SOL     OW15058   3.448   0.456  12.943 -0.0554 -0.2466  0.0563
 1141SOL    HW115059   3.469   0.493  13.028 -0.0966  0.2547 -0.1473
 1141SOL    HW215060   3.516   0.392  12.919  1.5116  2.0134 -1.5710
 1142SOL     OW15061   2.715   2.609   5.333 -0.4044  0.0666 -0.0383
 1142SOL    HW115062   2.731   2.523   5.371 -2.8831  0.0509  0.9630
 1142SOL    HW215063   2.796   2.651   5.362 -0.1319 -0.2676 -0.3143
 1143SOL     OW15064   3.279   3.872   6.015 -0.0510 -0.3758  0.2221
 1143SOL    HW115065   3.206   3.846   5.958 -0.6941  1.0620  0.3908
 1143SOL    HW215066   3.257   3.813   6.087 -3.0457  1.2778  0.6426
 1144SOL     OW15067   0.595   0.840   4.300 -0.0058 -0.0968 -0.7241
 1144SOL    HW115068   0.563   0.800   4.219 -0.2271 -0.5421 -0.4170
 1144SOL    HW215069   0.579   0.776   4.370  0.7526  1.0100  0.4692
 1145SOL     OW15070   3.027   4.042   7.956  0.3728  0.5263  0.4712
 1145SOL    HW115071   3.035   4.116   7.896  0.0645 -0.9571 -1.4105
 1145SOL    HW215072   3.070   3.969   7.911  0.4063 -0.5844  2.2748
 1146SOL     OW15073   1.421   1.241   9.578 -0.1056  0.3340 -0.3300
 1146SOL    HW115074   1.488   1.218   9.643  1.8414  0.4996 -2.2663
 1146SOL    HW215075   1.433   1.333   9.554 -1.5496  0.3778 -0.8361
 1147SOL     OW15076   0.408   0.098  13.678  0.4750 -0.5745  0.2950
 1147SOL    HW115077   0.343   0.086  13.610  0.4038  2.0744 -0.1116
 1147SOL    HW215078   0.416   0.193  13.680 -0.7853 -0.4278 -2.3644
 1148SOL     OW15079   2.133   1.854   5.842 -0.6188  0.1263  0.1628
 1148SOL    HW115080   2.097   1.765   5.832 -0.3176 -0.0628  0.7712
 1148SOL    HW215081   2.069   1.904   5.893  0.2514 -0.6324  1.9936
 1149SOL     OW15082   1.452   2.889   7.040 -0.3130 -0.7485 -0.5728
 1149SOL    HW115083   1.390   2.882   6.968  0.1899 -2.9665 -0.7866
 1149SOL    HW215084   1.398   2.841   7.102  1.9033 -2.0555  0.3503
 1150SOL     OW15085   0.970   3.495  13.330  0.2468 -0.2243 -0.4159
 1150SOL    HW115086   0.978   3.522  13.422 -2.0136  2.0942 -0.8937
 1150SOL    HW215087   1.011   3.568  13.283 -0.2896  1.4988  1.7854
 1151SOL     OW15088   3.401   1.800   5.965  0.1455  0.2828 -0.0574
 1151SOL    HW115089   3.360   1.876   6.007 -1.9036 -0.5952 -0.4964
 1151SOL    HW215090   3.400   1.844   5.879 -0.2087 -1.3355 -0.8708
 1152SOL     OW15091   0.606   4.001   1.640 -0.6304 -0.1115 -0.1192
 1152SOL    HW115092   0.634   3.997   1.732 -2.3038  2.7791  0.5437
 1152SOL    HW215093   0.611   4.094   1.617 -2.6222  0.1936  0.7189
 1153SOL     OW15094   3.990   2.352   3.859 -0.5279 -0.4169  0.3617
 1153SOL    HW115095   4.075   2.395   3.848  0.5937 -2.3232  1.7116
 1153SOL    HW215096   3.948   2.422   3.909 -0.7473  0.3502 -0.8831
 1154SOL     OW15097   2.336   1.931   1.304 -0.3884 -0.0902  0.0442
 1154SOL    HW115098   2.357   1.837   1.306 -1.0776 -0.2600 -0.4822
 1154SOL    HW215099   2.414   1.980   1.327  0.4630  0.0164 -3.0678
 1155SOL     OW15100   0.217   0.333  11.069  0.1410 -0.4465  0.5611
 1155SOL    HW115101   0.256   0.262  11.121  2.8631 -0.9720 -2.2011
 1155SOL    HW215102   0.126   0.311  11.088  0.0975 -1.1008 -0.4432
 1156SOL     OW15103   0.008   1.371   6.749  0.3398  0.2819 -0.3975
 1156SOL    HW115104   4.726   1.282   6.722 -0.8062  1.4617 -3.3695
 1156SOL    HW215105   4.668   1.420   6.728  0.2331  1.3084  2.3572
 1157SOL     OW15106   2.316   4.484   4.227  0.2160 -0.7279 -0.2430
 1157SOL    HW115107   2.241   4.430   4.201 -1.4402  0.4272  2.2218
 1157SOL    HW215108   2.365   4.410   4.263  1.5788  0.2438 -0.0836
 1158SOL     OW15109   3.858   4.656  17.440 -0.1678 -0.2869 -0.1991
 1158SOL    HW115110   3.886   4.569  17.469 -0.9038 -0.8553 -1.2038
 1158SOL    HW215111   3.850   4.696  17.526  0.6971 -1.1532  0.2876
 1159SOL     OW15112   0.891   4.429   4.912  0.2236 -0.8177  0.1574
 1159SOL    HW115113   0.975   4.385   4.923  0.7870  0.8590  2.7274
 1159SOL    HW215114   0.892   4.485   4.990  1.1957  1.1749 -1.2833
 1160SOL     OW15115   1.351   2.410   2.485  0.4148  0.1517 -0.2256
 1160SOL    HW115116   1.302   2.328   2.476  2.1022 -1.2985  3.6873
 1160SOL    HW215117   1.388   2.423   2.398 -2.3258  3.5807 -0.8626
 1161SOL     OW15118   2.361   3.653  10.142  0.2331  0.6572 -0.6414
 1161SOL    HW115119   2.356   3.566  10.181 -0.4993  0.0678 -2.0388
 1161SOL    HW215120   2.350   3.712  10.216 -0.3051  0.6737 -0.7312
 1162SOL     OW15121   1.176   4.658  13.563 -0.0981  0.1545 -0.0767
 1162SOL    HW115122   1.114   4.620  13.626  0.7751  1.1442  1.3907
 1162SOL    HW215123   1.136   4.639  13.478 -0.1061 -1.3158  0.2441
 1163SOL     OW15124   3.464   1.269   8.854 -0.2230 -0.0949 -0.4331
 1163SOL    HW115125   3.444   1.185   8.813  1.4399 -0.0432 -1.3394
 1163SOL    HW215126   3.455   1.244   8.946  1.0488 -0.5088 -0.4209
 1164SOL     OW15127   0.330   3.828   2.077 -0.5222 -0.2615 -0.0107
 1164SOL    HW115128   0.411   3.815   2.127 -0.1633  2.6523  0.1868
 1164SOL    HW215129   0.340   3.915   2.038 -0.7931 -0.0806  0.3199
 1165SOL     OW15130   4.392   1.339   3.169 -0.3071 -0.2642 -0.5421
 1165SOL    HW115131   4.402   1.430   3.140  2.8676 -0.3574  0.2648
 1165SOL    HW215132   4.480   1.326   3.207 -0.7203  0.1905  0.5857
 1166SOL     OW15133   0.761   2.946  15.866 -0.1720 -0.1343 -0.1034
 1166SOL    HW115134   0.691   2.921  15.927  1.4319 -0.5752  1.5318
 1166SOL    HW215135   0.753   3.041  15.868 -3.9677 -0.4728  2.2816
 1167SOL     OW15136   1.531   4.151  16.898  0.0382 -0.3889  0.3064
 1167SOL    HW115137   1.473   4.132  16.824 -1.4714 -0.5016  1.5210
 1167SOL    HW215138   1.572   4.066  16.916  0.6190 -0.6959 -2.5734
 1168SOL     OW15139   2.229   2.111   7.408 -0.3372  0.2957  0.1871
 1168SOL    HW115140   2.312   2.064   7.407  1.0394  2.6450  2.3298
 1168SOL    HW215141   2.214   2.143   7.497 -0.9496 -0.1713  0.2486
 1169SOL     OW15142   3.060   2.364   7.227 -0.1980  0.2885 -0.1617
 1169SOL    HW115143   3.139   2.354   7.279 -0.1417 -1.6260 -0.6094
 1169SOL    HW215144   3.036   2.455   7.247 -1.6708 -0.1903  0.2694
 1170SOL     OW15145   1.570   3.108   1.927  0.0262  0.0970 -1.1973
 1170SOL    HW115146   1.592   3.091   1.836  0.1745 -1.8332 -0.7911
 1170SOL    HW215147   1.653   3.078   1.965 -0.6565 -1.2312 -0.7772
 1171SOL     OW15148   4.029   4.560   6.525  1.1030  0.0229 -0.3252
 1171SOL    HW115149   3.964   4.530   6.461 -1.4917  0.7847  1.9725
 1171SOL    HW215150   4.114   4.552   6.482 -0.0605  1.1433 -2.8560
 1172SOL     OW15151   3.288   0.618  14.152 -0.5232  0.2359  0.0947
 1172SOL    HW115152   3.226   0.583  14.088 -2.2113 -0.3221  2.0525
 1172SOL    HW215153   3.326   0.541  14.196  0.0879  0.2616 -0.3872
 1173SOL     OW15154   2.678   1.822   4.518 -0.2288  0.4179  0.2607
 1173SOL    HW115155   2.751   1.866   4.474 -0.8742 -0.1178 -1.3314
 1173SOL    HW215156   2.718   1.738   4.538 -0.6349  0.0906 -0.3017
 1174SOL     OW15157   0.596   1.441  15.571 -0.0516 -0.6977 -0.1007
 1174SOL    HW115158   0.574   1.525  15.610  1.2179  0.4093 -1.7722
 1174SOL    HW215159   0.520   1.420  15.517 -0.6250 -0.4745  0.6259
 1175SOL     OW15160   1.760   4.181   5.786 -0.3070 -0.2656 -1.0208
 1175SOL    HW115161   1.775   4.274   5.769  0.6655 -0.4038 -0.8932
 1175SOL    HW215162   1.664   4.173   5.782 -0.3651  0.8156 -1.7315
 1176SOL     OW15163   3.562   1.645   4.153 -0.3200 -0.3044  0.7114
 1176SOL    HW115164   3.530   1.568   4.105  1.0043 -0.2151 -0.2937
 1176SOL    HW215165   3.548   1.716   4.091  0.4362 -1.9062 -1.2927
 1177SOL     OW15166   1.234   2.780   3.587  0.9674 -0.3203 -0.4178
 1177SOL    HW115167   1.216   2.846   3.519  0.5479  1.1981  1.1738
 1177SOL    HW215168   1.145   2.774   3.621  1.8136  2.8418  2.3328
 1178SOL     OW15169   2.136   2.533   2.266  0.4584  0.6113  0.6484
 1178SOL    HW115170   2.106   2.624   2.264 -1.1055  0.0719  0.2184
 1178SOL    HW215171   2.181   2.523   2.350  2.7313  0.1200 -0.6259
 1179SOL     OW15172   3.163   3.016  17.616 -0.7457  0.4872 -0.8996
 1179SOL    HW115173   3.164   3.110  17.634 -2.4879  0.0693  1.4226
 1179SOL    HW215174   3.223   3.013  17.542 -1.0008  1.2615 -1.1355
 1180SOL     OW15175   2.356   1.775  14.910  0.2777 -0.2041 -0.0300
 1180SOL    HW115176   2.262   1.767  14.895  0.4434 -1.7899 -0.2105
 1180SOL    HW215177   2.399   1.733  14.835 -1.3544 -0.7139 -0.6674
 1181SOL     OW15178   2.256   0.356   3.838  0.3579  1.0567  0.4814
 1181SOL    HW115179   2.308   0.291   3.885  1.3910  0.9889 -0.7770
 1181SOL    HW215180   2.326   0.403   3.795  0.7406 -1.6646 -1.8610
 1182SOL     OW15181   3.506   3.508   4.353  0.0795 -0.2005 -0.4419
 1182SOL    HW115182   3.588   3.476   4.314  1.3607  0.4659  1.6714
 1182SOL    HW215183   3.436   3.474   4.298 -0.1868 -0.3394 -0.0174
 1183SOL     OW15184   1.388   2.537   5.873 -0.3373  0.3445 -0.1337
 1183SOL    HW115185   1.439   2.607   5.913  0.5916 -0.8907  0.8580
 1183SOL    HW215186   1.448   2.518   5.801 -1.3149  0.2529 -0.9349
 1184SOL     OW15187   4.271   0.810   8.119 -0.6216 -0.2467 -0.2641
 1184SOL    HW115188   4.340   0.751   8.150 -1.0430 -0.3289  0.5088
 1184SOL    HW215189   4.298   0.830   8.029  2.5266 -0.0076  0.7162
 1185SOL     OW15190   1.566   2.183   3.747 -0.0135  0.5644 -0.2330
 1185SOL    HW115191   1.552   2.215   3.836 -0.0749 -3.4433  1.2016
 1185SOL    HW215192   1.542   2.261   3.696  0.7656 -0.4068 -2.0873
 1186SOL     OW15193   3.559   0.377  10.658 -0.0516 -0.3855 -0.1447
 1186SOL    HW115194   3.602   0.415  10.581 -3.1160 -2.9522 -3.1044
 1186SOL    HW215195   3.600   0.291  10.657  0.1252 -0.3131  1.0971
 1187SOL     OW15196   0.434   0.771   3.785 -0.4952  0.4596  0.5869
 1187SOL    HW115197   0.455   0.744   3.695 -0.8382  2.1609 -0.0134
 1187SOL    HW215198   0.343   0.796   3.770  0.4077  2.2960 -1.9955
 1188SOL     OW15199   1.932   0.210  10.438  0.1895  0.1695  0.0836
 1188SOL    HW115200   1.967   0.170  10.517  0.0089  0.7555  0.4595
 1188SOL    HW215201   1.850   0.249  10.467 -1.0646 -1.2810 -1.5228
 1189SOL     OW15202   3.053   2.651   6.779  0.2564 -0.2633  0.7062
 1189SOL    HW115203   3.045   2.556   6.770  0.6906 -0.3436  1.2183
 1189SOL    HW215204   2.964   2.683   6.763  0.1457 -0.4543  0.9416
 1190SOL     OW15205   3.697   1.898   9.412  0.1848  0.1400  0.4078
 1190SOL    HW115206   3.779   1.944   9.392  0.4571 -0.6865 -0.3914
 1190SOL    HW215207   3.636   1.964   9.380 -1.7368 -0.3187  3.1669
 1191SOL     OW15208   2.095   1.062   6.148  0.0868 -0.3713 -0.7499
 1191SOL    HW115209   2.131   1.117   6.218  1.2760 -0.1492 -1.5277
 1191SOL    HW215210   2.082   0.982   6.199  2.9292  1.1623  2.3927
 1192SOL     OW15211   1.857   2.475  10.821 -0.1841  0.0612 -0.0766
 1192SOL    HW115212   1.769   2.510  10.837 -0.0163  1.3001 -1.8501
 1192SOL    HW215213   1.830   2.386  10.798 -0.6363 -0.5094  2.7555
 1193SOL     OW15214   4.572   4.385   2.955 -0.3416  0.5291 -0.1863
 1193SOL    HW115215   4.595   4.441   2.881 -0.4373  1.2000  0.2880
 1193SOL    HW215216   4.651   4.395   3.008 -1.1327  1.5058  0.8166
 1194SOL     OW15217   0.340   4.291   1.586  0.5341 -0.0785 -0.0644
 1194SOL    HW115218   0.288   4.366   1.556 -0.1901 -0.7813 -0.5490
 1194SOL    HW215219   0.268   4.246   1.629  1.8087 -0.9980  1.1039
 1195SOL     OW15220   1.810   0.682   9.425  0.1893  0.4077  0.0590
 1195SOL    HW115221   1.898   0.673   9.461  0.3169  0.3859 -0.2567
 1195SOL    HW215222   1.797   0.777   9.423  0.1851  0.4470  1.7647
 1196SOL     OW15223   3.950   1.569   2.790  0.0821 -0.3713  0.1644
 1196SOL    HW115224   3.943   1.586   2.696  0.6971 -0.6399  0.0705
 1196SOL    HW215225   3.912   1.481   2.794  0.0228 -0.4710 -2.5898
 1197SOL     OW15226   1.681   0.718  17.482 -0.5662  0.3679  0.8542
 1197SOL    HW115227   1.618   0.760  17.541 -0.0547  3.3533 -0.7645
 1197SOL    HW215228   1.757   0.769  17.510  0.5654 -0.8642  0.0858
 1198SOL     OW15229   0.342   2.619   2.651  0.5785 -0.2717  0.3085
 1198SOL    HW115230   0.346   2.577   2.737  0.0094  2.2986  1.5923
 1198SOL    HW215231   0.419   2.582   2.609 -1.6810 -0.5573 -3.5018
 1199SOL     OW15232   2.541   2.824  15.359  0.6478 -0.2692  0.3774
 1199SOL    HW115233   2.613   2.883  15.335  0.7752 -0.9386 -0.9182
 1199SOL    HW215234   2.473   2.856  15.299  0.9521 -1.6971 -0.7196
 1200SOL     OW15235   1.125   4.053   1.502 -0.1614 -0.0750  0.1203
 1200SOL    HW115236   1.185   4.117   1.464 -1.3600  2.0629  1.7852
 1200SOL    HW215237   1.179   4.015   1.572 -0.6137 -0.5355  0.2193
 1201SOL     OW15238   0.626   4.087   2.292 -0.8544  0.0667  0.3123
 1201SOL    HW115239   0.607   3.993   2.298  0.8008 -0.2938 -0.0297
 1201SOL    HW215240   0.610   4.108   2.200 -1.5187 -2.4741 -0.1650
 1202SOL     OW15241   1.038   0.179   9.744  0.0594  0.4705 -0.2298
 1202SOL    HW115242   1.110   0.117   9.739 -1.2050 -0.7292 -3.4031
 1202SOL    HW215243   0.991   0.142   9.669 -1.3599  1.8980 -0.0635
 1203SOL     OW15244   2.468   2.523  13.013 -0.0658  0.1105 -0.3046
 1203SOL    HW115245   2.440   2.488  13.098  0.0639  1.8305  0.4507
 1203SOL    HW215246   2.560   2.504  13.030 -0.2866 -0.9534 -0.3327
 1204SOL     OW15247   0.569   1.571   5.029  0.4690  0.1330  0.1027
 1204SOL    HW115248   0.611   1.512   5.092 -0.2073  0.3688  0.7808
 1204SOL    HW215249   0.567   1.529   4.943  3.1566 -0.4440  0.3469
 1205SOL     OW15250   0.290   0.253   9.617 -0.4124 -0.4324  0.2017
 1205SOL    HW115251   0.324   0.216   9.536  1.6431 -1.6535  1.6233
 1205SOL    HW215252   0.219   0.190   9.633 -2.3355  1.8089  0.5410
 1206SOL     OW15253   1.926   3.948   3.532  0.1662 -0.0988  0.1579
 1206SOL    HW115254   1.912   4.029   3.581 -3.4837 -0.5913 -0.0697
 1206SOL    HW215255   1.984   3.985   3.465  0.7214  0.3509  0.8929
 1207SOL     OW15256   2.369   0.378   2.074 -0.4494  0.0962  0.1305
 1207SOL    HW115257   2.358   0.385   2.169  1.7037 -0.8881  0.4465
 1207SOL    HW215258   2.302   0.311   2.060 -1.2889  1.0339 -0.4115
 1208SOL     OW15259   3.253   1.419   0.940 -0.1015 -0.0282 -0.2664
 1208SOL    HW115260   3.333   1.385   0.898  0.1356 -0.3581  0.4575
 1208SOL    HW215261   3.189   1.430   0.869  0.3618 -0.5845 -0.7788
 1209SOL     OW15262   3.685   0.548  12.792 -0.2415 -0.6659 -0.4751
 1209SOL    HW115263   3.649   0.604  12.723 -1.2803 -0.5019  0.2023
 1209SOL    HW215264   3.780   0.557  12.779 -0.3735 -0.2776 -1.1872
 1210SOL     OW15265   3.173   3.664  15.884  0.5203 -0.0606  0.5107
 1210SOL    HW115266   3.148   3.689  15.973 -0.1343  1.6505 -0.1494
 1210SOL    HW215267   3.179   3.569  15.881 -0.6374 -0.1524  1.3723
 1211SOL     OW15268   0.385   3.812   3.833 -0.4784 -0.6187 -0.7838
 1211SOL    HW115269   0.446   3.883   3.853 -1.1121 -0.0522 -0.8574
 1211SOL    HW215270   0.427   3.732   3.865 -2.4848 -0.9549  0.9881
 1212SOL     OW15271   2.407   2.206   6.716 -0.1016  0.1538 -0.2286
 1212SOL    HW115272   2.368   2.226   6.631 -1.6873 -2.1838 -0.0674
 1212SOL    HW215273   2.437   2.117   6.698 -0.0117  0.5942 -2.1750
 1213SOL     OW15274   2.810   2.787   6.385 -0.3348 -0.1042  0.3722
 1213SOL    HW115275   2.818   2.728   6.311 -0.8438  2.6154 -1.8319
 1213SOL    HW215276   2.720   2.781   6.416 -0.1006 -1.2145  0.8221
 1214SOL     OW15277   0.918   0.681   6.215 -0.1449  0.3749  0.5919
 1214SOL    HW115278   1.002   0.709   6.249  0.5187 -0.2708 -0.5289
 1214SOL    HW215279   0.932   0.655   6.124 -1.2376  0.0312  0.5183
 1215SOL     OW15280   0.646   1.108   2.216  0.2162  0.4068  0.1652
 1215SOL    HW115281   0.722   1.058   2.246 -0.3412  0.3107  1.3931
 1215SOL    HW215282   0.662   1.193   2.257  0.3996  0.5265 -0.1564
 1216SOL     OW15283   2.351   3.813   4.488 -0.1117  0.8079  0.0508
 1216SOL    HW115284   2.289   3.862   4.541 -0.4225  1.0574 -0.5385
 1216SOL    HW215285   2.379   3.747   4.551  2.2547  0.7766 -1.0272
 1217SOL     OW15286   0.234   3.221   6.174 -0.4488  0.3250 -0.3471
 1217SOL    HW115287   0.142   3.247   6.180  0.0308  2.6623 -2.8785
 1217SOL    HW215288   0.235   3.132   6.210  1.7588 -0.2944 -1.9187
 1218SOL     OW15289   0.818   3.849   3.811 -0.0354 -0.0012 -0.5704
 1218SOL    HW115290   0.822   3.824   3.718 -1.8744 -1.2560 -0.3005
 1218SOL    HW215291   0.801   3.766   3.855 -1.3789 -0.0607 -1.2097
 1219SOL     OW15292   1.658   4.100   9.325 -0.4072 -0.3504 -0.0247
 1219SOL    HW115293   1.654   4.120   9.418 -1.1585  2.3112 -0.6276
 1219SOL    HW215294   1.713   4.177   9.306  0.8351 -1.4967 -1.0461
 1220SOL     OW15295   2.034   4.679   7.899 -0.5032  0.4301  0.9588
 1220SOL    HW115296   2.123   4.679   7.933  0.1858 -1.1331 -0.8396
 1220SOL    HW215297   1.992   4.708   7.980  0.1459  0.3388  1.3262
 1221SOL     OW15298   2.602   2.766   7.870 -1.0233 -0.2310  0.3767
 1221SOL    HW115299   2.516   2.730   7.844 -0.8700 -0.8628  0.7358
 1221SOL    HW215300   2.652   2.684   7.865 -0.7241  0.0924 -2.2079
 1222SOL     OW15301   4.469   2.502   7.811  0.4988  0.2640  0.6847
 1222SOL    HW115302   4.551   2.479   7.767 -0.1802  0.3577 -0.6243
 1222SOL    HW215303   4.495   2.548   7.892 -0.1368  1.8061  0.0291
 1223SOL     OW15304   3.802   2.275  14.451  0.0485 -0.4033  0.6271
 1223SOL    HW115305   3.824   2.201  14.508 -2.7963 -2.4717 -0.9421
 1223SOL    HW215306   3.746   2.330  14.505  0.3675  0.7610 -0.2256
 1224SOL     OW15307   0.520   2.465   7.938 -0.1549 -0.4517  0.1289
 1224SOL    HW115308   0.538   2.522   8.013  0.0242 -1.2199  0.6788
 1224SOL    HW215309   0.595   2.405   7.945 -1.9628 -2.7493 -0.3533
 1225SOL     OW15310   1.575   1.496  11.915 -0.1876 -0.1196  0.4065
 1225SOL    HW115311   1.581   1.571  11.974  0.6263 -1.8253  2.4888
 1225SOL    HW215312   1.563   1.545  11.834  0.0894 -0.2691  0.2739
 1226SOL     OW15313   2.542   3.471   9.293 -0.1886 -0.3140  0.2507
 1226SOL    HW115314   2.469   3.441   9.348 -0.5878  0.9905  0.4123
 1226SOL    HW215315   2.596   3.393   9.305 -0.4081 -0.5828 -0.5586
 1227SOL     OW15316   0.304   0.977  12.416 -0.0437  0.0354  0.4605
 1227SOL    HW115317   0.312   0.946  12.506  0.7823 -0.0858  0.3533
 1227SOL    HW215318   0.394   0.994  12.388 -0.1203  0.0510  0.2213
 1228SOL     OW15319   1.638   1.672  12.439 -0.8087  0.2215 -0.1364
 1228SOL    HW115320   1.702   1.670  12.510 -2.4728  3.2742  1.4487
 1228SOL    HW215321   1.563   1.637  12.488 -0.8454  1.9001  0.9945
 1229SOL     OW15322   4.363   2.256   7.304  0.1801 -0.3776  0.2584
 1229SOL    HW115323   4.352   2.270   7.398 -1.2704  3.0308 -0.4134
 1229SOL    HW215324   4.450   2.297   7.301 -0.1739  0.3231 -0.4500
 1230SOL     OW15325   2.181   0.809   3.636  0.4086 -0.6784 -0.9343
 1230SOL    HW115326   2.100   0.806   3.584 -0.7115 -0.1937  0.7761
 1230SOL    HW215327   2.233   0.741   3.593 -0.8607 -1.2777 -1.5569
 1231SOL     OW15328   4.467   3.807  11.119 -0.2302  0.2992  0.7492
 1231SOL    HW115329   4.389   3.830  11.069  0.2609 -2.6654 -1.4063
 1231SOL    HW215330   4.506   3.735  11.069 -2.3588 -0.5220  0.2506
 1232SOL     OW15331   2.889   3.153   3.348  0.3141  0.4414  0.8396
 1232SOL    HW115332   2.869   3.077   3.294  0.4956 -0.4213  1.9768
 1232SOL    HW215333   2.832   3.137   3.424 -0.0916 -1.0856  0.2119
 1233SOL     OW15334   3.980   0.739  14.139  0.0742  0.7459  0.4875
 1233SOL    HW115335   4.069   0.773  14.147  0.0652  1.0258 -0.6224
 1233SOL    HW215336   3.972   0.693  14.056 -1.6917  0.0560  1.0373
 1234SOL     OW15337   2.942   4.368  10.829 -0.0981  0.2353  0.6117
 1234SOL    HW115338   2.941   4.459  10.800 -0.5427 -0.6177 -2.0585
 1234SOL    HW215339   2.853   4.354  10.861  0.7647 -1.0749  2.4823
 1235SOL     OW15340   1.707   2.850   9.297 -0.4514 -0.2301 -0.8220
 1235SOL    HW115341   1.771   2.794   9.340  1.3847  1.4313 -1.3510
 1235SOL    HW215342   1.666   2.875   9.379  2.3414  1.1570  0.1717
 1236SOL     OW15343   1.763   2.495   5.270  0.4502  0.4654  0.0325
 1236SOL    HW115344   1.838   2.470   5.324  2.0774  0.4192 -2.2493
 1236SOL    HW215345   1.687   2.463   5.318  1.8401  1.0159  2.6200
 1237SOL     OW15346   1.838   3.648  10.560 -0.5656  0.8293 -0.4588
 1237SOL    HW115347   1.808   3.730  10.601 -0.5826  0.2795  0.6165
 1237SOL    HW215348   1.769   3.586  10.583 -0.6801  1.0336 -0.2589
 1238SOL     OW15349   3.029   0.994   5.013  0.4120 -0.1161 -0.1582
 1238SOL    HW115350   2.993   1.080   5.035  2.1000  0.1663  1.5686
 1238SOL    HW215351   3.120   1.021   4.994  0.1984  1.5864  1.2594
 1239SOL     OW15352   4.336   1.667  16.161  0.2854  0.4039  0.2384
 1239SOL    HW115353   4.416   1.675  16.214  1.2746 -2.0285 -0.8965
 1239SOL    HW215354   4.310   1.759  16.168 -0.6212  0.2531 -1.1531
 1240SOL     OW15355   1.117   3.842   1.033 -0.0629  0.2993 -0.3199
 1240SOL    HW115356   1.174   3.776   1.071  0.0440  1.7856  2.1165
 1240SOL    HW215357   1.082   3.890   1.108  0.0793  0.7739 -0.5518
 1241SOL     OW15358   2.181   4.070   3.355 -0.7597 -0.0817  0.5612
 1241SOL    HW115359   2.193   3.978   3.375  1.8688  0.2655  0.5462
 1241SOL    HW215360   2.259   4.101   3.309 -1.0903 -0.4478 -0.2599
 1242SOL     OW15361   1.935   3.319   7.725 -0.9448 -0.0951 -0.4202
 1242SOL    HW115362   1.962   3.403   7.762 -1.3269 -0.0660 -0.2118
 1242SOL    HW215363   1.869   3.296   7.790  0.5718 -0.2463  1.0849
 1243SOL     OW15364   2.059   0.780   2.392  0.0882  0.3130 -0.0542
 1243SOL    HW115365   1.974   0.767   2.352 -1.0593  0.5910  2.3048
 1243SOL    HW215366   2.109   0.802   2.313  1.1895  0.4325  0.6802
 1244SOL     OW15367   4.669   4.349   8.880  0.9206 -0.1906  0.0732
 1244SOL    HW115368   4.678   4.434   8.922  0.6895 -0.8586  1.4445
 1244SOL    HW215369   4.574   4.344   8.894  1.0000 -0.2635  0.5701
 1245SOL     OW15370   4.096   2.868   5.392 -0.4538  0.2976  0.0796
 1245SOL    HW115371   4.154   2.796   5.368 -2.3973 -0.8712 -1.1114
 1245SOL    HW215372   4.071   2.901   5.306 -0.4893  2.5174  0.9424
 1246SOL     OW15373   0.167   3.488   1.207 -0.3209  0.1108  0.2936
 1246SOL    HW115374   0.251   3.531   1.222 -0.0774  0.2467 -1.5295
 1246SOL    HW215375   0.151   3.446   1.292 -1.6794  0.0640  0.0135
 1247SOL     OW15376   3.828   2.573  12.288  0.0779  0.0019  0.1992
 1247SOL    HW115377   3.864   2.590  12.201 -1.9729  0.6324 -0.5199
 1247SOL    HW215378   3.737   2.601  12.292  1.0418  3.0018  0.6356
 1248SOL     OW15379   3.929   4.053   7.160 -0.5423  0.5202  0.2161
 1248SOL    HW115380   3.860   4.068   7.225 -2.0593 -1.3884 -0.9610
 1248SOL    HW215381   3.992   3.996   7.203 -1.4735 -1.8715 -1.6240
 1249SOL     OW15382   3.187   4.594   3.689 -0.0312 -0.1445  0.2869
 1249SOL    HW115383   3.095   4.571   3.674  1.1592 -3.8546 -1.3985
 1249SOL    HW215384   3.200   4.674   3.639 -0.8600 -0.4038 -0.3580
 1250SOL     OW15385   4.506   1.462   2.279 -0.1383 -0.0325  0.1089
 1250SOL    HW115386   4.576   1.398   2.271  2.4701  2.8923 -0.2733
 1250SOL    HW215387   4.430   1.434   2.229 -0.2262  1.3352 -0.5327
 1251SOL     OW15388   0.303   3.463   6.128 -0.0836  0.2454  0.1398
 1251SOL    HW115389   0.382   3.462   6.181 -0.1605  0.2607  0.2534
 1251SOL    HW215390   0.263   3.377   6.144  0.3426  0.0598  0.2261
 1252SOL     OW15391   3.692   1.767   9.992  0.7302 -0.3844 -0.3617
 1252SOL    HW115392   3.655   1.852   9.969  0.9348 -0.4622 -0.9634
 1252SOL    HW215393   3.684   1.715   9.912 -0.3543  1.0401 -1.1677
 1253SOL     OW15394   1.892   0.381  14.419 -0.0609  0.3848 -0.1940
 1253SOL    HW115395   1.978   0.417  14.439  0.0868 -1.9219  3.2253
 1253SOL    HW215396   1.907   0.292  14.451 -0.2089  0.4637  0.0996
 1254SOL     OW15397   0.694   0.645  11.040 -0.6406  0.5257  0.2775
 1254SOL    HW115398   0.785   0.639  11.010 -0.9367 -1.4863 -0.1951
 1254SOL    HW215399   0.650   0.626  10.958 -0.2879 -0.9725  0.4313
 1255SOL     OW15400   2.460   0.899   5.407 -0.1296  0.4286  0.6631
 1255SOL    HW115401   2.482   0.866   5.320  2.9200 -0.1262  1.6439
 1255SOL    HW215402   2.435   0.989   5.388  0.2429  0.3872 -0.0308
 1256SOL     OW15403   4.171   0.850   3.972  0.4665  0.3006  0.8128
 1256SOL    HW115404   4.204   0.892   3.892  0.1452 -0.6559  0.1831
 1256SOL    HW215405   4.219   0.900   4.038 -1.8283  2.7194  0.6186
 1257SOL     OW15406   4.336   3.036  13.284  0.0277 -0.1364  0.3280
 1257SOL    HW115407   4.313   3.013  13.194  1.6047  1.0550 -0.3637
 1257SOL    HW215408   4.420   2.990  13.286 -0.3258 -0.8369 -1.1372
 1258SOL     OW15409   2.808   1.986  15.838  0.4478  0.4769 -0.1858
 1258SOL    HW115410   2.762   1.957  15.760  1.9640  0.8309 -1.2166
 1258SOL    HW215411   2.751   2.055  15.871  0.4444  0.9714 -1.2268
 1259SOL     OW15412   2.838   4.577  12.219 -0.1627  0.4068 -0.0650
 1259SOL    HW115413   2.796   4.491  12.214  0.1643  0.3798 -2.3777
 1259SOL    HW215414   2.892   4.574  12.140  0.3565  0.6445  0.2820
 1260SOL     OW15415   4.212   1.473  16.730  0.5943  0.0865 -0.4300
 1260SOL    HW115416   4.202   1.529  16.807 -1.8524 -0.5575 -0.2927
 1260SOL    HW215417   4.241   1.534  16.662 -1.7347  1.3625 -0.2556
 1261SOL     OW15418   3.535   2.290  14.850 -0.3546 -0.1845 -0.5225
 1261SOL    HW115419   3.602   2.329  14.907 -0.9385  3.0508 -2.0337
 1261SOL    HW215420   3.577   2.206  14.833  0.8446  0.0953  1.0353
 1262SOL     OW15421   0.903   3.060   6.364  0.4383  0.5134  0.6208
 1262SOL    HW115422   0.873   3.110   6.440 -1.0800  1.7765 -0.8075
 1262SOL    HW215423   0.992   3.038   6.394  0.0389 -1.4789  0.3860
 1263SOL     OW15424   1.104   3.384   6.584 -0.6934 -0.1753 -0.5105
 1263SOL    HW115425   1.055   3.422   6.511 -0.9027 -0.5982 -0.5941
 1263SOL    HW215426   1.190   3.387   6.542 -0.4905  0.8163  0.0024
 1264SOL     OW15427   1.731   2.626   7.681 -0.1038  0.4537 -0.2119
 1264SOL    HW115428   1.685   2.542   7.690 -1.3930  1.3154  1.3411
 1264SOL    HW215429   1.714   2.671   7.598 -2.0099  1.2690  0.6044
 1265SOL     OW15430   2.043   0.626   7.463  0.2295  0.1205 -0.4504
 1265SOL    HW115431   2.022   0.587   7.378  0.3288  1.9302 -1.3121
 1265SOL    HW215432   2.135   0.603   7.467  0.2866  0.5269  0.6846
 1266SOL     OW15433   0.355   2.926   8.870 -0.5995  0.1078  0.6496
 1266SOL    HW115434   0.262   2.946   8.877 -0.8563 -0.2960 -1.5561
 1266SOL    HW215435   0.369   2.857   8.935 -1.7201 -1.0949 -0.3777
 1267SOL     OW15436   2.765   4.595   3.100  0.0038 -0.0493  0.4589
 1267SOL    HW115437   2.796   4.545   3.024  1.5434  2.5235 -0.6087
 1267SOL    HW215438   2.775   4.680   3.057  0.2561  0.0159  0.6446
 1268SOL     OW15439   1.811   2.556   4.808  0.2499 -0.0771 -0.8169
 1268SOL    HW115440   1.884   2.599   4.764  0.3888  0.6149  0.0759
 1268SOL    HW215441   1.846   2.540   4.895  1.0412  1.6045 -0.8258
 1269SOL     OW15442   0.181   4.190   7.272  0.0670 -0.3152 -0.0314
 1269SOL    HW115443   0.109   4.139   7.309 -0.0427 -0.6816 -0.7573
 1269SOL    HW215444   0.133   4.232   7.201  1.1169 -0.4920 -0.8418
 1270SOL     OW15445   0.722   0.165   8.763  0.0859 -0.1214  0.0159
 1270SOL    HW115446   0.796   0.215   8.796  0.7497 -0.1450 -1.4699
 1270SOL    HW215447   0.705   0.215   8.683 -0.9632 -2.3427 -1.1498
 1271SOL     OW15448   4.311   0.522   7.036  0.0363  0.4332 -0.1129
 1271SOL    HW115449   4.357   0.513   7.119  2.2668  2.0173 -1.1728
 1271SOL    HW215450   4.316   0.437   6.993 -0.9496  1.2893 -1.9271
 1272SOL     OW15451   0.829   1.759   3.939  0.9146  0.3601  0.3295
 1272SOL    HW115452   0.887   1.725   4.008  0.8162 -2.2641 -0.9115
 1272SOL    HW215453   0.749   1.754   3.991  0.0786  0.2113 -0.9911
 1273SOL     OW15454   2.780   1.148   3.311 -0.0929 -0.6743 -0.5235
 1273SOL    HW115455   2.750   1.231   3.348 -0.5556  0.3155 -3.0737
 1273SOL    HW215456   2.736   1.089   3.371  0.3862 -0.5743 -0.0705
 1274SOL     OW15457   2.822   4.143   2.735  0.5408 -0.2588 -0.5675
 1274SOL    HW115458   2.852   4.138   2.644  0.2020  0.5458 -0.7228
 1274SOL    HW215459   2.898   4.114   2.786  0.5996 -1.8569 -1.5527
 1275SOL     OW15460   1.395   2.284   5.681  0.4028 -0.1625  0.3682
 1275SOL    HW115461   1.382   2.191   5.666  0.3207  0.0365 -0.8164
 1275SOL    HW215462   1.303   2.310   5.674  0.7717  0.6902 -1.3279
 1276SOL     OW15463   0.629   0.843  17.454  0.3451  0.3006 -0.3502
 1276SOL    HW115464   0.697   0.902  17.421 -0.6848  1.5938 -0.1494
 1276SOL    HW215465   0.648   0.752  17.434  0.4158  0.4127 -0.7948
 1277SOL     OW15466   4.237   0.421   5.408  0.0153  0.0137  0.2636
 1277SOL    HW115467   4.291   0.344   5.390  1.9063  0.9468  2.1371
 1277SOL    HW215468   4.179   0.376   5.470 -2.2574  0.6039 -1.3911
 1278SOL     OW15469   1.570   3.707   6.524  0.2806 -0.2133  0.0072
 1278SOL    HW115470   1.536   3.794   6.506  4.1868  1.5375  1.1398
 1278SOL    HW215471   1.546   3.713   6.616 -0.8068  2.0954 -0.4277
 1279SOL     OW15472   1.650   3.199   7.649  0.0193  0.4985  0.5119
 1279SOL    HW115473   1.582   3.255   7.688 -1.1711  0.1082 -1.0068
 1279SOL    HW215474   1.729   3.225   7.697  1.1454 -0.7527 -0.6799
 1280SOL     OW15475   2.793   0.626   9.887  0.0508  0.5806  0.5049
 1280SOL    HW115476   2.877   0.668   9.873 -0.5669  2.2557  1.8754
 1280SOL    HW215477   2.788   0.586   9.800  0.0623 -0.2486  0.8771
 1281SOL     OW15478   0.350   0.223   4.336  0.3071 -0.1588 -0.8649
 1281SOL    HW115479   0.310   0.235   4.250 -0.5184  0.2446 -0.4246
 1281SOL    HW215480   0.434   0.183   4.312  1.2416  1.8026 -0.8610
 1282SOL     OW15481   0.226   4.502   7.490 -0.3325 -0.1483 -1.0320
 1282SOL    HW115482   0.192   4.455   7.567  1.5195 -0.5042 -0.4311
 1282SOL    HW215483   0.142   4.533   7.456 -0.8461 -0.0337  0.3414
 1283SOL     OW15484   2.340   2.891  16.033  0.1380  0.4651  0.0504
 1283SOL    HW115485   2.257   2.914  15.991 -0.0543 -0.5243 -0.1163
 1283SOL    HW215486   2.397   2.966  16.015 -1.5753  2.1235  1.6034
 1284SOL     OW15487   3.182   2.054   8.743 -0.0850 -0.6316  0.1939
 1284SOL    HW115488   3.170   2.142   8.778  0.2229 -0.5927  0.1991
 1284SOL    HW215489   3.277   2.045   8.749 -0.0131 -0.3305 -0.4246
 1285SOL     OW15490   4.514   1.047   8.667  0.6164 -0.2482  0.2030
 1285SOL    HW115491   4.526   0.982   8.598 -1.7437 -1.6399  1.0888
 1285SOL    HW215492   4.487   1.123   8.615  4.0723  0.5625 -0.3693
 1286SOL     OW15493   0.717   2.923   4.220  0.1131  0.1463  0.3254
 1286SOL    HW115494   0.778   2.929   4.147  1.8505 -1.8437  1.5996
 1286SOL    HW215495   0.724   2.830   4.243  2.9129  0.4430  0.5906
 1287SOL     OW15496   1.316   0.793   3.713  0.5579 -0.4406 -0.1220
 1287SOL    HW115497   1.297   0.711   3.666  2.0107 -1.2229  0.6333
 1287SOL    HW215498   1.251   0.849   3.671 -0.8679 -1.4360  0.7488
 1288SOL     OW15499   1.909   0.219   3.690  0.2348  0.9158 -0.4190
 1288SOL    HW115500   1.945   0.140   3.730 -2.0468 -0.5588 -1.2771
 1288SOL    HW215501   1.858   0.169   3.627  0.4718 -0.2697  0.3407
 1289SOL     OW15502   3.683   3.516  10.931  0.0311  0.3670 -0.4528
 1289SOL    HW115503   3.684   3.534  11.025 -0.6055  1.1583 -0.5985
 1289SOL    HW215504   3.772   3.525  10.897 -0.1482  0.5725 -0.8645
 1290SOL     OW15505   3.791   2.437   2.093  0.1879 -0.1207  0.2345
 1290SOL    HW115506   3.814   2.521   2.132  0.3352  0.9083 -2.0644
 1290SOL    HW215507   3.766   2.385   2.169  1.2665 -2.4939 -1.0250
 1291SOL     OW15508   0.559   2.480  14.307 -0.3651 -0.4938 -0.3446
 1291SOL    HW115509   0.637   2.480  14.251 -1.5409  0.2545 -1.9771
 1291SOL    HW215510   0.554   2.575  14.316  0.3204 -0.5244  0.3402
 1292SOL     OW15511   4.181   2.829   0.070  0.3756  0.0879  0.3526
 1292SOL    HW115512   4.202   2.780  17.746 -0.5522  0.1844  0.0478
 1292SOL    HW215513   4.264   2.849   0.113  1.4534 -0.7823 -1.2956
 1293SOL     OW15514   0.323   0.872   0.798  0.2743 -0.1946  0.9495
 1293SOL    HW115515   0.317   0.863   0.703 -1.9642 -0.9308  1.1536
 1293SOL    HW215516   0.406   0.829   0.818 -0.6091 -1.2811  2.2889
 1294SOL     OW15517   3.687   0.468  10.401 -0.3279  0.0951  0.8896
 1294SOL    HW115518   3.759   0.499  10.456 -1.1805  1.0046  1.4573
 1294SOL    HW215519   3.649   0.546  10.361  1.9826  0.1659 -1.2580
 1295SOL     OW15520   3.021   2.358   8.363  0.0628 -0.1438  0.1731
 1295SOL    HW115521   2.926   2.348   8.365 -0.0132  0.7004  0.8081
 1295SOL    HW215522   3.042   2.267   8.342  0.0477 -0.5060  1.7320
 1296SOL     OW15523   1.869   1.782   8.852  0.5726  0.1115  0.5023
 1296SOL    HW115524   1.786   1.806   8.811  0.6487 -1.2599 -0.4550
 1296SOL    HW215525   1.905   1.746   8.770 -0.0943  0.7161 -0.0585
 1297SOL     OW15526   0.335   3.424   6.627 -0.3738  0.0604 -0.3613
 1297SOL    HW115527   0.354   3.440   6.720 -1.4396  0.8290 -0.2698
 1297SOL    HW215528   0.272   3.494   6.610  0.3310  0.3089 -1.9239
 1298SOL     OW15529   2.141   0.518   5.592 -0.9561 -0.6151  0.5824
 1298SOL    HW115530   2.180   0.603   5.573 -0.1100 -1.6116 -2.1749
 1298SOL    HW215531   2.213   0.473   5.635 -0.6602 -1.5971 -0.9161
 1299SOL     OW15532   4.032   0.528   8.469 -0.3263 -0.7095  0.1432
 1299SOL    HW115533   4.072   0.462   8.412  0.0087 -0.5356  0.1762
 1299SOL    HW215534   3.948   0.553   8.431 -0.1175 -1.8108 -1.0511
 1300SOL     OW15535   3.890   3.317   2.317 -0.3293 -0.0815 -0.2562
 1300SOL    HW115536   3.876   3.225   2.295  1.4148 -0.2862 -0.4662
 1300SOL    HW215537   3.820   3.334   2.380 -1.7658 -0.8780 -1.6377
 1301SOL     OW15538   1.842   3.740  10.307 -0.2781 -0.4440 -0.4319
 1301SOL    HW115539   1.844   3.698  10.392  2.4654  1.2207  0.3104
 1301SOL    HW215540   1.822   3.831  10.331 -2.3703 -1.6980  2.5059
 1302SOL     OW15541   0.406   0.280   7.659  0.2333 -0.7091 -0.0989
 1302SOL    HW115542   0.421   0.260   7.751  1.9277 -0.3258 -0.3041
 1302SOL    HW215543   0.336   0.217   7.640 -0.5324  0.5776 -1.5530
 1303SOL     OW15544   4.484   4.226   3.762  0.2009  0.6472 -0.6015
 1303SOL    HW115545   4.410   4.272   3.723 -0.7055  0.3504  0.7408
 1303SOL    HW215546   4.445   4.208   3.848 -0.0947  2.5020 -0.3559
 1304SOL     OW15547   3.100   0.824   8.982  0.6020 -0.1481  0.0198
 1304SOL    HW115548   3.118   0.807   9.075  1.8460 -3.3155 -0.8459
 1304SOL    HW215549   3.044   0.902   8.989  0.7043 -0.0579 -0.1862
 1305SOL     OW15550   0.712   3.899   6.790 -0.1267  0.1561 -0.8731
 1305SOL    HW115551   0.799   3.866   6.766 -0.3496 -1.8590  1.0337
 1305SOL    HW215552   0.735   3.983   6.828  2.0530 -0.3618 -1.0409
 1306SOL     OW15553   4.455   0.481  16.929 -0.0054  0.8402  0.0659
 1306SOL    HW115554   4.535   0.430  16.944 -0.0079  1.1133  1.0098
 1306SOL    HW215555   4.419   0.461  17.015  1.6391 -1.6323  0.1777
 1307SOL     OW15556   4.505   3.730   6.548  0.2190 -0.1269 -0.2528
 1307SOL    HW115557   4.545   3.798   6.493 -0.5034 -0.6853 -1.4604
 1307SOL    HW215558   4.411   3.748   6.544  0.0377 -0.5947  1.9021
 1308SOL     OW15559   0.213   4.129   3.368  0.8195 -0.1202  0.2537
 1308SOL    HW115560   0.145   4.184   3.407  0.7467 -0.4979  0.6623
 1308SOL    HW215561   0.201   4.160   3.278  3.3309  0.1914  0.0326
 1309SOL     OW15562   1.687   1.321   2.593 -0.0159 -0.6647 -0.2676
 1309SOL    HW115563   1.729   1.236   2.608  0.3637 -0.5788 -0.8452
 1309SOL    HW215564   1.635   1.330   2.672 -1.3377  0.4391 -1.2685
 1310SOL     OW15565   0.736   1.635  15.893  0.5223 -0.3498 -0.0349
 1310SOL    HW115566   0.775   1.700  15.952 -1.7487 -0.4803  1.6367
 1310SOL    HW215567   0.746   1.554  15.943 -1.6755  1.4191  3.3032
 1311SOL     OW15568   0.460   3.111   5.961  0.3649 -0.4757  0.1900
 1311SOL    HW115569   0.389   3.163   5.997 -1.2842 -2.7067  0.1735
 1311SOL    HW215570   0.440   3.031   6.009  1.6509  0.3012  2.0176
 1312SOL     OW15571   0.525   2.358   5.612 -1.0149 -0.0782  0.3923
 1312SOL    HW115572   0.511   2.264   5.600 -2.6351  0.1843  0.2245
 1312SOL    HW215573   0.620   2.367   5.621 -1.2517 -0.4252  3.3660
 1313SOL     OW15574   3.952   4.269   4.230 -0.4358  0.1977 -0.5929
 1313SOL    HW115575   3.913   4.202   4.174  3.0764 -1.3158 -1.2210
 1313SOL    HW215576   3.892   4.256   4.304 -1.3258  1.9252 -1.0158
 1314SOL     OW15577   2.657   0.989   3.492  0.5052 -0.1453 -0.6970
 1314SOL    HW115578   2.575   0.994   3.540  2.4003 -1.7599  2.6685
 1314SOL    HW215579   2.718   0.952   3.556 -1.4488 -1.8800  0.1385
 1315SOL     OW15580   3.532   2.421   6.491  0.2695  0.5287 -0.0381
 1315SOL    HW115581   3.510   2.336   6.453  1.0725  0.6807 -0.8449
 1315SOL    HW215582   3.533   2.406   6.585 -0.1961 -0.5085 -0.1969
 1316SOL     OW15583   1.352   4.117   8.354  0.3798 -0.1680 -0.1060
 1316SOL    HW115584   1.395   4.186   8.304 -0.1097 -1.2056 -1.9641
 1316SOL    HW215585   1.280   4.156   8.404 -0.6753 -0.6644 -1.2385
 1317SOL     OW15586   2.601   1.987   1.392 -0.4424 -0.5580  0.7979
 1317SOL    HW115587   2.649   1.916   1.348  1.3640  2.4378 -2.0559
 1317SOL    HW215588   2.672   2.045   1.417 -0.7854  1.5156 -2.9980
 1318SOL     OW15589   3.397   3.987   4.482  0.6247 -0.0243 -0.0056
 1318SOL    HW115590   3.407   3.930   4.558 -1.6818 -1.4736 -0.7884
 1318SOL    HW215591   3.374   3.924   4.414  1.6200 -1.1889  0.7432
 1319SOL     OW15592   1.765   2.968  10.088 -0.2467  0.5891 -0.5582
 1319SOL    HW115593   1.703   3.010  10.028 -0.2781  2.0338  0.4698
 1319SOL    HW215594   1.713   2.974  10.168 -0.8959  0.2979 -0.9600
 1320SOL     OW15595   1.461   0.330   5.203  0.0289 -0.1435  0.2006
 1320SOL    HW115596   1.546   0.290   5.219  0.4026  0.8518  0.7475
 1320SOL    HW215597   1.415   0.265   5.150  0.8191  0.6931 -1.5128
 1321SOL     OW15598   0.262   1.870   6.300 -0.1680 -0.1290  0.4397
 1321SOL    HW115599   0.261   1.851   6.394  0.6900 -2.3577  0.0015
 1321SOL    HW215600   0.299   1.958   6.294 -0.1446 -0.1326  0.5261
 1322SOL     OW15601   1.161   0.592  12.654 -0.3267  0.3293  0.1340
 1322SOL    HW115602   1.108   0.582  12.733  0.1059  0.7700  0.4764
 1322SOL    HW215603   1.239   0.542  12.675 -1.4922 -1.7650 -0.5285
 1323SOL     OW15604   4.627   2.623   1.853 -0.2378  0.0820 -0.0670
 1323SOL    HW115605   4.596   2.696   1.905  2.9721 -0.1654  2.2296
 1323SOL    HW215606   4.592   2.647   1.767 -1.2861 -0.4155  0.2183
 1324SOL     OW15607   3.919   2.158   5.910 -0.6210  0.5973 -0.9183
 1324SOL    HW115608   3.883   2.069   5.907  1.2636 -0.2110 -0.0147
 1324SOL    HW215609   3.950   2.161   6.000 -1.8653 -3.2667 -0.3616
 1325SOL     OW15610   3.368   4.527   7.747  0.1865  0.1079 -0.1428
 1325SOL    HW115611   3.421   4.462   7.793  0.7924 -0.2962 -1.4070
 1325SOL    HW215612   3.439   4.582   7.714 -0.7452  1.6253  0.3840
 1326SOL     OW15613   4.312   0.798   6.260 -0.0316 -0.2712  0.0052
 1326SOL    HW115614   4.337   0.805   6.352 -1.9716 -0.0120  0.5171
 1326SOL    HW215615   4.301   0.704   6.242 -1.6516  0.0189 -0.5500
 1327SOL     OW15616   3.572   1.744   2.646 -0.0232 -0.0355  0.2087
 1327SOL    HW115617   3.525   1.712   2.568 -3.1842 -0.6630  2.3675
 1327SOL    HW215618   3.505   1.738   2.714 -1.4755  1.6253 -1.0969
 1328SOL     OW15619   0.666   4.641   8.831  0.1709 -0.0716  0.3008
 1328SOL    HW115620   0.662   4.643   8.926 -2.6358 -0.6737  0.1793
 1328SOL    HW215621   0.707   4.727   8.816  0.5149 -0.2516  0.2181
 1329SOL     OW15622   3.375   1.987   7.798 -0.0871  0.3557 -0.4501
 1329SOL    HW115623   3.285   1.984   7.831 -0.4048  0.1153 -1.3438
 1329SOL    HW215624   3.355   1.988   7.704 -2.8119  2.0771  0.1577
 1330SOL     OW15625   0.549   3.395  16.096 -0.1213 -0.2789  0.5907
 1330SOL    HW115626   0.562   3.314  16.047  2.2513  0.5709 -0.1936
 1330SOL    HW215627   0.504   3.449  16.031  1.1992  0.5048  0.3062
 1331SOL     OW15628   1.481   4.370  15.366  0.1025 -0.5365  0.1134
 1331SOL    HW115629   1.407   4.323  15.405 -1.2215  0.5681 -1.0602
 1331SOL    HW215630   1.439   4.400  15.285  0.3097 -0.7529 -0.0746
 1332SOL     OW15631   3.883   3.814   2.223 -0.2972  0.7752  0.2988
 1332SOL    HW115632   3.903   3.908   2.222  0.5726  0.5997  2.1319
 1332SOL    HW215633   3.969   3.779   2.248  0.3443  1.1715 -1.2871
 1333SOL     OW15634   1.813   3.956  11.897  0.3863  0.4743  0.1727
 1333SOL    HW115635   1.769   3.975  11.814  0.9559  1.2715  0.0552
 1333SOL    HW215636   1.851   3.871  11.875  0.3052  0.7175 -0.9423
 1334SOL     OW15637   3.889   0.245   4.445 -0.0398 -0.3892  0.1243
 1334SOL    HW115638   3.880   0.158   4.483  1.4772  0.1318  1.6192
 1334SOL    HW215639   3.909   0.295   4.523  1.2633  0.1363 -0.5475
 1335SOL     OW15640   0.639   2.196   9.292 -0.2518  0.5401  0.0682
 1335SOL    HW115641   0.719   2.249   9.293  0.6191 -0.7713  2.0102
 1335SOL    HW215642   0.583   2.250   9.237 -2.3345 -1.6702  0.0018
 1336SOL     OW15643   1.988   2.699  10.726 -0.7292 -0.3790 -0.1646
 1336SOL    HW115644   1.944   2.630  10.776  2.3976 -3.0738 -1.0675
 1336SOL    HW215645   2.077   2.685  10.760 -0.5954 -3.1183 -1.6612
 1337SOL     OW15646   1.261   1.473   2.585 -0.1242 -0.5942  0.1233
 1337SOL    HW115647   1.203   1.513   2.519 -0.2938  1.2900  1.4098
 1337SOL    HW215648   1.345   1.504   2.551 -0.7210 -1.1927 -1.9340
 1338SOL     OW15649   1.159   4.207   2.249  0.0247 -0.4869  0.3975
 1338SOL    HW115650   1.240   4.184   2.205  0.4374 -0.4201  1.1234
 1338SOL    HW215651   1.101   4.155   2.194  0.4862 -1.6853  1.0550
 1339SOL     OW15652   2.378   4.008   7.696  0.1354  0.0781 -0.2537
 1339SOL    HW115653   2.446   3.946   7.723  0.9399  0.9814 -0.1763
 1339SOL    HW215654   2.318   4.012   7.770  0.0892  1.8699 -0.3792
 1340SOL     OW15655   0.006   3.275   8.187  0.3552  0.6936  0.7535
 1340SOL    HW115656   0.047   3.233   8.263 -0.0549 -0.5981  0.2420
 1340SOL    HW215657   0.082   3.308   8.138  1.7648 -1.3635  1.5329
 1341SOL     OW15658   2.540   0.618   4.644 -0.8204 -0.0801  0.2376
 1341SOL    HW115659   2.479   0.678   4.600 -0.5328 -0.3692 -0.5611
 1341SOL    HW215660   2.499   0.536   4.618  0.0775 -0.5852  0.4071
 1342SOL     OW15661   1.388   0.636  13.902 -0.6708  0.1032 -0.2580
 1342SOL    HW115662   1.394   0.724  13.939  1.7565 -0.6447  1.1134
 1342SOL    HW215663   1.429   0.648  13.816  1.1569  1.5016  0.8100
 1343SOL     OW15664   3.391   2.358  17.056 -0.1885  0.2185 -0.7188
 1343SOL    HW115665   3.398   2.268  17.026  0.9082  0.6404 -1.7168
 1343SOL    HW215666   3.394   2.345  17.151  3.3762  2.3147 -0.5603
 1344SOL     OW15667   1.444   3.624   4.143 -0.3391 -0.0108 -0.5798
 1344SOL    HW115668   1.484   3.649   4.059 -1.1254  0.9521 -0.6684
 1344SOL    HW215669   1.355   3.654   4.128 -0.6648  0.4706  2.2862
 1345SOL     OW15670   1.902   0.624   7.895 -1.2216  0.6904  0.6721
 1345SOL    HW115671   1.927   0.552   7.837  1.6025 -0.5457  3.4049
 1345SOL    HW215672   1.809   0.608   7.912 -0.8056 -3.8960 -1.2672
 1346SOL     OW15673   1.707   3.853   3.309 -0.4083  0.1059 -0.1335
 1346SOL    HW115674   1.625   3.828   3.349  0.1183  0.9861  1.4818
 1346SOL    HW215675   1.759   3.878   3.385 -0.1397  2.4181 -1.0775
 1347SOL     OW15676   2.918   1.079   8.910  0.1885  0.2124 -0.1169
 1347SOL    HW115677   2.913   1.085   8.814  2.9692 -0.7189 -0.2962
 1347SOL    HW215678   2.828   1.060   8.937 -0.1967 -0.1204 -1.5994
 1348SOL     OW15679   0.984   2.622   7.417  0.2923 -0.2508 -0.0284
 1348SOL    HW115680   1.039   2.584   7.348 -0.0966 -0.3330 -0.2921
 1348SOL    HW215681   0.928   2.679   7.364  1.3076  0.2818 -0.5355
 1349SOL     OW15682   3.817   1.010   5.308 -0.3256 -0.4620 -0.1146
 1349SOL    HW115683   3.729   1.031   5.340 -0.2744  1.7211 -1.3854
 1349SOL    HW215684   3.850   1.100   5.302 -0.7382 -0.1519  2.1411
 1350SOL     OW15685   2.696   1.255   8.802  0.7813  0.0677  0.2170
 1350SOL    HW115686   2.650   1.189   8.750 -1.6694  2.6951 -0.9646
 1350SOL    HW215687   2.618   1.311   8.804  0.9397  0.2872  0.2819
 1351SOL     OW15688   0.539   2.913  10.020 -0.3287 -0.3678 -0.2276
 1351SOL    HW115689   0.609   2.896   9.956 -0.2130 -0.0083 -0.1954
 1351SOL    HW215690   0.543   2.825  10.057 -2.8073 -0.4734 -0.2037
 1352SOL     OW15691   2.978   4.358   2.030  0.4610 -0.4605 -0.0195
 1352SOL    HW115692   3.071   4.346   2.009 -0.0463 -2.5631 -1.0097
 1352SOL    HW215693   2.996   4.439   2.078 -1.3963 -0.0759  0.0055
 1353SOL     OW15694   3.810   0.161   6.014  0.1860  0.2601 -0.1056
 1353SOL    HW115695   3.742   0.095   6.006 -0.0827  0.3068  1.7077
 1353SOL    HW215696   3.760   0.242   6.025  1.0649  0.8694 -0.5956
 1354SOL     OW15697   4.585   1.959  13.507  0.9266 -0.2805 -0.0517
 1354SOL    HW115698   4.529   1.890  13.544  0.8753  0.8108  1.8919
 1354SOL    HW215699   4.547   2.046  13.519  1.5957 -0.0313  0.2530
 1355SOL     OW15700   1.779   3.429  15.936  0.6829  0.0794 -0.2770
 1355SOL    HW115701   1.757   3.336  15.940 -0.9031  0.4855  0.3045
 1355SOL    HW215702   1.810   3.439  16.026  0.8369 -1.3670 -0.1759
 1356SOL     OW15703   4.592   2.916   2.846 -0.6924  0.6906 -0.5160
 1356SOL    HW115704   4.583   2.859   2.770  1.2292 -0.7610  0.3328
 1356SOL    HW215705   4.685   2.901   2.866 -1.8691 -2.1429  2.7710
 1357SOL     OW15706   2.549   1.852   4.952  0.1682 -0.0146 -0.0458
 1357SOL    HW115707   2.459   1.853   4.920  0.8309  0.2131 -1.9102
 1357SOL    HW215708   2.594   1.900   4.883 -0.6150  0.7556 -0.0184
 1358SOL     OW15709   2.834   4.363   9.102  0.2178  0.4771  0.1438
 1358SOL    HW115710   2.769   4.295   9.086  0.0216  0.7387 -0.1778
 1358SOL    HW215711   2.775   4.437   9.114 -0.5565  0.4593 -3.4274
 1359SOL     OW15712   4.587   2.527   6.631  0.0526  0.3652  0.1044
 1359SOL    HW115713   4.644   2.501   6.559 -0.6562  0.8252 -0.6268
 1359SOL    HW215714   4.550   2.604   6.587 -0.5684  0.3713  0.6321
 1360SOL     OW15715   3.788   1.892   1.225  0.1136 -0.4107 -0.0597
 1360SOL    HW115716   3.777   1.797   1.220  0.1098 -0.4483  0.7459
 1360SOL    HW215717   3.698   1.922   1.216 -0.0329 -0.9895 -0.5642
 1361SOL     OW15718   3.763   3.064   6.078  0.2928  0.1171  0.1627
 1361SOL    HW115719   3.677   3.065   6.119  0.2928  0.0434  0.1656
 1361SOL    HW215720   3.792   2.976   6.105 -1.4597  0.2924  2.6434
 1362SOL     OW15721   3.836   1.374  17.319 -0.3549  0.1217  0.4012
 1362SOL    HW115722   3.784   1.427  17.379 -1.0241  1.7256 -1.6018
 1362SOL    HW215723   3.804   1.295  17.362  1.5935 -0.6449  0.4246
 1363SOL     OW15724   4.190   1.733   4.628 -0.0012  0.3576 -0.2435
 1363SOL    HW115725   4.135   1.715   4.553 -0.5656  3.1661 -0.4958
 1363SOL    HW215726   4.121   1.757   4.690 -0.3906  0.9106 -0.8981
 1364SOL     OW15727   3.327   0.977   3.028 -0.0801  0.3472 -0.1221
 1364SOL    HW115728   3.314   1.069   3.005 -1.9683  0.0206 -0.3467
 1364SOL    HW215729   3.405   0.954   2.977  0.8021  0.8810  0.9847
 1365SOL     OW15730   3.181   4.693  15.626 -0.0788  0.3590 -0.1201
 1365SOL    HW115731   3.178   4.597  15.621 -0.5030  0.3653 -0.0059
 1365SOL    HW215732   3.132   4.708  15.707  2.0379  1.4493  0.9548
 1366SOL     OW15733   4.169   2.084  14.547  0.0876 -0.2942  0.4848
 1366SOL    HW115734   4.219   2.009  14.577  1.9168  1.0534  0.7890
 1366SOL    HW215735   4.210   2.102  14.462 -0.6265  0.3386  0.2745
 1367SOL     OW15736   1.573   0.241  13.330 -0.2692  0.8548  0.2893
 1367SOL    HW115737   1.514   0.170  13.305  2.5906 -2.4805  2.9322
 1367SOL    HW215738   1.592   0.283  13.247  0.4090 -0.6683 -0.3244
 1368SOL     OW15739   2.217   4.508  13.063  0.0762  0.0595  0.6113
 1368SOL    HW115740   2.307   4.495  13.092 -0.4669 -3.6435  0.5470
 1368SOL    HW215741   2.175   4.435  13.108  0.5844 -1.7757 -1.9492
 1369SOL     OW15742   2.439   1.459   0.176  0.0203 -0.0864 -0.3927
 1369SOL    HW115743   2.494   1.477   0.100 -0.4853  1.5792 -0.3647
 1369SOL    HW215744   2.352   1.472   0.138  0.5034 -1.2419 -1.8891
 1370SOL     OW15745   3.088   2.617  14.249  0.2984 -0.3568  0.3474
 1370SOL    HW115746   3.084   2.525  14.223  0.2467 -0.5667  1.0859
 1370SOL    HW215747   3.101   2.596  14.341 -0.6603 -0.6097  0.4215
 1371SOL     OW15748   3.186   1.376   7.494 -0.1812  0.1231  0.4196
 1371SOL    HW115749   3.139   1.433   7.433  2.3213  0.7946 -0.8616
 1371SOL    HW215750   3.181   1.419   7.579  0.1912  1.8389 -0.4413
 1372SOL     OW15751   2.285   2.829   4.569  0.2638 -0.2561  0.3298
 1372SOL    HW115752   2.355   2.871   4.518  0.8263 -1.2470  0.2820
 1372SOL    HW215753   2.335   2.786   4.638  0.8529 -1.3397 -0.7921
 1373SOL     OW15754   1.787   2.287   3.205 -0.3288 -0.4871 -0.0510
 1373SOL    HW115755   1.867   2.240   3.179 -0.2068  0.4552 -1.4328
 1373SOL    HW215756   1.762   2.317   3.117 -0.3108 -2.6196 -0.7781
 1374SOL     OW15757   4.586   4.564   2.697  0.4445  0.0997  0.1878
 1374SOL    HW115758   4.616   4.650   2.666 -1.2774 -0.2285 -2.2847
 1374SOL    HW215759   4.564   4.518   2.617 -0.3990 -2.1116  1.6950
 1375SOL     OW15760   0.512   0.518   4.349 -0.1524  0.1359 -0.2196
 1375SOL    HW115761   0.467   0.572   4.415 -0.9015  0.7458 -1.2272
 1375SOL    HW215762   0.445   0.512   4.281  0.2636  1.8736 -0.7893
 1376SOL     OW15763   1.280   1.964   2.697 -0.3652  0.6638  0.4769
 1376SOL    HW115764   1.189   1.973   2.726 -0.9626  0.3980 -1.2888
 1376SOL    HW215765   1.310   1.879   2.727 -0.1931  0.0135 -1.5157
 1377SOL     OW15766   4.231   3.341   2.799 -0.3423 -0.0037 -0.3711
 1377SOL    HW115767   4.211   3.319   2.890 -3.4690  0.3301 -1.0010
 1377SOL    HW215768   4.296   3.273   2.783  1.8526  2.0162 -0.1892
 1378SOL     OW15769   1.998   0.447   5.312  0.0962 -0.8885 -0.1196
 1378SOL    HW115770   2.077   0.400   5.339 -0.0650 -0.4594  1.1232
 1378SOL    HW215771   2.037   0.485   5.233 -0.5054  2.9695  1.4604
 1379SOL     OW15772   1.195   0.364   8.613  0.0484 -0.1874  0.2545
 1379SOL    HW115773   1.115   0.416   8.618  0.1250 -0.1247  0.7701
 1379SOL    HW215774   1.230   0.375   8.524 -0.8583 -1.8156 -0.3020
 1380SOL     OW15775   2.511   0.276   6.452  0.5314  0.7768 -0.1605
 1380SOL    HW115776   2.536   0.320   6.534 -1.1360 -0.3610  0.9568
 1380SOL    HW215777   2.582   0.212   6.445 -0.0931  0.1351 -0.6154
 1381SOL     OW15778   0.650   0.223   7.556 -0.1959 -0.1052  0.3938
 1381SOL    HW115779   0.560   0.254   7.549  0.0646  0.9987  1.8963
 1381SOL    HW215780   0.668   0.245   7.465 -0.1827 -0.2997  0.3482
 1382SOL     OW15781   1.097   2.296   5.831  0.5094  0.0800 -0.2532
 1382SOL    HW115782   1.115   2.214   5.784 -2.0628 -1.6696  1.7956
 1382SOL    HW215783   1.118   2.366   5.770  3.0858  0.0975  0.6583
 1383SOL     OW15784   3.719   4.508   3.319  0.3475 -0.1518 -0.1641
 1383SOL    HW115785   3.770   4.570   3.371  1.6956 -1.7835  0.4355
 1383SOL    HW215786   3.736   4.547   3.234  2.6914 -4.3389 -1.6150
 1384SOL     OW15787   0.856   0.602   2.813 -0.1941 -0.3658  0.0233
 1384SOL    HW115788   0.800   0.559   2.878  0.8087 -1.9801 -0.1728
 1384SOL    HW215789   0.788   0.644   2.761  0.5316 -0.8417 -1.3248
 1385SOL     OW15790   1.951   4.196   3.262 -0.1777 -0.0168  0.4549
 1385SOL    HW115791   2.023   4.158   3.312 -1.5114 -2.8814  0.1485
 1385SOL    HW215792   1.956   4.150   3.178 -0.9001  1.2143 -0.2665
 1386SOL     OW15793   2.959   4.439  10.440 -0.2039  0.3832 -0.6427
 1386SOL    HW115794   3.034   4.386  10.411 -1.1869 -1.1941 -0.3273
 1386SOL    HW215795   3.002   4.497  10.503  1.3895  0.0283 -1.3961
 1387SOL     OW15796   3.212   4.428   4.601  0.4246  0.2351 -0.6499
 1387SOL    HW115797   3.296   4.468   4.578  0.0901  0.6126 -1.2355
 1387SOL    HW215798   3.141   4.460   4.545 -2.0668  0.1791  2.4866
 1388SOL     OW15799   3.589   0.187   9.934 -0.1855  0.2838 -0.0156
 1388SOL    HW115800   3.576   0.145   9.849 -1.6066  0.3188  0.2014
 1388SOL    HW215801   3.642   0.120   9.977 -2.5400 -1.8761 -0.5146
 1389SOL     OW15802   0.541   1.966   2.621 -0.2385  0.1136  0.1699
 1389SOL    HW115803   0.462   1.928   2.583  1.5033 -1.6052 -1.7656
 1389SOL    HW215804   0.584   1.882   2.638  1.0944  1.1374  1.8738
 1390SOL     OW15805   3.951   1.447  16.613 -0.1674 -0.2692 -0.4651
 1390SOL    HW115806   3.921   1.524  16.661  1.0190  1.7044 -2.8902
 1390SOL    HW215807   4.024   1.418  16.667 -0.2365  1.3446  0.5030
 1391SOL     OW15808   1.740   2.836   9.606  0.0467 -0.1681  0.4569
 1391SOL    HW115809   1.805   2.898   9.572 -1.7941  2.5636  1.9103
 1391SOL    HW215810   1.769   2.803   9.691  1.2945 -0.2622 -0.0175
 1392SOL     OW15811   2.557   1.761   2.141  0.2285 -0.7935 -0.4501
 1392SOL    HW115812   2.586   1.830   2.081  0.1876 -0.2722  0.1367
 1392SOL    HW215813   2.488   1.719   2.090  0.4308 -2.3675  0.5608
 1393SOL     OW15814   1.237   0.405   9.679  0.0266  0.1227 -0.4288
 1393SOL    HW115815   1.153   0.381   9.718  0.7307 -0.8418  0.4960
 1393SOL    HW215816   1.296   0.379   9.749  0.0748  2.9162  0.5389
 1394SOL     OW15817   3.332   0.780   8.511 -0.2451 -0.1733 -0.3911
 1394SOL    HW115818   3.332   0.688   8.484  2.6253 -0.9577  2.1863
 1394SOL    HW215819   3.369   0.770   8.599  0.1172 -1.8510 -0.7351
 1395SOL     OW15820   3.167   1.544   0.107  0.1125 -0.2286  0.0897
 1395SOL    HW115821   3.173   1.554   0.202  2.4404 -1.6968  0.1057
 1395SOL    HW215822   3.073   1.528   0.110 -0.3092  2.4439  0.8425
 1396SOL     OW15823   4.542   4.605  15.896 -0.3369 -0.5325  0.0780
 1396SOL    HW115824   4.603   4.651  15.954 -3.6500 -0.2506  3.3711
 1396SOL    HW215825   4.590   4.530  15.863  0.3976 -0.3913  0.8224
 1397SOL     OW15826   4.536   3.826   2.378 -0.3190  0.2390 -0.4208
 1397SOL    HW115827   4.467   3.888   2.355 -0.1095  1.0569  1.0943
 1397SOL    HW215828   4.541   3.768   2.302 -0.6149 -1.9480  1.2138
 1398SOL     OW15829   0.341   0.930   6.166 -0.0133 -0.4887 -0.2697
 1398SOL    HW115830   0.385   0.845   6.160  0.9362 -0.0070 -0.1699
 1398SOL    HW215831   0.388   0.966   6.240  0.0990 -2.2371  0.5224
 1399SOL     OW15832   3.700   1.560   9.816 -0.2237  0.5414 -0.0718
 1399SOL    HW115833   3.628   1.506   9.849  0.5166  0.0630  0.7727
 1399SOL    HW215834   3.705   1.541   9.723  1.0564  2.0603 -0.3151
 1400SOL     OW15835   4.045   4.200   3.301 -0.4249 -0.3155  0.0874
 1400SOL    HW115836   3.980   4.132   3.282  2.4827 -2.7335 -1.3156
 1400SOL    HW215837   4.123   4.149   3.277  0.2464  0.1718  1.2127
 1401SOL     OW15838   2.121   3.856  16.758 -0.4107 -0.0415  0.1022
 1401SOL    HW115839   2.067   3.853  16.679  0.0712 -0.0436 -0.2279
 1401SOL    HW215840   2.050   3.830  16.816 -0.6712  0.7356  0.1301
 1402SOL     OW15841   0.657   1.854   6.011  0.0503 -0.4448  0.7503
 1402SOL    HW115842   0.688   1.814   5.930  1.3048 -1.7181  1.8525
 1402SOL    HW215843   0.661   1.790   6.083  0.2111 -1.6566 -0.3331
 1403SOL     OW15844   2.287   3.620   4.705  0.2504  0.3653  0.0430
 1403SOL    HW115845   2.250   3.532   4.704  1.8357 -0.2733 -1.5692
 1403SOL    HW215846   2.307   3.620   4.799  0.3758  2.7758  0.0207
 1404SOL     OW15847   1.151   3.717  15.916 -0.2045 -0.7859 -0.0126
 1404SOL    HW115848   1.103   3.639  15.889  0.0038 -1.0822  0.4869
 1404SOL    HW215849   1.138   3.771  15.838  1.0856 -1.3921 -0.6490
 1405SOL     OW15850   1.994   3.362   9.683 -0.3411  0.0085 -0.4944
 1405SOL    HW115851   1.981   3.276   9.723  3.3013 -1.5432 -2.5669
 1405SOL    HW215852   2.090   3.364   9.685 -0.3512 -0.2138  0.4548
 1406SOL     OW15853   1.718   0.930   3.395  0.2138 -0.5723  0.0500
 1406SOL    HW115854   1.760   0.949   3.311  1.6842 -3.0785  0.2074
 1406SOL    HW215855   1.792   0.969   3.443  0.1227  0.0286 -0.2973
 1407SOL     OW15856   1.138   2.429   1.239  0.3538 -0.4615 -1.0037
 1407SOL    HW115857   1.122   2.510   1.287 -0.8399 -1.3119  0.0317
 1407SOL    HW215858   1.066   2.381   1.280  1.3794 -1.4682 -0.3852
 1408SOL     OW15859   0.308   0.121  11.206  0.2025  0.5881 -0.5340
 1408SOL    HW115860   0.254   0.069  11.266  1.6812 -0.4483 -0.0966
 1408SOL    HW215861   0.388   0.127  11.258  1.4663 -0.9457 -2.2779
 1409SOL     OW15862   0.988   1.416  12.971 -0.1085  0.0248  0.1753
 1409SOL    HW115863   0.952   1.337  12.930  1.1818 -0.2971 -0.3337
 1409SOL    HW215864   0.966   1.387  13.060 -0.1770  0.1369  0.1955
 1410SOL     OW15865   0.959   1.768   5.291  0.4822 -0.0199  0.0237
 1410SOL    HW115866   0.907   1.700   5.334  2.2683 -2.1499 -1.1997
 1410SOL    HW215867   1.045   1.737   5.318 -0.5528 -2.8635  0.1265
 1411SOL     OW15868   1.508   1.640   1.992 -0.4589  0.2728 -0.2252
 1411SOL    HW115869   1.414   1.629   1.977 -0.6423 -1.0798  1.9455
 1411SOL    HW215870   1.524   1.554   2.030 -0.6107 -0.1533 -1.1158
 1412SOL     OW15871   4.295   3.459   2.043  0.4490 -0.3111 -0.1276
 1412SOL    HW115872   4.313   3.367   2.061 -0.1308 -0.3838  0.0593
 1412SOL    HW215873   4.209   3.466   2.084  2.0154  2.8559  2.6975
 1413SOL     OW15874   0.186   0.415   7.802 -0.1265 -0.1428  0.7972
 1413SOL    HW115875   0.243   0.463   7.742  0.5060 -2.3457 -0.3520
 1413SOL    HW215876   0.247   0.362   7.854 -0.4071  0.2118  1.4858
 1414SOL     OW15877   3.293   2.802  14.284 -0.1867  0.0867  0.1990
 1414SOL    HW115878   3.228   2.732  14.285 -1.4622  1.2613 -0.5922
 1414SOL    HW215879   3.237   2.871  14.249 -0.1787  0.1712  0.3481
 1415SOL     OW15880   4.394   0.400   6.462 -0.3731  0.5082  0.6083
 1415SOL    HW115881   4.450   0.475   6.440 -1.1672 -0.2137 -3.8985
 1415SOL    HW215882   4.449   0.344   6.516  0.4334  0.1147 -0.6251
 1416SOL     OW15883   2.893   1.765   7.209 -0.1872 -0.0101 -0.3129
 1416SOL    HW115884   2.848   1.838   7.251  0.0165  0.1055 -0.2965
 1416SOL    HW215885   2.859   1.769   7.119  0.7942 -0.8189 -0.7256
 1417SOL     OW15886   0.371   2.149   6.459  0.0438 -0.3200  0.1976
 1417SOL    HW115887   0.400   2.198   6.382 -2.2385  0.0544 -0.4177
 1417SOL    HW215888   0.276   2.163   6.462 -0.1916 -1.9199  0.2696
 1418SOL     OW15889   1.776   2.818   4.361 -0.5360 -0.4379 -0.0354
 1418SOL    HW115890   1.817   2.746   4.410 -2.2276  0.9234  3.4313
 1418SOL    HW215891   1.726   2.760   4.304 -1.4182 -0.5739  0.8569
 1419SOL     OW15892   3.299   4.534   5.752  0.0335  0.3193 -0.1801
 1419SOL    HW115893   3.337   4.571   5.671  0.1096  1.8649  0.5521
 1419SOL    HW215894   3.338   4.447   5.747 -0.1837  0.1850  0.6203
 1420SOL     OW15895   4.268   2.040   1.800 -0.5322  0.3199 -0.3132
 1420SOL    HW115896   4.320   2.104   1.848 -0.5044  1.5032 -1.9458
 1420SOL    HW215897   4.273   1.967   1.863 -2.6999  0.4673  0.0210
 1421SOL     OW15898   3.278   4.328   4.843  0.0702  0.3520 -0.1667
 1421SOL    HW115899   3.248   4.379   4.768  0.1729 -0.4424 -0.7549
 1421SOL    HW215900   3.277   4.238   4.810 -0.1440  1.0356 -2.0243
 1422SOL     OW15901   0.423   4.119   8.377 -0.1393  0.3803  0.6408
 1422SOL    HW115902   0.344   4.171   8.395  0.7656  1.1568  2.3781
 1422SOL    HW215903   0.482   4.185   8.340 -0.6437 -0.5428 -1.8083
 1423SOL     OW15904   1.015   4.287  15.730  0.2193 -0.6905 -0.1191
 1423SOL    HW115905   1.008   4.345  15.654  1.9034  1.0124  1.0312
 1423SOL    HW215906   1.058   4.346  15.792  2.0305  0.1946 -2.2285
 1424SOL     OW15907   4.416   1.026   3.014  0.1375 -0.0177 -0.0998
 1424SOL    HW115908   4.384   1.110   3.047 -0.2600  0.4705 -1.7563
 1424SOL    HW215909   4.480   0.988   3.075 -0.3768 -0.2194  0.3202
 1425SOL     OW15910   2.649   0.314   0.015 -0.0135  0.1051 -0.3086
 1425SOL    HW115911   2.628   0.224   0.039 -0.7964  0.6302  1.0210
 1425SOL    HW215912   2.569   0.338  17.726 -1.5368 -1.2090  1.6966
 1426SOL     OW15913   4.212   2.595   2.473 -0.0603  0.0679  0.7593
 1426SOL    HW115914   4.136   2.652   2.485 -0.1430 -0.4293  2.6203
 1426SOL    HW215915   4.257   2.586   2.557  0.7009 -1.3147  0.2116
 1427SOL     OW15916   3.648   3.257   2.936 -0.0240  0.1909  0.4745
 1427SOL    HW115917   3.560   3.245   2.901  0.7986  0.0345 -1.5540
 1427SOL    HW215918   3.672   3.343   2.901 -0.2689 -0.6417 -1.7433
 1428SOL     OW15919   0.261   1.097   2.814 -0.4040  0.4267 -0.2516
 1428SOL    HW115920   0.258   1.123   2.906 -1.9314 -0.3892 -0.0722
 1428SOL    HW215921   0.282   1.181   2.773  1.5362 -0.4113 -1.0144
 1429SOL     OW15922   1.923   1.668   5.852  0.5433 -0.6363  0.1644
 1429SOL    HW115923   1.952   1.576   5.857  1.0312 -0.4215  1.2890
 1429SOL    HW215924   1.912   1.686   5.945  0.5130 -1.1927  0.2729
 1430SOL     OW15925   2.194   3.496  15.312  0.0848 -0.1683  0.4663
 1430SOL    HW115926   2.237   3.579  15.294 -0.8003  0.4950  1.4072
 1430SOL    HW215927   2.203   3.496  15.408  0.8598  1.2992  0.3963
 1431SOL     OW15928   1.751   0.233   7.313  0.0254 -0.2545 -0.6357
 1431SOL    HW115929   1.785   0.316   7.281 -2.6750  1.0343 -0.1439
 1431SOL    HW215930   1.689   0.206   7.246 -0.2595 -1.3627  0.0661
 1432SOL     OW15931   1.341   3.889   5.721  0.1162  0.5555 -0.4652
 1432SOL    HW115932   1.398   3.883   5.644  0.0463  0.6923 -0.5292
 1432SOL    HW215933   1.256   3.858   5.689 -0.5497  0.7303  1.1054
 1433SOL     OW15934   4.689   3.514   6.484 -0.1606  0.5226  0.0311
 1433SOL    HW115935   4.644   3.597   6.474  1.3105  1.2310 -0.6712
 1433SOL    HW215936   4.627   3.454   6.525 -0.7259 -0.4480 -2.2543
 1434SOL     OW15937   1.727   2.327   2.965 -0.4212 -0.0937 -0.5743
 1434SOL    HW115938   1.791   2.269   2.925  0.8566  0.1499  1.1403
 1434SOL    HW215939   1.683   2.362   2.887  0.1518 -1.9900 -1.7661
 1435SOL     OW15940   0.043   2.739  13.005 -0.4586  0.5774 -0.9003
 1435SOL    HW115941   4.726   2.709  13.077  1.6955  0.2219  0.6609
 1435SOL    HW215942   0.121   2.758  13.058 -2.8468 -0.4345  3.0373
 1436SOL     OW15943   3.907   1.343  15.865 -0.1697  0.2934  0.0275
 1436SOL    HW115944   3.896   1.306  15.778  2.2410  3.4326 -1.6382
 1436SOL    HW215945   3.889   1.265  15.917  0.4561  0.6483  0.7798
 1437SOL     OW15946   4.430   3.840   4.063  0.0391 -0.1639 -0.5346
 1437SOL    HW115947   4.502   3.892   4.028 -1.3767  1.4462 -1.0593
 1437SOL    HW215948   4.373   3.824   3.988  0.9741 -2.5419 -0.7368
 1438SOL     OW15949   3.028   3.071   0.930  0.1235  0.2392  0.1007
 1438SOL    HW115950   2.958   3.083   0.995 -0.0706 -0.6227  0.0473
 1438SOL    HW215951   3.003   3.133   0.862 -2.1389 -0.6892  0.0863
 1439SOL     OW15952   4.362   3.867   7.727 -0.6320  0.0103  0.1692
 1439SOL    HW115953   4.350   3.816   7.807  0.2269 -1.5283 -0.6951
 1439SOL    HW215954   4.337   3.949   7.771 -1.7013 -0.5930  0.7044
 1440SOL     OW15955   4.533   0.722   3.963 -0.3050 -0.1535  0.1200
 1440SOL    HW115956   4.452   0.679   3.991  1.2662 -1.1230  3.1317
 1440SOL    HW215957   4.514   0.750   3.873 -2.3033  0.3675  0.6882
 1441SOL     OW15958   3.280   1.107  14.945  0.7716  0.6185 -0.5174
 1441SOL    HW115959   3.253   1.101  14.853 -1.4055 -4.0550  0.3993
 1441SOL    HW215960   3.218   1.039  14.972  3.5587 -0.8696  2.0376
 1442SOL     OW15961   2.534   3.254   6.030 -0.0772 -0.3456  0.0178
 1442SOL    HW115962   2.438   3.248   6.030 -0.1317  0.5982 -0.1360
 1442SOL    HW215963   2.550   3.183   5.968 -0.0156 -0.0658 -0.2844
 1443SOL     OW15964   3.160   0.197   3.032 -0.1171  0.0255  0.1065
 1443SOL    HW115965   3.137   0.171   3.122  0.1432 -0.2447  0.0967
 1443SOL    HW215966   3.249   0.230   3.046 -0.7716  1.4997  0.8035
 1444SOL     OW15967   2.821   1.938   6.363  0.5370 -0.0163  0.2724
 1444SOL    HW115968   2.859   1.854   6.340  0.4535 -0.1755  0.7238
 1444SOL    HW215969   2.746   1.929   6.304  1.0347 -2.4039  0.0181
 1445SOL     OW15970   1.163   0.401  10.278 -0.0335 -0.0364 -0.0374
 1445SOL    HW115971   1.096   0.361  10.333  0.1567 -2.3866 -1.4954
 1445SOL    HW215972   1.109   0.460  10.225 -0.2596 -0.6934 -0.5466
 1446SOL     OW15973   0.509   4.471   3.746  0.1839 -0.2962 -0.2334
 1446SOL    HW115974   0.481   4.394   3.696  1.1740 -0.1283 -1.0325
 1446SOL    HW215975   0.450   4.456   3.820  0.4174 -0.6599 -0.1222
 1447SOL     OW15976   2.874   3.203   6.805 -0.9049 -0.2228  0.0810
 1447SOL    HW115977   2.948   3.227   6.861  0.5222  2.5745 -3.0070
 1447SOL    HW215978   2.860   3.276   6.745  0.7159 -0.3924 -0.5233
 1448SOL     OW15979   3.891   4.180   5.861 -0.2519 -0.3012  0.4300
 1448SOL    HW115980   3.848   4.235   5.927  1.3854 -0.5454  1.7016
 1448SOL    HW215981   3.969   4.151   5.908  0.2407  1.5918  0.7753
 1449SOL     OW15982   3.356   2.667   3.793  0.1980 -0.3411 -0.1028
 1449SOL    HW115983   3.336   2.650   3.886 -0.7569  0.2458 -0.1937
 1449SOL    HW215984   3.326   2.589   3.746 -0.0802 -0.3850  0.1425
 1450SOL     OW15985   4.569   2.882   5.380  0.5272 -0.3422  0.1692
 1450SOL    HW115986   4.507   2.823   5.336  0.2438 -0.8400  1.2271
 1450SOL    HW215987   4.555   2.959   5.326  1.9305  0.1852  0.5827
 1451SOL     OW15988   2.139   1.293  13.991  0.3150  0.1601  0.2125
 1451SOL    HW115989   2.191   1.250  14.059  0.6905  0.8186  0.3460
 1451SOL    HW215990   2.061   1.238  13.981  0.2165  0.0664  1.5315
 1452SOL     OW15991   3.755   0.870   0.536  0.1695 -0.8441 -0.3862
 1452SOL    HW115992   3.674   0.871   0.486 -0.9661 -0.4044  1.4526
 1452SOL    HW215993   3.773   0.963   0.543 -0.0711 -0.6874 -1.9190
 1453SOL     OW15994   3.495   4.095  16.916  0.0085  0.3787 -0.9827
 1453SOL    HW115995   3.511   4.004  16.889 -1.4768 -0.3115  0.5107
 1453SOL    HW215996   3.400   4.104  16.916 -0.0940 -0.7033  0.7564
 1454SOL     OW15997   0.579   0.348   6.041  0.2330 -0.1197 -0.7107
 1454SOL    HW115998   0.660   0.382   6.079  0.3501 -0.6377 -0.5018
 1454SOL    HW215999   0.545   0.413   5.979 -0.8985  1.4109  1.5189
 1455SOL     OW16000   1.976   2.641   4.469 -0.5368  0.1503 -0.2706
 1455SOL    HW116001   2.000   2.680   4.384 -0.1105 -0.5893 -0.4841
 1455SOL    HW216002   2.009   2.552   4.458 -0.2373  0.3847 -1.2629
 1456SOL     OW16003   1.927   2.320   7.005  0.1807 -0.0384  0.5577
 1456SOL    HW116004   2.005   2.345   6.956  0.6140 -1.1499  0.6935
 1456SOL    HW216005   1.926   2.393   7.068 -1.5850  2.0726 -1.9241
 1457SOL     OW16006   2.819   0.998  13.820  0.4026 -0.0369 -1.0427
 1457SOL    HW116007   2.890   0.959  13.769  1.8792 -1.1206  1.8630
 1457SOL    HW216008   2.828   0.932  13.888  0.7521 -0.3549 -1.3964
 1458SOL     OW16009   4.490   0.497   7.731 -0.6227  0.2205  0.5235
 1458SOL    HW116010   4.451   0.427   7.680  1.2038 -0.2694 -0.2216
 1458SOL    HW216011   4.485   0.562   7.661  0.1397  2.3200  2.4197
 1459SOL     OW16012   2.237   0.154   7.514  0.3247  0.3751  0.2560
 1459SOL    HW116013   2.227   0.179   7.605 -2.1178  0.8179 -0.1412
 1459SOL    HW216014   2.149   0.162   7.478  1.1384  2.0323 -1.4006
 1460SOL     OW16015   2.592   2.252   5.749  0.0681 -0.7685 -0.2646
 1460SOL    HW116016   2.576   2.304   5.827 -0.0598 -0.0188 -0.7904
 1460SOL    HW216017   2.517   2.267   5.691 -0.0685 -0.0508  0.1038
 1461SOL     OW16018   1.642   0.478   3.591  0.5336 -0.3061 -0.4621
 1461SOL    HW116019   1.670   0.532   3.665 -1.3002  1.9104 -1.3840
 1461SOL    HW216020   1.687   0.534   3.527  0.9731 -0.3916 -0.2296
 1462SOL     OW16021   4.281   2.703  17.586  0.5431  0.0461  0.2972
 1462SOL    HW116022   4.255   2.771  17.524  1.1577  0.3501  0.3812
 1462SOL    HW216023   4.375   2.719  17.595  0.7982 -0.9082 -0.6671
 1463SOL     OW16024   1.239   3.752   4.398 -0.1232  0.5422  0.3630
 1463SOL    HW116025   1.216   3.805   4.475 -2.8998  0.0662 -0.1451
 1463SOL    HW216026   1.171   3.782   4.337  0.0027  0.6989  0.2997
 1464SOL     OW16027   3.049   3.954   1.783  0.8075 -0.2301  0.2942
 1464SOL    HW116028   2.989   3.885   1.813 -0.4323  0.3656 -0.8152
 1464SOL    HW216029   3.133   3.912   1.801  0.6229  0.7818  3.5901
 1465SOL     OW16030   0.820   1.583   3.705  0.0599  0.0937  0.6446
 1465SOL    HW116031   0.857   1.503   3.742  1.2765  0.9199  1.2138
 1465SOL    HW216032   0.815   1.643   3.779 -2.2533 -0.3431  0.8466
 1466SOL     OW16033   2.304   1.191   8.941 -0.3911  0.1298  0.1491
 1466SOL    HW116034   2.350   1.252   8.998  0.0935 -0.4457  0.3850
 1466SOL    HW216035   2.291   1.250   8.867  0.2430 -3.5543 -2.9218
 1467SOL     OW16036   2.068   3.821   5.576  0.7053  0.0440 -0.7370
 1467SOL    HW116037   2.071   3.740   5.526  0.1693 -0.5448  0.1776
 1467SOL    HW216038   1.977   3.850   5.565  1.0150  1.3197  0.0683
 1468SOL     OW16039   3.297   2.994  13.821  0.5077 -0.1607 -0.1750
 1468SOL    HW116040   3.290   2.975  13.727 -1.7686  0.6989 -0.1762
 1468SOL    HW216041   3.216   3.041  13.838  0.6272 -0.3261  0.8706
 1469SOL     OW16042   2.846   0.354   5.589  0.5768 -0.4620  0.2115
 1469SOL    HW116043   2.852   0.278   5.648  1.3516 -0.7288 -0.2070
 1469SOL    HW216044   2.891   0.321   5.511 -2.1419  1.6695 -2.2160
 1470SOL     OW16045   0.329   3.082   6.806 -0.2636  0.1936 -0.0161
 1470SOL    HW116046   0.262   3.147   6.826 -2.0859 -1.0642 -2.0491
 1470SOL    HW216047   0.395   3.108   6.871  1.1405 -0.0884 -1.3110
 1471SOL     OW16048   3.897   3.640   8.046  0.4221 -0.0076 -0.1390
 1471SOL    HW116049   3.837   3.673   8.112  0.9521 -0.1511  0.4154
 1471SOL    HW216050   3.841   3.644   7.968  0.5275 -0.5412 -0.2461
 1472SOL     OW16051   1.175   1.057   5.070 -0.0587 -0.3531 -0.4799
 1472SOL    HW116052   1.246   0.993   5.063  1.1679  1.1694 -1.8027
 1472SOL    HW216053   1.154   1.062   4.977 -1.6077 -0.1402 -0.1230
 1473SOL     OW16054   3.471   2.470   2.080 -0.0236  0.1338  1.0944
 1473SOL    HW116055   3.480   2.496   2.171 -2.3364 -1.2163  1.7288
 1473SOL    HW216056   3.554   2.422   2.072 -0.9469 -1.0706 -1.2266
 1474SOL     OW16057   4.278   4.439  14.912 -0.0635 -0.0015 -0.1447
 1474SOL    HW116058   4.191   4.413  14.945  1.2300 -0.7877  2.7034
 1474SOL    HW216059   4.326   4.418  14.992 -1.4117 -0.8365  0.4539
 1475SOL     OW16060   0.977   3.663  15.570 -0.3972  0.0725  0.0618
 1475SOL    HW116061   0.921   3.739  15.552 -1.8959 -1.0204  0.1337
 1475SOL    HW216062   1.052   3.670  15.512  0.0368  1.4863  0.7850
 1476SOL     OW16063   0.848   0.033  11.629  0.1803 -0.4192 -0.3251
 1476SOL    HW116064   0.915   0.076  11.681  1.6772 -1.9116 -1.0210
 1476SOL    HW216065   0.791   0.108  11.610 -0.5738 -1.1506 -0.9727
 1477SOL     OW16066   2.529   1.367   9.564  0.1980 -0.2857  0.2298
 1477SOL    HW116067   2.544   1.397   9.474 -1.1235  1.1221  0.4899
 1477SOL    HW216068   2.435   1.385   9.565  0.0131 -1.1405 -0.8571
 1478SOL     OW16069   2.550   2.080  17.509  0.0460 -0.1137  0.4279
 1478SOL    HW116070   2.526   2.096  17.418  1.2495  0.5774  0.2333
 1478SOL    HW216071   2.620   2.140  17.535 -1.0714  1.4011 -0.0379
 1479SOL     OW16072   1.350   1.552  14.848  0.4815  0.6293  0.4318
 1479SOL    HW116073   1.298   1.532  14.926  3.4543 -1.5732  1.8605
 1479SOL    HW216074   1.330   1.476  14.794  0.0709  1.1389 -0.1291
 1480SOL     OW16075   2.271   0.075   6.423 -0.2275  0.0935  0.3010
 1480SOL    HW116076   2.301   0.032   6.343  0.5731  2.0189 -0.4356
 1480SOL    HW216077   2.343   0.133   6.446 -0.3005 -0.8032  2.7745
 1481SOL     OW16078   2.410   0.672   9.083 -0.1412  0.6773  0.5883
 1481SOL    HW116079   2.361   0.746   9.049 -0.8327  0.7560  1.7449
 1481SOL    HW216080   2.456   0.644   9.004 -0.5559 -0.5372  0.7763
 1482SOL     OW16081   2.414   2.227   1.521  0.2218  0.4389 -0.0121
 1482SOL    HW116082   2.462   2.190   1.595 -0.0791 -0.5593 -0.3136
 1482SOL    HW216083   2.482   2.222   1.453  0.6718  0.8840  0.4105
 1483SOL     OW16084   0.600   2.211   2.760 -0.6487  0.2875  0.4634
 1483SOL    HW116085   0.590   2.128   2.713  0.1427 -0.5046  1.7106
 1483SOL    HW216086   0.528   2.264   2.726 -0.0612  0.2972 -0.8018
 1484SOL     OW16087   0.655   0.010   2.519 -0.5574 -0.4407 -0.0307
 1484SOL    HW116088   0.681   4.674   2.571  0.8074  0.6533  0.8593
 1484SOL    HW216089   0.739   0.052   2.499 -1.3276  0.2636 -1.8444
 1485SOL     OW16090   2.991   3.450  16.298 -0.0264 -0.3678  0.2789
 1485SOL    HW116091   3.073   3.454  16.250  1.0633 -0.8487  2.0971
 1485SOL    HW216092   2.942   3.383  16.251 -2.0403  0.6719  0.9096
 1486SOL     OW16093   0.087   2.786   8.129  0.3017 -0.2769  0.6140
 1486SOL    HW116094   0.175   2.819   8.150  0.5616 -0.4220 -0.2529
 1486SOL    HW216095   0.025   2.858   8.135 -1.0427 -1.3946  0.1379
 1487SOL     OW16096   0.971   1.080  16.049  0.3885  0.0563 -0.2146
 1487SOL    HW116097   1.046   1.112  15.998  1.3922 -1.3719  0.3786
 1487SOL    HW216098   0.997   0.994  16.080  2.0799  0.5183 -0.3163
 1488SOL     OW16099   0.470   1.674   7.378  0.0150  0.3098  0.0271
 1488SOL    HW116100   0.445   1.625   7.456 -2.7712 -2.1279 -2.4131
 1488SOL    HW216101   0.547   1.621   7.359 -1.0734 -1.4204  0.4573
 1489SOL     OW16102   1.557   3.353   7.152  0.4814 -0.5103 -0.1633
 1489SOL    HW116103   1.645   3.317   7.136  1.4500  2.7571 -2.2662
 1489SOL    HW216104   1.578   3.446   7.144 -0.8996 -0.2560 -0.8377
 1490SOL     OW16105   3.904   2.919  12.238  0.6996  0.4021 -0.3955
 1490SOL    HW116106   3.820   2.895  12.199  1.0484  0.1750 -1.0106
 1490SOL    HW216107   3.902   3.012  12.213 -1.7960  0.4302 -0.0795
 1491SOL     OW16108   2.622   1.140   9.671 -0.3793 -0.1101 -0.3921
 1491SOL    HW116109   2.587   1.217   9.626 -0.3445  0.9054  1.3415
 1491SOL    HW216110   2.550   1.129   9.734 -2.1735  1.6541 -2.1444
 1492SOL     OW16111   1.734   0.327  11.212  0.1202  0.1753 -0.1068
 1492SOL    HW116112   1.791   0.261  11.175  0.0973  0.0875  0.0118
 1492SOL    HW216113   1.665   0.323  11.145 -0.0265  0.0534  0.0503
 1493SOL     OW16114   0.191   0.791  13.778  0.3597  0.2466  0.6066
 1493SOL    HW116115   0.232   0.861  13.828  3.2669 -1.8162  1.1119
 1493SOL    HW216116   0.196   0.823  13.688 -0.9964 -0.3125  0.3244
 1494SOL     OW16117   3.703   1.073   2.418  0.1654  0.3490  0.4356
 1494SOL    HW116118   3.740   0.986   2.403  0.6352  0.5398  0.4577
 1494SOL    HW216119   3.621   1.052   2.375  0.7859  2.0490 -1.6138
 1495SOL     OW16120   4.596   0.246   6.310  0.2073 -0.1318 -0.3393
 1495SOL    HW116121   4.613   0.202   6.394  2.9593  2.2813  0.3492
 1495SOL    HW216122   4.589   0.337   6.340 -1.1493 -0.2043 -0.4072
 1496SOL     OW16123   0.101   1.696  15.902 -0.4594  0.2592 -0.0133
 1496SOL    HW116124   0.030   1.665  15.846 -1.2199  0.3964  0.8745
 1496SOL    HW216125   0.061   1.782  15.917 -0.6925  0.5213 -2.2005
 1497SOL     OW16126   4.506   0.509   8.314 -0.2109  0.7314 -0.0400
 1497SOL    HW116127   4.439   0.574   8.334  0.4246  1.8016 -1.3312
 1497SOL    HW216128   4.562   0.513   8.391  1.0511  2.4225 -1.0395
 1498SOL     OW16129   0.654   0.006  16.869  0.1826 -0.2465 -0.3046
 1498SOL    HW116130   0.568   0.037  16.899  0.8091  1.4027 -0.2126
 1498SOL    HW216131   0.685   0.067  16.802 -4.3104  0.2753 -1.9142
 1499SOL     OW16132   1.413   3.898   6.969 -0.6824  0.2360 -0.3315
 1499SOL    HW116133   1.424   3.988   6.937  1.6821 -0.1631 -0.6256
 1499SOL    HW216134   1.417   3.916   7.063  0.9884 -0.3660 -0.2990
 1500SOL     OW16135   2.038   1.548   3.362 -0.2358 -0.1990 -0.7084
 1500SOL    HW116136   2.041   1.554   3.457 -0.0405 -0.3556 -0.7036
 1500SOL    HW216137   2.076   1.460   3.357 -1.1207 -0.5191 -1.7719
 1501SOL     OW16138   0.661   2.434   1.746  0.7746 -0.0019  0.6249
 1501SOL    HW116139   0.584   2.399   1.791  0.6509  0.3236  0.6656
 1501SOL    HW216140   0.733   2.385   1.785  1.9653  0.5858 -0.8312
 1502SOL     OW16141   2.897   1.492   0.139 -0.0186 -0.0781 -0.3384
 1502SOL    HW116142   2.820   1.546   0.125  0.0867 -0.0209 -0.6854
 1502SOL    HW216143   2.861   1.407   0.112 -1.8139  0.5131  0.1920
 1503SOL     OW16144   0.699   1.039   2.601  0.0779  0.4378 -0.9920
 1503SOL    HW116145   0.678   1.016   2.692  1.6103 -0.8328 -0.9539
 1503SOL    HW216146   0.608   1.047   2.571 -0.2090  0.6807 -0.0780
 1504SOL     OW16147   4.102   3.423   8.019 -0.3117 -0.0905 -0.4320
 1504SOL    HW116148   4.124   3.422   7.926  1.4605 -0.4163 -0.0209
 1504SOL    HW216149   4.072   3.513   8.025 -1.1743 -0.4636  0.9295
 1505SOL     OW16150   3.123   1.642   1.061  0.1200  0.5351  0.1533
 1505SOL    HW116151   3.160   1.566   1.017 -0.3830  0.2813  0.1719
 1505SOL    HW216152   3.145   1.707   0.994 -0.1981  0.0248 -0.4340
 1506SOL     OW16153   0.705   3.865   9.032  0.6862 -0.1491 -0.3683
 1506SOL    HW116154   0.617   3.871   8.996  0.7677 -0.5841 -0.6413
 1506SOL    HW216155   0.749   3.908   8.958  1.3652  0.4724  0.3962
 1507SOL     OW16156   0.514   3.459  12.873  0.5398  0.0749  0.1585
 1507SOL    HW116157   0.448   3.400  12.839 -1.6607  0.8599  3.0254
 1507SOL    HW216158   0.460   3.533  12.901  1.9392  1.3867 -0.6293
 1508SOL     OW16159   2.376   2.979   9.827  0.3496  0.0380  0.5086
 1508SOL    HW116160   2.332   2.916   9.884 -1.1720 -0.0310 -0.7298
 1508SOL    HW216161   2.343   3.064   9.855  0.0040  0.1083 -0.1128
 1509SOL     OW16162   1.227   3.291   0.937 -0.4602 -0.2920  0.0477
 1509SOL    HW116163   1.276   3.360   0.893  0.4131 -0.3777  0.8965
 1509SOL    HW216164   1.147   3.289   0.883 -0.2985 -1.9891 -0.1345
 1510SOL     OW16165   4.565   0.914   5.451 -0.5615  0.4694  0.5306
 1510SOL    HW116166   4.641   0.903   5.508  0.8534  0.2998 -1.3912
 1510SOL    HW216167   4.517   0.831   5.460 -0.9913  0.6243 -0.3115
 1511SOL     OW16168   3.418   1.952  15.054 -0.4924  0.2560  0.5459
 1511SOL    HW116169   3.409   2.013  15.128  0.1032  1.4603 -0.3660
 1511SOL    HW216170   3.494   1.898  15.077 -0.6806 -1.2578 -2.3976
 1512SOL     OW16171   4.167   3.391   3.854 -0.2177 -0.6926  0.1971
 1512SOL    HW116172   4.157   3.466   3.912 -0.2520 -0.4189 -0.1633
 1512SOL    HW216173   4.086   3.407   3.806 -1.6272 -1.2254  2.3926
 1513SOL     OW16174   2.890   3.902   5.437  0.1712  0.2381 -0.1104
 1513SOL    HW116175   2.802   3.902   5.400  0.2686  2.9021 -0.3662
 1513SOL    HW216176   2.927   3.981   5.397  1.5927 -0.0404  0.6677
 1514SOL     OW16177   4.618   2.698   3.278 -0.3288  0.7914 -0.0318
 1514SOL    HW116178   4.651   2.787   3.273 -0.9629  0.9272 -2.1259
 1514SOL    HW216179   4.698   2.655   3.248  0.9057  0.9653  3.0826
 1515SOL     OW16180   2.513   1.295   6.684 -0.3052 -0.4894 -0.6962
 1515SOL    HW116181   2.457   1.367   6.655 -1.9196 -0.7188  1.8410
 1515SOL    HW216182   2.481   1.289   6.774 -1.8591 -1.7616 -1.3305
 1516SOL     OW16183   1.723   0.215   8.733 -0.0636 -0.1672 -0.3617
 1516SOL    HW116184   1.752   0.245   8.819  0.2337  2.0276 -1.2200
 1516SOL    HW216185   1.710   0.301   8.692  0.2257  0.3816  0.6799
 1517SOL     OW16186   0.102   0.610   1.450 -0.1000  0.0002  0.4849
 1517SOL    HW116187   0.162   0.569   1.512  1.1753  1.2520  0.0798
 1517SOL    HW216188   0.087   0.697   1.488  1.0016  0.0400  0.8386
 1518SOL     OW16189   3.652   0.420   1.204  0.0969  0.0766  0.6054
 1518SOL    HW116190   3.569   0.460   1.229 -0.1966 -1.0739  1.4932
 1518SOL    HW216191   3.690   0.394   1.288  0.4912  1.6666  0.9204
 1519SOL     OW16192   3.933   3.858  13.320  0.0744  0.0816  0.0580
 1519SOL    HW116193   3.953   3.865  13.414 -0.9643  0.4819  0.2439
 1519SOL    HW216194   3.886   3.936  13.290  0.0555  0.4975  1.1314
 1520SOL     OW16195   2.904   1.153   4.603 -0.8409  0.0810 -0.2456
 1520SOL    HW116196   2.995   1.181   4.604 -0.9553  0.4928 -0.7969
 1520SOL    HW216197   2.904   1.058   4.614  0.6385  0.2552  1.1406
 1521SOL     OW16198   3.580   4.719  10.829  0.0885 -0.1122  0.4695
 1521SOL    HW116199   3.630   0.022  10.898  1.0708  1.4845 -1.2474
 1521SOL    HW216200   3.569   4.626  10.850  0.5751 -0.1358  0.6027
 1522SOL     OW16201   2.551   2.023   8.434  0.1309 -0.3625  0.7398
 1522SOL    HW116202   2.640   2.005   8.463  0.1146 -1.2779  0.2278
 1522SOL    HW216203   2.525   1.931   8.443  0.9352 -0.5870  0.7463
 1523SOL     OW16204   2.365   2.642   1.307  0.3744  0.4048  0.1306
 1523SOL    HW116205   2.411   2.605   1.383 -2.4684 -1.9287  0.7229
 1523SOL    HW216206   2.437   2.680   1.257 -1.8063  3.1492 -0.8514
 1524SOL     OW16207   3.303   0.524   8.439 -0.0281  0.2772  0.0100
 1524SOL    HW116208   3.212   0.498   8.431  0.5407 -1.1013 -1.9743
 1524SOL    HW216209   3.341   0.445   8.478  1.1723  0.2933 -1.1308
 1525SOL     OW16210   4.163   0.617   2.938  0.0065 -0.0642 -0.3049
 1525SOL    HW116211   4.169   0.712   2.936 -2.9350  0.1290 -0.4503
 1525SOL    HW216212   4.163   0.595   3.031  2.2335  1.2716  0.0008
 1526SOL     OW16213   1.341   4.144   2.056 -0.0945  0.1805 -0.1466
 1526SOL    HW116214   1.431   4.174   2.042 -0.0631 -0.5850 -1.5792
 1526SOL    HW216215   1.360   4.055   2.024  0.3340  0.7618 -1.5253
 1527SOL     OW16216   4.109   1.060  15.446  0.1251  0.3790 -0.2183
 1527SOL    HW116217   4.044   1.043  15.378  0.8361  0.4741 -0.9058
 1527SOL    HW216218   4.191   1.016  15.425  0.0471  0.6736 -1.1038
 1528SOL     OW16219   3.889   2.569   7.948  0.6823 -0.4219 -0.1955
 1528SOL    HW116220   3.825   2.546   8.015  2.5942 -2.0975  1.0869
 1528SOL    HW216221   3.970   2.552   7.997  0.8747  1.8951  0.2863
 1529SOL     OW16222   4.433   0.887   0.623 -0.5061 -0.3364 -0.1151
 1529SOL    HW116223   4.344   0.918   0.606 -0.7632 -1.2229 -0.4208
 1529SOL    HW216224   4.410   0.818   0.686 -1.5533 -0.0952 -0.2275
 1530SOL     OW16225   1.738   0.200   6.541  0.2468  0.3414 -0.3141
 1530SOL    HW116226   1.734   0.124   6.599  1.6727  0.7735  0.3515
 1530SOL    HW216227   1.658   0.178   6.493 -0.9630  3.1440  0.4245
 1531SOL     OW16228   0.058   4.351   3.477  0.4647 -0.2942 -0.3665
 1531SOL    HW116229   0.017   4.403   3.408  1.5376  1.0709  0.0057
 1531SOL    HW216230   0.034   4.406   3.551 -0.6362  0.6813 -1.4470
 1532SOL     OW16231   0.056   0.684   9.089 -0.4565 -0.4339  0.0907
 1532SOL    HW116232   0.088   0.688   9.179 -1.5500 -0.0337  0.4635
 1532SOL    HW216233   4.728   0.623   9.120 -0.8455  0.7114  1.5137
 1533SOL     OW16234   0.888   1.293   8.626 -0.0445 -0.7306  0.3272
 1533SOL    HW116235   0.944   1.241   8.568  0.0627 -0.5922  0.3080
 1533SOL    HW216236   0.849   1.221   8.675  0.9206 -1.8542 -0.5497
 1534SOL     OW16237   2.059   2.825   2.341  0.5212  0.0281 -0.0622
 1534SOL    HW116238   2.107   2.801   2.420  1.8041  2.2582 -0.1929
 1534SOL    HW216239   1.990   2.883   2.373  1.4517  0.5419  1.0049
 1535SOL     OW16240   0.344   2.467   1.435  0.0415 -0.0295 -0.8063
 1535SOL    HW116241   0.364   2.496   1.525 -1.6590  0.5058 -0.6132
 1535SOL    HW216242   0.322   2.377   1.459  0.8348 -0.1082 -0.3502
 1536SOL     OW16243   1.431   3.587   9.323 -0.0271  0.5110  0.1609
 1536SOL    HW116244   1.439   3.576   9.229  0.0052  3.1008 -0.1334
 1536SOL    HW216245   1.447   3.681   9.336  0.0435  0.8514 -2.5365
 1537SOL     OW16246   3.636   4.107  13.442 -0.3115 -0.2513  0.0745
 1537SOL    HW116247   3.690   4.081  13.368  0.8497  1.8120  0.1965
 1537SOL    HW216248   3.662   4.195  13.469 -0.8197 -0.4696  1.2645
 1538SOL     OW16249   1.842   1.766  12.176 -0.2645  0.2874 -0.3891
 1538SOL    HW116250   1.934   1.750  12.152 -0.0455 -0.1676  0.7026
 1538SOL    HW216251   1.834   1.757  12.271 -1.2882  0.1468 -0.4974
 1539SOL     OW16252   4.208   2.954  14.735  0.0801 -0.1956 -0.4606
 1539SOL    HW116253   4.127   2.961  14.685 -0.2056  0.6210  0.1197
 1539SOL    HW216254   4.265   2.959  14.658  1.7592 -3.4494  0.5892
 1540SOL     OW16255   0.865   2.564   6.395  0.3024 -0.6652 -0.4118
 1540SOL    HW116256   0.848   2.594   6.305 -1.2573  0.4476  0.2518
 1540SOL    HW216257   0.951   2.605   6.407 -1.2986  2.3730  0.6292
 1541SOL     OW16258   0.482   4.133   0.100  0.5007  0.2265 -0.2793
 1541SOL    HW116259   0.419   4.061   0.112  0.1304  0.7511  1.0188
 1541SOL    HW216260   0.428   4.210   0.084 -1.6599 -1.7929 -2.6430
 1542SOL     OW16261   2.305   3.292   6.897  0.2836 -0.2813 -0.0935
 1542SOL    HW116262   2.235   3.247   6.850 -0.0046 -1.4673  1.4568
 1542SOL    HW216263   2.304   3.262   6.988 -0.2198  1.9522  0.6525
 1543SOL     OW16264   1.742   1.676  16.294 -0.1996 -0.0431  0.2053
 1543SOL    HW116265   1.731   1.596  16.243  0.2027  0.3575 -0.5104
 1543SOL    HW216266   1.784   1.642  16.373  0.3336  0.2360  0.0413
 1544SOL     OW16267   0.445   2.851   6.105 -0.0876 -0.1262  0.0744
 1544SOL    HW116268   0.370   2.795   6.086  0.4593 -1.3850  1.6597
 1544SOL    HW216269   0.427   2.884   6.193 -0.5419  1.4320 -0.6021
 1545SOL     OW16270   3.485   0.425   3.316  0.6370 -0.2933 -0.3446
 1545SOL    HW116271   3.544   0.471   3.376  1.1569 -1.0142 -0.3054
 1545SOL    HW216272   3.503   0.489   3.247 -0.9908  0.2490 -0.2640
 1546SOL     OW16273   0.663   4.005   6.453 -0.5897  0.6212 -0.2830
 1546SOL    HW116274   0.692   4.047   6.534  0.4239  1.0061 -0.8457
 1546SOL    HW216275   0.709   3.921   6.461 -0.6445  0.8583  2.7785
 1547SOL     OW16276   2.371   4.035   8.124 -0.4791  0.6460 -0.1892
 1547SOL    HW116277   2.326   4.037   8.208 -3.3318 -1.7356 -1.6995
 1547SOL    HW216278   2.448   4.089   8.145 -0.0719  0.2623 -0.7083
 1548SOL     OW16279   3.253   1.712   7.935 -0.4477  0.5255 -0.7342
 1548SOL    HW116280   3.202   1.792   7.922  0.2064  0.9238 -0.8738
 1548SOL    HW216281   3.343   1.744   7.932 -0.2609  0.1917  1.1048
 1549SOL     OW16282   3.479   2.553   2.345  0.4282  0.5000 -0.0690
 1549SOL    HW116283   3.425   2.510   2.410 -0.8330  1.0952 -0.7235
 1549SOL    HW216284   3.484   2.639   2.387  3.1114  1.3294 -2.0651
 1550SOL     OW16285   0.693   3.195   1.313  0.3991 -0.3162 -0.5163
 1550SOL    HW116286   0.699   3.115   1.365  0.0959 -0.0904 -0.1387
 1550SOL    HW216287   0.603   3.183   1.281  0.3048 -0.6298 -0.1307
 1551SOL     OW16288   1.348   0.285   8.138 -0.0929 -0.4734  0.4319
 1551SOL    HW116289   1.290   0.327   8.076  0.2757  0.0423  0.4414
 1551SOL    HW216290   1.433   0.305   8.100  0.3771 -0.9296  1.2344
 1552SOL     OW16291   0.491   1.992  16.006  0.0935 -0.7708 -0.5061
 1552SOL    HW116292   0.444   1.940  15.941 -1.3686 -0.7216  0.5190
 1552SOL    HW216293   0.581   1.982  15.974 -0.1829 -1.7821 -0.9543
 1553SOL     OW16294   3.902   4.074   2.274  0.2499  0.1248 -0.1956
 1553SOL    HW116295   3.978   4.089   2.330  0.0688  1.3878 -0.2960
 1553SOL    HW216296   3.831   4.117   2.321 -0.1312 -0.1469 -0.5244
 1554SOL     OW16297   0.907   0.547   7.741  0.2402  0.2411 -0.4495
 1554SOL    HW116298   0.966   0.472   7.746 -0.7366 -0.4276  1.0664
 1554SOL    HW216299   0.871   0.540   7.653  0.4435 -0.1660 -0.5004
 1555SOL     OW16300   0.707   0.975   6.174  0.1994 -0.0240  0.3722
 1555SOL    HW116301   0.671   0.948   6.089 -0.3692  0.7469  0.3656
 1555SOL    HW216302   0.719   1.068   6.160 -0.8175  0.0227 -0.1794
 1556SOL     OW16303   1.090   1.853   1.101  0.0199 -0.2597  0.0062
 1556SOL    HW116304   1.144   1.927   1.130 -0.9172  0.3499  0.2161
 1556SOL    HW216305   1.040   1.888   1.026  0.8222 -1.4330 -1.0638
 1557SOL     OW16306   2.907   2.436  10.809  0.2284  0.8590 -0.7366
 1557SOL    HW116307   2.818   2.423  10.779 -0.0659 -0.6427  0.8067
 1557SOL    HW216308   2.939   2.508  10.755 -0.4241  2.0456  0.4589
 1558SOL     OW16309   1.477   0.064  10.434  0.3444  0.3807  0.6330
 1558SOL    HW116310   1.434   0.103  10.358 -0.3543 -1.3460  0.1433
 1558SOL    HW216311   1.407   0.028  10.489  0.2578  0.2087  0.4061
 1559SOL     OW16312   1.007   2.969   7.591  0.1527  0.6325  0.2718
 1559SOL    HW116313   0.938   2.902   7.582  1.0696 -0.2845  0.0083
 1559SOL    HW216314   0.970   3.016   7.666 -2.3282  1.9064 -1.7411
 1560SOL     OW16315   0.672   2.038   0.983  0.1649  0.3272  0.0145
 1560SOL    HW116316   0.623   2.083   1.052  1.0701  0.3201  0.6570
 1560SOL    HW216317   0.627   2.080   0.909 -0.6959 -0.5045  0.0787
 1561SOL     OW16318   3.118   1.090  13.793  0.0821 -0.0964  0.4199
 1561SOL    HW116319   3.051   1.148  13.830  1.1759  1.1599  0.4347
 1561SOL    HW216320   3.138   1.027  13.862  0.5155 -1.5632 -1.0448
 1562SOL     OW16321   3.138   0.869   3.511 -0.4907  0.4979  0.0453
 1562SOL    HW116322   3.196   0.838   3.579 -0.7675  2.4341  1.1749
 1562SOL    HW216323   3.198   0.925   3.462  0.2647 -2.3121 -2.2229
 1563SOL     OW16324   2.123   1.518   8.930 -0.1551 -0.3956 -0.5094
 1563SOL    HW116325   2.077   1.525   9.014  2.3379  0.3142  0.8208
 1563SOL    HW216326   2.074   1.441   8.902  0.5023 -1.3713  1.0077
 1564SOL     OW16327   0.528   1.469   1.155  0.7158  0.6793 -0.1717
 1564SOL    HW116328   0.513   1.465   1.249  0.6350  0.0855 -0.2078
 1564SOL    HW216329   0.466   1.539   1.134 -1.1785  0.0908  3.4507
 1565SOL     OW16330   2.218   0.903  17.432  0.8388 -0.0911 -0.3616
 1565SOL    HW116331   2.275   0.976  17.408  0.3970  0.7662  1.1773
 1565SOL    HW216332   2.203   0.852  17.353  0.6271  1.3620 -1.2543
 1566SOL     OW16333   1.079   3.230   0.518 -0.7959  0.5525 -0.3043
 1566SOL    HW116334   1.083   3.143   0.479  0.3305  0.8526 -0.8713
 1566SOL    HW216335   1.080   3.289   0.443  2.1809 -0.3533 -0.9511
 1567SOL     OW16336   3.526   0.320   1.903 -0.2148  0.5966  1.1532
 1567SOL    HW116337   3.492   0.400   1.863  0.4947 -0.3845 -1.4154
 1567SOL    HW216338   3.506   0.332   1.996 -0.5855  0.3328  1.1072
 1568SOL     OW16339   2.040   0.893  10.018 -0.9566 -0.3210 -0.0597
 1568SOL    HW116340   2.068   0.848   9.939 -1.3628 -2.1581  0.8424
 1568SOL    HW216341   1.948   0.867  10.024 -1.6799  2.2418 -0.0862
 1569SOL     OW16342   1.697   0.365   3.156 -0.0115  0.0492  0.1541
 1569SOL    HW116343   1.609   0.375   3.120 -0.1457 -0.7805  0.2518
 1569SOL    HW216344   1.672   0.340   3.244  0.4515 -2.1191 -0.3294
 1570SOL     OW16345   1.755   1.084  12.911  0.6842  0.5001 -0.6460
 1570SOL    HW116346   1.827   1.146  12.899  1.5822 -0.4774 -0.3604
 1570SOL    HW216347   1.745   1.091  13.006 -0.7778  1.0198 -0.8375
 1571SOL     OW16348   2.908   1.854   0.964 -0.7238 -0.0018  0.7388
 1571SOL    HW116349   2.873   1.943   0.953 -1.4541 -0.4185 -0.3920
 1571SOL    HW216350   2.987   1.880   1.010 -0.4842 -0.1325  0.3981
 1572SOL     OW16351   2.476   3.574   4.344  0.0682 -0.0032 -0.2435
 1572SOL    HW116352   2.456   3.665   4.320 -0.2270 -0.5019 -1.9145
 1572SOL    HW216353   2.515   3.595   4.429 -1.5724  1.9051  0.0339
 1573SOL     OW16354   2.881   1.729  15.294 -0.2475  0.7353  0.3314
 1573SOL    HW116355   2.792   1.748  15.266 -0.8229 -2.2788  0.1748
 1573SOL    HW216356   2.925   1.788  15.233 -2.6911  0.0161 -2.1039
 1574SOL     OW16357   3.587   3.566   6.586 -0.5126 -0.0033 -0.2942
 1574SOL    HW116358   3.594   3.651   6.629  0.8281 -1.1730  1.7597
 1574SOL    HW216359   3.527   3.585   6.513 -0.0839  1.5025 -0.2616
 1575SOL     OW16360   0.162   2.539  11.947  0.6609  0.6256 -0.5772
 1575SOL    HW116361   0.197   2.490  12.021 -0.8484  0.5333  0.0779
 1575SOL    HW216362   0.084   2.490  11.921  0.9869  0.1082 -0.5851
 1576SOL     OW16363   1.059   1.817   4.812  0.0946  0.0096  0.2129
 1576SOL    HW116364   1.040   1.867   4.892  0.0670 -0.7933  0.7110
 1576SOL    HW216365   0.968   1.792   4.793 -0.3954 -1.1951  4.0674
 1577SOL     OW16366   2.283   3.242   4.926 -0.1181  0.0193 -0.4049
 1577SOL    HW116367   2.304   3.149   4.937  0.3069  0.0149 -1.2457
 1577SOL    HW216368   2.357   3.274   4.978  0.3398 -0.9218 -0.4740
 1578SOL     OW16369   3.792   0.774   3.658 -0.0498 -1.4082  0.1491
 1578SOL    HW116370   3.757   0.836   3.723 -0.8383  0.1254 -1.7215
 1578SOL    HW216371   3.758   0.811   3.577  1.4062  1.9508  1.0816
 1579SOL     OW16372   1.648   4.067   9.044  0.1105  0.0371 -0.1280
 1579SOL    HW116373   1.705   3.998   9.012  0.9455  0.3452  0.6906
 1579SOL    HW216374   1.668   4.060   9.138 -2.4431 -0.2078  0.3973
 1580SOL     OW16375   2.953   0.716   2.735 -0.1274  0.1389  0.1915
 1580SOL    HW116376   3.012   0.745   2.805  0.9646 -0.4789 -0.4616
 1580SOL    HW216377   2.936   0.802   2.697 -0.6856  0.1787  0.5313
 1581SOL     OW16378   3.250   4.053   3.455  0.0385 -0.0871 -0.3039
 1581SOL    HW116379   3.255   4.055   3.550  2.0832 -1.8871 -0.3893
 1581SOL    HW216380   3.155   4.041   3.447  0.2333 -1.6001 -0.3428
 1582SOL     OW16381   3.634   0.459   4.522 -1.4311 -0.1328 -0.2504
 1582SOL    HW116382   3.558   0.413   4.488 -1.0145 -1.3201  0.4048
 1582SOL    HW216383   3.588   0.534   4.559  2.9413  1.8820  1.1991
 1583SOL     OW16384   4.227   3.984  12.758  0.1613 -0.9135 -0.0256
 1583SOL    HW116385   4.162   3.959  12.823  0.1838  2.3617  1.2355
 1583SOL    HW216386   4.193   3.939  12.681 -3.1116 -2.3729  2.2860
 1584SOL     OW16387   3.612   3.227  13.075 -0.5205 -0.0759  0.2715
 1584SOL    HW116388   3.620   3.150  13.020 -0.2955  0.6488 -0.7126
 1584SOL    HW216389   3.576   3.287  13.010 -0.0150 -0.7032 -0.5893
 1585SOL     OW16390   4.367   1.889   9.231 -0.3790 -0.3081  0.6653
 1585SOL    HW116391   4.329   1.801   9.233 -0.0807 -0.5069 -2.4786
 1585SOL    HW216392   4.398   1.910   9.144 -3.9454  0.3973 -0.4498
 1586SOL     OW16393   4.578   2.078   7.631 -0.3278  0.3256  0.2801
 1586SOL    HW116394   4.504   2.139   7.622 -1.2985 -1.0294 -0.9566
 1586SOL    HW216395   4.653   2.133   7.608  2.2590 -3.4768 -0.3835
 1587SOL     OW16396   0.878   3.900   3.535 -0.2683 -0.0069  0.2544
 1587SOL    HW116397   0.843   3.913   3.447 -1.6382 -1.0258  0.6439
 1587SOL    HW216398   0.867   3.990   3.564  1.4348  0.2519  0.0747
 1588SOL     OW16399   3.376   4.654   7.448  0.2131  0.3829 -0.5345
 1588SOL    HW116400   3.446   4.644   7.513 -2.0564 -2.1850  1.5083
 1588SOL    HW216401   3.343   0.003   7.462 -0.5093  0.3993 -2.3498
 1589SOL     OW16402   3.787   0.418  15.755  0.0466  0.6491  0.6917
 1589SOL    HW116403   3.805   0.334  15.713  2.4449  1.6941 -0.3737
 1589SOL    HW216404   3.835   0.475  15.695 -1.0638  2.1158  1.2098
 1590SOL     OW16405   1.197   1.389  12.542  0.0567  0.4724 -0.3948
 1590SOL    HW116406   1.270   1.326  12.542  0.8709  1.4119 -0.7103
 1590SOL    HW216407   1.241   1.448  12.481  0.1782  0.6298 -0.1573
 1591SOL     OW16408   2.408   2.374   4.329 -0.5532 -0.2766  0.3348
 1591SOL    HW116409   2.472   2.438   4.360 -1.8346  1.9756 -1.6783
 1591SOL    HW216410   2.457   2.343   4.253  0.1106  1.1525  0.1807
 1592SOL     OW16411   1.159   2.254   1.507  0.3766 -0.4472 -0.3030
 1592SOL    HW116412   1.074   2.266   1.464  0.6341 -1.5304 -1.1193
 1592SOL    HW216413   1.143   2.307   1.585  1.6655  0.1236 -0.4243
 1593SOL     OW16414   0.336   3.311   4.391  0.1255 -0.4360 -0.5970
 1593SOL    HW116415   0.379   3.227   4.374 -0.9337 -1.0826 -0.0246
 1593SOL    HW216416   0.367   3.349   4.473  0.3413 -3.5680  0.7893
 1594SOL     OW16417   4.391   1.647   0.559  0.1414  0.2994 -0.2188
 1594SOL    HW116418   4.441   1.726   0.536  1.6063 -1.4424 -3.0196
 1594SOL    HW216419   4.343   1.623   0.480 -2.6885 -1.4618  2.0703
 1595SOL     OW16420   0.075   2.524  13.325  0.2144 -0.0697 -0.2071
 1595SOL    HW116421   0.081   2.460  13.396  0.7390  0.3684  0.1429
 1595SOL    HW216422   0.111   2.466  13.258  0.2972 -0.5119  0.2208
 1596SOL     OW16423   2.812   2.387  14.117  0.2486 -0.2804  0.0525
 1596SOL    HW116424   2.900   2.381  14.153  1.3821  2.0591 -2.2935
 1596SOL    HW216425   2.779   2.446  14.185  1.3887 -0.0407  0.4046
 1597SOL     OW16426   0.952   2.196   7.147  0.2675 -0.2257 -0.2846
 1597SOL    HW116427   0.955   2.143   7.067  0.5939 -1.4551  0.5303
 1597SOL    HW216428   0.964   2.128   7.214  3.0435  0.8080  0.2835
 1598SOL     OW16429   0.081   0.076   9.657  0.4864  0.1589  0.2775
 1598SOL    HW116430   0.063   0.109   9.745  0.3543  1.5842 -0.2879
 1598SOL    HW216431   4.738   0.028   9.646  0.2516  0.6777 -0.2822
 1599SOL     OW16432   0.295   1.229   6.962 -0.0446  0.0223  0.1538
 1599SOL    HW116433   0.308   1.214   6.869  1.6286  3.2883 -0.1389
 1599SOL    HW216434   0.216   1.175   6.970 -0.3577  0.6457  1.2915
 1600SOL     OW16435   1.571   4.481   1.316 -0.4329  0.3348 -0.1765
 1600SOL    HW116436   1.637   4.467   1.384  0.3776 -0.4834 -1.1246
 1600SOL    HW216437   1.522   4.557   1.346 -0.9098 -0.0111 -0.0703
 1601SOL     OW16438   2.787   1.203  17.442  0.1089  0.8507 -0.2045
 1601SOL    HW116439   2.841   1.152  17.503 -0.8240  0.2732  0.1286
 1601SOL    HW216440   2.847   1.277  17.425  1.8159  0.4190  3.8567
 1602SOL     OW16441   0.410   1.650   4.670 -0.3470  0.5919  0.4860
 1602SOL    HW116442   0.358   1.646   4.750 -1.6080 -2.3854 -0.4739
 1602SOL    HW216443   0.388   1.569   4.624  0.8843  1.8524 -2.3407
 1603SOL     OW16444   1.833   0.166  16.542  0.6139 -0.0017 -0.4592
 1603SOL    HW116445   1.867   0.216  16.468 -0.1615  2.6801  0.9837
 1603SOL    HW216446   1.754   0.129  16.503  0.8351 -0.2753 -0.6461
 1604SOL     OW16447   4.428   0.013   6.474  0.3191 -0.3142  0.1797
 1604SOL    HW116448   4.461   4.713   6.394  0.7702 -1.4604  0.9226
 1604SOL    HW216449   4.418   4.676   6.531 -0.6482 -1.6529 -1.7879
 1605SOL     OW16450   4.724   4.617  11.311  0.1491  0.0764 -0.0989
 1605SOL    HW116451   4.689   4.587  11.227 -3.0032  0.0739  1.1885
 1605SOL    HW216452   4.652   4.605  11.374 -1.6654  0.6096 -2.0627
 1606SOL     OW16453   1.286   0.578   3.553 -0.2839  0.6531  0.4967
 1606SOL    HW116454   1.342   0.516   3.506  0.6059  0.6898  1.5046
 1606SOL    HW216455   1.298   0.526   3.633 -0.0801 -0.3811 -0.1968
 1607SOL     OW16456   3.624   3.536   5.697  0.0451 -0.2635  0.2651
 1607SOL    HW116457   3.667   3.450   5.693 -1.8066 -1.1336 -0.8291
 1607SOL    HW216458   3.654   3.571   5.614  1.4677 -1.2231  0.3654
 1608SOL     OW16459   0.870   2.023  13.255 -0.0938 -0.0956 -0.8281
 1608SOL    HW116460   0.826   1.966  13.192 -3.2540  1.8422 -0.3081
 1608SOL    HW216461   0.800   2.080  13.286  2.1342  3.2388 -1.9814
 1609SOL     OW16462   4.443   2.888   1.765  0.2929  0.2579  0.1358
 1609SOL    HW116463   4.526   2.933   1.758 -0.5061  1.5932 -0.7021
 1609SOL    HW216464   4.413   2.885   1.674  0.3466 -0.7723  0.1463
 1610SOL     OW16465   3.729   0.714   5.944 -0.4845  0.0967 -0.4786
 1610SOL    HW116466   3.693   0.803   5.942 -1.4943 -0.3100 -0.0433
 1610SOL    HW216467   3.768   0.708   5.857 -0.0585 -1.7480 -0.1682
 1611SOL     OW16468   0.710   2.510   2.203 -0.4484 -0.3751  0.1576
 1611SOL    HW116469   0.752   2.463   2.275  1.8929 -0.7307 -1.4615
 1611SOL    HW216470   0.740   2.600   2.220 -0.6375 -0.6266  1.8298
 1612SOL     OW16471   2.846   2.122  14.039  0.5504 -0.3252  0.2298
 1612SOL    HW116472   2.876   2.096  14.126  0.4050  1.1654  0.7278
 1612SOL    HW216473   2.827   2.214  14.060  0.5526 -0.3224  0.2192
 1613SOL     OW16474   2.806   2.265   2.341  0.7201  0.2624 -0.1612
 1613SOL    HW116475   2.855   2.212   2.278  0.7980 -1.6809  1.5090
 1613SOL    HW216476   2.722   2.268   2.294  0.2600 -1.0523  0.5712
 1614SOL     OW16477   1.039   0.197   6.230  0.7620  0.0843 -0.3172
 1614SOL    HW116478   1.003   0.167   6.313 -0.3651 -1.4079 -1.3436
 1614SOL    HW216479   0.974   0.257   6.191  2.0477  1.6688 -0.0420
 1615SOL     OW16480   3.691   0.777   8.910  0.4041 -0.2455 -0.2029
 1615SOL    HW116481   3.654   0.740   8.830  0.4135 -0.2311 -0.2140
 1615SOL    HW216482   3.619   0.780   8.974 -0.9692 -3.7003 -1.5903
 1616SOL     OW16483   3.117   4.661   7.749 -0.5227  0.6176  0.3350
 1616SOL    HW116484   3.147   0.009   7.772 -0.7052  1.0267 -0.9639
 1616SOL    HW216485   3.199   4.616   7.729  0.7518  2.2959  1.7073
 1617SOL     OW16486   1.769   0.196   5.662  0.4177  0.4832  0.0832
 1617SOL    HW116487   1.856   0.186   5.700 -0.2531 -0.7767  1.2847
 1617SOL    HW216488   1.787   0.253   5.587 -1.2401 -3.6874 -3.4601
 1618SOL     OW16489   3.768   3.824   6.482 -0.0529 -0.0555 -0.4422
 1618SOL    HW116490   3.698   3.788   6.536  2.3333 -0.3347  2.4658
 1618SOL    HW216491   3.829   3.856   6.549  1.0067 -1.0764 -0.9228
 1619SOL     OW16492   3.104   4.484  14.696 -0.8087  0.2896 -0.4488
 1619SOL    HW116493   3.050   4.533  14.634  1.4497  4.1301  0.6388
 1619SOL    HW216494   3.115   4.396  14.659  0.8029  0.9369 -1.5067
 1620SOL     OW16495   3.342   4.627   8.298  0.6267 -0.2321 -0.5296
 1620SOL    HW116496   3.331   4.713   8.338 -2.1073 -0.7573 -0.1787
 1620SOL    HW216497   3.426   4.638   8.253  0.3620  0.4691 -0.8487
 1621SOL     OW16498   1.594   3.430   2.224  0.0805 -0.0437  0.0599
 1621SOL    HW116499   1.561   3.437   2.135  0.4399  2.6545  0.1146
 1621SOL    HW216500   1.669   3.373   2.207  0.9516  1.0802  0.0975
 1622SOL     OW16501   3.256   0.063   8.022  0.0061  0.2039 -0.8341
 1622SOL    HW116502   3.329   0.124   8.033  0.2447 -0.1152 -0.6603
 1622SOL    HW216503   3.185   0.113   8.063 -0.9298  0.2566 -2.5387
 1623SOL     OW16504   2.402   0.501  16.804  0.5322  0.2364  0.0442
 1623SOL    HW116505   2.464   0.454  16.749  1.5099  1.4210  0.1466
 1623SOL    HW216506   2.346   0.535  16.734  0.0539 -3.0235 -1.1819
 1624SOL     OW16507   1.490   2.896   7.667  0.5788  0.0700  0.4503
 1624SOL    HW116508   1.446   2.901   7.582 -0.0958  0.5202  0.8218
 1624SOL    HW216509   1.575   2.940   7.668  1.0607 -0.8138 -1.6546
 1625SOL     OW16510   3.060   0.265   6.174 -0.1554  0.1504  0.2072
 1625SOL    HW116511   3.154   0.255   6.160 -0.7702 -1.9391 -2.5643
 1625SOL    HW216512   3.047   0.358   6.156 -2.1506 -0.3785 -1.0573
 1626SOL     OW16513   0.691   1.391   5.232  0.1457 -0.1123  0.1349
 1626SOL    HW116514   0.712   1.456   5.299  0.1337  1.8432 -1.7823
 1626SOL    HW216515   0.766   1.333   5.243  2.9920  3.5094 -0.2319
 1627SOL     OW16516   3.441   4.639   5.479  0.3911 -0.3002 -0.0279
 1627SOL    HW116517   3.511   4.592   5.523 -0.0537 -1.5635 -0.6827
 1627SOL    HW216518   3.497   4.712   5.452 -0.2233 -0.5856 -2.0320
 1628SOL     OW16519   4.340   1.214  12.422 -0.6183  0.1792 -0.1751
 1628SOL    HW116520   4.330   1.147  12.355  0.2633  0.3422 -0.4643
 1628SOL    HW216521   4.263   1.214  12.479 -0.0471 -0.7496  0.5903
 1629SOL     OW16522   1.176   1.414   8.174  0.0916 -0.0821  0.0650
 1629SOL    HW116523   1.191   1.508   8.185  0.5688 -0.0091 -1.2236
 1629SOL    HW216524   1.121   1.385   8.247 -1.6584 -1.6241 -1.8791
 1630SOL     OW16525   2.802   1.041   4.288 -0.4325 -0.2238  0.4271
 1630SOL    HW116526   2.818   0.952   4.258 -2.9411 -0.8580  1.0054
 1630SOL    HW216527   2.870   1.054   4.355  0.2911  1.7318 -0.6848
 1631SOL     OW16528   4.012   1.168   4.155 -0.2452  0.3675 -0.8548
 1631SOL    HW116529   4.044   1.235   4.095  1.4996 -1.1847 -1.6545
 1631SOL    HW216530   3.932   1.215   4.181 -1.9225 -2.6931 -0.4877
 1632SOL     OW16531   4.638   2.037  11.471  0.2083 -0.0937  0.0832
 1632SOL    HW116532   4.588   1.985  11.407  0.6251 -0.4617  0.0507
 1632SOL    HW216533   4.697   2.092  11.419  0.8253  0.4707  1.3968
 1633SOL     OW16534   1.562   4.550   3.030 -0.0155 -0.4124 -0.4324
 1633SOL    HW116535   1.488   4.569   3.088  0.4986  1.7387 -0.4575
 1633SOL    HW216536   1.521   4.534   2.945 -0.3092 -1.4859 -0.0801
 1634SOL     OW16537   1.999   3.560   2.507  0.3910 -0.2669  0.0760
 1634SOL    HW116538   2.061   3.578   2.436  0.6355 -1.9532 -0.1270
 1634SOL    HW216539   1.923   3.585   2.454 -2.3384 -1.7760  3.2979
 1635SOL     OW16540   0.609   3.705   3.328 -0.1142 -0.4487 -0.6293
 1635SOL    HW116541   0.530   3.758   3.318  0.7185  1.1205  1.1210
 1635SOL    HW216542   0.675   3.768   3.300  1.3330 -1.6710  0.0573
 1636SOL     OW16543   0.578   0.345  16.813  0.5654 -0.1517 -0.1609
 1636SOL    HW116544   0.573   0.429  16.858  0.3672 -0.0004 -0.4634
 1636SOL    HW216545   0.507   0.367  16.753  0.4225  1.6507  0.6757
 1637SOL     OW16546   3.722   2.983  12.451 -0.3896  0.1628  0.7355
 1637SOL    HW116547   3.798   2.946  12.405 -2.6314 -0.5102 -2.4089
 1637SOL    HW216548   3.710   2.916  12.518  1.9282 -1.2285 -0.2252
 1638SOL     OW16549   0.570   4.186  17.191 -0.6406  0.5062 -0.0568
 1638SOL    HW116550   0.546   4.197  17.099  0.3586  1.1855 -0.2358
 1638SOL    HW216551   0.553   4.092  17.202 -1.1241  0.3541 -2.0435
 1639SOL     OW16552   2.442   0.808   1.956 -0.5075  0.1485  0.1366
 1639SOL    HW116553   2.440   0.771   1.867  2.0979 -0.0851  0.1510
 1639SOL    HW216554   2.412   0.898   1.948 -2.0589 -0.3329  0.5645
 1640SOL     OW16555   0.200   4.433   2.311  0.4600  0.0653 -0.0737
 1640SOL    HW116556   0.219   4.364   2.247 -0.1696 -1.2179  1.1079
 1640SOL    HW216557   0.111   4.411   2.341  0.5778 -0.3893 -0.0625
 1641SOL     OW16558   2.798   3.996   1.551  0.0426 -0.1257 -0.4411
 1641SOL    HW116559   2.776   4.028   1.638  3.3698  1.1619 -0.0566
 1641SOL    HW216560   2.884   4.034   1.532  1.6431 -2.0738  2.9707
 1642SOL     OW16561   1.802   3.808   5.803 -0.6619 -0.5177  0.0032
 1642SOL    HW116562   1.723   3.769   5.841 -1.0120  0.4194  0.2236
 1642SOL    HW216563   1.792   3.764   5.719  0.4882 -0.0247 -0.3970
 1643SOL     OW16564   2.653   3.647   5.005  0.2199  0.2152  0.2059
 1643SOL    HW116565   2.677   3.740   5.006 -0.1384  0.2898  1.4607
 1643SOL    HW216566   2.640   3.640   5.099 -0.2303  0.7124  0.1767
 1644SOL     OW16567   1.559   3.064  17.574 -0.4316 -0.2272 -0.5496
 1644SOL    HW116568   1.490   3.038  17.635  0.0701  1.5096  0.7450
 1644SOL    HW216569   1.577   3.149  17.614 -0.5736  0.7532 -2.5498
 1645SOL     OW16570   4.310   0.265   9.777  0.2976 -0.0773 -0.2548
 1645SOL    HW116571   4.250   0.317   9.723  0.5180 -0.6318 -1.0402
 1645SOL    HW216572   4.324   0.315   9.857  0.0948  0.4762 -0.5621
 1646SOL     OW16573   3.631   0.569   0.896  0.2043 -0.0984 -0.0755
 1646SOL    HW116574   3.677   0.486   0.898  1.3486  0.4867 -1.6631
 1646SOL    HW216575   3.583   0.575   0.978  0.9829  0.6205  0.3290
 1647SOL     OW16576   4.326   0.977   1.875 -0.1165  0.3672 -0.2201
 1647SOL    HW116577   4.277   0.930   1.808  0.8481  0.0523 -0.7044
 1647SOL    HW216578   4.414   0.938   1.870 -0.0334  0.4888  0.2477
 1648SOL     OW16579   1.270   2.723   0.560  0.8663  0.1586 -0.0498
 1648SOL    HW116580   1.187   2.768   0.577  0.5888 -0.8152  1.1655
 1648SOL    HW216581   1.327   2.783   0.607 -1.1414  1.5226  0.6683
 1649SOL     OW16582   3.683   1.353   3.000 -0.0364  0.6063 -0.1064
 1649SOL    HW116583   3.592   1.368   3.024 -0.0934  1.7313 -1.0238
 1649SOL    HW216584   3.720   1.366   3.088  0.6859 -0.8264 -0.1832
 1650SOL     OW16585   3.286   4.285  15.507  0.2895  0.1152  0.2496
 1650SOL    HW116586   3.371   4.241  15.508 -0.8218 -2.0076  0.5296
 1650SOL    HW216587   3.252   4.255  15.423  0.4633  0.0252  0.2122
 1651SOL     OW16588   1.825   3.502   5.520  0.4790  0.2186 -0.0969
 1651SOL    HW116589   1.864   3.512   5.433 -1.1649 -1.3222 -1.0165
 1651SOL    HW216590   1.792   3.590   5.537 -2.5857 -0.7434 -1.0737
 1652SOL     OW16591   1.931   3.756  11.728 -0.3122  0.1583  0.0405
 1652SOL    HW116592   1.876   3.682  11.702 -1.2384 -0.2525  3.1847
 1652SOL    HW216593   1.924   3.815  11.652  0.0318  0.4689  0.2539
 1653SOL     OW16594   0.537   2.790   7.972 -0.0561 -1.0205 -0.3484
 1653SOL    HW116595   0.594   2.788   7.896  0.2595  0.8912 -0.1541
 1653SOL    HW216596   0.596   2.843   8.026 -0.9200 -0.3727 -0.0287
 1654SOL     OW16597   2.177   4.583  16.955 -0.2545 -0.0234  0.4339
 1654SOL    HW116598   2.197   4.599  16.863 -1.8004 -1.5558 -0.1625
 1654SOL    HW216599   2.084   4.561  16.953  0.2816 -2.2467 -0.8578
 1655SOL     OW16600   4.306   0.596  10.498 -0.0727 -0.0102  0.6301
 1655SOL    HW116601   4.243   0.638  10.438  2.1494  0.1688 -1.5919
 1655SOL    HW216602   4.391   0.624  10.465  0.4483 -1.2959  0.9217
 1656SOL     OW16603   1.087   2.445   1.704 -0.1225  0.4631 -0.4869
 1656SOL    HW116604   1.040   2.525   1.678  1.6685  0.8438 -2.5650
 1656SOL    HW216605   1.175   2.469   1.733 -0.6909  2.1657 -0.1366
 1657SOL     OW16606   0.958   3.629   7.029 -0.0986 -0.3635 -0.9286
 1657SOL    HW116607   1.039   3.581   7.011 -0.4588 -1.6870  1.0627
 1657SOL    HW216608   0.994   3.717   7.039  0.3714 -0.6139 -0.4086
 1658SOL     OW16609   3.988   0.952   1.677 -0.3209 -0.0925  0.1188
 1658SOL    HW116610   4.065   0.981   1.629 -0.9867  1.7405  0.1339
 1658SOL    HW216611   3.970   0.861   1.654 -0.2531 -0.2836  0.8078
 1659SOL     OW16612   4.254   2.455   3.850  0.1660 -0.0909 -0.5934
 1659SOL    HW116613   4.319   2.386   3.864 -0.7299 -0.8219 -0.0494
 1659SOL    HW216614   4.293   2.533   3.889  1.1308 -0.5680 -0.5964
 1660SOL     OW16615   0.990   4.411   1.731 -0.6625 -0.1888  0.4443
 1660SOL    HW116616   0.951   4.331   1.695 -0.4162 -1.0812  2.1572
 1660SOL    HW216617   1.020   4.373   1.813 -0.5546 -0.4614  0.2782
 1661SOL     OW16618   3.819   1.164   1.786 -0.3039  0.2318 -0.5247
 1661SOL    HW116619   3.863   1.098   1.732  1.8812  1.4379 -0.2365
 1661SOL    HW216620   3.777   1.105   1.847 -0.0269  0.2226 -0.3415
 1662SOL     OW16621   1.184   0.715   4.321  0.1810  0.2607  0.7664
 1662SOL    HW116622   1.218   0.642   4.372  0.2161 -1.1147 -1.1947
 1662SOL    HW216623   1.120   0.754   4.380  0.3337  1.1230  0.3606
 1663SOL     OW16624   0.696   2.375   4.367 -1.1614  0.0598 -0.4427
 1663SOL    HW116625   0.626   2.374   4.432  2.5576 -0.9779  3.5012
 1663SOL    HW216626   0.771   2.342   4.417  0.4817  4.2909 -0.0906
 1664SOL     OW16627   2.044   4.151  12.099 -0.2217 -0.1155  0.3392
 1664SOL    HW116628   2.120   4.121  12.150 -0.8759 -1.8440  0.3176
 1664SOL    HW216629   2.023   4.234  12.141 -2.5618  0.2009 -1.4691
 1665SOL     OW16630   1.223   3.766   2.537 -0.0470  0.6409  0.2705
 1665SOL    HW116631   1.293   3.808   2.487 -0.3367  0.1169 -0.5862
 1665SOL    HW216632   1.146   3.806   2.498 -0.7898 -1.3781 -0.3392
 1666SOL     OW16633   1.679   4.355   4.659  0.3088 -0.0222  0.0386
 1666SOL    HW116634   1.687   4.270   4.702  1.2386 -0.1699 -0.4396
 1666SOL    HW216635   1.584   4.357   4.649  0.0659 -0.6893  2.0415
 1667SOL     OW16636   0.431   0.396   0.689 -0.0865 -0.6613 -0.0537
 1667SOL    HW116637   0.346   0.369   0.726  0.6568  0.6862  2.6685
 1667SOL    HW216638   0.486   0.323   0.715  3.1783  1.9924  0.5454
 1668SOL     OW16639   4.107   3.455  10.918  0.4098 -0.5307  0.3455
 1668SOL    HW116640   4.070   3.442  10.831  0.5327  0.2469  0.1787
 1668SOL    HW216641   4.041   3.421  10.980 -1.7204  0.9390 -1.1088
 1669SOL     OW16642   1.645   2.765   0.100 -0.0516  1.0472 -0.1503
 1669SOL    HW116643   1.561   2.783   0.143  0.5334  0.5735  1.2061
 1669SOL    HW216644   1.683   2.704   0.164  0.5754 -1.1558 -2.6456
 1670SOL     OW16645   1.413   0.507   5.896  0.0870 -0.1151  0.5635
 1670SOL    HW116646   1.482   0.572   5.882 -1.7378  1.1118 -2.5948
 1670SOL    HW216647   1.459   0.435   5.854 -0.1876  0.0441 -0.0073
 1671SOL     OW16648   1.315   1.096  10.744  0.3766 -0.8610 -0.2256
 1671SOL    HW116649   1.346   1.151  10.673 -0.4109  0.7462  0.6798
 1671SOL    HW216650   1.230   1.136  10.762  1.7991  1.1953  1.9571
 1672SOL     OW16651   0.179   1.837   1.136  0.0333  0.2258  0.3600
 1672SOL    HW116652   0.268   1.846   1.170 -1.2799  0.1481  3.8412
 1672SOL    HW216653   0.164   1.744   1.120 -0.1890  0.2336  0.5213
 1673SOL     OW16654   0.886   0.756   6.563 -0.0500 -0.4038  0.1343
 1673SOL    HW116655   0.963   0.698   6.563  0.3855  0.1650  1.8164
 1673SOL    HW216656   0.871   0.776   6.656  0.2119 -0.2391  0.1407
 1674SOL     OW16657   1.809   3.799   7.255 -0.2277  0.3459  0.0706
 1674SOL    HW116658   1.771   3.883   7.282 -0.4290  0.4853 -0.6493
 1674SOL    HW216659   1.900   3.809   7.284 -0.5612 -2.2163  1.9581
 1675SOL     OW16660   2.587   1.075   9.203 -0.5786 -0.2843  0.9731
 1675SOL    HW116661   2.632   1.009   9.255 -0.4845  0.0269  1.2852
 1675SOL    HW216662   2.505   1.073   9.252 -1.0743  1.7528  0.2385
 1676SOL     OW16663   3.708   3.308   9.951  1.0231 -0.3391  0.0917
 1676SOL    HW116664   3.622   3.267   9.938 -0.4058  2.3264  1.1435
 1676SOL    HW216665   3.674   3.391   9.985  1.8634  0.3795 -0.8145
 1677SOL     OW16666   1.700   1.840  17.742 -0.2210  0.3628 -0.4595
 1677SOL    HW116667   1.722   1.774  17.676  0.7179 -0.7776  0.9877
 1677SOL    HW216668   1.787   1.864   0.019 -0.3103 -0.6272  0.5037
 1678SOL     OW16669   4.030   1.180   0.466 -0.2613  0.0131  0.0631
 1678SOL    HW116670   4.050   1.232   0.387  0.1534  1.6385  1.2390
 1678SOL    HW216671   3.991   1.102   0.427  0.4609 -0.3985  0.1685
 1679SOL     OW16672   0.189   2.431   3.947 -0.0133 -0.3866 -0.0659
 1679SOL    HW116673   0.115   2.371   3.955  0.0370 -0.5356 -0.7481
 1679SOL    HW216674   0.189   2.464   3.857 -0.5089 -1.2351 -0.3781
 1680SOL     OW16675   3.873   3.737   5.959 -0.1603 -0.3060  0.4226
 1680SOL    HW116676   3.870   3.773   6.048 -1.3897 -0.5593  0.4781
 1680SOL    HW216677   3.780   3.725   5.940  0.0648 -1.7480  0.2246
 1681SOL     OW16678   3.972   4.368   1.848  0.0152 -0.5778  0.3029
 1681SOL    HW116679   3.955   4.462   1.858 -3.8361 -1.5367  2.4023
 1681SOL    HW216680   3.922   4.353   1.928  0.4243  2.8673  1.1899
 1682SOL     OW16681   4.046   3.127   4.306 -0.1404  0.0370  0.3670
 1682SOL    HW116682   4.137   3.156   4.319  0.0486  0.3172 -1.6479
 1682SOL    HW216683   4.049   3.034   4.332 -0.1984 -0.2482 -0.6698
 1683SOL     OW16684   2.035   4.058  14.265  0.2139  0.8491 -0.1208
 1683SOL    HW116685   2.097   3.992  14.236  0.7560  0.7066  1.3794
 1683SOL    HW216686   2.024   4.036  14.357 -0.1644 -0.7556 -0.5516
 1684SOL     OW16687   1.295   0.535   4.545 -0.2701  0.7347  0.3697
 1684SOL    HW116688   1.353   0.471   4.587 -0.0874 -1.1462 -2.7615
 1684SOL    HW216689   1.341   0.606   4.590  1.5044  0.2633 -0.7078
 1685SOL     OW16690   2.864   2.103   7.726 -0.2518  0.1000 -0.1432
 1685SOL    HW116691   2.793   2.155   7.689 -0.8248  0.1099  0.9557
 1685SOL    HW216692   2.829   2.081   7.812 -0.9381 -3.3557 -1.3220
 1686SOL     OW16693   2.645   3.737   3.745  0.2915  0.1932  0.5987
 1686SOL    HW116694   2.560   3.712   3.711 -0.6860 -0.1393  3.2634
 1686SOL    HW216695   2.655   3.692   3.829 -1.5509 -2.4223 -0.5942
 1687SOL     OW16696   0.603   2.573   2.543  0.6676  0.5754 -0.1659
 1687SOL    HW116697   0.677   2.578   2.603  1.3640 -0.5244 -0.9421
 1687SOL    HW216698   0.595   2.664   2.513 -3.1680  0.3094  0.0216
 1688SOL     OW16699   1.450   2.710   2.769  0.6460  0.5328 -0.4364
 1688SOL    HW116700   1.370   2.721   2.821 -0.1462 -0.0115 -1.5269
 1688SOL    HW216701   1.518   2.677   2.828 -0.9193 -2.1879 -0.1349
 1689SOL     OW16702   1.649   3.929  12.103 -0.5771 -0.4950  0.2239
 1689SOL    HW116703   1.695   3.968  12.177  1.3343  1.2241 -1.8508
 1689SOL    HW216704   1.714   3.944  12.034  0.0708  0.7356  1.0999
 1690SOL     OW16705   1.293   4.593   0.057 -0.2904  0.0717 -0.4234
 1690SOL    HW116706   1.367   4.634   0.011  2.5030 -0.7184  3.4099
 1690SOL    HW216707   1.228   4.662   0.043 -0.1277  0.1679 -0.7314
 1691SOL     OW16708   0.886   0.876  15.104  0.3602  0.3256  0.3432
 1691SOL    HW116709   0.928   0.885  15.018 -2.2519 -1.3659 -1.0817
 1691SOL    HW216710   0.938   0.941  15.152 -1.6753  2.0929  0.1486
 1692SOL     OW16711   2.153   1.527   8.498 -0.1273  0.0825 -0.4354
 1692SOL    HW116712   2.062   1.500   8.489 -0.5527  1.3795  0.0155
 1692SOL    HW216713   2.146   1.605   8.553  0.2264 -0.5894  0.5532
 1693SOL     OW16714   3.251   2.045   3.410  0.3739  0.1795  0.0364
 1693SOL    HW116715   3.171   2.004   3.376  0.1401  1.3444 -0.8146
 1693SOL    HW216716   3.306   2.051   3.332 -1.0413  0.5851 -0.9375
 1694SOL     OW16717   1.883   1.233   6.087  0.6450  0.1578  0.5752
 1694SOL    HW116718   1.923   1.318   6.106 -2.5028  0.8838  3.7930
 1694SOL    HW216719   1.964   1.182   6.076  1.0528  1.5274 -2.7935
 1695SOL     OW16720   1.054   1.453   8.766 -0.1938 -0.4087  0.0642
 1695SOL    HW116721   0.986   1.405   8.720  0.6981 -1.2166 -0.4130
 1695SOL    HW216722   1.023   1.541   8.747 -1.2351 -0.2884  2.2924
 1696SOL     OW16723   3.086   2.365  17.717 -0.3373 -0.2150  0.7123
 1696SOL    HW116724   3.142   2.310   0.016 -0.4777  0.0383  1.1048
 1696SOL    HW216725   3.003   2.354   0.006 -0.5163 -2.7735 -0.2383
 1697SOL     OW16726   1.785   3.150   9.525  0.2528 -0.1153 -0.2766
 1697SOL    HW116727   1.845   3.130   9.597 -0.7159  0.4076  0.6688
 1697SOL    HW216728   1.850   3.172   9.458  0.9367 -1.0297  0.0855
 1698SOL     OW16729   1.443   0.649  13.618  0.4321 -0.2603 -0.1042
 1698SOL    HW116730   1.376   0.714  13.637  0.6686  0.1227 -0.5882
 1698SOL    HW216731   1.456   0.685  13.530  2.3019  3.7744  1.8660
 1699SOL     OW16732   2.999   1.075   0.825 -0.0327 -0.4343 -0.0480
 1699SOL    HW116733   2.927   1.013   0.812 -0.9585  0.7210 -0.3956
 1699SOL    HW216734   3.018   1.098   0.734  1.3756 -1.1731  0.0556
 1700SOL     OW16735   4.254   3.727   8.175 -0.4823  0.2487  0.6637
 1700SOL    HW116736   4.179   3.778   8.206 -0.9288 -0.3209  0.5238
 1700SOL    HW216737   4.268   3.664   8.245 -3.6465 -1.4186 -0.2018
 1701SOL     OW16738   2.564   3.674  15.097  0.3165  0.1796 -0.0803
 1701SOL    HW116739   2.565   3.588  15.140  0.1184  0.6304  0.8138
 1701SOL    HW216740   2.497   3.672  15.029 -1.9871  0.4286  2.2034
 1702SOL     OW16741   1.352   1.283  15.682 -0.1940 -0.2500  0.0914
 1702SOL    HW116742   1.320   1.373  15.673  0.2622 -0.1337 -0.3735
 1702SOL    HW216743   1.378   1.264  15.591 -0.7795  1.5632 -0.4549
 1703SOL     OW16744   4.161   2.680   8.867  0.4132 -0.7974  0.1494
 1703SOL    HW116745   4.069   2.707   8.859  0.7737  0.0777 -0.9227
 1703SOL    HW216746   4.159   2.586   8.852 -1.8149 -0.5547 -1.0222
 1704SOL     OW16747   1.132   4.696  12.680 -0.4451 -0.2053  0.1201
 1704SOL    HW116748   1.085   4.692  12.763 -0.6330  0.1613  0.0327
 1704SOL    HW216749   1.060   4.688  12.618 -2.8921  1.8711  2.7232
 1705SOL     OW16750   3.131   3.745   7.984  0.0250 -0.3766  0.1124
 1705SOL    HW116751   3.212   3.704   8.016  0.7696  1.0078  0.0203
 1705SOL    HW216752   3.167   3.813   7.927  1.3060 -0.7892  0.4232
 1706SOL     OW16753   2.976   4.241   3.624  0.8868 -0.2029  0.4748
 1706SOL    HW116754   3.054   4.265   3.674  1.7220  0.7749 -1.3303
 1706SOL    HW216755   2.940   4.172   3.680 -3.1902  0.9009 -0.7968
 1707SOL     OW16756   1.404   1.644   3.396  0.3784 -0.4036  0.0093
 1707SOL    HW116757   1.480   1.611   3.445  0.8759 -0.4806 -0.8141
 1707SOL    HW216758   1.378   1.732   3.422 -2.9139 -0.7138 -2.2956
 1708SOL     OW16759   3.706   2.426  15.003 -0.3759  0.2433  0.0422
 1708SOL    HW116760   3.680   2.457  15.090 -0.0063  2.0486 -0.4958
 1708SOL    HW216761   3.772   2.494  14.991  1.7632 -2.1759 -1.8655
 1709SOL     OW16762   3.446   3.982   6.405  0.3907 -0.3574  0.0897
 1709SOL    HW116763   3.354   4.007   6.392  0.1600 -0.6082  1.1877
 1709SOL    HW216764   3.436   3.888   6.419 -1.4221 -0.2916 -0.7117
 1710SOL     OW16765   4.473   3.733   9.205  0.1486 -0.5147 -0.7726
 1710SOL    HW116766   4.439   3.733   9.295  0.5557 -0.9246 -0.6125
 1710SOL    HW216767   4.469   3.824   9.177  1.3959 -0.8789 -2.0976
 1711SOL     OW16768   2.754   1.846   6.974  0.3801  0.2493  0.2590
 1711SOL    HW116769   2.710   1.919   6.929  2.2227  1.5232  0.4751
 1711SOL    HW216770   2.677   1.793   6.989  0.9015 -0.3439  0.8184
 1712SOL     OW16771   0.754   2.131   8.850  0.4657 -0.2454 -0.3948
 1712SOL    HW116772   0.773   2.115   8.758 -1.5287  1.0240 -1.0195
 1712SOL    HW216773   0.841   2.144   8.886 -0.2853  1.7940  0.6843
 1713SOL     OW16774   0.540   0.009   3.590 -0.1164  0.1580  0.3758
 1713SOL    HW116775   0.481   0.055   3.649 -0.9188  0.3936 -0.6012
 1713SOL    HW216776   0.530   4.657   3.618  2.7149 -0.8051 -1.7430
 1714SOL     OW16777   4.519   1.719   3.288 -0.7266  0.4535  0.4711
 1714SOL    HW116778   4.500   1.812   3.275  0.6073  0.6115 -0.3547
 1714SOL    HW216779   4.489   1.677   3.207 -1.6147 -0.2580  1.1625
 1715SOL     OW16780   1.914   0.494  17.735  0.4058 -0.4504  0.2477
 1715SOL    HW116781   1.846   0.509  17.670  0.1861 -1.0412  0.3431
 1715SOL    HW216782   1.866   0.436   0.037 -0.5073 -1.4153 -1.4862
 1716SOL     OW16783   4.547   3.700   1.720  0.4697  0.2886 -0.3593
 1716SOL    HW116784   4.461   3.658   1.717  1.0870 -1.0327  0.0917
 1716SOL    HW216785   4.609   3.628   1.705  0.0532 -0.6452  2.4422
 1717SOL     OW16786   0.285   0.556   7.093 -0.4322  0.8105  0.9120
 1717SOL    HW116787   0.310   0.464   7.102 -0.3845  0.9093  1.7993
 1717SOL    HW216788   0.246   0.578   7.178 -3.3448 -2.1013  0.3424
 1718SOL     OW16789   0.793   0.648   9.339 -0.0762  0.0062 -0.3668
 1718SOL    HW116790   0.761   0.736   9.358 -0.7679 -0.4313  0.4815
 1718SOL    HW216791   0.720   0.591   9.362  1.5822 -2.4502 -1.2234
 1719SOL     OW16792   1.263   1.242   5.827  0.2040  1.0936 -0.0339
 1719SOL    HW116793   1.193   1.182   5.850 -0.6752  2.0618 -0.1752
 1719SOL    HW216794   1.307   1.185   5.764 -0.4679 -0.3257  0.7980
 1720SOL     OW16795   1.937   1.001   4.991 -0.5502  0.2220 -0.0920
 1720SOL    HW116796   1.864   0.940   4.980  0.0968 -1.0404  2.6280
 1720SOL    HW216797   1.911   1.057   4.918 -0.6069 -3.2486 -2.7471
 1721SOL     OW16798   3.305   3.759   6.746  0.8447  0.1368  0.7868
 1721SOL    HW116799   3.319   3.851   6.770 -1.6541  0.7165  0.0929
 1721SOL    HW216800   3.248   3.779   6.671  1.1851  0.9955  0.7509
 1722SOL     OW16801   1.690   0.614   0.582 -0.6196 -0.0322 -0.0985
 1722SOL    HW116802   1.614   0.559   0.561 -1.1387  0.7581 -0.2519
 1722SOL    HW216803   1.688   0.626   0.677 -0.4266 -0.2702 -0.0623
 1723SOL     OW16804   3.954   0.982   4.898  0.0539 -0.0838 -0.8448
 1723SOL    HW116805   3.976   0.992   4.806 -2.1107 -0.7092 -1.4253
 1723SOL    HW216806   3.941   1.072   4.929 -2.9246 -1.1957  1.1470
 1724SOL     OW16807   1.858   0.152  11.676 -0.1144 -0.2578  0.1459
 1724SOL    HW116808   1.813   0.137  11.759 -0.6987  0.1346 -0.0985
 1724SOL    HW216809   1.883   0.243  11.690  0.0031 -0.1876 -0.4957
 1725SOL     OW16810   1.010   4.612   5.961  0.0703 -0.4052  0.6229
 1725SOL    HW116811   1.067   4.685   5.985 -0.9640  0.7216 -0.3339
 1725SOL    HW216812   1.023   4.614   5.866  3.1224  1.6307  1.0792
 1726SOL     OW16813   1.077   3.163   8.193  0.0988 -0.2012  0.3343
 1726SOL    HW116814   1.131   3.104   8.247 -1.4823  1.4085  3.6482
 1726SOL    HW216815   1.096   3.248   8.232  1.3592 -0.8663  1.1717
 1727SOL     OW16816   4.027   2.633   7.185 -0.3956 -0.5008 -0.0422
 1727SOL    HW116817   4.089   2.569   7.148  1.7930  0.0693  2.6674
 1727SOL    HW216818   4.011   2.590   7.269 -1.7342  0.6020  0.2621
 1728SOL     OW16819   2.896   4.028   4.679  0.3954  0.2770  0.0925
 1728SOL    HW116820   2.900   4.001   4.770  0.3955 -1.0744 -0.3047
 1728SOL    HW216821   2.813   4.075   4.672  0.6253  0.7666  0.6686
 1729SOL     OW16822   2.610   2.827   3.452  0.1819  0.5395 -0.6061
 1729SOL    HW116823   2.520   2.808   3.479  0.3558 -2.0940 -1.8981
 1729SOL    HW216824   2.603   2.844   3.358 -1.1196 -2.0410 -0.9727
 1730SOL     OW16825   1.620   1.091   5.211  0.1754  0.3031  0.3393
 1730SOL    HW116826   1.641   1.160   5.273  0.7969 -0.5999  1.1329
 1730SOL    HW216827   1.693   1.034   5.238 -0.5288 -1.3134 -1.1456
 1731SOL     OW16828   0.990   3.930   1.281 -0.1656  0.1126 -0.1062
 1731SOL    HW116829   1.043   3.978   1.344 -0.2099 -0.7491  0.5895
 1731SOL    HW216830   0.907   3.976   1.295  1.0275  1.7902  1.4384
 1732SOL     OW16831   2.359   3.953  12.627  0.1593 -0.2854  0.1194
 1732SOL    HW116832   2.334   3.893  12.697  0.1403  0.6985  0.9445
 1732SOL    HW216833   2.364   3.890  12.555  1.7350  0.0254 -0.0593
 1733SOL     OW16834   1.332   0.924   6.641  0.6112 -0.3793 -0.2988
 1733SOL    HW116835   1.394   0.927   6.569  1.2640  1.3203  0.3286
 1733SOL    HW216836   1.387   0.865   6.692  0.8482 -0.1901 -0.3341
 1734SOL     OW16837   0.566   0.506  10.834  0.6563  0.2399  0.4859
 1734SOL    HW116838   0.571   0.421  10.790  1.5373 -0.2018  1.4387
 1734SOL    HW216839   0.584   0.561  10.757  0.9865 -0.7845 -0.1650
 1735SOL     OW16840   4.174   0.141  11.105  0.3956 -0.2888 -0.1105
 1735SOL    HW116841   4.124   0.200  11.161  1.6348  1.4024 -0.7856
 1735SOL    HW216842   4.220   0.087  11.169 -1.5701 -0.6087  1.0338
 1736SOL     OW16843   3.845   3.617   8.454 -0.2517 -0.1111 -0.4589
 1736SOL    HW116844   3.847   3.606   8.549  2.8255 -1.3252 -0.6563
 1736SOL    HW216845   3.751   3.606   8.444 -0.2534 -0.7231  0.2583
 1737SOL     OW16846   4.730   0.429   0.351 -0.1147  0.0560 -0.0825
 1737SOL    HW116847   0.028   0.358   0.403 -1.2975 -1.7757 -1.7515
 1737SOL    HW216848   4.655   0.451   0.407 -1.8254 -0.5795 -2.1028
 1738SOL     OW16849   2.543   0.435   2.548 -0.1224 -0.0703 -0.2823
 1738SOL    HW116850   2.548   0.379   2.625  2.0400 -1.9131 -1.7611
 1738SOL    HW216851   2.468   0.404   2.498  0.9038 -2.5768 -0.2648
 1739SOL     OW16852   3.625   4.659   5.949  0.4281  0.1485 -0.4044
 1739SOL    HW116853   3.567   4.731   5.973  0.9916  0.9530 -1.4549
 1739SOL    HW216854   3.593   4.642   5.861 -0.9382  1.0617 -0.0865
 1740SOL     OW16855   0.816   3.054   4.999  0.0624  0.0619 -0.0843
 1740SOL    HW116856   0.850   3.066   5.087  0.7847 -1.0574 -0.2023
 1740SOL    HW216857   0.888   3.086   4.945  0.3431  0.4994  0.5554
 1741SOL     OW16858   3.052   3.740   8.617  0.0375 -0.0501 -0.4032
 1741SOL    HW116859   3.126   3.780   8.571 -1.2181  4.3124  1.4232
 1741SOL    HW216860   3.088   3.742   8.705  2.1374 -1.5454 -1.2225
 1742SOL     OW16861   1.816   0.098  14.719 -0.1414  0.3986  0.5322
 1742SOL    HW116862   1.738   0.121  14.668  0.0494  0.5039  0.2875
 1742SOL    HW216863   1.883   0.098  14.650 -0.3323  3.0107  0.3555
 1743SOL     OW16864   1.880   4.208   8.527  0.2803  0.0208  0.4882
 1743SOL    HW116865   1.877   4.207   8.623  2.3653  0.1279  0.5510
 1743SOL    HW216866   1.975   4.211   8.519  0.1477 -1.0271 -1.2857
 1744SOL     OW16867   1.603   2.972   2.386  0.1040  0.2193 -0.0663
 1744SOL    HW116868   1.580   2.952   2.476  0.0304  0.5406 -0.0140
 1744SOL    HW216869   1.688   3.014   2.401 -0.3384  0.8464  0.6782
 1745SOL     OW16870   1.095   0.583   6.582 -0.2025 -0.3312  0.3777
 1745SOL    HW116871   1.131   0.560   6.667  4.1804  0.8087 -1.1898
 1745SOL    HW216872   1.172   0.592   6.526 -0.1930 -2.6855  0.0156
 1746SOL     OW16873   4.736   3.921   4.262  0.4273 -0.1635 -0.8342
 1746SOL    HW116874   0.090   3.909   4.275  0.2648  0.6284  1.0676
 1746SOL    HW216875   4.728   3.924   4.167  1.4070  0.2673 -0.8999
 1747SOL     OW16876   2.277   1.017   1.760 -0.0076  0.1941  0.4826
 1747SOL    HW116877   2.276   0.946   1.696  0.4841 -0.4560  1.1921
 1747SOL    HW216878   2.298   1.095   1.709  3.1129 -1.1648 -0.2552
 1748SOL     OW16879   1.124   3.013   6.895  0.0786 -0.2732  0.6184
 1748SOL    HW116880   1.138   3.044   6.985  2.2246  1.7149 -0.4195
 1748SOL    HW216881   1.206   2.972   6.870  0.0357 -0.1069  0.2056
 1749SOL     OW16882   3.062   0.992  11.096 -0.9421  0.0907  0.4733
 1749SOL    HW116883   2.984   0.989  11.039  0.2693  0.6629 -1.2309
 1749SOL    HW216884   3.083   0.899  11.104  0.0690  0.1782 -1.0622
 1750SOL     OW16885   3.423   3.592   8.656 -0.0203 -0.1556 -0.1688
 1750SOL    HW116886   3.346   3.628   8.611 -0.9067  0.5120  1.8622
 1750SOL    HW216887   3.437   3.660   8.722  1.0742 -0.6449  0.1045
 1751SOL     OW16888   2.144   0.076  17.645 -0.2776  0.1430  0.4401
 1751SOL    HW116889   2.079   0.140  17.614 -0.9435 -0.2323  1.0802
 1751SOL    HW216890   2.186   0.036  17.569  0.4677  2.0348 -0.1492
 1752SOL     OW16891   4.193   0.921   9.240  0.5397  0.2194  0.4460
 1752SOL    HW116892   4.259   0.856   9.264 -0.7418 -0.4021  2.3093
 1752SOL    HW216893   4.118   0.862   9.251 -0.5022  1.1746 -1.5310
 1753SOL     OW16894   1.425   1.636   3.858 -0.2406 -0.3839  0.6893
 1753SOL    HW116895   1.514   1.600   3.857 -0.0527  0.1547 -1.2923
 1753SOL    HW216896   1.367   1.560   3.860 -1.3103  0.4125 -0.3400
 1754SOL     OW16897   2.827   0.637   7.913 -0.0091 -0.0261  0.5922
 1754SOL    HW116898   2.799   0.639   7.822  0.4265  0.6759  0.4812
 1754SOL    HW216899   2.896   0.702   7.904 -0.1153 -0.1619 -1.1796
 1755SOL     OW16900   1.328   2.100   4.736 -0.1159  0.4986 -0.2895
 1755SOL    HW116901   1.294   2.010   4.733  0.3775  0.3882 -2.6619
 1755SOL    HW216902   1.274   2.149   4.674 -1.2555 -1.0305 -0.5292
 1756SOL     OW16903   1.931   0.913   2.909  0.1973  0.1529  0.1997
 1756SOL    HW116904   1.944   0.930   2.816 -1.1074 -1.4368 -0.2597
 1756SOL    HW216905   1.933   0.818   2.910 -0.6187  0.1369 -0.4762
 1757SOL     OW16906   4.325   3.999   0.708  0.9051 -0.0239 -0.7702
 1757SOL    HW116907   4.419   4.017   0.706  1.0543 -0.7314  0.4297
 1757SOL    HW216908   4.292   4.028   0.623  0.1143 -0.6059 -0.6658
 1758SOL     OW16909   3.993   1.809   9.267 -0.1144  0.2401 -0.0513
 1758SOL    HW116910   4.052   1.766   9.205 -0.3244 -0.4963  0.2629
 1758SOL    HW216911   3.932   1.736   9.279 -0.2653  0.1552 -1.2472
 1759SOL     OW16912   3.220   1.008   4.347 -0.4359 -0.2087  0.3700
 1759SOL    HW116913   3.245   1.079   4.406 -2.9036  0.0144  1.1727
 1759SOL    HW216914   3.264   1.031   4.266  1.4342 -2.0152  0.8783
 1760SOL     OW16915   0.410   3.231   9.263  0.0202 -0.5396 -0.1479
 1760SOL    HW116916   0.452   3.311   9.296  2.1025 -1.2912 -1.0229
 1760SOL    HW216917   0.326   3.251   9.221 -0.1484 -0.1600  0.3638
 1761SOL     OW16918   2.282   4.036   4.057 -0.2617 -0.2304  0.0773
 1761SOL    HW116919   2.318   4.124   4.055  3.1654 -1.6229  0.1165
 1761SOL    HW216920   2.307   3.992   3.975  4.1960 -1.2165  1.9916
 1762SOL     OW16921   4.587   2.669   8.338 -0.1545  0.2087 -0.0492
 1762SOL    HW116922   4.543   2.639   8.417 -0.8654  0.9627 -0.1669
 1762SOL    HW216923   4.580   2.764   8.348 -0.9260  0.4472 -2.8264
 1763SOL     OW16924   3.141   1.275   9.941  0.6512 -0.4646  0.2376
 1763SOL    HW116925   3.166   1.317  10.023  0.2427  0.4830 -0.1285
 1763SOL    HW216926   3.047   1.257   9.942  0.8762 -1.5871  1.4996
 1764SOL     OW16927   2.350   4.190  16.157 -0.7006 -0.1525 -0.1741
 1764SOL    HW116928   2.359   4.102  16.195  0.2258  1.3237  3.0295
 1764SOL    HW216929   2.258   4.197  16.182 -0.9050  1.9198 -1.5395
 1765SOL     OW16930   1.623   2.423   4.286  0.0484 -0.2651  0.4914
 1765SOL    HW116931   1.619   2.457   4.376  0.8790 -1.2881  0.9009
 1765SOL    HW216932   1.699   2.366   4.281 -1.2880 -2.0931  0.8604
 1766SOL     OW16933   3.853   2.655  14.689 -0.2318 -0.1694 -0.5667
 1766SOL    HW116934   3.923   2.658  14.624 -0.7919  1.4039 -1.1041
 1766SOL    HW216935   3.807   2.735  14.664 -0.4754 -0.3611 -0.7271
 1767SOL     OW16936   2.809   4.313   8.806  0.0923 -0.4505  0.1021
 1767SOL    HW116937   2.868   4.363   8.751 -0.5026 -1.4844 -1.4858
 1767SOL    HW216938   2.837   4.338   8.894  1.9202 -0.3641 -0.4990
 1768SOL     OW16939   4.507   2.593   8.611 -0.2035  0.2600 -0.2098
 1768SOL    HW116940   4.435   2.656   8.600  2.4629  3.2255 -0.6055
 1768SOL    HW216941   4.471   2.533   8.676  1.9989  2.1865  2.7984
 1769SOL     OW16942   1.573   1.932   1.702  0.0215  0.6051 -0.4750
 1769SOL    HW116943   1.546   2.021   1.681 -0.0407  0.7125  0.0709
 1769SOL    HW216944   1.636   1.912   1.632  0.6284  0.3794  0.1345
 1770SOL     OW16945   4.240   0.431  12.747  0.1477 -0.0505  0.4979
 1770SOL    HW116946   4.149   0.413  12.725  0.3715 -2.2522  1.3544
 1770SOL    HW216947   4.257   0.507  12.691  1.2324 -1.0286 -0.4966
 1771SOL     OW16948   0.772   1.506   7.605  0.0002 -0.1526  0.0380
 1771SOL    HW116949   0.838   1.575   7.605 -1.4326  1.2387  1.4020
 1771SOL    HW216950   0.802   1.454   7.680  0.2147  2.1754  1.5835
 1772SOL     OW16951   2.648   1.494  14.018 -0.0232 -0.5124  0.4299
 1772SOL    HW116952   2.632   1.564  13.955 -1.7862 -0.5543  0.8376
 1772SOL    HW216953   2.672   1.420  13.963 -1.4689 -2.6590  2.6900
 1773SOL     OW16954   1.619   1.296   8.868  0.2507 -0.1393 -0.3906
 1773SOL    HW116955   1.552   1.293   8.936  0.2468  0.5914 -0.3556
 1773SOL    HW216956   1.690   1.329   8.923  1.9123 -0.2587 -2.4810
 1774SOL     OW16957   2.676   1.047   0.436  0.1270 -0.2105 -0.0308
 1774SOL    HW116958   2.640   1.057   0.348 -2.2228 -0.0242  0.9563
 1774SOL    HW216959   2.643   0.961   0.458 -1.7715  0.7309  0.7954
 1775SOL     OW16960   4.114   2.163  13.560 -0.1810  0.4683 -0.0668
 1775SOL    HW116961   4.182   2.097  13.548 -0.5313 -0.1729  1.4923
 1775SOL    HW216962   4.047   2.125  13.504  0.1197  0.8343 -0.6682
 1776SOL     OW16963   3.372   2.134   0.969 -0.6276  0.0872  0.3416
 1776SOL    HW116964   3.340   2.218   1.003  3.3795  1.4959  0.7251
 1776SOL    HW216965   3.392   2.094   1.054 -1.4764 -1.0440 -0.0120
 1777SOL     OW16966   1.147   2.967   4.050 -0.1007 -0.2697  0.3015
 1777SOL    HW116967   1.063   3.009   4.031  0.7442  1.4331  0.3672
 1777SOL    HW216968   1.160   2.923   3.966 -1.9851  0.0440 -0.1621
 1778SOL     OW16969   2.941   2.066  14.281 -0.1619  0.0083  0.1744
 1778SOL    HW116970   2.890   2.044  14.359  1.5481 -2.0815  0.6976
 1778SOL    HW216971   3.023   2.021  14.299 -0.5698 -1.3036 -1.3194
 1779SOL     OW16972   1.976   4.512   2.751 -0.1503 -0.5180  0.8271
 1779SOL    HW116973   1.906   4.576   2.746  1.7152  1.2838 -2.3429
 1779SOL    HW216974   2.051   4.563   2.721  0.5666 -2.6525 -1.0287
 1780SOL     OW16975   2.415   1.200   6.343  0.2184 -0.0511  0.5489
 1780SOL    HW116976   2.476   1.267   6.310 -2.4610  1.6842 -0.8454
 1780SOL    HW216977   2.340   1.252   6.370 -0.9347 -1.1161 -0.6304
 1781SOL     OW16978   4.445   3.932  11.356 -0.0431  0.0289  0.3404
 1781SOL    HW116979   4.536   3.942  11.384 -0.3978  1.2674  1.0703
 1781SOL    HW216980   4.459   3.869  11.286 -0.4365  1.9223 -1.4317
 1782SOL     OW16981   1.858   0.017  13.871 -0.6612  0.1178  0.0139
 1782SOL    HW116982   1.875   0.109  13.850  1.1131 -0.4103 -0.9045
 1782SOL    HW216983   1.833   4.730  13.783 -0.1275 -0.2034 -0.0376
 1783SOL     OW16984   3.099   2.004   7.864  0.3971 -0.4480  0.1354
 1783SOL    HW116985   3.091   2.097   7.842 -2.7108 -0.6519  0.5066
 1783SOL    HW216986   3.018   1.974   7.823 -1.3395  1.1339  2.4791
 1784SOL     OW16987   0.772   3.380  10.837  0.0295 -0.7577  0.3520
 1784SOL    HW116988   0.761   3.344  10.749  2.4662 -1.1978  0.2343
 1784SOL    HW216989   0.774   3.305  10.896  2.4878  0.2572  1.5973
 1785SOL     OW16990   1.361   3.316   1.446 -0.2565 -0.1583  0.4410
 1785SOL    HW116991   1.333   3.261   1.519  0.9596 -2.4793 -0.8390
 1785SOL    HW216992   1.283   3.336   1.394 -0.7632  1.3780  1.8114
 1786SOL     OW16993   2.232   0.625   6.507 -0.6952 -0.2103  0.2545
 1786SOL    HW116994   2.235   0.709   6.551 -1.4952 -1.4205  2.6259
 1786SOL    HW216995   2.270   0.639   6.420  0.3951  1.8084  1.0691
 1787SOL     OW16996   0.473   1.074   1.752  0.3184  0.0059  0.0148
 1787SOL    HW116997   0.506   0.989   1.782  0.7922  0.1791 -0.0159
 1787SOL    HW216998   0.512   1.078   1.665  1.6790 -3.3037  0.4644
 1788SOL     OW16999   2.177   4.612   4.882  0.5522  0.1217  0.4640
 1788SOL    HW117000   2.254   4.652   4.841  0.8895 -0.3276  0.6700
 1788SOL    HW217001   2.129   4.694   4.871 -1.1473 -1.0751 -1.0920
 1789SOL     OW17002   1.045   1.899   9.525 -0.2477  0.1474 -0.2151
 1789SOL    HW117003   1.072   1.911   9.616 -1.5809 -0.0622  0.2081
 1789SOL    HW217004   0.959   1.858   9.538 -0.0491 -0.0548  0.4958
 1790SOL     OW17005   4.166   0.560   6.411 -0.4886 -0.4446  0.0362
 1790SOL    HW117006   4.205   0.637   6.454  2.0589 -1.2727 -0.8220
 1790SOL    HW217007   4.225   0.498   6.452 -0.0530 -0.0219  0.0550
 1791SOL     OW17008   1.888   0.416  11.683 -0.3985 -0.2215 -0.3134
 1791SOL    HW117009   1.856   0.440  11.597  0.9232 -2.2052 -1.3612
 1791SOL    HW217010   1.897   0.503  11.721 -0.4185 -0.4546  0.2240
 1792SOL     OW17011   3.453   4.403   5.290  0.1837  0.0265  0.1391
 1792SOL    HW117012   3.441   4.494   5.317 -2.2055 -0.3742  0.4636
 1792SOL    HW217013   3.482   4.365   5.373 -0.0738 -0.7733 -0.1316
 1793SOL     OW17014   3.341   0.880   5.604  0.0355 -0.1595  0.1459
 1793SOL    HW117015   3.350   0.833   5.521 -1.0839  0.6549 -0.4463
 1793SOL    HW217016   3.301   0.822   5.669 -0.2773 -1.0134 -0.8120
 1794SOL     OW17017   3.171   4.366  14.417 -0.0941 -0.3419  0.3246
 1794SOL    HW117018   3.077   4.350  14.406 -0.1669 -1.4567  2.5301
 1794SOL    HW217019   3.173   4.460  14.397  0.9852 -0.3757  0.2642
 1795SOL     OW17020   3.355   3.131   1.860  0.3388  0.2276 -0.1177
 1795SOL    HW117021   3.440   3.143   1.818  0.3636  1.0113  0.1571
 1795SOL    HW217022   3.294   3.160   1.791  1.4488 -0.4772 -1.3951
 1796SOL     OW17023   2.209   3.595   7.251 -0.2405 -0.9069  0.6376
 1796SOL    HW117024   2.207   3.527   7.318  1.0884 -2.2172 -0.6535
 1796SOL    HW217025   2.168   3.668   7.299  1.4214 -0.6282  1.6375
 1797SOL     OW17026   3.714   0.749   9.216 -0.1606  0.2295 -0.6230
 1797SOL    HW117027   3.684   0.751   9.307 -1.0224 -1.6096 -0.8517
 1797SOL    HW217028   3.632   0.735   9.167 -0.4512  0.3312 -0.1656
 1798SOL     OW17029   4.305   0.459   2.000 -0.1651 -0.0365 -0.0094
 1798SOL    HW117030   4.383   0.428   1.954 -0.0328 -0.0071  0.1958
 1798SOL    HW217031   4.345   0.461   2.087  2.3640  1.1488 -1.2213
 1799SOL     OW17032   4.678   0.427   9.160  0.1907  0.1039 -0.2034
 1799SOL    HW117033   0.006   0.409   9.226  0.5515 -0.4611 -0.7306
 1799SOL    HW217034   4.600   0.409   9.213 -0.2366  1.3987 -0.3785
 1800SOL     OW17035   0.295   0.366   3.466  0.6883 -0.1905  0.0359
 1800SOL    HW117036   0.254   0.430   3.407  0.1633 -1.6383 -1.1820
 1800SOL    HW217037   0.385   0.397   3.473  0.6380 -0.0550  0.0903
 1801SOL     OW17038   2.272   3.217   9.961 -0.0374  0.1522 -0.3133
 1801SOL    HW117039   2.188   3.263   9.968  0.1535  0.1690  1.6792
 1801SOL    HW217040   2.278   3.177  10.048 -0.7300  0.3144 -0.1922
 1802SOL     OW17041   1.495   0.854   7.442 -0.0433 -0.3247  0.2864
 1802SOL    HW117042   1.548   0.841   7.521 -0.2085  1.8185  0.7519
 1802SOL    HW217043   1.566   0.878   7.383 -1.4812  0.5738 -1.0921
 1803SOL     OW17044   2.472   0.552   6.821 -0.0827  0.1127 -0.2477
 1803SOL    HW117045   2.455   0.635   6.866  1.0175 -0.4158  1.1321
 1803SOL    HW217046   2.465   0.501   6.902  1.6552  0.6111  0.2047
 1804SOL     OW17047   3.000   2.225  17.409  0.2349 -0.5433  0.4129
 1804SOL    HW117048   2.915   2.268  17.396  0.8986  1.4791  2.7729
 1804SOL    HW217049   3.015   2.241  17.502 -1.4969 -0.6750  0.7116
 1805SOL     OW17050   2.551   1.807   1.577  0.3555  0.6406  0.1494
 1805SOL    HW117051   2.534   1.873   1.510 -0.0850  0.5266  0.1524
 1805SOL    HW217052   2.466   1.798   1.620 -0.3846  1.4181 -1.1796
 1806SOL     OW17053   0.355   4.307   1.018 -0.5177  0.4674  0.8947
 1806SOL    HW117054   0.290   4.275   1.080 -1.5843  0.3568 -0.2789
 1806SOL    HW217055   0.376   4.393   1.053  2.4765  0.1490 -0.0784
 1807SOL     OW17056   3.349   3.604  13.569 -0.3614 -0.3348  0.3765
 1807SOL    HW117057   3.350   3.692  13.531  3.3385  0.1794  1.6254
 1807SOL    HW217058   3.356   3.614  13.664  1.5952  1.0374  0.0934
 1808SOL     OW17059   2.114   2.460   5.936 -0.2734 -0.5372 -0.2191
 1808SOL    HW117060   2.183   2.481   5.998  0.7698  1.1447 -1.9229
 1808SOL    HW217061   2.055   2.411   5.993 -1.6176  0.8232 -0.4179
 1809SOL     OW17062   2.960   3.018   6.420  0.0446  0.3189 -0.0252
 1809SOL    HW117063   2.883   2.963   6.406 -0.1050  0.2387  1.1198
 1809SOL    HW217064   2.942   3.093   6.363  0.8555  1.0387  0.6507
 1810SOL     OW17065   0.244   3.571   8.974 -0.7142  0.7507 -0.4522
 1810SOL    HW117066   0.166   3.522   8.997  0.0801  0.9221  2.5417
 1810SOL    HW217067   0.209   3.654   8.941  1.6233  1.1508 -1.9399
 1811SOL     OW17068   3.079   4.345   2.962  0.4089 -0.1019 -0.3345
 1811SOL    HW117069   3.044   4.415   2.908  1.2619  0.5103 -0.1025
 1811SOL    HW217070   3.165   4.379   2.989  0.6713  0.4409 -1.8694
 1812SOL     OW17071   2.065   3.835  12.488 -0.0754 -0.3503 -0.0219
 1812SOL    HW117072   2.145   3.884  12.507  0.6493 -1.9233  0.9242
 1812SOL    HW217073   2.087   3.801  12.401 -0.7805  0.2315 -0.4281
 1813SOL     OW17074   2.563   4.164   8.247  0.1734  0.2055  0.1853
 1813SOL    HW117075   2.610   4.240   8.281  3.4626 -1.8271  0.1833
 1813SOL    HW217076   2.621   4.091   8.268 -0.0505  0.0242  0.1752
 1814SOL     OW17077   2.686   4.281   3.359 -0.0256 -0.0666 -0.1816
 1814SOL    HW117078   2.702   4.252   3.269 -0.8845 -0.3347 -0.2535
 1814SOL    HW217079   2.761   4.338   3.377  1.8121 -1.9509 -2.0134
 1815SOL     OW17080   0.577   1.524   8.938  0.3714  1.0165 -0.0343
 1815SOL    HW117081   0.509   1.546   8.875  0.6255 -4.7785 -2.3717
 1815SOL    HW217082   0.652   1.579   8.914 -0.7752  2.1407 -1.0656
 1816SOL     OW17083   2.385   1.903   6.333  0.3685  0.2851 -0.6272
 1816SOL    HW117084   2.315   1.947   6.285 -1.1477 -4.7619 -3.0437
 1816SOL    HW217085   2.424   1.854   6.261 -2.3710 -2.3678 -0.3225
 1817SOL     OW17086   1.367   2.681   2.520  0.3582  0.3613 -0.0912
 1817SOL    HW117087   1.393   2.691   2.612 -0.0556 -0.4338  0.1145
 1817SOL    HW217088   1.381   2.588   2.506 -0.3340  0.1607  0.5197
 1818SOL     OW17089   2.951   0.449  15.874 -0.1244 -0.6131 -0.0456
 1818SOL    HW117090   2.970   0.507  15.948 -0.5497 -0.7845  0.1958
 1818SOL    HW217091   2.952   0.511  15.801 -0.8963 -0.6190 -0.0624
 1819SOL     OW17092   4.684   1.740   0.013 -0.2816  0.4804  0.0567
 1819SOL    HW117093   4.638   1.690  17.702 -1.1097  1.8170 -0.3661
 1819SOL    HW217094   0.037   1.724  17.748 -0.1293 -0.0999  1.1433
 1820SOL     OW17095   4.016   0.753  13.282  0.0000 -0.3402  0.0435
 1820SOL    HW117096   4.076   0.740  13.208  0.3047 -0.3528  0.2957
 1820SOL    HW217097   4.055   0.829  13.324  0.2161  0.2846 -1.3030
 1821SOL     OW17098   0.111   2.824  17.185  0.9666 -1.2122 -0.0312
 1821SOL    HW117099   0.055   2.878  17.130  1.3253 -2.4355 -1.6106
 1821SOL    HW217100   0.197   2.843  17.148  0.7832 -0.4554 -0.0538
 1822SOL     OW17101   1.900   0.918   8.548 -0.2065 -0.7717 -0.3154
 1822SOL    HW117102   1.844   0.865   8.605  0.0493 -0.0404  0.6299
 1822SOL    HW217103   1.874   1.008   8.567  0.5781 -0.2506 -1.7601
 1823SOL     OW17104   0.798   2.802   7.524  0.7451 -0.0192 -0.5244
 1823SOL    HW117105   0.812   2.836   7.436 -0.6907 -0.8422 -1.0690
 1823SOL    HW217106   0.703   2.808   7.538  0.9074  1.3242 -0.0057
 1824SOL     OW17107   0.323   2.635   7.004 -0.2247 -0.4050 -0.2967
 1824SOL    HW117108   0.285   2.688   7.073 -1.4320 -0.9140 -0.5749
 1824SOL    HW217109   0.354   2.702   6.943 -0.4811  1.3051  1.4694
 1825SOL     OW17110   3.200   3.190   4.997  0.1163  0.1504  0.2841
 1825SOL    HW117111   3.248   3.201   5.079  1.7427 -2.3839 -0.3685
 1825SOL    HW217112   3.247   3.130   4.940 -0.8372 -0.8437  0.5608
 1826SOL     OW17113   0.085   0.433  13.811 -0.0402  0.8038 -0.1035
 1826SOL    HW117114   0.106   0.526  13.802 -1.5396  1.2847  1.3555
 1826SOL    HW217115   0.048   0.411  13.726  0.7402  0.0488 -0.2505
 1827SOL     OW17116   1.089   0.597  15.085 -0.5069  0.1319 -0.4707
 1827SOL    HW117117   1.177   0.563  15.100  0.1827  2.3040  0.3549
 1827SOL    HW217118   1.060   0.559  15.002 -0.6855  2.6537 -1.5549
 1828SOL     OW17119   3.473   0.173   5.696  0.2499  0.7998  0.4521
 1828SOL    HW117120   3.530   0.100   5.672 -0.5846  0.0081  0.9325
 1828SOL    HW217121   3.475   0.222   5.614  0.1458 -0.6487 -0.4118
 1829SOL     OW17122   3.669   1.592   6.844  0.0295 -0.1155  0.2028
 1829SOL    HW117123   3.658   1.515   6.900  0.4643  2.3582  3.6712
 1829SOL    HW217124   3.640   1.560   6.759  1.6370  0.1615 -0.4453
 1830SOL     OW17125   3.615   0.022  12.310  0.2183 -0.2485 -0.4929
 1830SOL    HW117126   3.695   4.732  12.352 -0.1490  1.4705  1.4420
 1830SOL    HW217127   3.636   0.111  12.280 -0.2191  0.5412  1.5300
 1831SOL     OW17128   3.470   0.612   1.893  0.0960  0.0053  0.1039
 1831SOL    HW117129   3.505   0.647   1.974 -0.7185  1.9257 -0.3813
 1831SOL    HW217130   3.492   0.676   1.824  1.8596  0.7061  1.3143
 1832SOL     OW17131   2.778   2.161  10.549  0.5466 -0.6201  0.1623
 1832SOL    HW117132   2.863   2.149  10.591  1.0530  3.3030  0.2126
 1832SOL    HW217133   2.732   2.090  10.595  2.0116 -1.9602 -0.4527
 1833SOL     OW17134   2.661   1.350   5.326 -0.2309 -0.2061 -0.0064
 1833SOL    HW117135   2.573   1.338   5.361 -0.8400 -1.2698 -1.9153
 1833SOL    HW217136   2.656   1.296   5.247 -1.0422 -1.6509  1.0598
 1834SOL     OW17137   0.292   1.661   6.132 -0.0040  0.5060 -0.2688
 1834SOL    HW117138   0.370   1.625   6.174  1.2608  3.0755 -0.3847
 1834SOL    HW217139   0.285   1.736   6.192 -0.2731 -0.2788  0.6649
 1835SOL     OW17140   2.283   2.362   5.423  0.5025  0.3543 -0.3358
 1835SOL    HW117141   2.302   2.334   5.512  0.6375  0.2579 -0.3953
 1835SOL    HW217142   2.365   2.354   5.374 -0.2563  1.2772 -1.7527
 1836SOL     OW17143   1.894   0.160   2.142 -0.2796 -0.9356  0.3327
 1836SOL    HW117144   1.898   0.181   2.235  0.0017  2.0345 -0.3402
 1836SOL    HW217145   1.838   0.229   2.105  1.1669 -0.2925 -0.6745
 1837SOL     OW17146   1.985   1.130  10.142 -0.0958  0.8499 -0.0312
 1837SOL    HW117147   1.894   1.107  10.159 -0.3101  1.6409 -0.0893
 1837SOL    HW217148   2.028   1.059  10.094 -1.4344  1.1203 -1.6609
 1838SOL     OW17149   3.285   1.281   7.177 -0.1809  0.4346 -0.3106
 1838SOL    HW117150   3.204   1.273   7.126 -0.6118  0.3338  0.4020
 1838SOL    HW217151   3.266   1.326   7.259  0.5784 -0.2857  0.2588
 1839SOL     OW17152   3.038   0.837  15.006 -0.1605 -0.0595  0.0715
 1839SOL    HW117153   2.946   0.810  15.000 -0.2333  0.0040  0.9639
 1839SOL    HW217154   3.075   0.811  14.921 -1.0696 -1.0246 -0.0270
 1840SOL     OW17155   2.469   4.225   7.491 -0.4101 -0.5500  0.6616
 1840SOL    HW117156   2.507   4.313   7.496 -0.2250 -0.5863 -0.1332
 1840SOL    HW217157   2.484   4.190   7.579  0.3298 -0.5252  0.5437
 1841SOL     OW17158   0.666   1.105   7.054  0.1702  0.0849 -0.0537
 1841SOL    HW117159   0.735   1.146   7.002 -0.7474  0.8483 -0.6770
 1841SOL    HW217160   0.711   1.108   7.139 -1.3080 -0.4740  0.7538
 1842SOL     OW17161   1.634   3.839   7.586 -0.2983  0.1362 -0.2429
 1842SOL    HW117162   1.598   3.823   7.673 -1.0669 -0.1084 -0.6058
 1842SOL    HW217163   1.726   3.848   7.611 -0.8850  2.1256  1.2260
 1843SOL     OW17164   0.638   3.282   2.055 -0.2229 -0.8579  0.2002
 1843SOL    HW117165   0.553   3.248   2.083 -0.7456  1.6065  1.5574
 1843SOL    HW217166   0.643   3.362   2.107 -1.3705 -0.7673  0.1850
 1844SOL     OW17167   0.538   1.127   5.232  0.0248  0.0846  0.2723
 1844SOL    HW117168   0.605   1.196   5.234 -0.9889  1.0533  0.4915
 1844SOL    HW217169   0.457   1.176   5.221 -0.6709 -1.2798 -0.8444
 1845SOL     OW17170   1.659   2.500  14.480 -0.2384  0.0380  0.0417
 1845SOL    HW117171   1.580   2.467  14.521 -0.8306 -1.0826 -1.9694
 1845SOL    HW217172   1.691   2.423  14.433 -2.8067 -1.5171  0.8663
 1846SOL     OW17173   3.351   1.674   6.190 -0.6359 -0.3554  0.2057
 1846SOL    HW117174   3.370   1.589   6.151 -0.6531  0.9880 -2.7263
 1846SOL    HW217175   3.372   1.738   6.122 -0.5343 -1.2397 -0.6042
 1847SOL     OW17176   0.423   2.161  10.920  0.2424  0.2171 -0.4333
 1847SOL    HW117177   0.397   2.105  10.846 -0.3552 -0.0923  0.0109
 1847SOL    HW217178   0.364   2.130  10.988 -1.7593  1.0561 -1.8014
 1848SOL     OW17179   2.459   4.233   2.386  0.4196  0.4645  0.4004
 1848SOL    HW117180   2.373   4.273   2.394  1.6033  3.8249 -3.3865
 1848SOL    HW217181   2.447   4.147   2.427  0.8182  0.0425 -0.3534
 1849SOL     OW17182   4.457   1.433   4.555  0.0738  0.1506 -0.0345
 1849SOL    HW117183   4.510   1.500   4.511  2.0719  0.0259  2.1717
 1849SOL    HW217184   4.489   1.450   4.643  0.1460  2.2653 -0.4689
 1850SOL     OW17185   4.004   2.321   5.240  0.2034 -0.1647  0.2635
 1850SOL    HW117186   3.911   2.312   5.219  0.5149 -1.0867 -0.7227
 1850SOL    HW217187   4.003   2.275   5.324 -1.2425 -0.6341 -0.0098
 1851SOL     OW17188   3.804   1.822  15.773 -0.5146  0.2184  0.1021
 1851SOL    HW117189   3.837   1.842  15.685  1.2640 -0.7351  0.5585
 1851SOL    HW217190   3.867   1.869  15.827 -0.5054  0.8787 -0.4832
 1852SOL     OW17191   2.478   2.560   6.581  0.3372  0.5603 -0.5126
 1852SOL    HW117192   2.460   2.480   6.630  0.7887  0.7097 -0.0993
 1852SOL    HW217193   2.494   2.626   6.648 -1.0242 -0.5918  0.9506
 1853SOL     OW17194   1.655   3.430   4.184 -0.4490 -0.2469  0.0537
 1853SOL    HW117195   1.739   3.462   4.150  0.7217 -1.2435  2.0552
 1853SOL    HW217196   1.612   3.516   4.187 -0.7309 -0.2678 -2.6723
 1854SOL     OW17197   1.292   2.233   3.526 -0.3891  0.0383 -0.1267
 1854SOL    HW117198   1.249   2.319   3.522 -0.7396 -0.1317 -0.0851
 1854SOL    HW217199   1.252   2.197   3.606 -0.5853  1.2104  0.3022
 1855SOL     OW17200   0.476   1.104  16.024  0.4353  0.1109 -0.3339
 1855SOL    HW117201   0.495   1.195  16.047  0.3709  0.5385 -2.0313
 1855SOL    HW217202   0.495   1.057  16.105 -0.3282  1.0962  0.4242
 1856SOL     OW17203   0.698   0.905   9.403  0.5031 -0.3034  0.2697
 1856SOL    HW117204   0.636   0.952   9.457 -0.8812 -2.6839  0.7484
 1856SOL    HW217205   0.698   0.967   9.330 -0.7233 -0.5790  0.0419
 1857SOL     OW17206   2.369   1.713   0.706 -0.4765  0.0905  0.1326
 1857SOL    HW117207   2.372   1.747   0.616 -1.0431  0.3385  0.2062
 1857SOL    HW217208   2.353   1.798   0.747  2.1238  1.5131 -1.7465
 1858SOL     OW17209   3.542   1.955   3.584  0.3365 -0.0383  0.1953
 1858SOL    HW117210   3.574   1.952   3.674  2.7090 -1.0731 -0.6690
 1858SOL    HW217211   3.594   1.882   3.550 -1.2410 -0.7170 -0.7636
 1859SOL     OW17212   2.803   0.147  15.458 -0.9439  0.3147 -0.3814
 1859SOL    HW117213   2.778   0.237  15.480 -1.1952 -0.3645  2.0972
 1859SOL    HW217214   2.844   0.104  15.533 -1.6825 -1.6332 -1.0939
 1860SOL     OW17215   1.571   1.402  17.176  0.3368  0.6980 -0.9111
 1860SOL    HW117216   1.498   1.465  17.182 -1.0662 -1.2060  2.3621
 1860SOL    HW217217   1.638   1.456  17.219 -0.3386  1.6159 -1.0016
 1861SOL     OW17218   3.854   1.030  16.997 -0.6596  0.1171 -0.5849
 1861SOL    HW117219   3.804   0.996  17.072  0.1936  0.9021  0.3437
 1861SOL    HW217220   3.803   1.007  16.920 -1.6815 -3.2753  1.0844
 1862SOL     OW17221   1.669   0.410  12.291  0.0188 -0.3948 -0.2738
 1862SOL    HW117222   1.688   0.488  12.240  1.7839  0.4889  1.7498
 1862SOL    HW217223   1.585   0.383  12.253 -0.2942 -0.6373  0.5793
 1863SOL     OW17224   0.369   1.511   8.120 -0.3165 -0.4008 -0.4754
 1863SOL    HW117225   0.357   1.606   8.126  0.3295 -0.3081 -0.6862
 1863SOL    HW217226   0.348   1.480   8.209 -1.9563 -0.6827 -0.9554
 1864SOL     OW17227   2.196   1.394   1.867 -0.1981 -0.0358 -0.2481
 1864SOL    HW117228   2.165   1.389   1.776 -2.1867 -1.3474  0.5133
 1864SOL    HW217229   2.136   1.332   1.907 -3.3679  2.6997 -0.8247
 1865SOL     OW17230   1.072   3.920   2.358 -0.6533  0.0887 -0.2229
 1865SOL    HW117231   1.011   3.972   2.409 -1.2793  0.4949 -1.3958
 1865SOL    HW217232   1.050   3.962   2.275 -0.2672  0.4769 -0.1257
 1866SOL     OW17233   4.611   4.472   9.528  0.6595  0.2047  0.2791
 1866SOL    HW117234   4.669   4.501   9.457 -0.5397  1.7291 -0.0801
 1866SOL    HW217235   4.594   4.554   9.575 -1.9168 -1.0809  1.5785
 1867SOL     OW17236   2.135   2.126   2.602  0.2663  0.1965  0.1112
 1867SOL    HW117237   2.073   2.199   2.608  0.0107  0.0701 -0.9804
 1867SOL    HW217238   2.176   2.143   2.517  0.7775 -1.6191 -0.0006
 1868SOL     OW17239   2.335   3.321   1.628  0.2596 -0.2424 -0.3120
 1868SOL    HW117240   2.253   3.286   1.663  0.8813 -2.5066 -1.0982
 1868SOL    HW217241   2.386   3.329   1.709 -0.5096 -1.9701  0.3573
 1869SOL     OW17242   4.458   1.529  17.096  0.5051 -0.4262  0.0831
 1869SOL    HW117243   4.539   1.567  17.131  0.2417  1.3506 -1.2305
 1869SOL    HW217244   4.421   1.610  17.061 -0.4700  0.6650  3.5993
 1870SOL     OW17245   0.072   1.302   8.332  0.0155  0.3123  0.1472
 1870SOL    HW117246   0.077   1.392   8.301  3.1638  0.0438 -0.0807
 1870SOL    HW217247   0.162   1.272   8.319 -0.6961 -0.9892 -1.9614
 1871SOL     OW17248   4.012   3.691   7.716  0.0307 -0.2878 -0.1490
 1871SOL    HW117249   4.044   3.769   7.671 -0.0306  0.5131  1.1759
 1871SOL    HW217250   3.922   3.719   7.735  1.6048  3.5203  1.7905
 1872SOL     OW17251   1.404   1.008   6.110  0.1405  0.6879 -0.2252
 1872SOL    HW117252   1.411   1.089   6.060  1.6999  0.2964 -0.6137
 1872SOL    HW217253   1.339   0.962   6.057 -1.5170  1.1363  1.4099
 1873SOL     OW17254   1.130   2.633   6.765  0.5351  0.0305 -0.3917
 1873SOL    HW117255   1.074   2.703   6.732  3.0142  1.7049 -0.9793
 1873SOL    HW217256   1.059   2.571   6.782  0.7589 -0.0761  0.1375
 1874SOL     OW17257   1.781   4.290  14.351  0.1796 -0.2501  0.2267
 1874SOL    HW117258   1.877   4.301  14.352  0.0932  0.4930  0.2695
 1874SOL    HW217259   1.760   4.373  14.393 -0.5551  0.6980 -2.0615
 1875SOL     OW17260   0.193   3.693  11.542 -0.2302  0.0040  0.0931
 1875SOL    HW117261   0.226   3.741  11.466 -0.0550 -0.7344 -0.2962
 1875SOL    HW217262   0.260   3.726  11.603 -0.9111  0.5670  0.5348
 1876SOL     OW17263   2.632   0.606   7.238  0.3343  0.1018 -0.0865
 1876SOL    HW117264   2.681   0.539   7.285 -0.5857  0.2419  1.0870
 1876SOL    HW217265   2.599   0.655   7.314 -1.2530 -1.8769  0.4878
 1877SOL     OW17266   1.814   3.346   0.209  0.2779 -0.0436  0.0244
 1877SOL    HW117267   1.824   3.257   0.242 -1.1524  0.1910  1.0739
 1877SOL    HW217268   1.723   3.353   0.235 -0.6090 -0.9729 -2.8436
 1878SOL     OW17269   2.618   4.670   8.890 -0.1272 -0.6093 -0.0806
 1878SOL    HW117270   2.550   4.697   8.829 -0.5843  1.3601  1.2900
 1878SOL    HW217271   2.597   4.576   8.893  0.0937 -0.6864 -0.8755
 1879SOL     OW17272   1.247   1.600   6.642  0.0057 -0.0498 -0.0583
 1879SOL    HW117273   1.312   1.670   6.654  1.8800 -1.7723 -0.2022
 1879SOL    HW217274   1.293   1.518   6.658  0.0832  0.0389  0.1751
 1880SOL     OW17275   0.647   0.902   4.680 -0.3023  0.0701  0.4389
 1880SOL    HW117276   0.606   0.963   4.742  0.7691  1.5409 -0.3157
 1880SOL    HW217277   0.705   0.848   4.734  0.8496 -0.4348 -1.3426
 1881SOL     OW17278   3.695   1.806   9.089  0.1115 -0.8001  0.2602
 1881SOL    HW117279   3.676   1.803   9.183 -0.6606 -1.3333  0.0857
 1881SOL    HW217280   3.694   1.899   9.069 -0.5104 -1.1903 -1.4708
 1882SOL     OW17281   2.696   3.896   5.081  0.1385 -0.3367 -0.0613
 1882SOL    HW117282   2.679   3.916   5.173 -0.0737  1.2680 -0.4480
 1882SOL    HW217283   2.666   3.978   5.041 -1.4692 -1.2769 -0.7597
 1883SOL     OW17284   2.062   0.557   3.847  0.3858  0.0012 -0.3586
 1883SOL    HW117285   2.066   0.575   3.753  0.4794  1.9931  0.0317
 1883SOL    HW217286   2.111   0.475   3.849  0.9172  0.3123 -0.6802
 1884SOL     OW17287   1.312   2.551   8.040 -0.0991  0.2469  0.1232
 1884SOL    HW117288   1.332   2.603   7.961  0.2031 -0.0397  0.0068
 1884SOL    HW217289   1.300   2.608   8.116  0.0065  1.7716 -0.9962
 1885SOL     OW17290   1.953   2.065   8.645 -0.0989  0.2874 -0.4316
 1885SOL    HW117291   2.029   2.118   8.620 -0.7127  1.3948  0.0903
 1885SOL    HW217292   2.008   1.988   8.660  1.6701  1.1377 -2.5175
 1886SOL     OW17293   0.902   4.006   6.175 -0.0721 -0.6498 -0.6325
 1886SOL    HW117294   0.988   3.970   6.156  0.2768 -0.2329  0.1691
 1886SOL    HW217295   0.848   3.934   6.206 -0.2995  0.0137  0.5216
 1887SOL     OW17296   3.333   2.079   8.112  0.5281  0.0196 -0.4885
 1887SOL    HW117297   3.386   2.042   8.042  0.4638  1.6442 -1.3943
 1887SOL    HW217298   3.331   2.171   8.084 -1.2607 -0.5819 -2.3222
 1888SOL     OW17299   3.550   1.702   9.491  0.1259  0.3130 -0.5224
 1888SOL    HW117300   3.495   1.673   9.418 -0.2316 -1.1555  0.3313
 1888SOL    HW217301   3.606   1.757   9.436 -0.0714  2.7984  1.7617
 1889SOL     OW17302   1.986   4.391   7.903  0.4780  0.1910 -0.0771
 1889SOL    HW117303   1.921   4.387   7.832  2.0887 -0.2279 -1.5486
 1889SOL    HW217304   1.982   4.486   7.913 -0.4815  0.4148 -2.3646
 1890SOL     OW17305   1.919   2.471   5.040 -0.0584 -0.1657 -0.3018
 1890SOL    HW117306   1.849   2.481   5.105  0.4497  0.7556  0.1004
 1890SOL    HW217307   1.996   2.500   5.088 -1.4860  0.2873  1.7254
 1891SOL     OW17308   2.451   0.577   5.291  0.2820  0.3591  0.9275
 1891SOL    HW117309   2.474   0.643   5.226 -1.4752 -1.3842 -1.4312
 1891SOL    HW217310   2.488   0.623   5.367  0.5270 -0.3594  1.2467
 1892SOL     OW17311   3.340   1.997   0.731 -0.5518 -0.5725 -0.1877
 1892SOL    HW117312   3.428   1.960   0.739 -1.9632 -3.7430  0.3072
 1892SOL    HW217313   3.350   2.049   0.811  0.7534  0.2685 -0.8889
 1893SOL     OW17314   3.516   3.413   0.231  0.2652  0.1132 -0.2467
 1893SOL    HW117315   3.481   3.501   0.237  0.0433  0.0694 -0.8725
 1893SOL    HW217316   3.451   3.371   0.288 -0.9640  1.2961 -0.7848
 1894SOL     OW17317   4.528   3.384   5.316  0.1851 -0.7228  0.3974
 1894SOL    HW117318   4.552   3.433   5.394 -2.3853  2.4995 -0.8745
 1894SOL    HW217319   4.439   3.356   5.340 -0.4339  1.5239  0.6800
 1895SOL     OW17320   0.520   1.980   8.701 -0.1366  0.0720  0.1126
 1895SOL    HW117321   0.564   1.901   8.672 -3.2241 -2.0803  1.2650
 1895SOL    HW217322   0.448   1.985   8.638  0.9773 -1.3481 -1.2540
 1896SOL     OW17323   0.108   2.980   5.768 -0.4708 -0.0655  0.5986
 1896SOL    HW117324   0.192   2.935   5.778 -0.7559 -0.4108  1.4164
 1896SOL    HW217325   0.090   2.954   5.677 -0.2971 -0.9905  0.8227
 1897SOL     OW17326   0.227   1.538  11.983  0.0808  0.0813 -0.2848
 1897SOL    HW117327   0.260   1.555  11.895 -2.0404 -1.6398 -1.4259
 1897SOL    HW217328   0.285   1.469  12.015  1.1540  1.1109 -0.0066
 1898SOL     OW17329   2.867   3.046   9.899  0.1252 -0.2668  0.0078
 1898SOL    HW117330   2.902   3.085   9.819 -1.9532 -2.1706 -1.8294
 1898SOL    HW217331   2.773   3.050   9.882 -0.2619  2.1385  2.5263
 1899SOL     OW17332   1.575   4.163   8.564 -0.5610 -0.0807 -0.4111
 1899SOL    HW117333   1.623   4.194   8.486  1.3176 -3.0318 -0.4232
 1899SOL    HW217334   1.487   4.161   8.526 -0.7384 -0.3275  0.0236
 1900SOL     OW17335   1.774   2.067   7.632 -0.5325  0.1989 -0.2162
 1900SOL    HW117336   1.845   2.039   7.575  0.0734 -0.6425  0.9527
 1900SOL    HW217337   1.735   2.135   7.577  3.4507  1.7645 -1.0893
 1901SOL     OW17338   4.580   3.361   3.942  0.1159 -0.2004  0.3043
 1901SOL    HW117339   4.605   3.379   3.852  2.7490  0.5576  1.1823
 1901SOL    HW217340   4.616   3.278   3.973  0.7406 -0.0735 -0.0887
 1902SOL     OW17341   0.338   0.052   5.907 -0.0516  0.1094  0.5044
 1902SOL    HW117342   0.300   0.108   5.975  2.3889  1.9600  0.3520
 1902SOL    HW217343   0.430   0.075   5.918 -0.0882 -0.3250  1.7802
 1903SOL     OW17344   0.312   3.898  16.591 -0.3597 -0.0829 -0.1298
 1903SOL    HW117345   0.289   3.855  16.508  2.5880 -0.3256 -0.8333
 1903SOL    HW217346   0.318   3.987  16.556 -1.6269 -0.6577 -1.8333
 1904SOL     OW17347   3.314   3.909  11.593 -0.1397 -0.0174  0.4326
 1904SOL    HW117348   3.240   3.857  11.625 -0.9206  0.3470 -0.7694
 1904SOL    HW217349   3.305   3.989  11.645 -1.0617  0.4343 -0.4049
 1905SOL     OW17350   1.043   3.862   9.428  0.3704  1.0551  1.1957
 1905SOL    HW117351   1.065   3.954   9.442  2.0784  0.8594 -0.1506
 1905SOL    HW217352   0.972   3.846   9.491 -1.0075 -0.9786 -0.8866
 1906SOL     OW17353   2.553   2.460   5.969  0.2641 -0.0164 -0.6037
 1906SOL    HW117354   2.529   2.452   6.062 -0.6457  0.0534 -0.8373
 1906SOL    HW217355   2.563   2.554   5.956  1.8643 -0.2703 -1.2034
 1907SOL     OW17356   1.952   3.442   5.763  0.2609 -0.8427  0.0251
 1907SOL    HW117357   2.030   3.386   5.757  2.3771  2.3344 -2.1440
 1907SOL    HW217358   1.924   3.456   5.673  0.2146  0.2476  0.2092
 1908SOL     OW17359   2.829   1.334  13.624  0.1107 -0.0372 -0.9915
 1908SOL    HW117360   2.829   1.285  13.706  3.2172  0.9923 -0.3640
 1908SOL    HW217361   2.900   1.287  13.580  1.2546  0.4263  0.3767
 1909SOL     OW17362   2.022   3.706  15.230  0.4023  0.3329  0.5142
 1909SOL    HW117363   1.993   3.700  15.139  1.9795  0.4456  0.0061
 1909SOL    HW217364   2.116   3.693  15.220 -0.1122 -1.1229 -2.2705
 1910SOL     OW17365   0.856   1.521   3.448  0.3443  0.1080 -0.1657
 1910SOL    HW117366   0.945   1.555   3.453  0.4167  0.0019 -0.7140
 1910SOL    HW217367   0.830   1.547   3.536  0.5811  0.0102 -0.0665
 1911SOL     OW17368   0.545   2.909   7.550  0.2079 -0.3828  0.3886
 1911SOL    HW117369   0.464   2.920   7.500 -1.2383 -0.7662  2.6222
 1911SOL    HW217370   0.574   2.999   7.564 -0.5561 -0.1042  0.1880
 1912SOL     OW17371   2.742   2.507   7.103 -0.3675  0.1009  0.0367
 1912SOL    HW117372   2.823   2.545   7.136  0.3799 -0.6338 -0.9457
 1912SOL    HW217373   2.779   2.443   7.042 -0.0179  0.0476  0.3027
 1913SOL     OW17374   0.742   1.542   3.046 -0.4282 -0.4138 -0.0528
 1913SOL    HW117375   0.691   1.461   3.045  1.6762 -1.6858 -2.7400
 1913SOL    HW217376   0.681   1.606   3.083 -0.2187  0.0882 -0.5760
 1914SOL     OW17377   4.244   1.159   7.521  0.2875 -0.3602  0.6842
 1914SOL    HW117378   4.261   1.243   7.479  1.4546 -0.8338  0.2286
 1914SOL    HW217379   4.299   1.159   7.599  2.6109 -2.4313 -0.9449
 1915SOL     OW17380   3.039   1.867  15.927  0.1249 -0.1221  0.8091
 1915SOL    HW117381   2.975   1.917  15.876  1.8009  0.2443 -0.9610
 1915SOL    HW217382   3.090   1.939  15.963  1.7682 -1.2639  0.7670
 1916SOL     OW17383   2.956   0.772   6.135  0.0575  0.2129  0.2001
 1916SOL    HW117384   2.970   0.805   6.223 -0.3843 -2.0558  1.1194
 1916SOL    HW217385   2.862   0.756   6.143  0.3003 -0.6508  1.3444
 1917SOL     OW17386   2.361   1.379  14.386 -0.1779  0.0592  0.6500
 1917SOL    HW117387   2.411   1.316  14.439 -2.3263 -2.0392  0.2057
 1917SOL    HW217388   2.430   1.424  14.338 -0.2330  0.0787  0.5882
 1918SOL     OW17389   1.601   3.332   0.953 -0.1747  0.7923  0.6606
 1918SOL    HW117390   1.568   3.412   0.994 -0.1912  0.3159  1.5727
 1918SOL    HW217391   1.695   3.347   0.954 -0.0001 -0.3277  0.2695
 1919SOL     OW17392   2.189   3.354  10.515  0.9145  0.0487 -0.2033
 1919SOL    HW117393   2.133   3.279  10.534 -1.2487  0.8194 -3.6526
 1919SOL    HW217394   2.149   3.420  10.572  0.3233 -1.3699  1.0131
 1920SOL     OW17395   2.068   4.343   8.283  0.0994  0.0092 -0.2810
 1920SOL    HW117396   2.126   4.360   8.209  0.0029  1.2506 -0.0659
 1920SOL    HW217397   2.038   4.433   8.297 -2.5522 -1.0548  0.8272
 1921SOL     OW17398   1.425   3.666   4.970 -0.0010 -0.0414 -0.0420
 1921SOL    HW117399   1.399   3.737   5.030 -1.2048 -0.5720  0.0681
 1921SOL    HW217400   1.364   3.605   5.011 -2.2366  1.0922 -1.7122
 1922SOL     OW17401   0.594   4.057  16.899  0.3185 -0.2043  0.6837
 1922SOL    HW117402   0.569   4.014  16.817 -2.3272  1.4173  0.6007
 1922SOL    HW217403   0.594   3.977  16.951 -0.0365 -1.1794 -0.8186
 1923SOL     OW17404   1.906   4.648   5.883 -0.2225  0.4307 -0.6552
 1923SOL    HW117405   1.919   4.587   5.955 -1.9135  1.4289  0.4921
 1923SOL    HW217406   1.960   4.722   5.912 -0.5983  0.7135 -0.6808
 1924SOL     OW17407   0.299   4.263   5.921 -0.5597  0.0259 -0.3231
 1924SOL    HW117408   0.226   4.207   5.895  0.9234 -1.6640 -0.8285
 1924SOL    HW217409   0.276   4.347   5.881  1.1447  0.0249 -1.3085
 1925SOL     OW17410   0.044   0.211   9.003  0.3901 -0.3064 -0.1251
 1925SOL    HW117411   0.044   0.131   9.057 -1.4733 -0.4280 -0.3155
 1925SOL    HW217412   4.715   0.266   9.041 -0.4285  0.3267 -2.5182
 1926SOL     OW17413   3.680   0.986  16.785  0.6961 -0.3858  0.6391
 1926SOL    HW117414   3.585   1.001  16.785  1.2160  2.8692 -0.6052
 1926SOL    HW217415   3.705   1.028  16.703  0.9393 -2.2359 -0.2246
 1927SOL     OW17416   3.802   3.360   0.268  0.2941  0.4597  1.0951
 1927SOL    HW117417   3.792   3.267   0.248  1.1825  0.9271 -1.4574
 1927SOL    HW217418   3.721   3.392   0.228 -0.5009 -2.5890  0.3026
 1928SOL     OW17419   3.584   0.131   8.680 -0.0570 -0.7036 -0.0910
 1928SOL    HW117420   3.556   0.044   8.707 -1.3327 -0.3903 -0.3874
 1928SOL    HW217421   3.574   0.176   8.764  0.2533  0.6523 -0.7690
 1929SOL     OW17422   3.129   2.589   4.485  0.0225 -0.1728  0.1891
 1929SOL    HW117423   3.149   2.666   4.431 -1.6834 -0.8809 -1.4758
 1929SOL    HW217424   3.196   2.603   4.551  0.6463  1.1465 -0.7089
 1930SOL     OW17425   2.640   2.025   5.877  0.8101  0.2542 -0.0352
 1930SOL    HW117426   2.644   2.108   5.828  0.8020  0.5283  0.4261
 1930SOL    HW217427   2.549   2.001   5.862  1.0871 -0.9893  0.3444
 1931SOL     OW17428   3.193   2.449   5.603 -0.9322 -0.2821  0.2749
 1931SOL    HW117429   3.116   2.491   5.643 -1.2523  2.6810 -3.3929
 1931SOL    HW217430   3.260   2.494   5.654  0.0754  1.6013 -2.7028
 1932SOL     OW17431   4.184   4.113   7.738 -0.3273  0.3183  0.6397
 1932SOL    HW117432   4.157   4.048   7.674  0.9491 -0.6198  1.0464
 1932SOL    HW217433   4.147   4.066   7.813  2.4549  0.6394  2.2067
 1933SOL     OW17434   3.101   1.760   6.710 -1.0014  0.1949 -0.0239
 1933SOL    HW117435   3.173   1.768   6.773  0.9241  1.1446 -2.3216
 1933SOL    HW217436   3.060   1.845   6.722 -1.5947  0.0804 -1.2523
 1934SOL     OW17437   0.404   0.210   8.593 -0.0781  0.3788 -0.2360
 1934SOL    HW117438   0.351   0.154   8.650 -1.6817  0.3061 -1.7880
 1934SOL    HW217439   0.431   0.148   8.526 -2.5436 -0.0364 -0.8574
 1935SOL     OW17440   1.016   4.653  16.483 -0.7761  0.4446 -0.4225
 1935SOL    HW117441   0.969   4.736  16.473 -1.2269  0.1931 -0.4036
 1935SOL    HW217442   0.954   4.582  16.500  1.2402 -0.6124  2.4298
 1936SOL     OW17443   4.299   3.239   8.170 -0.2273 -0.5217 -0.4588
 1936SOL    HW117444   4.218   3.233   8.120 -0.7784  1.1711  0.2325
 1936SOL    HW217445   4.315   3.333   8.178 -0.6053 -0.4600 -0.4201
 1937SOL     OW17446   2.372   3.845  16.663  0.5656 -0.1428  0.2907
 1937SOL    HW117447   2.441   3.856  16.728  0.7422 -0.1807  0.1084
 1937SOL    HW217448   2.292   3.844  16.715 -1.0770  2.4630 -2.1874
 1938SOL     OW17449   4.049   3.555   4.426  0.1743 -0.7004 -0.6734
 1938SOL    HW117450   4.017   3.645   4.414  0.9325 -0.6372 -2.1703
 1938SOL    HW217451   4.127   3.564   4.480 -0.6817  1.7037  0.1778
 1939SOL     OW17452   4.069   0.862  15.015  0.1247 -0.3481 -0.2520
 1939SOL    HW117453   4.082   0.770  15.036 -1.8198 -0.5916 -0.0733
 1939SOL    HW217454   3.985   0.858  14.970  0.6170  1.0512 -1.3027
 1940SOL     OW17455   4.489   4.242   8.451 -0.4134  0.1196 -0.0918
 1940SOL    HW117456   4.531   4.298   8.386 -0.9506  1.7824  0.9926
 1940SOL    HW217457   4.531   4.156   8.448  2.3088  1.4897 -1.3640
 1941SOL     OW17458   4.028   2.840   7.754 -0.5149  0.0368  0.5934
 1941SOL    HW117459   4.073   2.759   7.734 -0.8130  0.1652 -0.5514
 1941SOL    HW217460   4.102   2.902   7.754  0.0098 -0.6032 -0.0708
 1942SOL     OW17461   4.376   0.096   7.985  0.2290  0.3171  0.5468
 1942SOL    HW117462   4.289   0.083   8.022 -0.5054 -0.6608 -1.4873
 1942SOL    HW217463   4.410   0.174   8.028 -2.6691  1.8707  0.0254
 1943SOL     OW17464   1.658   2.738  10.423  0.4270 -0.1568  0.0438
 1943SOL    HW117465   1.595   2.786  10.369  0.4678  1.5019  1.4802
 1943SOL    HW217466   1.606   2.705  10.496 -1.8356 -0.4317 -1.7196
 1944SOL     OW17467   2.561   0.300   2.804 -0.8025  0.0767 -0.3528
 1944SOL    HW117468   2.537   0.360   2.875  1.1736  0.3667  0.0658
 1944SOL    HW217469   2.656   0.311   2.797 -0.9289  0.8029 -0.9243
 1945SOL     OW17470   2.938   1.464  17.398  0.1655 -0.0053  0.1996
 1945SOL    HW117471   2.950   1.547  17.444 -0.0255  1.1452 -1.8432
 1945SOL    HW217472   3.017   1.413  17.414  0.5714  1.1995  2.0347
 1946SOL     OW17473   1.923   4.276   6.710 -0.2038 -0.2264 -0.2384
 1946SOL    HW117474   1.969   4.218   6.648  0.5638 -1.5124  1.5289
 1946SOL    HW217475   1.949   4.244   6.796 -0.0095  1.1047  0.2039
 1947SOL     OW17476   2.265   3.975  15.453 -0.2256  0.1281 -0.6801
 1947SOL    HW117477   2.303   4.008  15.372  2.7035 -2.3914 -0.3364
 1947SOL    HW217478   2.341   3.997  15.506 -0.7635  1.1827 -0.3444
 1948SOL     OW17479   3.288   0.516   9.115  0.3558 -0.4072 -0.0850
 1948SOL    HW117480   3.296   0.481   9.203  1.5427  0.8223  0.2996
 1948SOL    HW217481   3.270   0.442   9.058  2.8140 -0.4656 -0.7691
 1949SOL     OW17482   4.530   2.240   2.930 -0.0080 -0.1213 -0.1291
 1949SOL    HW117483   4.487   2.157   2.911  0.5691 -0.1893 -1.1743
 1949SOL    HW217484   4.576   2.252   2.847  1.4423 -0.5264  0.6012
 1950SOL     OW17485   4.196   2.208  14.786 -0.0455  0.0366  0.1347
 1950SOL    HW117486   4.190   2.280  14.723 -1.0098 -1.6731 -1.7260
 1950SOL    HW217487   4.217   2.145  14.717  0.0795  0.7796 -0.5100
 1951SOL     OW17488   2.036   3.542   1.571  0.1444 -0.1724  0.0474
 1951SOL    HW117489   2.083   3.584   1.499  3.6221 -0.4442  2.1319
 1951SOL    HW217490   1.946   3.570   1.554  0.8679  2.2053  0.2049
 1952SOL     OW17491   3.402   4.580   6.763  0.1755 -0.3618 -0.7260
 1952SOL    HW117492   3.400   4.671   6.793  0.5682 -0.9811  1.1921
 1952SOL    HW217493   3.402   4.597   6.669  2.4255 -0.3682 -0.7363
 1953SOL     OW17494   0.355   3.900   4.334  0.0360 -0.0219 -0.2305
 1953SOL    HW117495   0.313   3.877   4.417  0.1942 -0.4194 -0.2637
 1953SOL    HW217496   0.427   3.954   4.367  0.4927 -0.6874 -0.1567
 1954SOL     OW17497   3.478   2.827   2.710  0.6141  0.5407 -0.0373
 1954SOL    HW117498   3.441   2.783   2.786  0.2864  1.8333  0.5471
 1954SOL    HW217499   3.522   2.904   2.746  0.5446  0.6652 -0.2149
 1955SOL     OW17500   0.854   3.584   5.700 -0.1156  0.4977  0.1252
 1955SOL    HW117501   0.827   3.492   5.693 -1.0306  0.7247  0.6656
 1955SOL    HW217502   0.828   3.611   5.788 -1.1792  3.2141 -1.0502
 1956SOL     OW17503   2.047   4.370   4.280 -0.1261  0.2619  0.5973
 1956SOL    HW117504   1.966   4.418   4.264 -0.8124 -1.2884 -0.5266
 1956SOL    HW217505   2.038   4.276   4.264 -0.8798  0.2512  1.0947
 1957SOL     OW17506   1.905   0.145  17.072  0.9214 -0.1751  0.2314
 1957SOL    HW117507   1.857   0.167  16.993  2.1529 -0.0552 -0.4917
 1957SOL    HW217508   1.874   0.202  17.142  0.3522 -2.1508  1.5778
 1958SOL     OW17509   1.516   0.170   6.393 -0.4682 -0.1612 -0.1162
 1958SOL    HW117510   1.563   0.097   6.352 -0.7140 -0.8836  0.8845
 1958SOL    HW217511   1.428   0.158   6.359 -0.0485  0.3490 -1.3697
 1959SOL     OW17512   2.089   0.221  14.533  0.3132  1.0754 -0.3204
 1959SOL    HW117513   2.102   0.131  14.563  0.7195  0.9017 -1.0186
 1959SOL    HW217514   2.128   0.256  14.613  1.8690 -0.6475 -0.3442
 1960SOL     OW17515   1.664   2.550   8.708  0.1176 -1.1801  0.8048
 1960SOL    HW117516   1.715   2.576   8.785  1.9382 -0.8897 -0.4928
 1960SOL    HW217517   1.685   2.615   8.641  0.0969 -3.1379 -1.1088
 1961SOL     OW17518   1.517   3.489   3.746  0.3632 -0.1141  0.2405
 1961SOL    HW117519   1.578   3.530   3.809  0.2930 -0.7588  0.7249
 1961SOL    HW217520   1.523   3.397   3.772 -3.1542 -0.7556 -1.2867
 1962SOL     OW17521   1.121   1.595   2.389 -0.4828  0.1861 -0.3722
 1962SOL    HW117522   1.200   1.635   2.353  1.8313 -3.4292  0.5971
 1962SOL    HW217523   1.077   1.569   2.309 -2.4111  0.5710  0.5757
 1963SOL     OW17524   1.457   4.341   7.613  0.5241 -0.5832 -0.1610
 1963SOL    HW117525   1.474   4.389   7.532 -1.6521 -0.2043 -0.4089
 1963SOL    HW217526   1.417   4.261   7.578  0.6786  0.0470 -1.8071
 1964SOL     OW17527   3.370   2.032   1.201  0.5215  0.3490 -0.0543
 1964SOL    HW117528   3.422   1.952   1.194  0.8782  0.6840 -1.2404
 1964SOL    HW217529   3.391   2.068   1.287 -0.2311  0.7011 -0.0226
 1965SOL     OW17530   1.544   1.887   5.264 -0.0392 -0.0285 -0.1087
 1965SOL    HW117531   1.523   1.804   5.307  0.8307 -0.2015 -0.0280
 1965SOL    HW217532   1.604   1.850   5.199 -1.3033 -0.2883 -1.1410
 1966SOL     OW17533   3.215   2.532   1.750 -0.2048 -0.1563 -0.2544
 1966SOL    HW117534   3.256   2.574   1.826  0.0767 -1.3952  0.2656
 1966SOL    HW217535   3.158   2.467   1.790  1.0761  0.4966  2.6084
 1967SOL     OW17536   2.803   4.405   1.729 -0.3557 -0.1681 -0.0377
 1967SOL    HW117537   2.827   4.328   1.781 -1.5442 -2.7912 -3.3611
 1967SOL    HW217538   2.891   4.433   1.706  0.1218  1.1885  3.4571
 1968SOL     OW17539   2.907   2.826  13.832  0.0655 -0.2197  0.0279
 1968SOL    HW117540   2.815   2.820  13.807  0.5993  0.8457 -2.1493
 1968SOL    HW217541   2.893   2.811  13.925  1.5240 -2.8646 -0.1757
 1969SOL     OW17542   4.511   1.858   1.149 -0.0922 -0.2689  0.0162
 1969SOL    HW117543   4.534   1.822   1.234  0.1744 -0.1728 -0.0150
 1969SOL    HW217544   4.549   1.793   1.090 -0.4737 -0.7223  0.2690
 1970SOL     OW17545   3.034   2.347   4.307  0.0555  0.3121  0.3007
 1970SOL    HW117546   3.079   2.424   4.341 -1.6761  1.3492  0.2343
 1970SOL    HW217547   3.079   2.272   4.347 -0.3178  1.4342  2.8513
 1971SOL     OW17548   4.679   2.832  13.497  0.1619 -0.1583 -0.0514
 1971SOL    HW117549   4.698   2.794  13.583  0.5119 -1.0303 -0.5075
 1971SOL    HW217550   4.713   2.921  13.506 -0.3318  0.1012 -0.7674
 1972SOL     OW17551   2.723   3.288   6.219 -0.0939 -0.1658  0.2337
 1972SOL    HW117552   2.668   3.306   6.144 -0.5038  0.7205  0.7420
 1972SOL    HW217553   2.711   3.193   6.221  1.3938 -0.3757 -0.4132
 1973SOL     OW17554   2.275   0.369   1.735 -0.4862 -0.0780 -0.2363
 1973SOL    HW117555   2.199   0.354   1.792 -1.8854 -0.1208 -2.0926
 1973SOL    HW217556   2.294   0.279   1.710  2.2747  0.4242  0.1416
 1974SOL     OW17557   4.596   3.639   5.100  0.3537 -0.2792 -0.3490
 1974SOL    HW117558   4.583   3.674   5.188 -2.1764  0.5669 -1.0472
 1974SOL    HW217559   4.669   3.696   5.076 -2.1821  2.2070 -2.1238
 1975SOL     OW17560   1.112   2.529   2.280 -0.2521 -0.1036 -0.2558
 1975SOL    HW117561   1.041   2.581   2.317 -1.2491 -1.8193  0.2199
 1975SOL    HW217562   1.170   2.514   2.355  1.8253  0.8553 -1.6730
 1976SOL     OW17563   3.756   1.143   4.370  0.3213  0.0380 -0.3117
 1976SOL    HW117564   3.740   1.049   4.366  0.6228  0.0953 -2.8682
 1976SOL    HW217565   3.673   1.182   4.345  0.6063  0.9685  0.1924
 1977SOL     OW17566   0.627   3.584   1.001 -0.5748  0.1999 -0.1634
 1977SOL    HW117567   0.640   3.525   0.927  3.3266 -0.5565  1.1186
 1977SOL    HW217568   0.577   3.655   0.961 -0.2256 -0.6242 -2.0218
 1978SOL     OW17569   0.783   4.257   6.102  0.1364  0.1441 -0.6166
 1978SOL    HW117570   0.825   4.175   6.128  0.2335  0.5868  0.5994
 1978SOL    HW217571   0.770   4.302   6.185  0.5134  2.9159 -2.0521
 1979SOL     OW17572   0.879   2.280   3.486  0.5106 -0.0239 -0.3352
 1979SOL    HW117573   0.883   2.200   3.434 -3.6125 -0.2090 -0.3204
 1979SOL    HW217574   0.906   2.246   3.572 -0.9833  1.0130  0.5379
 1980SOL     OW17575   2.401   1.047   7.910 -0.0709  0.1795 -0.0473
 1980SOL    HW117576   2.479   1.004   7.946 -1.4476  0.0743  2.8423
 1980SOL    HW217577   2.434   1.055   7.821 -1.5703 -1.0727 -0.7219
 1981SOL     OW17578   3.753   3.643   5.217  0.2624 -0.3013  0.2210
 1981SOL    HW117579   3.809   3.576   5.179 -0.7196 -1.6002  1.0408
 1981SOL    HW217580   3.713   3.682   5.139  0.9910 -0.0804 -0.0435
 1982SOL     OW17581   0.855   2.710   5.009  0.1877  0.2674  0.2026
 1982SOL    HW117582   0.834   2.797   4.976  1.9527  0.2389 -1.0317
 1982SOL    HW217583   0.922   2.731   5.074 -0.5235  0.4519  0.8698
 1983SOL     OW17584   1.225   4.502   9.097 -0.0224 -0.3088 -0.2807
 1983SOL    HW117585   1.234   4.552   9.178 -2.5143 -0.8812  0.3346
 1983SOL    HW217586   1.129   4.508   9.096  0.0107  0.5261  1.6896
 1984SOL     OW17587   2.418   3.231   9.537 -0.0850 -0.7343  0.0645
 1984SOL    HW117588   2.403   3.300   9.601 -2.4076 -0.6189 -0.5854
 1984SOL    HW217589   2.498   3.245   9.487  0.1386  0.0151  0.6298
 1985SOL     OW17590   3.173   1.771   0.808  0.2665  0.1363 -0.6997
 1985SOL    HW117591   3.091   1.740   0.770  0.1745 -1.1006  0.4994
 1985SOL    HW217592   3.209   1.834   0.745  0.9337 -1.1677 -1.6293
 1986SOL     OW17593   1.441   1.261  12.547  0.2968 -0.1031  0.1255
 1986SOL    HW117594   1.441   1.198  12.475 -1.2349  0.5052 -0.4178
 1986SOL    HW217595   1.531   1.291  12.548 -0.0088  0.7743  0.9455
 1987SOL     OW17596   0.721   4.207   3.666  0.0909 -0.0701 -0.1388
 1987SOL    HW117597   0.733   4.181   3.757  1.9640 -0.2688 -0.4425
 1987SOL    HW217598   0.626   4.219   3.664  0.2366  1.4069  2.2929
 1988SOL     OW17599   3.831   1.235   6.883 -0.2669 -0.0553 -0.0409
 1988SOL    HW117600   3.784   1.204   6.960  0.4524 -2.0125 -0.3855
 1988SOL    HW217601   3.753   1.246   6.828  0.3505 -0.4672 -1.0118
 1989SOL     OW17602   3.629   2.054   6.024  0.6094 -0.6045  0.1207
 1989SOL    HW117603   3.661   2.144   6.034  0.0973 -0.6757  2.4293
 1989SOL    HW217604   3.540   2.081   6.046  0.8611 -1.1551  1.8472
 1990SOL     OW17605   4.303   2.946   7.813  0.4311 -0.0671 -0.5545
 1990SOL    HW117606   4.285   3.023   7.759 -0.1526 -0.3746 -0.8115
 1990SOL    HW217607   4.385   2.916   7.775  0.0899 -0.6147 -0.8658
 1991SOL     OW17608   1.927   1.269   7.546  0.2905 -0.8382  0.5717
 1991SOL    HW117609   2.006   1.243   7.595  1.5281 -0.1281 -1.0453
 1991SOL    HW217610   1.863   1.258   7.616  1.6240 -0.3291  1.8918
 1992SOL     OW17611   4.284   1.189  12.081  0.0209  0.3417  0.1696
 1992SOL    HW117612   4.368   1.235  12.086 -0.0602  0.4698  0.3249
 1992SOL    HW217613   4.214   1.243  12.117  0.1412  0.1126  0.7652
 1993SOL     OW17614   3.866   2.935  11.455 -0.3883  0.2317  0.1331
 1993SOL    HW117615   3.890   3.028  11.462  0.0433  0.1830 -0.6205
 1993SOL    HW217616   3.772   2.951  11.469 -0.9253 -0.9950 -2.0824
 1994SOL     OW17617   4.264   1.306   6.616  0.1332 -0.3227 -0.7032
 1994SOL    HW117618   4.327   1.292   6.687 -0.4758  0.7315  0.0360
 1994SOL    HW217619   4.182   1.314   6.664  0.8384  0.1966  0.4078
 1995SOL     OW17620   3.946   0.343  12.917 -0.5837 -0.3185  0.5274
 1995SOL    HW117621   4.038   0.328  12.940 -1.1813 -1.5182  2.0786
 1995SOL    HW217622   3.939   0.429  12.875  0.2426 -0.8853 -0.7905
 1996SOL     OW17623   2.831   4.518   1.490 -0.0991 -0.2029 -0.1441
 1996SOL    HW117624   2.782   4.476   1.560 -0.5212  1.1582  0.3888
 1996SOL    HW217625   2.763   4.559   1.437 -0.2856  0.4816  0.6301
 1997SOL     OW17626   3.790   0.423   8.615  0.2308  0.7360 -0.2833
 1997SOL    HW117627   3.772   0.333   8.640  0.2500  1.1409  1.1613
 1997SOL    HW217628   3.885   0.429   8.628  0.5183 -1.4046 -1.3563
 1998SOL     OW17629   4.069   0.222  15.416  0.1854  0.3900 -0.3047
 1998SOL    HW117630   4.118   0.204  15.496  1.0044  0.0097 -0.8894
 1998SOL    HW217631   4.081   0.145  15.361  0.6368  0.3360 -0.1271
 1999SOL     OW17632   4.416   2.133   9.372 -0.7825  0.1898  0.6641
 1999SOL    HW117633   4.342   2.147   9.313  1.0417  1.2238 -1.3974
 1999SOL    HW217634   4.419   2.037   9.364  0.1902  0.2871 -0.1588
 2000SOL     OW17635   4.502   4.648   7.770 -0.0980 -0.0404  0.5765
 2000SOL    HW117636   4.557   4.621   7.844 -1.0660  0.0008  1.3097
 2000SOL    HW217637   4.446   4.700   7.827 -0.1186 -0.1170  0.6262
 2001SOL     OW17638   2.823   3.636   2.301  0.0016  0.2479 -0.3876
 2001SOL    HW117639   2.915   3.611   2.301  0.5511  2.3001  1.3987
 2001SOL    HW217640   2.801   3.633   2.208 -0.2043  1.3325 -0.3749
 2002SOL     OW17641   4.731   2.528   6.403  0.7905  0.3625  0.4767
 2002SOL    HW117642   0.086   2.520   6.389  0.4592 -1.4292 -0.7581
 2002SOL    HW217643   4.714   2.620   6.381  1.4407  0.7380  1.5437
 2003SOL     OW17644   1.083   3.398   2.882 -0.0774 -0.7174  0.1418
 2003SOL    HW117645   1.094   3.462   2.811 -0.0910  1.6677  2.2933
 2003SOL    HW217646   1.162   3.343   2.884  0.7906  0.5268 -0.1277
 2004SOL     OW17647   1.275   4.571   5.446 -0.5027  0.3050  0.8238
 2004SOL    HW117648   1.264   4.515   5.369 -2.2881  0.1690  1.1682
 2004SOL    HW217649   1.353   4.531   5.484 -0.2808  0.9683  1.0524
 2005SOL     OW17650   0.644   3.538   3.544 -0.3571  0.6201  0.3885
 2005SOL    HW117651   0.554   3.543   3.577  0.2688  0.6984  2.0784
 2005SOL    HW217652   0.623   3.580   3.461 -1.1731 -2.3261 -0.9147
 2006SOL     OW17653   0.055   2.561   5.407 -0.6486 -0.2560 -0.2072
 2006SOL    HW117654   0.125   2.512   5.450 -0.9420  0.1991  0.7829
 2006SOL    HW217655   0.066   2.531   5.317 -0.3226  2.6530 -1.1601
 2007SOL     OW17656   2.587   3.677   5.678 -0.2993  0.2565 -0.1031
 2007SOL    HW117657   2.602   3.591   5.639 -0.7618 -0.0214  0.3250
 2007SOL    HW217658   2.500   3.666   5.716  0.4642 -2.6657  0.7984
 2008SOL     OW17659   4.637   2.712   0.065 -0.1126  0.1700 -0.0535
 2008SOL    HW117660   4.584   2.702  17.741 -1.1803 -1.3157  0.8337
 2008SOL    HW217661   4.638   2.625   0.105  0.2547 -0.2093 -0.8816
 2009SOL     OW17662   3.244   2.321   4.017 -0.5611  0.1437  0.3675
 2009SOL    HW117663   3.309   2.267   4.061  0.3992  0.7702 -0.2970
 2009SOL    HW217664   3.190   2.251   3.980 -0.8215  1.1631 -1.2128
 2010SOL     OW17665   3.245   3.963   8.690 -0.0339 -0.4012  0.6080
 2010SOL    HW117666   3.241   3.931   8.780  1.8247  2.1749  1.6068
 2010SOL    HW217667   3.160   4.006   8.677  0.0992 -0.5493 -0.6893
 2011SOL     OW17668   1.415   4.314  16.441 -0.0474  0.3791  0.8515
 2011SOL    HW117669   1.466   4.362  16.376  4.9944 -2.9860  2.3685
 2011SOL    HW217670   1.348   4.381  16.458 -0.8026 -0.5057  1.3635
 2012SOL     OW17671   1.668   2.334  16.886  0.1348 -0.5610 -0.4482
 2012SOL    HW117672   1.592   2.284  16.856  0.1986 -1.6414  1.1836
 2012SOL    HW217673   1.697   2.363  16.800 -2.1832 -0.2825 -1.1275
 2013SOL     OW17674   1.975   4.114   9.197 -0.1369  0.3332 -0.1926
 2013SOL    HW117675   1.920   4.139   9.271  2.6450  1.2759  1.5649
 2013SOL    HW217676   1.942   4.028   9.170  1.8277  0.7184 -3.8801
 2014SOL     OW17677   1.350   0.200   6.809 -0.0137  0.2399  0.0846
 2014SOL    HW117678   1.377   0.229   6.896 -0.6511  1.6981 -0.2077
 2014SOL    HW217679   1.408   0.259   6.762 -0.7894  0.1023 -1.0400
 2015SOL     OW17680   1.296   3.819   9.551  0.2080  0.3952  0.7457
 2015SOL    HW117681   1.368   3.874   9.520 -1.9851  2.8389  0.0431
 2015SOL    HW217682   1.224   3.831   9.489 -0.6461 -0.4429  1.5822
 2016SOL     OW17683   4.397   0.241   5.324  0.0511 -0.9786 -0.2548
 2016SOL    HW117684   4.393   0.199   5.239  0.1035 -1.5467  0.0254
 2016SOL    HW217685   4.402   0.157   5.369 -1.1720 -0.2956  1.1740
 2017SOL     OW17686   1.288   0.044   8.200 -0.1795  0.2388  0.0651
 2017SOL    HW117687   1.298   0.128   8.156 -0.4439 -0.1273 -0.7129
 2017SOL    HW217688   1.367   0.002   8.167 -1.0045 -0.5091 -0.9935
 2018SOL     OW17689   2.977   1.401   2.428  0.1166  0.2208  0.1900
 2018SOL    HW117690   3.008   1.310   2.430  1.3040  0.6315  0.5928
 2018SOL    HW217691   2.985   1.421   2.335 -1.8726 -1.7461 -0.3938
 2019SOL     OW17692   2.688   0.594  15.997  0.5395 -0.3210 -0.2118
 2019SOL    HW117693   2.725   0.575  15.911  1.6672  1.4662 -0.1411
 2019SOL    HW217694   2.757   0.639  16.045  1.6850 -2.7227  0.3791
 2020SOL     OW17695   0.243   1.811   2.794 -0.5059 -0.4888  0.2021
 2020SOL    HW117696   0.241   1.748   2.866 -0.3123 -1.8880 -0.9960
 2020SOL    HW217697   0.190   1.767   2.728  1.6166  0.2962 -2.0417
 2021SOL     OW17698   2.099   2.683   2.841  0.5288 -0.4202  0.3828
 2021SOL    HW117699   2.039   2.725   2.903  0.4026  1.6954 -1.1448
 2021SOL    HW217700   2.152   2.643   2.910  1.9156  0.3442 -0.2246
 2022SOL     OW17701   0.888   1.345   9.283 -0.0668 -0.0799 -0.8022
 2022SOL    HW117702   0.945   1.422   9.278  2.9669 -2.1909  1.1907
 2022SOL    HW217703   0.806   1.372   9.242 -1.4141 -2.2032  0.5275
 2023SOL     OW17704   1.369   1.973   4.133 -0.4768 -0.1119 -0.5303
 2023SOL    HW117705   1.330   1.888   4.116 -0.9468 -0.1654  0.7953
 2023SOL    HW217706   1.312   2.029   4.080 -0.6925 -2.2203 -2.5195
 2024SOL     OW17707   4.306   3.322  11.529  0.0654  0.1859  0.2515
 2024SOL    HW117708   4.274   3.395  11.582 -1.6499 -0.8758  0.7012
 2024SOL    HW217709   4.227   3.329  11.475  0.8680 -0.2299 -0.9800
 2025SOL     OW17710   1.980   1.213   4.001 -1.0938 -0.5028  0.0739
 2025SOL    HW117711   1.910   1.149   4.017 -0.5290 -1.2555 -0.5029
 2025SOL    HW217712   1.949   1.280   4.062 -0.5460 -0.6572  0.5196
 2026SOL     OW17713   0.877   4.443   5.311 -0.8450  0.1731  0.0102
 2026SOL    HW117714   0.850   4.532   5.331 -0.1071  0.3558  0.2105
 2026SOL    HW217715   0.862   4.408   5.399  1.2610  0.4911  0.4977
 2027SOL     OW17716   2.844   1.731  14.728  0.3459  0.0372 -0.0139
 2027SOL    HW117717   2.901   1.655  14.716 -1.7592 -1.7997  1.5136
 2027SOL    HW217718   2.783   1.689  14.789  0.9008  0.8039  1.0695
 2028SOL     OW17719   3.628   4.070   7.902 -0.2029 -0.2946 -0.0018
 2028SOL    HW117720   3.627   4.016   7.823  0.0771  0.0823 -0.2644
 2028SOL    HW217721   3.565   4.026   7.959 -1.1649 -0.6030 -1.3113
 2029SOL     OW17722   1.532   0.127   2.842 -0.4498 -0.2091 -0.5318
 2029SOL    HW117723   1.460   0.089   2.792 -0.8276  0.4286 -0.4692
 2029SOL    HW217724   1.488   0.202   2.882  0.1834  0.6266 -1.3944
 2030SOL     OW17725   2.799   1.679  14.236  0.4290  0.7487  0.1531
 2030SOL    HW117726   2.753   1.746  14.286  1.4079  0.9957  0.7235
 2030SOL    HW217727   2.737   1.642  14.173  0.4144  0.2435  0.4658
 2031SOL     OW17728   0.762   2.113   4.779  0.3320 -0.0551  0.3997
 2031SOL    HW117729   0.752   2.034   4.833 -0.3881 -1.1019 -1.2706
 2031SOL    HW217730   0.669   2.134   4.767 -0.0813 -2.0686  0.1149
 2032SOL     OW17731   0.568   1.677   3.392 -0.2455 -0.5728  0.5619
 2032SOL    HW117732   0.647   1.730   3.385  0.0748 -0.9599  1.1933
 2032SOL    HW217733   0.556   1.681   3.297 -1.1577 -2.7181  0.5867
 2033SOL     OW17734   4.152   0.497   2.451 -0.6659 -0.3329  0.2958
 2033SOL    HW117735   4.157   0.415   2.403  2.2352 -0.0113  0.0411
 2033SOL    HW217736   4.169   0.476   2.543 -2.7216 -0.0676  0.7538
 2034SOL     OW17737   1.809   3.983   2.349  0.4389  0.2442 -0.2920
 2034SOL    HW117738   1.739   4.047   2.337 -0.7877 -0.8462  0.9889
 2034SOL    HW217739   1.793   3.944   2.435 -0.6758  2.2710  0.4191
 2035SOL     OW17740   1.353   0.142   3.505  0.0590 -0.3418 -0.0121
 2035SOL    HW117741   1.281   0.163   3.565 -0.3562  0.2626 -0.7260
 2035SOL    HW217742   1.386   0.060   3.541 -0.4712  0.0657  1.3899
 2036SOL     OW17743   0.833   3.465   7.830 -0.4443 -0.6733 -0.0217
 2036SOL    HW117744   0.781   3.433   7.903  0.3719 -0.3383  0.6973
 2036SOL    HW217745   0.771   3.532   7.802 -0.4811 -0.8377 -0.3424
 2037SOL     OW17746   4.194   2.278   6.492  0.1228  0.4868  0.0551
 2037SOL    HW117747   4.280   2.305   6.460  1.3995  1.0160  3.9143
 2037SOL    HW217748   4.186   2.185   6.472 -0.2461  0.0696  2.1564
 2038SOL     OW17749   3.377   3.699  13.858 -0.0969 -0.3074 -0.1480
 2038SOL    HW117750   3.419   3.654  13.931  0.4294 -1.9296 -1.4417
 2038SOL    HW217751   3.348   3.780  13.898  0.2920  1.2053 -2.9004
 2039SOL     OW17752   3.364   3.935  14.526  0.3044 -0.1104  0.2432
 2039SOL    HW117753   3.445   3.898  14.492 -0.4156  0.1291 -1.7123
 2039SOL    HW217754   3.334   3.879  14.598  1.1436 -1.8588 -0.7687
 2040SOL     OW17755   0.875   1.359   5.903 -0.4679 -0.0271  0.3503
 2040SOL    HW117756   0.907   1.438   5.947  1.8427  0.2890 -1.9512
 2040SOL    HW217757   0.779   1.365   5.901 -0.5413 -0.3724  2.1467
 2041SOL     OW17758   1.567   4.155   6.325 -0.0481  0.0691  0.0847
 2041SOL    HW117759   1.635   4.222   6.326  0.8752 -0.8713  0.5338
 2041SOL    HW217760   1.504   4.177   6.394  0.7198 -1.1191  1.1549
 2042SOL     OW17761   4.012   1.049  15.196 -0.1306  0.1986 -0.0919
 2042SOL    HW117762   4.046   0.997  15.124 -1.4897 -0.4307 -0.2750
 2042SOL    HW217763   4.039   1.133  15.158 -0.1701 -0.1352 -0.8503
 2043SOL     OW17764   2.978   3.880   9.003 -0.4984  0.2770 -0.2018
 2043SOL    HW117765   2.922   3.899   9.078 -0.5447 -3.2812  0.6207
 2043SOL    HW217766   3.038   3.954   9.014 -0.5771  0.6078 -1.9937
 2044SOL     OW17767   0.268   2.475  11.044  0.5022 -0.5504  0.4354
 2044SOL    HW117768   0.289   2.532  11.118  0.6045  1.7932 -1.4287
 2044SOL    HW217769   0.287   2.385  11.070 -2.0475 -0.5897  2.1686
 2045SOL     OW17770   3.575   2.304   3.130  0.1877  0.1706  0.3338
 2045SOL    HW117771   3.494   2.321   3.177  0.5027  1.4493  0.4212
 2045SOL    HW217772   3.576   2.209   3.115  1.0815 -0.0353  1.7424
 2046SOL     OW17773   3.116   1.376   6.977 -0.0690  0.6851  0.4696
 2046SOL    HW117774   3.131   1.396   6.885 -1.5566 -1.2929 -0.1965
 2046SOL    HW217775   3.025   1.406   6.984 -0.3229 -0.2692  1.3189
 2047SOL     OW17776   2.352   4.735   2.324 -0.5600  0.0571  0.6674
 2047SOL    HW117777   2.358   4.675   2.398  0.1448 -0.5134  0.1414
 2047SOL    HW217778   2.402   4.679   2.265 -1.3185  0.0896 -0.0186
 2048SOL     OW17779   0.469   1.662   0.292 -0.1570 -0.0952 -0.3247
 2048SOL    HW117780   0.501   1.607   0.363  1.4722 -1.7880 -2.3917
 2048SOL    HW217781   0.376   1.658   0.316 -0.3108  2.7029 -0.5031
 2049SOL     OW17782   2.418   0.093   6.712  0.2157 -0.3226  0.4098
 2049SOL    HW117783   2.430   0.112   6.805  0.0635 -1.0865  0.5859
 2049SOL    HW217784   2.509   0.075   6.687  0.3518 -1.4000  1.6926
 2050SOL     OW17785   0.721   0.531   8.924  0.5658  0.3112  0.3807
 2050SOL    HW117786   0.709   0.448   8.970  1.1783  0.9519  1.6723
 2050SOL    HW217787   0.815   0.526   8.910  0.6783 -0.0461  1.2653
 2051SOL     OW17788   0.139   1.393   5.473 -0.7293  0.5645 -0.1153
 2051SOL    HW117789   0.097   1.460   5.418  1.5637  1.3932 -0.8787
 2051SOL    HW217790   0.228   1.428   5.484 -1.3208  0.8647  3.5697
 2052SOL     OW17791   3.960   2.448  10.648 -0.7199  0.0895  0.5441
 2052SOL    HW117792   3.869   2.474  10.666  0.0519  2.5211  0.9108
 2052SOL    HW217793   3.984   2.507  10.577  1.7821 -0.0108  1.3046
 2053SOL     OW17794   2.292   3.033   7.311 -0.1556  0.9038  0.0406
 2053SOL    HW117795   2.212   2.980   7.315  0.4031 -0.0661 -1.6823
 2053SOL    HW217796   2.318   3.021   7.403 -1.5053 -0.5625  0.2340
 2054SOL     OW17797   2.573   2.382  13.984 -0.2200  0.4227 -0.0846
 2054SOL    HW117798   2.566   2.467  13.940  1.7954  1.7740  2.2603
 2054SOL    HW217799   2.665   2.372  14.009 -0.2996  0.7603  0.3381
 2055SOL     OW17800   2.589   1.105   3.114  0.7952 -0.1413  0.0654
 2055SOL    HW117801   2.661   1.118   3.175  1.1866  0.4670 -0.5292
 2055SOL    HW217802   2.604   1.175   3.050 -0.7834 -1.7313 -2.0308
 2056SOL     OW17803   0.133   1.051   1.831 -0.2217  0.6571  0.9003
 2056SOL    HW117804   0.143   0.997   1.909 -1.3425 -1.2860 -0.3210
 2056SOL    HW217805   0.192   1.122   1.856 -0.4248  1.1071  0.1166
 2057SOL     OW17806   2.500   4.319   3.932  0.3660 -0.2902 -0.1957
 2057SOL    HW117807   2.536   4.246   3.881  0.1114 -2.0116  2.1015
 2057SOL    HW217808   2.578   4.376   3.934 -1.0803  1.7016 -0.7968
 2058SOL     OW17809   3.107   4.731   4.315 -0.1223 -0.0833 -0.4998
 2058SOL    HW117810   3.088   4.702   4.225  2.8041 -0.2828 -1.0856
 2058SOL    HW217811   3.080   4.651   4.359 -0.8209  0.3076 -0.2213
 2059SOL     OW17812   1.954   0.430   9.507 -0.6913  0.1484  0.0808
 2059SOL    HW117813   2.003   0.430   9.589  0.7640  0.0447 -0.7865
 2059SOL    HW217814   1.999   0.504   9.468 -0.1232  0.0019  0.4389
 2060SOL     OW17815   4.299   3.600   7.183 -0.1454 -0.6946 -0.2912
 2060SOL    HW117816   4.380   3.623   7.139 -0.0104  0.0828  0.3654
 2060SOL    HW217817   4.326   3.531   7.243  1.5757 -0.3156 -0.6420
 2061SOL     OW17818   1.493   2.640  10.640  0.1281 -0.3416  0.2082
 2061SOL    HW117819   1.451   2.568  10.594 -0.1621 -0.0904  0.0810
 2061SOL    HW217820   1.541   2.589  10.705 -0.6422  0.6610  1.5579
 2062SOL     OW17821   1.911   0.564  12.382  0.7025 -0.0570  0.5404
 2062SOL    HW117822   1.838   0.506  12.364  0.3636  1.1752 -2.0104
 2062SOL    HW217823   1.883   0.609  12.462  1.5094  0.2223  0.6675
 2063SOL     OW17824   1.907   3.625   7.592 -0.3334 -0.6570  0.4701
 2063SOL    HW117825   1.972   3.584   7.649 -1.9812 -0.7333  2.2883
 2063SOL    HW217826   1.912   3.556   7.525  0.1262  0.6231 -0.8055
 2064SOL     OW17827   2.413   1.611   5.260 -0.4317 -1.1161 -0.5774
 2064SOL    HW117828   2.429   1.555   5.184 -1.3321 -0.7267 -1.0501
 2064SOL    HW217829   2.354   1.673   5.218 -2.0277 -2.0213  0.3412
 2065SOL     OW17830   2.744   2.771   7.507 -0.2596  0.1345  0.2026
 2065SOL    HW117831   2.805   2.830   7.462  0.0414 -0.5975 -0.3522
 2065SOL    HW217832   2.783   2.684   7.497 -0.9472 -0.1962  0.4467
 2066SOL     OW17833   1.020   1.056  13.288  0.1432 -0.2570 -0.3751
 2066SOL    HW117834   1.108   1.094  13.285 -0.1757  0.5683  0.7209
 2066SOL    HW217835   1.040   0.965  13.310  0.3399  0.3594  1.9466
 2067SOL     OW17836   0.907   2.343   1.424 -0.1760  0.0923  0.8211
 2067SOL    HW117837   0.839   2.406   1.444 -1.3867 -1.9806  3.1843
 2067SOL    HW217838   0.842   2.273   1.429 -2.1306  2.1424  3.4171
 2068SOL     OW17839   2.139   0.176  16.911 -0.3383 -0.7394 -0.3038
 2068SOL    HW117840   2.201   0.125  16.963  0.1117  0.0797 -0.0307
 2068SOL    HW217841   2.055   0.149  16.949  1.1826  0.0855  3.7064
 2069SOL     OW17842   4.451   2.269   2.533  0.1597  0.2667 -0.3251
 2069SOL    HW117843   4.420   2.178   2.526  1.8077 -0.5164  2.4652
 2069SOL    HW217844   4.370   2.305   2.569 -0.7066 -1.1471 -0.8594
 2070SOL     OW17845   2.686   2.757  10.717  0.0150 -0.4220 -0.2014
 2070SOL    HW117846   2.743   2.774  10.791 -1.5749 -0.4578  1.0230
 2070SOL    HW217847   2.685   2.661  10.720  2.4921 -0.4457 -0.2971
 2071SOL     OW17848   0.222   1.319   5.977 -0.3104  0.2328  0.4444
 2071SOL    HW117849   0.270   1.402   5.973  1.0547 -0.5380  0.9696
 2071SOL    HW217850   0.237   1.294   6.068  1.2643 -2.4468 -0.5584
 2072SOL     OW17851   1.766   0.651   3.051  0.4274  0.6166 -0.4394
 2072SOL    HW117852   1.720   0.702   3.118  0.3615 -0.8769  0.6573
 2072SOL    HW217853   1.777   0.572   3.104  1.5498  1.5607  0.7178
 2073SOL     OW17854   3.915   2.629  12.028 -0.2478  0.0198  0.2550
 2073SOL    HW117855   4.000   2.669  12.047 -0.2877  0.5003 -0.5678
 2073SOL    HW217856   3.912   2.661  11.938 -1.8441 -2.5540 -0.5973
 2074SOL     OW17857   4.410   4.318   8.907  0.2808  0.8207 -0.8169
 2074SOL    HW117858   4.378   4.266   8.833 -1.6873  0.1402  0.5257
 2074SOL    HW217859   4.363   4.279   8.980  0.3085  0.0617 -1.1975
 2075SOL     OW17860   4.667   2.378   2.407 -0.3780 -0.3423 -0.2262
 2075SOL    HW117861   4.585   2.331   2.424 -0.4024 -0.5255 -0.8326
 2075SOL    HW217862   4.719   2.314   2.358  0.4367 -1.3807  1.9799
 2076SOL     OW17863   2.618   0.521   4.894 -0.3286  0.6287 -0.3504
 2076SOL    HW117864   2.597   0.589   4.829 -2.3391 -1.1794 -1.5890
 2076SOL    HW217865   2.549   0.457   4.882 -0.3672  0.3747  1.2274
 2077SOL     OW17866   2.652   3.248   9.396 -0.0272 -0.2756 -0.2132
 2077SOL    HW117867   2.667   3.192   9.320  0.9081  0.6751 -0.7250
 2077SOL    HW217868   2.743   3.277   9.404 -0.1114  0.3532 -1.5665
 2078SOL     OW17869   3.912   0.379   3.592  0.1842 -0.1606 -0.2672
 2078SOL    HW117870   3.877   0.429   3.666  1.7300  0.6104 -0.0641
 2078SOL    HW217871   3.885   0.290   3.615 -1.0468  0.0887 -0.7637
 2079SOL     OW17872   1.162   0.438   5.967 -0.0058 -0.1283  0.3327
 2079SOL    HW117873   1.243   0.462   5.921 -0.1340 -0.0360  0.1571
 2079SOL    HW217874   1.095   0.460   5.903  0.4599 -0.9864 -0.4465
 2080SOL     OW17875   0.825   4.214   8.104  0.0332 -0.2884  0.1645
 2080SOL    HW117876   0.826   4.249   8.014 -2.9112 -0.2256  0.1392
 2080SOL    HW217877   0.879   4.135   8.101  0.5753  0.0746  0.3890
 2081SOL     OW17878   4.554   3.371   2.714  0.3204  0.2388 -0.0396
 2081SOL    HW117879   4.502   3.363   2.634  0.4228 -1.1512  0.0267
 2081SOL    HW217880   4.607   3.291   2.707 -0.8825 -0.5410 -0.3297
 2082SOL     OW17881   2.405   4.653   8.694 -0.5836 -0.0989 -0.3443
 2082SOL    HW117882   2.381   4.595   8.621  1.7408 -1.3218 -0.1282
 2082SOL    HW217883   2.324   4.657   8.744 -1.5643 -3.5605 -1.6475
 2083SOL     OW17884   4.079   3.370   6.999 -0.2864 -0.2977  0.0481
 2083SOL    HW117885   4.071   3.301   7.065  1.5343  0.5069  1.1194
 2083SOL    HW217886   4.173   3.366   6.983 -0.2129  1.3534  0.0367
 2084SOL     OW17887   3.546   0.200   5.957 -0.2261 -0.0827 -0.3125
 2084SOL    HW117888   3.521   0.196   5.865  0.0889 -0.6071 -0.3709
 2084SOL    HW217889   3.571   0.292   5.970  0.0503 -0.2310  0.2366
 2085SOL     OW17890   0.158   3.138  10.930 -0.0918 -0.3284 -0.2667
 2085SOL    HW117891   0.253   3.133  10.915 -0.5806 -1.9485 -2.9443
 2085SOL    HW217892   0.137   3.045  10.917 -0.8526 -0.3309  1.0336
 2086SOL     OW17893   1.840   4.360  14.023  0.3130 -0.5677 -0.2294
 2086SOL    HW117894   1.818   4.274  14.057  1.0800 -0.4431  0.5919
 2086SOL    HW217895   1.895   4.337  13.949  0.4582  0.8692 -0.5839
 2087SOL     OW17896   2.709   2.277  10.324  0.2628 -0.7505 -0.2468
 2087SOL    HW117897   2.717   2.237  10.411  0.2371 -0.6735 -0.2089
 2087SOL    HW217898   2.793   2.245  10.291  0.8729  0.1363  0.4277
 2088SOL     OW17899   3.450   0.751   8.757 -0.6598  0.4503  0.4681
 2088SOL    HW117900   3.450   0.669   8.805  3.2876 -0.2060 -0.6141
 2088SOL    HW217901   3.419   0.817   8.819 -0.1132  1.1837 -0.0248
 2089SOL     OW17902   1.806   0.635   3.384 -0.3877  0.3126  0.1035
 2089SOL    HW117903   1.887   0.684   3.371 -0.6383 -0.1196 -3.1652
 2089SOL    HW217904   1.744   0.678   3.325 -1.9307 -0.5493  1.0872
 2090SOL     OW17905   2.507   0.105   3.118 -0.9342 -0.6018  0.2112
 2090SOL    HW117906   2.461   0.166   3.059 -0.6472 -1.2504 -0.6889
 2090SOL    HW217907   2.466   0.023   3.089 -0.6552 -0.6590 -0.0203
 2091SOL     OW17908   1.334   1.587   8.401 -0.2838  0.0186  0.6157
 2091SOL    HW117909   1.242   1.579   8.428  0.0748  1.1598  2.1440
 2091SOL    HW217910   1.319   1.650   8.331  1.3562 -1.0976 -0.7400
 2092SOL     OW17911   0.372   1.454   9.188 -0.2560 -0.3224 -0.0519
 2092SOL    HW117912   0.358   1.503   9.107  0.4086 -0.0499 -0.0013
 2092SOL    HW217913   0.364   1.527   9.250  0.2277 -0.9859  0.7802
 2093SOL     OW17914   4.091   1.500   3.620 -0.2045 -0.5025  0.2012
 2093SOL    HW117915   4.157   1.551   3.572 -0.3004  1.0841  1.7585
 2093SOL    HW217916   4.024   1.568   3.628 -1.4997 -1.6164 -1.0659
 2094SOL     OW17917   1.833   3.622   3.207  1.0541 -0.7205  0.5099
 2094SOL    HW117918   1.783   3.694   3.245 -0.1809 -2.1665  1.6073
 2094SOL    HW217919   1.901   3.674   3.164 -0.1040 -0.9447 -1.5962
 2095SOL     OW17920   0.039   2.005   3.239  0.3493 -0.5552  0.1211
 2095SOL    HW117921   4.720   2.013   3.314 -1.3692  0.5042 -1.3405
 2095SOL    HW217922   0.117   2.043   3.279 -0.2399  0.2030  0.5568
 2096SOL     OW17923   4.365   4.695  15.668  0.0405  0.4417  0.3398
 2096SOL    HW117924   4.445   4.672  15.715 -0.1344 -1.8440 -0.4542
 2096SOL    HW217925   4.350   4.612  15.622 -1.6633 -0.4140  2.4269
 2097SOL     OW17926   2.797   4.277   3.077  0.0373 -0.6789  0.1308
 2097SOL    HW117927   2.792   4.304   2.986 -1.4316  2.4485  1.1478
 2097SOL    HW217928   2.887   4.305   3.095  0.1970  0.5505 -2.5937
 2098SOL     OW17929   2.246   1.007  16.966  0.3377  0.5023 -0.4280
 2098SOL    HW117930   2.290   0.979  17.046 -2.9144 -0.1135  1.1627
 2098SOL    HW217931   2.163   1.041  17.001  0.8972  0.4007  0.9885
 2099SOL     OW17932   3.100   0.564   7.608 -0.4037 -0.2096 -0.0492
 2099SOL    HW117933   3.185   0.568   7.564  0.2396  0.5969  1.2859
 2099SOL    HW217934   3.090   0.652   7.644  0.6465  0.5191 -1.5035
 2100SOL     OW17935   0.168   3.719   2.768  0.1031 -0.2552  0.5939
 2100SOL    HW117936   0.101   3.691   2.706 -1.2275  1.3869  1.2864
 2100SOL    HW217937   0.238   3.730   2.703 -0.4938 -0.8763 -0.1481
 2101SOL     OW17938   1.593   4.447   5.955 -0.1339 -0.1398 -0.3706
 2101SOL    HW117939   1.679   4.406   5.968  0.4139  0.9547 -0.4691
 2101SOL    HW217940   1.605   4.536   5.988 -0.2652  0.9053 -3.0863
 2102SOL     OW17941   4.588   1.401   4.849 -0.0226 -0.8486 -0.5474
 2102SOL    HW117942   4.590   1.396   4.944 -3.0919 -2.0409 -0.5718
 2102SOL    HW217943   4.591   1.313   4.812 -0.1133 -1.8483  1.8704
 2103SOL     OW17944   0.053   0.470   3.623 -0.4112  0.0797  0.4406
 2103SOL    HW117945   0.001   0.482   3.543 -1.5687 -0.5262  1.0927
 2103SOL    HW217946   0.136   0.441   3.587 -1.2199 -1.4151 -0.2402
 2104SOL     OW17947   2.215   1.709   8.736 -0.5451  0.0072 -0.0681
 2104SOL    HW117948   2.274   1.770   8.781 -0.0778  0.3261 -1.0962
 2104SOL    HW217949   2.203   1.647   8.807  1.7331 -1.4834 -0.9750
 2105SOL     OW17950   0.739   0.225  12.213 -0.5717  0.2135  0.0906
 2105SOL    HW117951   0.753   0.228  12.118  0.4560 -2.1162  0.1752
 2105SOL    HW217952   0.666   0.163  12.222 -1.2827  0.6358 -2.4962
 2106SOL     OW17953   3.701   3.150   3.908  0.0903 -0.4627 -0.9818
 2106SOL    HW117954   3.736   3.064   3.930  1.1605  0.3790  0.6013
 2106SOL    HW217955   3.780   3.191   3.944 -0.1024  0.0694 -1.1629
 2107SOL     OW17956   0.392   0.664   5.526 -0.1925 -0.5125 -0.2795
 2107SOL    HW117957   0.361   0.587   5.574  0.9466 -0.9812 -0.2753
 2107SOL    HW217958   0.374   0.737   5.585  0.0696  0.2930 -1.2088
 2108SOL     OW17959   3.452   0.962   6.141  0.0257 -0.2059  0.2150
 2108SOL    HW117960   3.546   0.983   6.142 -0.7885  3.3832  0.1605
 2108SOL    HW217961   3.447   0.868   6.158 -1.1312 -0.8955 -3.8392
 2109SOL     OW17962   2.746   2.281   2.918 -0.9805 -0.4089  0.5421
 2109SOL    HW117963   2.746   2.213   2.851 -0.7190  0.2253 -0.0967
 2109SOL    HW217964   2.761   2.359   2.865  1.2921 -1.3218 -0.1387
 2110SOL     OW17965   4.428   4.449  15.556 -0.5651 -0.3543  1.2560
 2110SOL    HW117966   4.440   4.366  15.601  0.2636 -1.9457 -1.9144
 2110SOL    HW217967   4.508   4.433  15.505 -1.0258  0.0583  0.4026
 2111SOL     OW17968   3.096   0.724  15.798  0.0702 -0.3250 -0.5501
 2111SOL    HW117969   3.187   0.700  15.781  0.8940  1.7480  0.8930
 2111SOL    HW217970   3.114   0.787  15.868 -0.0831 -0.1929 -0.6326
 2112SOL     OW17971   2.728   0.935   2.210 -0.2296  0.7024  0.3604
 2112SOL    HW117972   2.649   0.880   2.212  1.3574 -1.5975  0.9145
 2112SOL    HW217973   2.803   0.876   2.215  0.1733  1.2815  1.1080
 2113SOL     OW17974   1.385   2.761   4.440  0.1027  0.6830  0.0690
 2113SOL    HW117975   1.408   2.730   4.528 -1.5922 -1.5353 -0.2929
 2113SOL    HW217976   1.448   2.832   4.429 -0.3647  1.2170  0.7542
 2114SOL     OW17977   1.684   1.359   3.353  0.1623  0.0746  0.0483
 2114SOL    HW117978   1.590   1.347   3.340  0.0824 -0.1676  0.8440
 2114SOL    HW217979   1.682   1.439   3.407  0.2283 -2.0695  3.2129
 2115SOL     OW17980   2.317   0.593   1.425 -0.2365 -0.4182 -0.0888
 2115SOL    HW117981   2.360   0.593   1.339 -0.0084 -0.4213  0.0253
 2115SOL    HW217982   2.246   0.533   1.405 -0.3721  0.0205 -0.9349
 2116SOL     OW17983   4.575   0.810   9.297 -0.6870 -0.1757  0.3476
 2116SOL    HW117984   4.505   0.775   9.354  1.0042 -1.9028  1.3945
 2116SOL    HW217985   4.645   0.747   9.313  0.0887  1.4762  3.6095
 2117SOL     OW17986   0.687   0.752   6.358 -0.4538 -0.0035 -0.4826
 2117SOL    HW117987   0.750   0.748   6.286  0.5453 -0.6455  0.4108
 2117SOL    HW217988   0.748   0.767   6.431 -1.1354 -0.8413  0.2636
 2118SOL     OW17989   0.136   0.075  11.404 -0.6439 -0.0966  0.2497
 2118SOL    HW117990   0.072   0.017  11.362  0.4721 -1.2645  0.1544
 2118SOL    HW217991   0.202   0.020  11.446  0.0789 -1.2075 -2.3147
 2119SOL     OW17992   4.643   1.780   5.187 -0.1077  0.7594 -0.5529
 2119SOL    HW117993   4.693   1.845   5.238 -0.4418  0.7839 -0.2522
 2119SOL    HW217994   4.580   1.836   5.140 -0.6500 -0.7321 -1.5994
 2120SOL     OW17995   4.245   1.004  12.278 -0.1398 -0.2863 -0.3020
 2120SOL    HW117996   4.259   1.040  12.190 -1.8898 -0.6803 -0.7355
 2120SOL    HW217997   4.166   0.955  12.254  1.2023 -1.6673 -1.9609
 2121SOL     OW17998   0.894   4.669   2.342  0.2591  0.5109 -0.2111
 2121SOL    HW117999   0.805   4.638   2.327  0.2005 -0.0879  1.4816
 2121SOL    HW218000   0.944   4.588   2.341 -1.3566 -0.4881  2.7728
 2122SOL     OW18001   4.185   1.884   4.364 -0.1093 -0.1041 -0.0124
 2122SOL    HW118002   4.148   1.973   4.360  0.0973  0.1679  3.8106
 2122SOL    HW218003   4.271   1.904   4.400 -0.6409  1.6064  0.3506
 2123SOL     OW18004   1.408   0.427  16.686  0.1076 -0.0640 -0.4028
 2123SOL    HW118005   1.451   0.349  16.651 -0.8320 -0.6598 -0.2379
 2123SOL    HW218006   1.319   0.426  16.652  0.0388 -1.3220 -0.2015
 2124SOL     OW18007   0.086   1.793   9.208 -0.0473 -0.2312 -0.7848
 2124SOL    HW118008   0.095   1.883   9.176 -2.1337  0.5584  0.8768
 2124SOL    HW218009   0.050   1.760   9.125 -0.0513  0.8796 -1.2257
 2125SOL     OW18010   3.163   0.171   2.292 -0.3215  0.3491  0.1037
 2125SOL    HW118011   3.243   0.165   2.345 -0.8112  1.1288  0.9517
 2125SOL    HW218012   3.095   0.140   2.352 -0.5484  2.3441  0.9044
 2126SOL     OW18013   1.718   2.800  17.148 -0.2914  0.1122  0.2845
 2126SOL    HW118014   1.674   2.750  17.079  0.8879  0.1392 -0.4888
 2126SOL    HW218015   1.795   2.743  17.152  0.8537  1.5263 -1.7741
 2127SOL     OW18016   0.450   0.980   2.503 -0.2880 -0.0927 -0.0662
 2127SOL    HW118017   0.481   0.926   2.431  0.7668  1.6561 -0.9391
 2127SOL    HW218018   0.431   0.917   2.572 -1.9116  0.2323 -0.2081
 2128SOL     OW18019   0.431   1.321   8.355 -0.0913 -0.3331 -0.7062
 2128SOL    HW118020   0.514   1.276   8.341  0.5929  1.3406 -1.9711
 2128SOL    HW218021   0.433   1.346   8.447  1.3639 -2.3160 -0.1799
 2129SOL     OW18022   3.628   3.746   9.291  0.0679 -0.2553 -0.8774
 2129SOL    HW118023   3.717   3.725   9.262 -0.0072 -3.2817  1.0504
 2129SOL    HW218024   3.612   3.825   9.240 -0.4166 -0.6059 -1.2777
 2130SOL     OW18025   1.466   0.725   9.558  0.4565  0.0658  0.9295
 2130SOL    HW118026   1.389   0.691   9.603  0.0325  0.4480  0.4905
 2130SOL    HW218027   1.435   0.815   9.563  0.8342  0.1876  1.0941
 2131SOL     OW18028   2.454   2.706   7.435  0.1699 -0.2696  0.1088
 2131SOL    HW118029   2.537   2.732   7.476  0.0176  0.6228 -0.1319
 2131SOL    HW218030   2.394   2.757   7.491  0.0582 -0.0608 -0.1984
 2132SOL     OW18031   0.151   3.454   3.852 -0.3061  0.2482 -0.2345
 2132SOL    HW118032   0.179   3.511   3.924 -0.3080 -3.3256  2.5873
 2132SOL    HW218033   0.150   3.514   3.777  0.1204 -1.0979 -1.3117
 2133SOL     OW18034   2.527   0.692  12.274 -0.7721 -0.0759  0.6777
 2133SOL    HW118035   2.554   0.705  12.365 -2.8111 -1.3149  1.4568
 2133SOL    HW218036   2.612   0.659  12.244 -2.0918 -2.2272 -0.6111
 2134SOL     OW18037   1.071   0.129   2.731 -0.0767  0.7347 -0.1615
 2134SOL    HW118038   1.114   0.185   2.797  1.4439  1.0124 -1.3763
 2134SOL    HW218039   1.016   0.070   2.782 -0.0683 -0.0247 -1.0277
 2135SOL     OW18040   1.795   0.305   8.216 -0.0448 -0.3896  0.3924
 2135SOL    HW118041   1.792   0.385   8.268  0.4018  1.4369 -2.4329
 2135SOL    HW218042   1.730   0.325   8.150  0.8798  0.5759 -0.2177
 2136SOL     OW18043   3.110   3.422   1.146  0.4680  0.3181 -0.0356
 2136SOL    HW118044   3.072   3.421   1.058  0.8429 -0.2076 -0.1913
 2136SOL    HW218045   3.144   3.333   1.154 -0.9332 -0.4419 -2.4352
 2137SOL     OW18046   2.515   3.546   6.463  0.1145 -0.0627 -0.4683
 2137SOL    HW118047   2.455   3.525   6.391 -0.4840 -2.1412  0.6192
 2137SOL    HW218048   2.568   3.619   6.433  0.3996 -0.4877 -1.0011
 2138SOL     OW18049   2.537   2.183   2.582 -0.0959 -0.0364 -0.3410
 2138SOL    HW118050   2.554   2.119   2.513 -3.0561 -0.3868 -0.7779
 2138SOL    HW218051   2.570   2.133   2.657 -3.2123 -1.8039 -0.1334
 2139SOL     OW18052   3.315   1.659   7.084 -0.2823  0.3787 -0.0574
 2139SOL    HW118053   3.374   1.710   7.140 -0.5615  0.6915 -0.0504
 2139SOL    HW218054   3.304   1.715   7.008 -1.9433  0.2287  0.0611
 2140SOL     OW18055   1.865   3.405   6.008  0.4154 -0.0621 -0.3673
 2140SOL    HW118056   1.784   3.359   5.987  0.8110 -0.9232  0.0042
 2140SOL    HW218057   1.907   3.422   5.924  0.4824  0.7270 -0.1710
 2141SOL     OW18058   4.378   2.041   2.828  0.2700  0.2650 -0.0128
 2141SOL    HW118059   4.284   2.032   2.814  0.9435 -2.2859 -3.0375
 2141SOL    HW218060   4.403   2.019   2.738  0.4205  0.5154 -0.0327
 2142SOL     OW18061   2.045   2.114  16.973 -0.0279  0.2021 -0.3134
 2142SOL    HW118062   1.951   2.104  16.979 -0.1295  0.3754 -1.4905
 2142SOL    HW218063   2.080   2.026  16.989 -2.4672 -0.7040  0.0102
 2143SOL     OW18064   3.989   3.814   0.978  0.1675 -0.0495 -0.1423
 2143SOL    HW118065   3.935   3.872   0.923  0.5664 -1.0281 -1.5795
 2143SOL    HW218066   3.973   3.864   1.058 -0.0255  3.4947 -2.3884
 2144SOL     OW18067   3.982   1.167   8.769  0.0916  0.2150  0.7510
 2144SOL    HW118068   4.027   1.106   8.826  2.0030 -0.4398 -1.4451
 2144SOL    HW218069   4.057   1.179   8.711 -0.6735  0.7747 -0.1386
 2145SOL     OW18070   2.560   0.582   2.128 -0.3176 -0.2167 -0.3208
 2145SOL    HW118071   2.501   0.509   2.107 -0.8572  0.0270  0.3526
 2145SOL    HW218072   2.531   0.655   2.073  0.1727  0.0377 -0.2455
 2146SOL     OW18073   0.257   2.093  11.965 -0.0862 -0.1310 -0.3571
 2146SOL    HW118074   0.246   2.120  12.056 -0.6846 -0.8511 -0.2184
 2146SOL    HW218075   0.183   2.034  11.947  0.7555 -1.0505 -0.7613
 2147SOL     OW18076   2.994   3.621   4.973  0.0201  0.3935  0.3103
 2147SOL    HW118077   2.943   3.542   4.952  2.2560 -0.2287 -2.7382
 2147SOL    HW218078   3.087   3.605   4.957  0.2971  1.0045  1.3181
 2148SOL     OW18079   3.017   1.853   8.074  0.1416 -0.2259 -0.6764
 2148SOL    HW118080   3.012   1.916   8.002  1.4129  0.3661 -0.2307
 2148SOL    HW218081   2.924   1.858   8.095  0.3648 -0.7128  0.3938
 2149SOL     OW18082   0.941   3.725   7.510  0.0476  0.5985 -0.1124
 2149SOL    HW118083   0.877   3.692   7.447 -1.3479  2.2546  0.4324
 2149SOL    HW218084   0.923   3.684   7.595  1.3502  2.3448  0.9994
 2150SOL     OW18085   3.014   2.417   1.925  0.2884  0.0599  0.5353
 2150SOL    HW118086   2.919   2.415   1.914  0.2681  0.0096  0.7197
 2150SOL    HW218087   3.018   2.452   2.015  1.5486  0.2024  0.4255
 2151SOL     OW18088   3.394   4.174  11.819 -0.0138  0.3794 -0.1239
 2151SOL    HW118089   3.299   4.175  11.815  0.0284  2.6965 -0.0096
 2151SOL    HW218090   3.412   4.232  11.893 -0.1377 -0.6463  0.7147
 2152SOL     OW18091   0.381   4.390   8.479 -0.0546 -0.1203  0.0974
 2152SOL    HW118092   0.406   4.400   8.571  0.8057  0.0112 -0.1524
 2152SOL    HW218093   0.462   4.417   8.436  0.3269 -0.5270  0.5525
 2153SOL     OW18094   2.288   3.330   1.369  0.2416 -0.4090 -0.5996
 2153SOL    HW118095   2.303   3.324   1.463  0.1714  0.4477 -0.5336
 2153SOL    HW218096   2.214   3.271   1.356  0.2905 -0.8142  1.0150
 2154SOL     OW18097   3.778   1.786   2.041  0.1669  0.3972 -0.4807
 2154SOL    HW118098   3.719   1.724   1.997  1.3772  0.0487 -1.6327
 2154SOL    HW218099   3.737   1.872   2.036  0.9846  0.7050 -2.0732
 2155SOL     OW18100   1.771   3.512  16.838  0.6764 -0.2461  0.1887
 2155SOL    HW118101   1.684   3.535  16.806  0.0735 -0.3793  1.7256
 2155SOL    HW218102   1.757   3.422  16.868 -0.0071 -0.1993  0.0049
 2156SOL     OW18103   0.207   0.154   3.236  0.0310  0.1162 -0.0304
 2156SOL    HW118104   0.251   0.232   3.201  0.8641 -0.4044 -0.1339
 2156SOL    HW218105   0.273   0.100   3.280  0.9799  0.5321 -0.9322
 2157SOL     OW18106   2.332   3.498   6.221 -0.0883 -0.2785 -0.1994
 2157SOL    HW118107   2.246   3.460   6.206 -1.1975  2.9083 -1.8749
 2157SOL    HW218108   2.353   3.529   6.133 -1.2488  3.0173  0.6553
 2158SOL     OW18109   2.219   3.813   0.660 -0.4847  0.4939 -0.0721
 2158SOL    HW118110   2.302   3.856   0.682  0.5132 -1.3847 -0.2558
 2158SOL    HW218111   2.245   3.765   0.582  1.6283  1.7926 -0.1622
 2159SOL     OW18112   2.424   3.003  11.225  0.1277 -0.3218  0.1773
 2159SOL    HW118113   2.472   2.921  11.217 -2.0525 -1.5326 -0.7824
 2159SOL    HW218114   2.478   3.057  11.167 -0.2090 -0.4035 -0.2157
 2160SOL     OW18115   4.483   4.290   3.379  0.2334 -0.0097 -0.1720
 2160SOL    HW118116   4.540   4.357   3.339  0.8785 -0.4765 -0.0366
 2160SOL    HW218117   4.425   4.342   3.434  0.9530  0.5005  0.1141
 2161SOL     OW18118   1.567   4.469  16.192 -0.0719  0.3770  0.1261
 2161SOL    HW118119   1.642   4.528  16.204 -0.3660  0.8984 -0.6042
 2161SOL    HW218120   1.611   4.401  16.141  0.1246 -0.1843  1.0412
 2162SOL     OW18121   4.519   2.737   3.568 -0.0143  0.2241  0.1126
 2162SOL    HW118122   4.547   2.653   3.602  0.6056  0.9865  1.5059
 2162SOL    HW218123   4.566   2.740   3.485  1.3087  0.8943  0.8814
 2163SOL     OW18124   1.148   2.312  12.101 -0.1882  0.2091  0.4717
 2163SOL    HW118125   1.095   2.368  12.045 -0.1705  1.4726  1.7254
 2163SOL    HW218126   1.215   2.288  12.037 -0.1029  0.3231  0.5183
 2164SOL     OW18127   3.280   2.717   3.475 -0.0460 -0.3692  0.3008
 2164SOL    HW118128   3.262   2.806   3.446 -0.9655 -1.5485 -2.6766
 2164SOL    HW218129   3.195   2.688   3.509 -0.0269 -1.1087 -0.2792
 2165SOL     OW18130   4.150   1.579   7.237  0.3989 -0.0783  0.2758
 2165SOL    HW118131   4.206   1.644   7.194  0.5265 -0.9305 -0.8254
 2165SOL    HW218132   4.156   1.513   7.168  1.4062  0.5085 -0.2041
 2166SOL     OW18133   3.355   0.953   8.902  0.2571  0.0758 -0.3415
 2166SOL    HW118134   3.385   1.019   8.965  0.5624 -1.1588  0.8065
 2166SOL    HW218135   3.273   0.924   8.942 -0.9559  1.4839 -1.8269
 2167SOL     OW18136   3.676   2.477   8.106  0.1501  0.5639  0.2761
 2167SOL    HW118137   3.616   2.407   8.080  1.5322 -0.6569  0.3717
 2167SOL    HW218138   3.679   2.461   8.201  0.3351  1.4754  0.4305
 2168SOL     OW18139   0.004   2.706  13.723 -0.0672  0.7409 -0.2964
 2168SOL    HW118140   4.674   2.641  13.731  0.6662 -0.0752 -0.5227
 2168SOL    HW218141   0.083   2.656  13.746  0.1900  0.5159 -1.6708
 2169SOL     OW18142   4.722   2.503   7.701 -0.7813  0.3319  0.2753
 2169SOL    HW118143   0.064   2.458   7.725 -0.6422 -0.0455 -0.9128
 2169SOL    HW218144   4.739   2.582   7.752  1.8986 -0.2299  0.2785
 2170SOL     OW18145   0.478   2.061   3.071 -0.1310  0.3671 -0.4417
 2170SOL    HW118146   0.550   2.102   3.119 -1.9838  0.9832  1.8172
 2170SOL    HW218147   0.527   2.017   3.001  2.2529 -1.3950  2.3265
 2171SOL     OW18148   2.508   2.744  12.853 -0.4212  0.0623  0.4728
 2171SOL    HW118149   2.472   2.680  12.915  1.1080 -0.4327  0.8554
 2171SOL    HW218150   2.548   2.688  12.787 -0.5680 -1.1074  1.3778
 2172SOL     OW18151   0.964   4.264   2.915  0.7981 -0.5349  0.0005
 2172SOL    HW118152   0.893   4.222   2.867  2.1821 -1.2881 -1.3965
 2172SOL    HW218153   1.030   4.203   2.882 -1.1634 -2.5354 -0.1925
 2173SOL     OW18154   2.440   0.093  10.047  0.0926 -0.7266 -0.2798
 2173SOL    HW118155   2.468   0.172  10.000  0.2945 -0.5911  0.0692
 2173SOL    HW218156   2.520   0.044  10.067 -0.6303 -1.4969  0.7416
 2174SOL     OW18157   4.343   2.601   4.057  0.5212  0.0194  0.3524
 2174SOL    HW118158   4.297   2.685   4.049 -2.1979 -1.5311 -0.4987
 2174SOL    HW218159   4.434   2.629   4.053 -0.0989  1.7309 -2.1063
 2175SOL     OW18160   1.388   3.703  12.172  0.1952 -0.2329  0.1187
 2175SOL    HW118161   1.365   3.793  12.150  0.7891  0.6051  2.8811
 2175SOL    HW218162   1.299   3.669  12.183 -0.6707  0.7608 -3.9723
 2176SOL     OW18163   0.368   3.821  11.375  0.1649  0.3332  0.0611
 2176SOL    HW118164   0.424   3.852  11.304  2.3713 -1.5548  0.9845
 2176SOL    HW218165   0.414   3.875  11.440 -3.0550  2.5738  0.5148
 2177SOL     OW18166   1.942   0.460   9.184 -0.6413 -0.0544 -0.6386
 2177SOL    HW118167   1.906   0.542   9.217 -1.0616  0.0602 -1.3892
 2177SOL    HW218168   2.018   0.484   9.131 -1.0239  0.9614 -0.7231
 2178SOL     OW18169   4.452   0.741   2.119  0.2214 -0.0855  0.0683
 2178SOL    HW118170   4.442   0.836   2.125 -0.7632 -0.2817  1.4595
 2178SOL    HW218171   4.364   0.715   2.093 -0.2921  1.4718  0.2471
 2179SOL     OW18172   0.151   2.935   2.830  0.1253 -0.5348  0.5586
 2179SOL    HW118173   0.191   2.905   2.912  0.5954  0.5843  0.7404
 2179SOL    HW218174   0.216   3.002   2.808 -1.0280  1.1927  2.3494
 2180SOL     OW18175   2.279   0.738   6.233  0.4766  0.1907 -0.0033
 2180SOL    HW118176   2.277   0.683   6.155 -0.6901  0.3517 -0.0858
 2180SOL    HW218177   2.192   0.778   6.226  0.8358  1.0832  0.7032
 2181SOL     OW18178   0.867   3.064   7.805  0.3778  1.2050 -0.9498
 2181SOL    HW118179   0.800   3.119   7.764  0.0939 -0.3940 -2.6512
 2181SOL    HW218180   0.895   3.126   7.872  0.1132  1.0478 -0.6951
 2182SOL     OW18181   4.328   4.581   5.632 -0.2451 -0.1211  0.6371
 2182SOL    HW118182   4.275   4.637   5.689  3.1691  3.4921  0.1877
 2182SOL    HW218183   4.265   4.516   5.599 -0.2599 -0.1562  0.7348
 2183SOL     OW18184   0.695   2.289   3.037  0.6226  0.0816 -0.2549
 2183SOL    HW118185   0.779   2.244   3.021  1.6113  2.3767 -1.6143
 2183SOL    HW218186   0.657   2.271   2.951 -0.4195 -2.6147  0.7943
 2184SOL     OW18187   1.786   1.834   1.536 -0.0098 -0.3789  0.5086
 2184SOL    HW118188   1.710   1.789   1.499 -0.2395  0.5734 -0.1563
 2184SOL    HW218189   1.811   1.885   1.459  2.7779 -2.5960 -0.0917
 2185SOL     OW18190   3.397   0.708   2.604  0.2475  0.3731 -0.0157
 2185SOL    HW118191   3.487   0.732   2.626  0.1169  0.0809  0.8148
 2185SOL    HW218192   3.405   0.613   2.594 -1.7619  0.3828 -1.8770
 2186SOL     OW18193   3.806   4.054   3.303 -0.6252  0.9730  0.3380
 2186SOL    HW118194   3.756   4.085   3.227  0.5762 -1.0978 -1.3067
 2186SOL    HW218195   3.738   4.026   3.364 -1.6162  1.1945 -0.6573
 2187SOL     OW18196   0.161   1.153   4.272 -0.0031  0.2572 -0.0764
 2187SOL    HW118197   0.223   1.080   4.265 -0.2899 -0.3669  3.6302
 2187SOL    HW218198   0.091   1.096   4.241  0.0696  0.9567 -1.5094
 2188SOL     OW18199   4.557   3.584   7.085  0.1328  0.3053 -0.1769
 2188SOL    HW118200   4.542   3.607   6.994 -0.4658  0.8708  0.0644
 2188SOL    HW218201   4.618   3.510   7.075  0.8679  1.0619 -1.1888
 2189SOL     OW18202   2.131   1.669  14.601 -0.6052  0.5444  0.1473
 2189SOL    HW118203   2.137   1.588  14.551  0.7890  2.3825 -2.6756
 2189SOL    HW218204   2.220   1.671  14.637  0.3107  2.8777 -2.2134
 2190SOL     OW18205   3.719   1.121  17.427 -0.0301  0.0778  0.4503
 2190SOL    HW118206   3.762   1.047  17.383  1.9686  2.2294 -1.2516
 2190SOL    HW218207   3.678   1.075  17.500 -1.3844  1.9039  0.8544
 2191SOL     OW18208   1.772   3.777   8.733  0.0912 -0.3314  0.4777
 2191SOL    HW118209   1.735   3.865   8.741 -0.0651 -0.3145 -0.4825
 2191SOL    HW218210   1.705   3.722   8.773 -1.5352  1.2288 -0.0964
 2192SOL     OW18211   1.281   3.053   5.135  0.2800  0.0818  0.4939
 2192SOL    HW118212   1.190   3.055   5.162 -0.4251 -1.1853 -1.8070
 2192SOL    HW218213   1.319   3.020   5.217 -0.2925 -0.7885  0.4053
 2193SOL     OW18214   2.335   2.988   9.545  0.0080 -0.0831 -0.0678
 2193SOL    HW118215   2.349   2.955   9.634  0.3600 -0.0083 -0.0976
 2193SOL    HW218216   2.365   3.079   9.548 -0.5018  0.1163 -1.0210
 2194SOL     OW18217   1.369   2.547   6.706  0.7186  0.1669 -0.4262
 2194SOL    HW118218   1.279   2.580   6.712  0.1457 -1.5924  0.6082
 2194SOL    HW218219   1.367   2.519   6.614  0.8101  1.8221 -0.9198
 2195SOL     OW18220   0.193   0.141   3.575  0.2108  0.4020 -0.2728
 2195SOL    HW118221   0.175   0.088   3.498 -0.0750 -1.7390  1.2436
 2195SOL    HW218222   0.234   0.223   3.546 -1.1261  0.2844 -2.4603
 2196SOL     OW18223   0.520   1.072   3.717 -0.4070  0.0034 -0.0975
 2196SOL    HW118224   0.506   1.082   3.812  1.2784 -3.6053  0.5359
 2196SOL    HW218225   0.598   1.017   3.721  0.3235  0.9339 -1.8512
 2197SOL     OW18226   0.673   1.365   4.459  0.0468 -0.2335  0.7110
 2197SOL    HW118227   0.720   1.350   4.540  1.2858 -0.3073 -0.0291
 2197SOL    HW218228   0.683   1.278   4.420 -1.1708  0.5940 -1.4846
 2198SOL     OW18229   3.305   3.763   2.879 -0.7146 -0.0886 -0.0628
 2198SOL    HW118230   3.248   3.755   2.956 -0.2953  1.4144  0.4037
 2198SOL    HW218231   3.359   3.685   2.873 -1.4307 -0.5961  0.0127
 2199SOL     OW18232   2.325   0.712   3.050  0.1379  0.3470  0.6811
 2199SOL    HW118233   2.372   0.764   3.115  0.0229  1.9638 -0.5152
 2199SOL    HW218234   2.320   0.771   2.975 -1.2046 -2.5445 -1.5143
 2200SOL     OW18235   1.397   2.726   4.746 -0.0951  0.3425 -0.2930
 2200SOL    HW118236   1.479   2.755   4.786  0.3131 -3.0481  1.2912
 2200SOL    HW218237   1.343   2.703   4.821  1.5960  1.2235  1.1831
 2201SOL     OW18238   1.594   4.220   1.286 -0.9569 -0.1260  0.8343
 2201SOL    HW118239   1.643   4.228   1.368  0.0115 -1.5827  0.3914
 2201SOL    HW218240   1.582   4.314   1.269  1.0179  0.4823  2.7936
 2202SOL     OW18241   3.279   1.943  13.716 -0.3937  0.0906  0.0389
 2202SOL    HW118242   3.348   1.999  13.752  0.6247  0.3179 -2.2351
 2202SOL    HW218243   3.324   1.868  13.678 -0.6970 -0.7615  1.3663
 2203SOL     OW18244   2.746   3.546   0.403  0.1151 -0.2918  0.1497
 2203SOL    HW118245   2.701   3.630   0.410 -0.8295 -0.6359 -2.0014
 2203SOL    HW218246   2.695   3.506   0.333 -0.8749 -0.2894  0.8667
 2204SOL     OW18247   2.073   3.514   2.075  0.7081 -0.8303  0.3770
 2204SOL    HW118248   2.079   3.426   2.037 -0.7635 -1.1211  0.8067
 2204SOL    HW218249   2.133   3.562   2.017  0.0625  0.9712  1.2014
 2205SOL     OW18250   1.537   0.330   5.757  0.8814 -0.8617  0.1555
 2205SOL    HW118251   1.537   0.353   5.664  1.8744  0.5366  0.5028
 2205SOL    HW218252   1.616   0.277   5.751 -0.2095 -2.3833 -0.7787
 2206SOL     OW18253   0.252   1.848  12.231 -0.2560  0.1388  0.0176
 2206SOL    HW118254   0.320   1.799  12.278 -1.7224 -0.4231  1.5675
 2206SOL    HW218255   0.203   1.796  12.167 -2.1000  1.0709  0.6528
 2207SOL     OW18256   1.396   0.004   3.167 -0.3323 -0.5878 -0.5666
 2207SOL    HW118257   1.311   4.700   3.160 -1.0317  0.7543 -0.3967
 2207SOL    HW218258   1.374   0.086   3.124  0.6570  0.2182  0.4899
 2208SOL     OW18259   1.512   3.019  11.361 -0.1189 -0.1393  0.1465
 2208SOL    HW118260   1.598   2.986  11.335  0.3352  1.1121  0.0518
 2208SOL    HW218261   1.526   3.047  11.452 -0.3224  1.8493 -0.4335
 2209SOL     OW18262   0.155   3.802   8.829  0.5243 -0.2729 -0.7281
 2209SOL    HW118263   0.090   3.741   8.793 -1.7012  0.9947  1.0805
 2209SOL    HW218264   0.169   3.862   8.756  2.0304 -0.1645 -0.3421
 2210SOL     OW18265   0.903   3.139   4.008 -0.1675  0.0307 -0.7006
 2210SOL    HW118266   0.832   3.117   3.948  0.3494  1.4099 -1.8168
 2210SOL    HW218267   0.871   3.170   4.093 -0.0218 -1.6907 -0.0101
 2211SOL     OW18268   3.789   1.184   3.847  0.1389 -0.7476 -0.1998
 2211SOL    HW118269   3.885   1.177   3.853  0.3980  1.0298 -1.8908
 2211SOL    HW218270   3.774   1.276   3.825  0.6117 -0.6641 -0.1842
 2212SOL     OW18271   4.244   2.066   6.306  0.4530  0.0731  0.1802
 2212SOL    HW118272   4.234   1.989   6.363  0.4058  0.6018  0.8935
 2212SOL    HW218273   4.339   2.063   6.306  0.3284 -2.9008 -2.0136
 2213SOL     OW18274   0.170   4.512   9.096  0.8609 -0.0088 -0.4366
 2213SOL    HW118275   0.218   4.535   9.017  0.5161 -0.3688 -0.7517
 2213SOL    HW218276   0.217   4.434   9.124  0.5640  0.5555  1.6676
 2214SOL     OW18277   1.708   0.420  14.174 -0.8007 -0.3007 -0.3925
 2214SOL    HW118278   1.787   0.406  14.122 -0.2598  2.3265 -0.2789
 2214SOL    HW218279   1.737   0.393  14.261 -3.2317 -1.6448  0.0081
 2215SOL     OW18280   1.600   3.632   7.165 -0.0401 -0.9252  0.0563
 2215SOL    HW118281   1.526   3.683   7.197 -0.6382 -1.5427 -0.3284
 2215SOL    HW218282   1.672   3.686   7.198 -0.7050  1.3254 -2.2331
 2216SOL     OW18283   3.460   1.700   2.110 -0.3578  0.4441  0.3913
 2216SOL    HW118284   3.476   1.741   2.025  0.3101  1.2776  0.9176
 2216SOL    HW218285   3.505   1.617   2.097 -1.9867 -0.2327 -1.0259
 2217SOL     OW18286   0.237   1.278   6.258  0.3761 -0.4385  0.2420
 2217SOL    HW118287   0.207   1.241   6.341  1.1253 -0.3293  0.5585
 2217SOL    HW218288   0.324   1.238   6.254  0.1970 -0.9593  1.4452
 2218SOL     OW18289   3.635   1.120   5.665 -0.0739 -0.1121 -0.6313
 2218SOL    HW118290   3.658   1.151   5.753  2.0066 -3.9562  0.1678
 2218SOL    HW218291   3.721   1.125   5.623  0.4213 -1.6455  0.1991
 2219SOL     OW18292   4.449   4.373   6.070 -0.3244 -0.1609 -0.3622
 2219SOL    HW118293   4.534   4.394   6.030 -0.8269  0.0506 -1.3282
 2219SOL    HW218294   4.395   4.344   5.996  0.6019  0.1294 -1.1613
 2220SOL     OW18295   4.525   3.847   8.142 -0.4599 -0.0099 -0.5262
 2220SOL    HW118296   4.435   3.820   8.159 -0.0853  0.2020  1.7635
 2220SOL    HW218297   4.560   3.874   8.227  0.1005  1.2231 -1.1661
 2221SOL     OW18298   3.136   1.294  12.222  1.0167  0.5250  0.0883
 2221SOL    HW118299   3.128   1.330  12.310 -0.8274  2.2462 -0.7962
 2221SOL    HW218300   3.116   1.370  12.168 -1.7285 -0.1386  0.1496
 2222SOL     OW18301   0.582   1.227   9.659 -0.2176 -0.2890  0.3523
 2222SOL    HW118302   0.626   1.289   9.600 -1.6640  2.7483  2.4585
 2222SOL    HW218303   0.498   1.270   9.673  1.0312  1.8350  1.3665
 2223SOL     OW18304   2.866   0.589   6.945  0.2377 -0.2076  0.3870
 2223SOL    HW118305   2.869   0.495   6.928  1.5985 -0.3372  1.3645
 2223SOL    HW218306   2.865   0.632   6.860 -2.9219  0.2889  0.6588
 2224SOL     OW18307   3.972   3.595  13.272  0.0390  0.5648  0.3334
 2224SOL    HW118308   3.964   3.683  13.309  3.6181  0.8727  0.2855
 2224SOL    HW218309   3.934   3.603  13.185 -0.3486 -1.0821  0.3563
 2225SOL     OW18310   3.894   0.207   7.621  0.7212  0.9412  0.8621
 2225SOL    HW118311   3.929   0.268   7.556  0.0744  1.2828  0.8413
 2225SOL    HW218312   3.915   0.262   7.696  1.6961 -0.7826  1.8361
 2226SOL     OW18313   1.931   4.493   6.108  0.1332  0.5568 -0.3598
 2226SOL    HW118314   1.897   4.412   6.070 -1.4695  0.4959  1.1966
 2226SOL    HW218315   1.999   4.463   6.168  0.4337 -1.1215 -1.5587
 2227SOL     OW18316   1.040   2.661   8.460 -0.4129  0.3378  0.0869
 2227SOL    HW118317   0.985   2.669   8.538  0.9421  0.5744  1.0333
 2227SOL    HW218318   1.013   2.577   8.424  0.1629 -0.3076  1.1814
 2228SOL     OW18319   0.983   3.017   9.207 -0.3275  0.1687 -0.1356
 2228SOL    HW118320   0.969   2.927   9.178  1.0156 -0.2551  0.5578
 2228SOL    HW218321   0.894   3.052   9.214 -1.2449 -2.0188 -0.7633
 2229SOL     OW18322   1.781   2.739   3.821 -0.1652  0.4493 -0.0864
 2229SOL    HW118323   1.785   2.808   3.888  0.7368 -1.4293  1.7636
 2229SOL    HW218324   1.873   2.728   3.798 -0.0072 -0.5198  0.9982
 2230SOL     OW18325   1.305   4.354   5.274  0.3284  0.1335 -0.0528
 2230SOL    HW118326   1.231   4.299   5.300  0.1446  0.1122 -0.6080
 2230SOL    HW218327   1.383   4.304   5.298  0.4829  0.5554  0.3173
 2231SOL     OW18328   1.773   2.569   6.259 -0.5737  0.4040  0.1399
 2231SOL    HW118329   1.781   2.527   6.173 -2.5112  1.3383 -0.4836
 2231SOL    HW218330   1.759   2.499   6.323  2.0400 -1.2819 -1.1066
 2232SOL     OW18331   2.432   3.467  15.870  0.3382  0.1488  0.0457
 2232SOL    HW118332   2.359   3.410  15.892  0.9725 -0.9985 -0.8457
 2232SOL    HW218333   2.505   3.422  15.912  1.4077  0.9724 -0.9172
 2233SOL     OW18334   1.367   1.740   6.122  0.2409  0.4198 -0.0918
 2233SOL    HW118335   1.347   1.772   6.034  2.3679  0.7370 -0.4625
 2233SOL    HW218336   1.317   1.659   6.132 -1.3251  1.6285  1.8418
 2234SOL     OW18337   0.654   3.591   1.902 -0.1289  0.2578  0.2552
 2234SOL    HW118338   0.693   3.544   1.829 -2.6605 -0.4033 -0.6935
 2234SOL    HW218339   0.563   3.604   1.874 -0.1219 -1.1831 -0.4144
 2235SOL     OW18340   2.492   0.644   6.375  0.4710 -0.0187 -0.5167
 2235SOL    HW118341   2.458   0.555   6.372 -1.5262  0.6882  1.3136
 2235SOL    HW218342   2.425   0.693   6.328  1.1908  0.1508 -1.3867
 2236SOL     OW18343   0.385   3.705  16.083  0.1400 -1.3169 -0.0896
 2236SOL    HW118344   0.380   3.801  16.085  1.3706 -1.2589  0.3775
 2236SOL    HW218345   0.331   3.683  16.159  0.1719 -0.2338  0.2531
 2237SOL     OW18346   2.752   0.435  11.866 -0.2804 -0.2746  0.0832
 2237SOL    HW118347   2.694   0.364  11.839 -1.3909  0.6331  0.0274
 2237SOL    HW218348   2.837   0.406  11.834 -0.3413  1.7821 -1.9988
 2238SOL     OW18349   3.021   3.019   7.628  0.5557  0.2749 -0.0224
 2238SOL    HW118350   3.001   3.110   7.605 -0.5080 -0.8717 -3.5452
 2238SOL    HW218351   3.014   2.979   7.542  0.0632 -2.0309  1.0918
 2239SOL     OW18352   1.066   1.376   6.478 -0.0790  0.2094 -0.4652
 2239SOL    HW118353   1.119   1.441   6.524 -1.4946 -0.0934  1.5759
 2239SOL    HW218354   1.101   1.307   6.535  2.3733  0.9153 -1.1135
 2240SOL     OW18355   1.979   0.898  13.300  0.2213 -0.3424  0.3216
 2240SOL    HW118356   1.960   0.817  13.347 -1.2628 -0.8407 -1.1475
 2240SOL    HW218357   2.073   0.888  13.311  0.5395  2.2285  0.0634
 2241SOL     OW18358   1.894   3.384   7.448  0.0582  0.3983 -0.6590
 2241SOL    HW118359   1.846   3.302   7.452  0.4400  0.3088  2.2692
 2241SOL    HW218360   1.969   3.359   7.501 -0.1116 -0.4054 -0.8101
 2242SOL     OW18361   0.219   3.844   5.791  0.3726  0.1151 -0.4094
 2242SOL    HW118362   0.294   3.904   5.794  0.5812 -0.2037  1.0443
 2242SOL    HW218363   0.235   3.787   5.867 -0.4215  0.5349  0.0791
 2243SOL     OW18364   3.672   2.377  12.574 -0.5490 -0.6378 -1.1452
 2243SOL    HW118365   3.691   2.449  12.635  1.3034 -2.0420 -0.0705
 2243SOL    HW218366   3.582   2.397  12.546  0.1137  0.6366 -2.3760
 2244SOL     OW18367   1.045   4.478  13.782 -0.3294 -0.4962 -0.7430
 2244SOL    HW118368   1.138   4.496  13.794 -0.7310  0.1143  1.4751
 2244SOL    HW218369   1.033   4.438  13.869 -0.4485  1.3851  0.1141
 2245SOL     OW18370   3.572   2.748   0.869  0.0290 -0.4562  0.2817
 2245SOL    HW118371   3.647   2.694   0.892  0.7018 -0.5080 -2.0435
 2245SOL    HW218372   3.500   2.701   0.910  0.0836 -1.1744 -0.4553
 2246SOL     OW18373   0.987   0.968   3.844  0.4312 -0.2037  0.2480
 2246SOL    HW118374   1.035   1.050   3.856  1.1774 -0.5982 -0.0681
 2246SOL    HW218375   0.940   0.943   3.923  2.1868 -3.8230  0.1250
 2247SOL     OW18376   1.504   3.362   2.862  0.1919 -0.5459  0.3505
 2247SOL    HW118377   1.595   3.388   2.852  0.4440 -1.9123 -0.8596
 2247SOL    HW218378   1.454   3.429   2.816  0.5711 -0.1566  0.5041
 2248SOL     OW18379   0.870   3.170  17.375  0.1262  0.4884  0.0897
 2248SOL    HW118380   0.792   3.144  17.325 -0.4363 -0.4672  1.4519
 2248SOL    HW218381   0.929   3.176  17.300 -1.0170 -3.2022 -1.1299
 2249SOL     OW18382   0.496   1.240   6.333 -0.2989 -0.5266 -1.1508
 2249SOL    HW118383   0.570   1.206   6.283  0.4473  2.0296 -1.7719
 2249SOL    HW218384   0.467   1.160   6.378  0.5959  0.3455  1.0055
 2250SOL     OW18385   4.529   2.550   5.519 -0.5978 -0.2709  0.0005
 2250SOL    HW118386   4.470   2.551   5.444 -1.9017  1.8141  1.0510
 2250SOL    HW218387   4.613   2.567   5.476 -1.0343  2.2462  0.1585
 2251SOL     OW18388   4.149   2.484  15.699  0.2286 -0.2726 -0.1969
 2251SOL    HW118389   4.137   2.410  15.640  2.8301  0.5697 -1.8066
 2251SOL    HW218390   4.085   2.547  15.668 -0.5058 -2.4143 -2.9932
 2252SOL     OW18391   3.936   2.443   3.148 -0.3564  0.2352  0.3085
 2252SOL    HW118392   3.962   2.376   3.085 -0.6123  1.1896 -0.8057
 2252SOL    HW218393   4.020   2.487   3.166 -0.9136  0.3834  2.5499
 2253SOL     OW18394   2.945   0.048  16.122  0.0190 -0.8416  0.0821
 2253SOL    HW118395   2.889   0.122  16.100  0.6320 -1.5785 -4.1482
 2253SOL    HW218396   3.002   0.084  16.190  0.9686 -0.5471 -0.8634
 2254SOL     OW18397   0.720   0.632   3.313  0.0735  0.0250  0.6649
 2254SOL    HW118398   0.761   0.601   3.394 -1.0303  0.7094  1.4865
 2254SOL    HW218399   0.678   0.705   3.358 -1.0994 -0.7085  0.7383
 2255SOL     OW18400   3.384   1.562   8.618  0.2366 -0.8627 -0.7443
 2255SOL    HW118401   3.357   1.550   8.709 -0.7201 -0.6219 -0.9938
 2255SOL    HW218402   3.306   1.577   8.565 -0.2948  0.2948  0.3890
 2256SOL     OW18403   2.530   3.025  16.368 -0.1750 -0.1607 -0.5007
 2256SOL    HW118404   2.474   2.954  16.400 -1.9547  1.2781 -0.4568
 2256SOL    HW218405   2.594   2.975  16.318 -0.3157 -0.0583 -0.7794
 2257SOL     OW18406   0.723   0.646   8.409  0.0235  0.2961 -0.1677
 2257SOL    HW118407   0.653   0.647   8.344 -0.9920  2.7018  0.9778
 2257SOL    HW218408   0.786   0.584   8.372 -1.6780 -2.0936  0.9476
 2258SOL     OW18409   3.401   0.894  15.967  0.3036  0.0809 -0.0019
 2258SOL    HW118410   3.452   0.862  15.893 -1.1575  1.0080 -1.4110
 2258SOL    HW218411   3.453   0.971  15.993  0.3278 -0.8898  2.7937
 2259SOL     OW18412   0.774   0.577  17.480 -0.1998 -0.1543  0.1139
 2259SOL    HW118413   0.801   0.535  17.561 -1.6920 -0.2773  0.5527
 2259SOL    HW218414   0.797   0.506  17.420 -0.4497 -0.4297  0.3418
 2260SOL     OW18415   4.113   0.431   9.688  0.2396 -0.0780 -0.3576
 2260SOL    HW118416   4.046   0.425   9.756  1.3736 -1.4261  0.6535
 2260SOL    HW218417   4.128   0.525   9.686  3.0436 -0.5240 -0.1913
 2261SOL     OW18418   1.671   4.021   8.776  0.0389 -0.0999 -0.0123
 2261SOL    HW118419   1.708   4.065   8.852 -0.8456 -0.0610  0.4008
 2261SOL    HW218420   1.663   4.084   8.704 -0.6428 -0.2003 -0.0314
 2262SOL     OW18421   1.272   2.576   9.588  0.0281  0.3120  0.5998
 2262SOL    HW118422   1.308   2.517   9.655 -0.6277 -2.3027 -1.3320
 2262SOL    HW218423   1.179   2.578   9.608  0.0798  1.8982  0.6740
 2263SOL     OW18424   0.651   0.347  10.357 -0.5783 -0.6212 -0.4369
 2263SOL    HW118425   0.564   0.382  10.338 -0.5708 -0.3695  0.0171
 2263SOL    HW218426   0.703   0.379  10.283  0.9006  0.9372  1.3105
 2264SOL     OW18427   2.901   2.230   8.029  0.5809  0.7773 -0.6304
 2264SOL    HW118428   2.975   2.219   8.089  0.4350 -0.3827 -0.6558
 2264SOL    HW218429   2.820   2.244   8.078  1.5178  0.3222  1.0293
 2265SOL     OW18430   2.319   2.132   5.640  0.9421  0.5302 -0.3261
 2265SOL    HW118431   2.389   2.139   5.704  0.3075  0.3074  0.4022
 2265SOL    HW218432   2.251   2.176   5.692  0.4115 -0.4493 -0.1901
 2266SOL     OW18433   2.126   1.608   5.409 -0.1864 -0.5931  0.1734
 2266SOL    HW118434   2.156   1.578   5.495 -1.0172 -1.1582  0.2637
 2266SOL    HW218435   2.049   1.662   5.428 -1.2581 -1.4223 -1.8487
 2267SOL     OW18436   4.699   0.133   3.344 -0.0422 -0.4736  0.5143
 2267SOL    HW118437   4.712   0.193   3.417  1.6935 -2.2559  1.6891
 2267SOL    HW218438   0.043   0.137   3.297 -0.7619 -0.7229 -0.7960
 2268SOL     OW18439   2.782   0.721  14.937  0.2923 -0.1712 -0.4633
 2268SOL    HW118440   2.770   0.664  14.861 -3.3516 -0.0826  0.0460
 2268SOL    HW218441   2.706   0.779  14.928  0.3293  0.4734  3.4974
 2269SOL     OW18442   2.788   1.599   1.438 -0.1114 -0.2696  0.2974
 2269SOL    HW118443   2.841   1.675   1.458 -1.4253  0.3722  1.3190
 2269SOL    HW218444   2.813   1.557   1.355 -1.7012  0.7146 -0.6712
 2270SOL     OW18445   2.295   1.805   1.721 -0.2771  0.0781 -0.2088
 2270SOL    HW118446   2.219   1.769   1.677 -2.5778  2.1328  2.1030
 2270SOL    HW218447   2.255   1.889   1.745  1.2936  0.6576  0.4067
 2271SOL     OW18448   3.960   1.630   4.935  0.1744  0.5535 -0.1978
 2271SOL    HW118449   3.865   1.640   4.937  0.2781  1.4611  0.1168
 2271SOL    HW218450   3.978   1.705   4.878  1.6432  0.9257  0.7624
 2272SOL     OW18451   2.925   0.273   9.867  0.1495 -0.4051  0.1531
 2272SOL    HW118452   2.883   0.307   9.788  0.7371  1.6520  0.7243
 2272SOL    HW218453   3.019   0.291   9.867 -0.1953  1.3808 -0.0867
 2273SOL     OW18454   0.834   3.750   6.518  0.0671 -0.3089 -0.4056
 2273SOL    HW118455   0.843   3.659   6.547 -1.6835  0.3987  2.4158
 2273SOL    HW218456   0.891   3.780   6.589 -0.3087  0.1604 -0.3013
 2274SOL     OW18457   4.665   2.959   6.521  0.6807 -0.4821 -0.4169
 2274SOL    HW118458   4.695   2.948   6.611  0.6839 -0.0745 -0.3651
 2274SOL    HW218459   4.739   3.001   6.477  1.4268 -0.6285  0.6983
 2275SOL     OW18460   3.907   3.323   9.779 -0.0550 -0.4501 -0.6638
 2275SOL    HW118461   3.832   3.319   9.839  1.5695  0.7284  1.4938
 2275SOL    HW218462   3.955   3.250   9.818  2.3189  1.5567  0.1564
 2276SOL     OW18463   0.804   2.245   8.238 -0.1197 -0.3019  0.1958
 2276SOL    HW118464   0.731   2.245   8.299 -0.2213  1.6411  0.0751
 2276SOL    HW218465   0.859   2.307   8.286 -2.1829  1.0567  0.8139
 2277SOL     OW18466   1.132   0.048   5.370 -0.6991  0.1813  0.3261
 2277SOL    HW118467   1.044   0.010   5.369  0.0881 -1.5589 -1.4769
 2277SOL    HW218468   1.187   4.717   5.404  0.7306  0.9945 -0.3185
 2278SOL     OW18469   3.680   4.071  12.289 -0.3518 -0.2297 -0.8567
 2278SOL    HW118470   3.684   4.114  12.375 -2.4556 -1.0180 -0.3823
 2278SOL    HW218471   3.729   4.136  12.239  2.4702 -1.9793 -0.3644
 2279SOL     OW18472   1.543   4.049   3.650  0.0310  0.1741 -0.1333
 2279SOL    HW118473   1.470   4.002   3.692  0.5579  0.5171  1.1338
 2279SOL    HW218474   1.489   4.104   3.593 -1.6636 -0.0589  1.2273
 2280SOL     OW18475   3.269   3.664   9.137 -0.4237 -0.0327  0.2254
 2280SOL    HW118476   3.256   3.586   9.082  0.8220 -0.7346  0.9211
 2280SOL    HW218477   3.236   3.624   9.217 -2.1293 -1.4335 -1.1540
 2281SOL     OW18478   1.943   0.722   5.399 -0.0784 -0.7556  0.3295
 2281SOL    HW118479   2.026   0.764   5.376 -1.3306  1.6552  0.2554
 2281SOL    HW218480   1.948   0.631   5.371  1.7003 -0.1728 -1.2262
 2282SOL     OW18481   1.812   4.164  11.166 -0.3505  0.0312 -0.1170
 2282SOL    HW118482   1.785   4.248  11.130 -0.8984 -1.4122 -3.1124
 2282SOL    HW218483   1.755   4.153  11.242 -2.6171  1.2995 -1.6475
 2283SOL     OW18484   3.003   0.272  12.993  0.2441  0.0004 -1.0510
 2283SOL    HW118485   3.088   0.306  13.021 -0.7370  0.0918  1.7634
 2283SOL    HW218486   2.971   0.353  12.953  0.8040  0.5176 -0.4508
 2284SOL     OW18487   0.803   1.930  10.321  0.0487  0.1171  0.1821
 2284SOL    HW118488   0.714   1.924  10.287  0.1330 -1.1082  0.1711
 2284SOL    HW218489   0.860   1.938  10.245  0.3066 -0.8921  0.2758
 2285SOL     OW18490   2.467   2.826   2.824  0.4271 -0.0916 -0.4813
 2285SOL    HW118491   2.522   2.896   2.859 -0.5281  0.6283 -0.4308
 2285SOL    HW218492   2.430   2.787   2.903  1.2375 -0.3804 -0.2453
 2286SOL     OW18493   2.327   3.718  15.262  0.2463  0.2107 -0.3867
 2286SOL    HW118494   2.321   3.797  15.315 -2.7666 -2.4265  3.2280
 2286SOL    HW218495   2.420   3.719  15.239  0.0277 -0.2807 -1.3042
 2287SOL     OW18496   2.498   3.192   5.619  0.3162 -0.3767  0.0702
 2287SOL    HW118497   2.549   3.129   5.670  0.5811  0.2417  0.5663
 2287SOL    HW218498   2.411   3.157   5.636 -0.1744  0.5518 -0.5153
 2288SOL     OW18499   4.187   0.200   4.636 -0.1028  0.6244 -0.1548
 2288SOL    HW118500   4.200   0.150   4.555  0.4027  0.3929  0.0694
 2288SOL    HW218501   4.095   0.186   4.659 -0.0999  0.2574 -0.3568
 2289SOL     OW18502   2.556   1.828   4.143 -0.1530  0.1797 -0.1232
 2289SOL    HW118503   2.516   1.914   4.139  0.8931  0.6760  0.1918
 2289SOL    HW218504   2.487   1.776   4.185  1.5830 -1.1381  1.0832
 2290SOL     OW18505   3.400   4.610   6.508  0.1425  0.1084  0.3628
 2290SOL    HW118506   3.341   4.678   6.476  1.3753  0.7466 -0.5395
 2290SOL    HW218507   3.446   4.592   6.426  0.3036 -0.4403  0.5751
 2291SOL     OW18508   3.916   0.825   4.000  0.1523  0.4192  0.5389
 2291SOL    HW118509   4.011   0.829   4.014  0.2720 -1.8932  0.3387
 2291SOL    HW218510   3.906   0.734   3.973 -3.3049  0.0928  3.0130
 2292SOL     OW18511   3.742   0.480   6.700 -0.4998 -0.5429  0.1262
 2292SOL    HW118512   3.801   0.416   6.661 -1.4959 -0.7737 -1.0133
 2292SOL    HW218513   3.813   0.523   6.746 -0.3635  1.1153 -1.6279
 2293SOL     OW18514   3.560   3.464  13.257  0.3560 -0.5569  0.5268
 2293SOL    HW118515   3.576   3.378  13.217 -1.3023  0.3069 -2.0115
 2293SOL    HW218516   3.472   3.488  13.227  1.0645 -0.6770 -1.6600
 2294SOL     OW18517   1.414   3.220   8.313  0.0631 -0.1356 -0.2360
 2294SOL    HW118518   1.506   3.246   8.324  0.4931 -2.2468  1.0953
 2294SOL    HW218519   1.406   3.219   8.217  0.4898 -0.6321 -0.2680
 2295SOL     OW18520   3.681   4.465   8.473 -0.1623  0.1412  0.1026
 2295SOL    HW118521   3.619   4.433   8.538 -0.5237  2.4815  0.9339
 2295SOL    HW218522   3.704   4.554   8.500 -1.6902  1.3812 -2.6583
 2296SOL     OW18523   2.037   0.392   2.466  0.4032 -0.3896  0.1316
 2296SOL    HW118524   2.036   0.429   2.555 -0.6459 -0.3831  0.1179
 2296SOL    HW218525   2.123   0.416   2.431 -0.3497  2.1140 -0.0006
 2297SOL     OW18526   3.566   3.483  10.695  0.1065  0.1616 -0.0195
 2297SOL    HW118527   3.609   3.399  10.681 -0.0967  0.0381  0.1084
 2297SOL    HW218528   3.622   3.521  10.762  0.1788  0.6043 -0.3244
 2298SOL     OW18529   1.459   3.863   8.733  0.8146 -1.1285  0.3784
 2298SOL    HW118530   1.494   3.850   8.644 -0.5232  0.4596 -0.3870
 2298SOL    HW218531   1.529   3.918   8.768  1.8030 -1.4614 -1.0575
 2299SOL     OW18532   2.286   2.208   3.808  0.0668  0.8992 -0.0947
 2299SOL    HW118533   2.250   2.242   3.726  0.9271  1.0706 -0.4052
 2299SOL    HW218534   2.211   2.194   3.865  0.2267  1.3366  0.2259
 2300SOL     OW18535   4.578   2.346   3.192 -0.0282 -0.1320  0.4226
 2300SOL    HW118536   4.545   2.312   3.109  0.2103  2.9015 -0.8929
 2300SOL    HW218537   4.547   2.435   3.203  0.1783  0.0136 -0.1878
 2301SOL     OW18538   1.027   0.606  15.455 -0.0580 -0.1235 -0.1347
 2301SOL    HW118539   0.964   0.626  15.386 -0.7054  0.5339  0.6448
 2301SOL    HW218540   1.069   0.691  15.471  0.5495 -0.6222  0.9476
 2302SOL     OW18541   3.885   4.354   2.497  0.6880 -0.9339 -0.1737
 2302SOL    HW118542   3.929   4.308   2.568 -1.3382 -0.4100  1.4306
 2302SOL    HW218543   3.952   4.366   2.429 -0.5607  0.9971 -1.0733
 2303SOL     OW18544   4.690   1.339   6.080 -0.3302  0.5909  0.1787
 2303SOL    HW118545   4.634   1.278   6.031 -0.3667 -1.2766  2.5435
 2303SOL    HW218546   0.027   1.333   6.024 -1.3247  1.1338 -1.2390
 2304SOL     OW18547   3.594   2.323   8.636 -0.2847 -0.0622 -0.1559
 2304SOL    HW118548   3.612   2.229   8.632 -0.6799 -0.1814  0.8337
 2304SOL    HW218549   3.678   2.354   8.672 -1.8477 -0.7679  4.1792
 2305SOL     OW18550   0.724   1.649   2.195  0.3422 -0.3535  0.2599
 2305SOL    HW118551   0.720   1.734   2.238  1.1484 -1.3570  2.3433
 2305SOL    HW218552   0.785   1.668   2.124 -1.9456 -0.2212 -1.6860
 2306SOL     OW18553   3.241   1.684   1.296 -0.0918 -0.2464  0.6392
 2306SOL    HW118554   3.209   1.609   1.345  1.5837 -0.0716  2.0071
 2306SOL    HW218555   3.188   1.672   1.218  2.1282  3.1373 -1.4020
 2307SOL     OW18556   1.991   1.779  11.603  0.6027 -0.0963 -0.0160
 2307SOL    HW118557   2.081   1.750  11.620  1.3417  0.9275 -2.1114
 2307SOL    HW218558   1.953   1.770  11.690  1.6015 -0.2510  0.4031
 2308SOL     OW18559   0.152   4.118   9.043  0.1131  0.2022 -0.0710
 2308SOL    HW118560   0.178   4.055   9.109 -1.0190 -0.2060 -0.0051
 2308SOL    HW218561   0.228   4.176   9.044  2.6157 -3.0424 -0.9489
 2309SOL     OW18562   4.734   2.882   6.758 -0.6449  0.2434  0.0637
 2309SOL    HW118563   4.649   2.858   6.795 -0.7600  1.6299  0.6842
 2309SOL    HW218564   0.057   2.887   6.830  2.5160 -4.0671 -2.3692
 2310SOL     OW18565   3.380   0.949  13.341 -0.2923  0.2867 -0.0804
 2310SOL    HW118566   3.470   0.948  13.374  0.1155  0.0842 -1.1829
 2310SOL    HW218567   3.339   1.021  13.389  2.3934  1.4107  0.5069
 2311SOL     OW18568   0.336   0.228   8.951 -0.0725  0.0842 -0.3359
 2311SOL    HW118569   0.279   0.155   8.977  1.8954 -1.5923 -0.7879
 2311SOL    HW218570   0.274   0.284   8.904 -0.9835 -2.8364 -2.6152
 2312SOL     OW18571   2.184   4.018  11.634  0.1651  0.6093  0.0160
 2312SOL    HW118572   2.124   3.972  11.693  1.2526 -0.1904  0.4760
 2312SOL    HW218573   2.190   3.958  11.560 -0.1758  0.0900  0.4108
 2313SOL     OW18574   2.380   0.436   4.536  0.3451  0.0069  0.4020
 2313SOL    HW118575   2.343   0.359   4.493  2.5784 -1.0476  0.3700
 2313SOL    HW218576   2.310   0.494   4.510  0.3186 -0.3052 -0.2201
 2314SOL     OW18577   4.728   3.234   5.457 -0.2877  0.0021  0.5698
 2314SOL    HW118578   4.727   3.323   5.492 -1.1631  0.4368 -0.5296
 2314SOL    HW218579   4.650   3.198   5.500 -2.0309  1.4569 -1.3100
 2315SOL     OW18580   2.516   3.003   3.736  0.3434 -0.6060  0.3754
 2315SOL    HW118581   2.549   3.066   3.799  0.3686 -0.3162  0.0688
 2315SOL    HW218582   2.421   3.019   3.742 -0.1227 -2.5029 -1.8831
 2316SOL     OW18583   4.167   1.797   6.873 -0.3456 -0.6319 -0.5048
 2316SOL    HW118584   4.147   1.867   6.812  0.4570  1.1185  1.2445
 2316SOL    HW218585   4.098   1.734   6.852  1.3964 -3.3699  1.8182
 2317SOL     OW18586   4.004   2.645   6.488  0.4615 -0.0468 -0.2829
 2317SOL    HW118587   3.997   2.632   6.394 -0.3370  0.5785 -0.3146
 2317SOL    HW218588   4.096   2.622   6.504  0.4292  1.1119  1.5702
 2318SOL     OW18589   0.608   0.710   2.704  0.1306 -0.0980 -0.0670
 2318SOL    HW118590   0.596   0.682   2.613  0.4611  0.8349 -0.4015
 2318SOL    HW218591   0.523   0.743   2.734 -1.7306 -0.5708 -4.8730
 2319SOL     OW18592   4.530   0.044   9.243  0.8925 -0.3356  0.3648
 2319SOL    HW118593   4.488   4.719   9.300  0.2161  1.0513  1.4519
 2319SOL    HW218594   4.623   0.032   9.260  0.8184 -1.2035  0.1396
 2320SOL     OW18595   3.765   3.952   0.963 -0.1089  0.1874  0.4267
 2320SOL    HW118596   3.778   3.937   1.056 -1.9737  2.3499  1.0513
 2320SOL    HW218597   3.684   4.003   0.967  0.2264  0.7207  0.4917
 2321SOL     OW18598   2.155   2.357   7.289 -0.2763  0.0317  0.4781
 2321SOL    HW118599   2.195   2.274   7.316  0.1935 -0.0094 -0.3488
 2321SOL    HW218600   2.088   2.371   7.356  0.9054  0.6879  1.5347
 2322SOL     OW18601   3.248   2.920  16.252  0.0066 -0.0642 -0.5491
 2322SOL    HW118602   3.156   2.896  16.253  0.1561 -0.6674 -1.7305
 2322SOL    HW218603   3.259   2.977  16.329  3.4711 -0.1170 -1.0079
 2323SOL     OW18604   1.026   4.033   5.575 -0.2647 -0.3605  0.3502
 2323SOL    HW118605   1.032   3.969   5.645  0.0245 -0.5653  0.1416
 2323SOL    HW218606   1.061   4.112   5.616 -3.9041  0.7456  1.2647
 2324SOL     OW18607   4.734   3.540   2.224 -0.8698  0.3723  0.1637
 2324SOL    HW118608   4.649   3.583   2.223 -0.2718  1.5429 -0.5960
 2324SOL    HW218609   0.042   3.621   2.208 -1.1889  0.4382 -0.4309
 2325SOL     OW18610   2.363   4.353   8.150 -0.7487 -0.0677 -0.5689
 2325SOL    HW118611   2.373   4.440   8.188  1.6904 -0.3787 -0.5410
 2325SOL    HW218612   2.437   4.300   8.180 -1.2321 -0.3672  0.1107
 2326SOL     OW18613   4.377   1.621   8.280 -0.4555 -0.4303 -0.5081
 2326SOL    HW118614   4.413   1.540   8.243 -1.7981 -1.4991  0.5104
 2326SOL    HW218615   4.453   1.655   8.327 -0.3403 -1.7243  0.2622
 2327SOL     OW18616   1.127   4.188   4.230  0.4082 -0.6743  0.2829
 2327SOL    HW118617   1.039   4.200   4.194  0.3041 -3.5822 -0.4038
 2327SOL    HW218618   1.179   4.202   4.151  0.4486  1.9180  0.7709
 2328SOL     OW18619   0.738   1.289   3.834 -0.3418  0.8151 -0.1121
 2328SOL    HW118620   0.657   1.282   3.784  1.4414 -2.0409 -2.5917
 2328SOL    HW218621   0.718   1.221   3.899  1.1285 -0.9023 -1.4447
 2329SOL     OW18622   0.787   3.687   9.910  0.1070 -0.2688  0.5346
 2329SOL    HW118623   0.735   3.756   9.953  2.3251  0.8815  1.3695
 2329SOL    HW218624   0.801   3.625   9.982 -1.2085 -0.5334  0.5591
 2330SOL     OW18625   3.637   4.206   3.922  0.1013  0.7024 -0.2712
 2330SOL    HW118626   3.702   4.151   3.879  0.3890  0.7689  0.0823
 2330SOL    HW218627   3.600   4.264   3.856  0.7096  2.5929  1.0710
 2331SOL     OW18628   3.985   1.445   8.811 -0.6857  0.3026  0.3004
 2331SOL    HW118629   4.004   1.491   8.729 -2.3312 -0.4411 -0.5047
 2331SOL    HW218630   3.998   1.355   8.780 -1.8728 -0.5774  2.3955
 2332SOL     OW18631   2.905   3.702  10.146 -0.0892 -0.6196 -0.2314
 2332SOL    HW118632   2.939   3.667  10.229  1.6685  2.6815  0.4302
 2332SOL    HW218633   2.883   3.619  10.104 -0.3460 -0.9043  0.4510
 2333SOL     OW18634   1.332   3.649   8.820 -0.1678 -0.1088 -0.1188
 2333SOL    HW118635   1.244   3.686   8.823 -0.7891 -1.4747 -1.2779
 2333SOL    HW218636   1.377   3.725   8.782 -0.2761 -0.5619 -1.1618
 2334SOL     OW18637   3.751   2.107  17.130 -0.6365  0.2258  0.4442
 2334SOL    HW118638   3.806   2.124  17.054 -0.9093  2.2784  0.6955
 2334SOL    HW218639   3.705   2.190  17.143 -0.5071  0.1462  1.4809
 2335SOL     OW18640   0.885   0.895   9.935 -0.1013 -0.0076 -0.0673
 2335SOL    HW118641   0.803   0.846   9.939 -1.0509  1.6317  0.5872
 2335SOL    HW218642   0.864   0.968   9.876 -0.9862 -0.0481  0.1926
 2336SOL     OW18643   0.285   2.399   5.970  0.2279 -0.3190 -0.0008
 2336SOL    HW118644   0.295   2.318   6.020  0.0493  0.8421  1.9002
 2336SOL    HW218645   0.353   2.393   5.902  0.5110 -0.9192  0.3334
 2337SOL     OW18646   3.952   2.274   3.460 -0.2634 -0.1051 -0.0214
 2337SOL    HW118647   3.895   2.219   3.408 -0.1058 -2.5485  2.4174
 2337SOL    HW218648   3.896   2.341   3.499  0.7878  0.2721  0.8667
 2338SOL     OW18649   3.036   3.623   3.410 -0.8370  0.0418  0.7577
 2338SOL    HW118650   2.947   3.614   3.376 -0.6340 -1.1839  0.5405
 2338SOL    HW218651   3.060   3.533   3.434  0.8919 -0.1082 -1.4924
 2339SOL     OW18652   3.403   3.600   3.674  0.0352 -0.0789  0.4075
 2339SOL    HW118653   3.422   3.691   3.652  0.0838  0.7341  3.9214
 2339SOL    HW218654   3.352   3.612   3.754  2.7275  0.6100  2.0123
 2340SOL     OW18655   3.472   1.757   1.190  0.2421 -0.6627 -0.8186
 2340SOL    HW118656   3.541   1.695   1.214  0.8363  0.8992  1.5427
 2340SOL    HW218657   3.397   1.711   1.228  0.6862 -1.7621 -1.2597
 2341SOL     OW18658   4.517   1.782   0.895  0.4406 -0.5815  0.3089
 2341SOL    HW118659   4.453   1.817   0.833  0.3889 -2.4226 -0.6743
 2341SOL    HW218660   4.585   1.850   0.891 -0.3704  0.1895 -0.4188
 2342SOL     OW18661   0.053   2.827   9.424  0.2274  0.3073 -0.1782
 2342SOL    HW118662   0.078   2.872   9.343  1.0980 -0.5802 -0.4141
 2342SOL    HW218663   4.732   2.761   9.390  0.1208  0.0955  0.4192
 2343SOL     OW18664   3.709   1.841   7.532 -0.2294 -0.1778  0.5092
 2343SOL    HW118665   3.659   1.844   7.613 -0.8148  3.8611  0.0264
 2343SOL    HW218666   3.770   1.769   7.545  1.7854  1.1732 -1.4229
 2344SOL     OW18667   2.604   4.536   4.950 -0.9073 -0.5269  0.6566
 2344SOL    HW118668   2.577   4.624   4.974  2.6255  0.6562  0.3303
 2344SOL    HW218669   2.688   4.535   4.997 -1.6413  0.7738  1.9788
 2345SOL     OW18670   2.731   0.413  15.536 -0.1976 -0.6532 -0.0701
 2345SOL    HW118671   2.812   0.463  15.534 -0.5642 -0.1608 -2.1938
 2345SOL    HW218672   2.682   0.469  15.597  1.1103 -0.2216  0.5702
 2346SOL     OW18673   4.309   1.674   3.506 -0.1663 -0.0473  0.0030
 2346SOL    HW118674   4.372   1.672   3.434 -0.2419  1.4962 -0.1090
 2346SOL    HW218675   4.310   1.768   3.521 -0.8281  0.5325 -3.6932
 2347SOL     OW18676   0.467   0.745   4.531 -0.2414 -0.4857 -0.2881
 2347SOL    HW118677   0.535   0.788   4.584 -1.0847  1.4577 -0.7631
 2347SOL    HW218678   0.387   0.740   4.583 -0.4564 -1.5963 -0.7211
 2348SOL     OW18679   3.787   2.571   6.995 -0.7834 -0.1895 -1.1214
 2348SOL    HW118680   3.882   2.561   6.995 -0.4025  3.0935 -0.0699
 2348SOL    HW218681   3.765   2.580   6.902  1.1667 -0.4620 -1.6001
 2349SOL     OW18682   0.826   0.938  11.318  0.1653  0.4027 -0.1770
 2349SOL    HW118683   0.790   0.850  11.325  2.6115 -0.5450  0.2403
 2349SOL    HW218684   0.754   0.996  11.345  2.1956  1.4944  2.8104
 2350SOL     OW18685   4.694   1.674  17.114 -0.0529 -0.3613 -0.0673
 2350SOL    HW118686   0.022   1.737  17.089  0.7431 -1.5130 -0.8232
 2350SOL    HW218687   4.618   1.733  17.121  0.4146  0.0279  1.8040
 2351SOL     OW18688   3.488   1.284   4.251  0.2745 -0.0639 -0.6877
 2351SOL    HW118689   3.427   1.334   4.305 -0.6318 -0.6977 -1.1336
 2351SOL    HW218690   3.502   1.334   4.170 -0.0166  1.9333  0.4949
 2352SOL     OW18691   3.715   0.326  15.034  0.4189  0.1697  0.4724
 2352SOL    HW118692   3.794   0.316  14.980  0.6314  0.3341  0.7503
 2352SOL    HW218693   3.741   0.268  15.106 -0.2204 -0.3324  0.2980
 2353SOL     OW18694   3.533   4.055   1.368  0.2169 -0.5495 -0.2297
 2353SOL    HW118695   3.593   4.128   1.353 -0.6446  0.9599  3.5386
 2353SOL    HW218696   3.566   3.992   1.304 -1.5459 -1.2587 -0.4470
 2354SOL     OW18697   2.397   0.078   8.101  0.2139  0.2723  0.5199
 2354SOL    HW118698   2.403   0.082   8.196 -0.8015  0.2775  0.5912
 2354SOL    HW218699   2.390   4.722   8.092 -1.7182  0.4753 -0.2450
 2355SOL     OW18700   3.619   2.980   1.119  0.9100  0.3469  0.0197
 2355SOL    HW118701   3.629   2.911   1.054  2.4129 -0.7505  1.4149
 2355SOL    HW218702   3.626   2.940   1.206 -1.4725 -0.9546 -0.3818
 2356SOL     OW18703   1.368   1.134   4.718  0.1343 -0.3269  0.0348
 2356SOL    HW118704   1.435   1.097   4.776  0.7355  1.8232  0.7123
 2356SOL    HW218705   1.298   1.070   4.730  0.2818 -0.8744 -2.0035
 2357SOL     OW18706   2.040   3.621  14.965 -0.0397  0.1699  0.3702
 2357SOL    HW118707   2.056   3.668  14.883 -1.1292  1.0423  0.6640
 2357SOL    HW218708   2.100   3.547  14.959  1.4008  1.3611  0.1885
 2358SOL     OW18709   3.062   3.719   2.717 -0.1102  0.0294 -0.0711
 2358SOL    HW118710   3.081   3.692   2.807 -1.6494  0.8307  0.5010
 2358SOL    HW218711   3.142   3.695   2.670 -1.8883 -1.5671 -2.3011
 2359SOL     OW18712   0.874   4.619   7.617  0.3503  0.1712 -0.6697
 2359SOL    HW118713   0.930   4.572   7.678 -0.1931  0.7491  0.2630
 2359SOL    HW218714   0.872   4.556   7.545 -2.4971  0.0579 -0.5008
 2360SOL     OW18715   1.852   0.233  15.545 -0.7883  0.6662 -0.1768
 2360SOL    HW118716   1.838   0.327  15.535 -2.7500  0.2744 -1.0834
 2360SOL    HW218717   1.907   0.234  15.623  1.2833 -1.4924 -1.6071
 2361SOL     OW18718   1.798   1.050   2.591  0.4415 -0.6667 -0.0264
 2361SOL    HW118719   1.733   0.980   2.596  0.8766 -1.0677  0.0148
 2361SOL    HW218720   1.870   1.004   2.634  0.8928  0.8917  0.9036
 2362SOL     OW18721   0.172   1.762  11.010  0.0058 -1.0859  0.1776
 2362SOL    HW118722   0.131   1.702  10.948 -1.1313  0.5089 -0.6263
 2362SOL    HW218723   0.170   1.700  11.083 -0.3927 -2.0615 -0.6602
 2363SOL     OW18724   2.939   2.159   6.564 -0.1866 -0.7007  0.2355
 2363SOL    HW118725   2.926   2.235   6.508 -0.3065 -0.8870  0.0134
 2363SOL    HW218726   2.935   2.099   6.490  2.7918 -1.7584  0.9004
 2364SOL     OW18727   0.277   3.196   2.804 -0.3826 -0.2023 -0.0313
 2364SOL    HW118728   0.309   3.207   2.893  2.3458 -1.6548 -0.8536
 2364SOL    HW218729   0.336   3.250   2.750 -2.0054  1.1416 -0.4736
 2365SOL     OW18730   0.263   1.441   1.528  0.1969  0.1843  0.0310
 2365SOL    HW118731   0.355   1.425   1.506  0.2503  0.1794  0.2625
 2365SOL    HW218732   0.252   1.401   1.614  0.8693  1.3688  0.6695
 2366SOL     OW18733   0.615   1.126   4.839  0.4028 -0.6745  0.4636
 2366SOL    HW118734   0.532   1.172   4.824  0.2417 -0.4277  2.1522
 2366SOL    HW218735   0.678   1.187   4.802 -0.2207  0.1943  0.8362
 2367SOL     OW18736   2.829   0.279  17.575 -0.0523 -0.0538 -0.5959
 2367SOL    HW118737   2.757   0.294  17.637  1.5196 -0.4889  1.3327
 2367SOL    HW218738   2.839   0.186  17.594  0.6969  0.4458  1.4276
 2368SOL     OW18739   1.121   3.850  12.172 -0.2714  0.1012 -0.7031
 2368SOL    HW118740   1.086   3.787  12.235 -0.2909 -1.8243 -2.6765
 2368SOL    HW218741   1.114   3.809  12.086 -0.1298 -0.1140 -0.6114
 2369SOL     OW18742   3.705   3.366  12.706  0.0734  0.4743 -0.4038
 2369SOL    HW118743   3.709   3.331  12.617  1.1706 -0.6166  0.0833
 2369SOL    HW218744   3.795   3.385  12.732  0.3817  0.0643 -1.1750
 2370SOL     OW18745   0.750   4.387   8.820  0.3486  0.1981  0.0059
 2370SOL    HW118746   0.832   4.392   8.770 -0.4354  0.2441 -1.2779
 2370SOL    HW218747   0.716   4.476   8.811  1.7447  0.6668 -0.5984
 2371SOL     OW18748   4.077   4.082   2.467  0.0498  0.7274 -0.1558
 2371SOL    HW118749   4.133   4.131   2.527 -1.4317  1.8700  0.2996
 2371SOL    HW218750   4.086   3.990   2.494 -0.9283  0.3617 -1.0628
 2372SOL     OW18751   0.135   2.307   2.865  0.0202 -0.2383  0.2731
 2372SOL    HW118752   0.170   2.220   2.844  1.1065  0.4116 -0.5958
 2372SOL    HW218753   0.053   2.299   2.817  0.9062  1.2321 -1.4876
 2373SOL     OW18754   0.663   2.851   5.302  0.3316 -0.1936  0.5971
 2373SOL    HW118755   0.569   2.834   5.308  0.6246 -1.7896  0.6335
 2373SOL    HW218756   0.674   2.800   5.221 -1.0066 -2.2547  1.7020
 2374SOL     OW18757   3.172   0.450   5.786  0.2890 -0.2561 -0.1314
 2374SOL    HW118758   3.159   0.358   5.761  2.1720 -0.1978 -1.3109
 2374SOL    HW218759   3.264   0.447   5.810  0.2931  1.1096 -0.0028
 2375SOL     OW18760   0.253   1.836   4.524  0.1278 -0.0472  0.7548
 2375SOL    HW118761   0.294   1.767   4.576  3.2003  1.1623 -0.0401
 2375SOL    HW218762   0.256   1.797   4.436 -1.0013 -1.1490  1.2182
 2376SOL     OW18763   0.222   3.999  12.136  0.0342  0.1880  0.0319
 2376SOL    HW118764   0.144   3.970  12.089  0.4643 -0.9328  0.0092
 2376SOL    HW218765   0.181   4.018  12.220  1.8153  1.4402  0.6034
 2377SOL     OW18766   2.624   3.256   4.441 -0.0889 -0.0979  0.1443
 2377SOL    HW118767   2.596   3.219   4.525 -0.3477  0.5138  0.3263
 2377SOL    HW218768   2.597   3.189   4.378 -1.7341  0.5874  0.1357
 2378SOL     OW18769   2.142   0.818   9.746  0.2035 -0.1777 -0.0087
 2378SOL    HW118770   2.218   0.861   9.784  0.1170  0.7137 -0.8278
 2378SOL    HW218771   2.088   0.895   9.726  0.7460  0.2378  0.1163
 2379SOL     OW18772   2.763   1.577   2.181 -0.6484 -0.2785  0.0388
 2379SOL    HW118773   2.783   1.488   2.154  1.1048 -0.0295  0.4839
 2379SOL    HW218774   2.675   1.593   2.148 -0.0782  2.6597 -0.0724
 2380SOL     OW18775   3.502   2.447   0.881 -0.3630 -0.4216 -0.6042
 2380SOL    HW118776   3.444   2.451   0.804 -0.4681 -0.3692 -0.5218
 2380SOL    HW218777   3.436   2.444   0.950 -0.2687  0.2092 -0.4866
 2381SOL     OW18778   1.971   4.220  15.507 -0.2262  0.1753 -0.7906
 2381SOL    HW118779   1.891   4.239  15.459  0.3091 -0.2922 -1.8648
 2381SOL    HW218780   2.020   4.161  15.449  0.5848  0.0589  0.0114
 2382SOL     OW18781   0.714   0.076   6.337  0.1370 -0.3643  0.1794
 2382SOL    HW118782   0.654   0.150   6.327 -0.0595 -0.8293 -2.2352
 2382SOL    HW218783   0.645   0.013   6.360 -0.4065 -0.2923 -1.2387
 2383SOL     OW18784   0.084   4.571  16.325  0.7288 -1.0001 -0.2226
 2383SOL    HW118785   0.045   4.594  16.240 -1.3276  0.4399  1.1138
 2383SOL    HW218786   0.138   4.650  16.333 -1.0767  0.2057  0.1602
 2384SOL     OW18787   3.460   2.779   4.435  0.4486 -0.1954  0.2136
 2384SOL    HW118788   3.539   2.833   4.427  0.6114 -0.2069  1.8542
 2384SOL    HW218789   3.475   2.722   4.359 -1.6330 -0.2352 -0.1565
 2385SOL     OW18790   0.682   3.262  15.673 -0.4656  0.1528 -0.0532
 2385SOL    HW118791   0.701   3.191  15.611  3.1051  0.2795  0.9233
 2385SOL    HW218792   0.742   3.323  15.630  0.8259 -1.7884 -1.0176
 2386SOL     OW18793   3.961   4.282   7.007  0.3004  0.5740  0.0725
 2386SOL    HW118794   3.929   4.198   7.042 -2.8874  2.9080  2.7349
 2386SOL    HW218795   3.907   4.346   7.052  0.1898 -0.5740  1.5847
 2387SOL     OW18796   4.576   2.632   9.317  0.0098 -0.0491 -0.3045
 2387SOL    HW118797   4.534   2.561   9.365 -0.3527  0.8527  0.6952
 2387SOL    HW218798   4.651   2.585   9.282 -0.6881 -0.3524 -1.3923
 2388SOL     OW18799   0.883   4.619   3.162  0.3233  0.2121  0.6301
 2388SOL    HW118800   0.960   4.562   3.164  0.7413  0.8002  1.2700
 2388SOL    HW218801   0.865   4.630   3.255  0.6995  0.8104  0.6350
 2389SOL     OW18802   0.468   4.321  11.694  0.3029  0.2789 -0.2904
 2389SOL    HW118803   0.490   4.414  11.699 -1.3915  0.6619 -0.0655
 2389SOL    HW218804   0.467   4.305  11.600  2.6538  3.3376 -0.8292
 2390SOL     OW18805   3.483   4.446   4.459 -0.2136  0.0713 -0.1276
 2390SOL    HW118806   3.470   4.368   4.513  2.5968 -0.5350 -0.3700
 2390SOL    HW218807   3.444   4.423   4.375 -1.5002  0.4054  0.3777
 2391SOL     OW18808   3.734   2.975   5.244  0.0641 -0.4641 -0.2701
 2391SOL    HW118809   3.796   2.923   5.194  1.9952  1.2507  0.3765
 2391SOL    HW218810   3.729   2.936   5.331  0.6041 -0.0171 -0.0376
 2392SOL     OW18811   3.071   1.981   8.476 -0.4752 -0.2391  0.4633
 2392SOL    HW118812   3.095   2.068   8.444 -2.6469  0.0214 -0.4301
 2392SOL    HW218813   3.106   1.987   8.565  2.5721  1.5481 -0.8443
 2393SOL     OW18814   3.577   1.815   6.956  0.0797  0.2011 -0.2865
 2393SOL    HW118815   3.615   1.737   6.916 -1.2340  0.3456 -1.8449
 2393SOL    HW218816   3.552   1.790   7.045  1.1091 -0.3083 -0.1527
 2394SOL     OW18817   0.141   0.670  16.008 -0.2668  0.3166 -0.3153
 2394SOL    HW118818   0.233   0.692  15.995  0.5549 -2.1466  1.2288
 2394SOL    HW218819   0.106   0.693  15.922  0.5474  0.1701 -0.6831
 2395SOL     OW18820   0.683   0.007   9.460 -0.7540  0.6229 -0.0874
 2395SOL    HW118821   0.722   4.666   9.493 -2.5280 -0.6572 -1.0853
 2395SOL    HW218822   0.760   0.060   9.439 -0.8755  1.8760  2.7130
 2396SOL     OW18823   0.437   3.404  15.616  0.0846 -0.0844  0.1252
 2396SOL    HW118824   0.431   3.471  15.684 -1.4031 -0.6514  0.5539
 2396SOL    HW218825   0.517   3.361  15.647 -0.1051 -1.1189 -0.8431
 2397SOL     OW18826   3.462   2.745   2.978  0.6082 -0.5372  0.4867
 2397SOL    HW118827   3.535   2.682   2.983 -0.1263 -1.3574  0.8446
 2397SOL    HW218828   3.417   2.707   3.053  0.9057  0.0349  0.9546
 2398SOL     OW18829   4.576   4.591   4.640  0.1034 -0.2704  0.3051
 2398SOL    HW118830   4.637   4.610   4.568 -0.5557 -2.2121 -0.7481
 2398SOL    HW218831   4.593   4.501   4.667  0.6259 -0.7987 -1.7375
 2399SOL     OW18832   0.676   1.892  12.061  0.4829  0.3994  0.2727
 2399SOL    HW118833   0.610   1.934  12.117  0.8906 -1.8648  2.4718
 2399SOL    HW218834   0.684   1.805  12.099 -1.8736  0.1095  0.1216
 2400SOL     OW18835   4.161   1.944   7.966  0.0232  0.6725 -0.0585
 2400SOL    HW118836   4.199   2.031   7.950  0.1099  0.4250 -1.2219
 2400SOL    HW218837   4.238   1.898   7.998 -1.1953 -0.5672  1.0810
 2401SOL     OW18838   2.945   2.590   3.033  0.0132 -0.2281  0.4145
 2401SOL    HW118839   2.975   2.512   2.986 -0.5865  1.2455 -2.3591
 2401SOL    HW218840   3.024   2.639   3.054 -0.5100  0.6855  0.2284
 2402SOL     OW18841   2.704   1.166   1.416 -0.0808 -0.0256  0.8011
 2402SOL    HW118842   2.799   1.161   1.408 -0.2824 -0.6396 -1.0966
 2402SOL    HW218843   2.686   1.228   1.346  2.0692 -0.5453 -0.1885
 2403SOL     OW18844   0.517   3.632  16.503 -0.0210 -0.2106 -0.2240
 2403SOL    HW118845   0.568   3.712  16.488 -2.5607  1.5970  0.8355
 2403SOL    HW218846   0.572   3.555  16.491  1.2230  0.5060  0.8237
 2404SOL     OW18847   1.782   3.634   6.175 -0.2920 -0.0942  0.1642
 2404SOL    HW118848   1.705   3.684   6.147 -0.1308 -1.2798 -2.4572
 2404SOL    HW218849   1.766   3.547   6.139 -0.7208  0.2200 -0.4054
 2405SOL     OW18850   4.152   0.961  13.420 -0.2254  0.7394 -0.0504
 2405SOL    HW118851   4.230   0.978  13.368 -1.0174  2.0988 -0.8034
 2405SOL    HW218852   4.147   1.040  13.474 -1.9428  1.9705 -2.0007
 2406SOL     OW18853   2.563   1.143  12.286 -0.2120  0.6824 -0.4998
 2406SOL    HW118854   2.504   1.070  12.303  0.6125  0.7986  2.8442
 2406SOL    HW218855   2.506   1.217  12.263 -0.1919  0.6177 -0.7573
 2407SOL     OW18856   0.714   1.916   2.285 -0.0138  1.1027  0.2313
 2407SOL    HW118857   0.713   1.972   2.207 -1.6341 -0.6411 -1.0123
 2407SOL    HW218858   0.696   1.986   2.348  0.6016  0.1367  1.4769
 2408SOL     OW18859   3.607   4.156  11.662 -0.7640  0.4614 -0.4564
 2408SOL    HW118860   3.688   4.120  11.699  0.1370  0.8110 -2.0961
 2408SOL    HW218861   3.537   4.143  11.726 -0.4184 -1.2501 -0.4225
 2409SOL     OW18862   3.591   0.166   6.701 -0.0457  0.4127  0.1259
 2409SOL    HW118863   3.508   0.167   6.749  0.5994  1.5057  1.2493
 2409SOL    HW218864   3.604   0.261   6.697  0.2046  0.3466 -0.7591
 2410SOL     OW18865   4.058   4.548  15.564  0.2959  0.4430 -0.3415
 2410SOL    HW118866   4.008   4.581  15.639  0.7590  1.7349 -0.6034
 2410SOL    HW218867   3.984   4.534  15.504  2.6769 -1.8817 -2.7434
 2411SOL     OW18868   2.225   2.572   8.633 -0.2051  0.8494  0.8782
 2411SOL    HW118869   2.289   2.638   8.608  0.0270  0.9189  1.6671
 2411SOL    HW218870   2.140   2.615   8.627  0.9069  2.4839 -2.9802
 2412SOL     OW18871   0.116   3.232   5.871 -0.4668 -0.0351 -0.1986
 2412SOL    HW118872   0.139   3.150   5.827  1.3707  0.6237 -0.4893
 2412SOL    HW218873   0.193   3.284   5.848 -1.1484  2.4697  3.1635
 2413SOL     OW18874   1.712   1.101   7.020  0.1833  0.2552 -0.2333
 2413SOL    HW118875   1.765   1.112   6.940  1.2138 -2.4640  0.0881
 2413SOL    HW218876   1.706   1.188   7.058 -1.2724  0.9710 -2.0589
 2414SOL     OW18877   3.950   2.111   8.438 -0.9145 -0.3640  0.5958
 2414SOL    HW118878   3.861   2.088   8.467 -0.8079 -2.5565 -0.8008
 2414SOL    HW218879   4.001   2.056   8.497 -1.6396 -1.5577  0.1100
 2415SOL     OW18880   3.454   0.238   3.882  0.0437 -0.3083  0.0034
 2415SOL    HW118881   3.544   0.207   3.896  1.1308  1.9715 -1.9111
 2415SOL    HW218882   3.404   0.159   3.862  1.1242 -0.5231 -1.8665
 2416SOL     OW18883   3.731   3.742   7.843 -0.0235  0.8436 -0.2229
 2416SOL    HW118884   3.682   3.809   7.794 -0.8014  0.1928 -0.3447
 2416SOL    HW218885   3.721   3.663   7.789 -1.1346  2.4371 -2.3445
 2417SOL     OW18886   4.503   2.749   6.522 -0.7495  0.7983  0.8727
 2417SOL    HW118887   4.433   2.792   6.473 -1.1664  0.8278  1.4964
 2417SOL    HW218888   4.570   2.817   6.521  0.8335 -0.7844 -1.7211
 2418SOL     OW18889   1.951   2.647   8.531 -0.1146  0.0723  0.4723
 2418SOL    HW118890   1.882   2.708   8.559  0.5150  0.6957  0.6664
 2418SOL    HW218891   1.994   2.705   8.468  0.1854  0.1291  0.7256
 2419SOL     OW18892   3.157   0.977   6.380 -0.0756 -0.1586 -0.1822
 2419SOL    HW118893   3.087   1.004   6.439  0.7232  1.1015  0.1874
 2419SOL    HW218894   3.213   0.920   6.434 -1.6889 -0.4107  1.2187
 2420SOL     OW18895   2.842   1.317   4.920  0.9066  0.7833 -0.2013
 2420SOL    HW118896   2.752   1.322   4.886  0.0084  3.3812  2.5610
 2420SOL    HW218897   2.894   1.339   4.843  3.7109  0.8103  1.7289
 2421SOL     OW18898   3.021   0.091   8.918 -1.0093 -0.3589  0.3497
 2421SOL    HW118899   2.991   0.083   9.008  2.6761 -2.3856  1.3734
 2421SOL    HW218900   2.977   0.175   8.900  2.1801  0.6735 -2.6317
 2422SOL     OW18901   1.776   2.233   6.354  0.6247 -0.0829 -0.1225
 2422SOL    HW118902   1.780   2.294   6.427 -2.5879 -0.2630  0.2176
 2422SOL    HW218903   1.697   2.187   6.381  1.9387 -2.1984  0.1280
 2423SOL     OW18904   3.852   2.161  15.017 -0.5163 -0.4661 -0.2029
 2423SOL    HW118905   3.796   2.174  15.094  0.0361  0.5023  0.0403
 2423SOL    HW218906   3.845   2.243  14.969 -0.1534  0.8057  1.9147
 2424SOL     OW18907   2.943   3.175   5.415 -0.0624 -0.1135  0.3233
 2424SOL    HW118908   2.979   3.165   5.503 -0.8792  4.1886  1.1288
 2424SOL    HW218909   3.027   3.159   5.373 -0.3171  0.7402 -0.5116
 2425SOL     OW18910   1.363   1.287   6.198 -0.3260  0.1244 -0.4141
 2425SOL    HW118911   1.293   1.351   6.188  0.1598  0.9896  1.7889
 2425SOL    HW218912   1.321   1.206   6.226  4.6357 -1.9359  1.1388
 2426SOL     OW18913   4.629   0.749  14.866  0.1168 -0.5562 -0.1029
 2426SOL    HW118914   4.599   0.699  14.790 -0.6819  0.4491 -0.4489
 2426SOL    HW218915   4.567   0.716  14.930  0.9844  0.4128  1.2278
 2427SOL     OW18916   0.063   0.191   8.235  0.2269 -0.1089 -0.0497
 2427SOL    HW118917   0.092   0.186   8.143 -0.0822  1.5283 -0.2244
 2427SOL    HW218918   4.711   0.213   8.223 -0.0531 -1.2887 -0.1303
 2428SOL     OW18919   3.557   2.746   5.979  0.4810 -0.0481  0.6673
 2428SOL    HW118920   3.546   2.660   6.020 -1.8340  0.1129  0.3622
 2428SOL    HW218921   3.487   2.805   6.006  0.4018 -0.3497  1.1208
 2429SOL     OW18922   3.811   2.981   6.424  0.1112 -0.1368 -0.6515
 2429SOL    HW118923   3.894   3.005   6.467  0.1037 -0.4639 -0.4591
 2429SOL    HW218924   3.755   3.056   6.444 -0.5801 -1.3295  1.8172
 2430SOL     OW18925   1.410   3.910   7.241  0.0529  0.0750 -0.6755
 2430SOL    HW118926   1.379   3.865   7.320  2.2776  1.3578  0.9384
 2430SOL    HW218927   1.481   3.965   7.274 -0.9881  0.6761  0.5876
 2431SOL     OW18928   2.440   2.685   2.159  0.1484 -0.0511  0.1490
 2431SOL    HW118929   2.432   2.781   2.153 -1.1422 -0.1279  0.6252
 2431SOL    HW218930   2.356   2.653   2.127 -0.7096  0.8795  1.4656
 2432SOL     OW18931   3.022   1.074  17.625 -0.2883 -0.1530 -0.1031
 2432SOL    HW118932   3.022   0.980  17.610  0.3913  0.1440 -1.9147
 2432SOL    HW218933   3.114   1.099  17.621 -0.4622  0.0705 -2.7130
 2433SOL     OW18934   4.123   2.057   7.284  0.4101 -0.5824 -0.5739
 2433SOL    HW118935   4.213   2.089   7.293 -0.0797  0.5715  0.2682
 2433SOL    HW218936   4.089   2.139   7.248 -0.3342 -0.0192  1.4466
 2434SOL     OW18937   1.202   3.331   5.612  0.1741 -0.4244 -0.5704
 2434SOL    HW118938   1.242   3.297   5.532  2.2077 -0.8171  0.6259
 2434SOL    HW218939   1.111   3.343   5.584 -0.7757  0.0134  2.7464
 2435SOL     OW18940   2.512   3.989   2.495  0.3534  0.5268  0.4423
 2435SOL    HW118941   2.596   3.965   2.456 -0.8864  0.0321 -1.9259
 2435SOL    HW218942   2.535   4.013   2.585  1.0226  2.2133 -0.1648
 2436SOL     OW18943   0.587   1.390   3.466 -0.2124  0.3769  0.3037
 2436SOL    HW118944   0.589   1.485   3.475 -1.3690  0.2073  2.2139
 2436SOL    HW218945   0.670   1.369   3.422 -0.9243 -1.9396  0.0862
 2437SOL     OW18946   2.940   3.885   4.955 -0.2208  0.7675 -0.3762
 2437SOL    HW118947   2.854   3.890   4.998 -0.5563 -2.4930 -0.6571
 2437SOL    HW218948   2.959   3.791   4.957  3.4830  1.5605  1.0330
 2438SOL     OW18949   0.005   1.421  16.236 -0.5501  0.4428 -0.6413
 2438SOL    HW118950   4.718   1.494  16.292 -2.1790 -0.4324 -0.2770
 2438SOL    HW218951   0.066   1.372  16.290  0.1874 -0.2282 -2.0733
 2439SOL     OW18952   3.090   0.543   6.157 -0.0622 -0.3467  0.1023
 2439SOL    HW118953   3.040   0.619   6.128  0.2198  0.4933  1.8327
 2439SOL    HW218954   3.140   0.576   6.231  0.5439  0.9924 -0.9067
 2440SOL     OW18955   0.141   3.439  11.425  0.2781  0.1174  0.3356
 2440SOL    HW118956   0.218   3.456  11.371 -0.4342  4.4633  0.6327
 2440SOL    HW218957   0.146   3.516  11.482 -1.0332  0.3351  0.1424
 2441SOL     OW18958   2.686   3.023   6.189  0.3968  0.0318  0.8170
 2441SOL    HW118959   2.605   2.973   6.197  0.1217  0.5535  1.3253
 2441SOL    HW218960   2.726   2.983   6.111 -0.9019 -2.8347  1.6331
 2442SOL     OW18961   2.327   4.673  17.467 -0.0078 -0.3596  0.2911
 2442SOL    HW118962   2.416   4.707  17.476  0.7084 -2.5214  1.2074
 2442SOL    HW218963   2.310   4.680  17.373 -0.5380  0.9131  0.4748
 2443SOL     OW18964   3.720   1.430   5.910 -0.1910  0.2323 -0.2222
 2443SOL    HW118965   3.725   1.335   5.920  3.8574  0.6927  2.2769
 2443SOL    HW218966   3.724   1.458   6.001  1.2931  0.3892 -0.3318
 2444SOL     OW18967   2.818   0.652   4.583 -0.3064 -0.5113  0.1818
 2444SOL    HW118968   2.723   0.653   4.571 -0.6461  0.2787  2.8957
 2444SOL    HW218969   2.838   0.577   4.639  4.1410  0.5338  0.0269
 2445SOL     OW18970   1.706   0.614   3.800  0.5922  0.4645  0.2640
 2445SOL    HW118971   1.736   0.543   3.857  1.4257  0.5097 -0.1145
 2445SOL    HW218972   1.652   0.656   3.866 -1.6668 -0.4776 -0.9703
 2446SOL     OW18973   3.662   0.674  14.721 -0.4006  0.4854 -0.1525
 2446SOL    HW118974   3.578   0.718  14.735 -1.2818 -1.1259 -0.3453
 2446SOL    HW218975   3.636   0.585  14.744  2.4153 -0.0671  0.8171
 2447SOL     OW18976   1.427   0.399   2.492  0.0710 -0.2886 -0.2908
 2447SOL    HW118977   1.334   0.384   2.509 -0.1020 -0.9192 -1.8130
 2447SOL    HW218978   1.451   0.321   2.442  2.0919  0.8294 -1.0651
 2448SOL     OW18979   0.273   1.728   5.514  0.4783  0.5559 -0.4165
 2448SOL    HW118980   0.199   1.695   5.566  2.3002 -4.5460 -1.0198
 2448SOL    HW218981   0.308   1.776   5.590  1.6552  0.5989 -0.9804
 2449SOL     OW18982   0.490   2.123   1.241 -0.0544  0.0701 -0.3065
 2449SOL    HW118983   0.467   2.032   1.258  0.8941  0.4594  3.0346
 2449SOL    HW218984   0.419   2.176   1.277  0.3824  1.6387 -1.7880
 2450SOL     OW18985   2.824   2.448  11.982  0.2416  0.6789  0.3082
 2450SOL    HW118986   2.818   2.360  11.945  1.4539 -0.0236  1.8248
 2450SOL    HW218987   2.775   2.497  11.915  2.2802  1.4561 -0.6110
 2451SOL     OW18988   3.363   0.756   3.653  0.5484  0.3199  0.2549
 2451SOL    HW118989   3.412   0.729   3.575  0.7008 -3.7519  1.7790
 2451SOL    HW218990   3.382   0.698   3.727  0.5814  0.3480  0.2691
 2452SOL     OW18991   2.121   3.061   4.234 -0.1110 -0.3846 -0.4992
 2452SOL    HW118992   2.129   2.966   4.227 -1.0664 -0.4294 -0.8833
 2452SOL    HW218993   2.036   3.075   4.275  0.8744  0.8201  1.1286
 2453SOL     OW18994   0.948   0.671   5.905 -0.2790  0.0157  0.0398
 2453SOL    HW118995   0.986   0.613   5.838 -0.1999 -0.2635  0.3294
 2453SOL    HW218996   0.858   0.671   5.874 -0.2844 -2.1002  0.0886
 2454SOL     OW18997   4.614   1.251  14.244  0.2443 -0.3988 -0.0688
 2454SOL    HW118998   4.686   1.303  14.278 -0.1426 -0.9312  1.5920
 2454SOL    HW218999   4.548   1.320  14.237  2.0623  1.2783 -0.4626
 2455SOL     OW19000   4.235   1.919   4.107 -0.4337  0.0969  0.3985
 2455SOL    HW119001   4.222   1.901   4.200  2.8913 -1.7430  0.5036
 2455SOL    HW219002   4.325   1.949   4.121  0.5404 -1.6440 -2.1177
 2456SOL     OW19003   4.559   4.727   9.590 -0.0009  0.0035 -0.2240
 2456SOL    HW119004   4.512   0.060   9.549  1.0021 -0.0227 -1.3865
 2456SOL    HW219005   4.493   4.711   9.659 -0.7113  2.1723 -0.3939
 2457SOL     OW19006   1.475   4.277   6.594 -0.1730 -0.1384 -0.3556
 2457SOL    HW119007   1.390   4.275   6.550  1.3070  0.2244 -3.2038
 2457SOL    HW219008   1.502   4.369   6.585 -1.4147  0.1274 -1.3642
 2458SOL     OW19009   1.399   1.267   7.228  0.0510 -0.1227 -0.5817
 2458SOL    HW119010   1.485   1.250   7.266 -0.0132  0.5373 -0.1468
 2458SOL    HW219011   1.349   1.195   7.267 -0.4699 -0.1920 -1.3783
 2459SOL     OW19012   4.040   0.466  11.007 -0.1242  0.2033  0.2254
 2459SOL    HW119013   4.015   0.409  11.080 -0.3421 -1.1148 -0.8794
 2459SOL    HW219014   4.134   0.448  11.006 -0.2339 -0.3032 -1.6145
 2460SOL     OW19015   2.142   2.312   1.507 -0.1528 -0.0557  0.1594
 2460SOL    HW119016   2.167   2.404   1.498 -2.1983  0.3097 -1.6974
 2460SOL    HW219017   2.226   2.271   1.527 -1.1729 -2.8957 -1.3255
 2461SOL     OW19018   0.761   0.449  10.097  0.5697 -0.6272  0.3278
 2461SOL    HW119019   0.827   0.518  10.086  1.5298 -1.5236  0.4675
 2461SOL    HW219020   0.801   0.374  10.054  2.2202  0.3591  0.1220
 2462SOL     OW19021   3.034   2.331  12.421 -0.1930 -0.3427 -0.1081
 2462SOL    HW119022   3.012   2.262  12.483  0.8089 -0.7783 -0.2221
 2462SOL    HW219023   2.959   2.388  12.406  0.1950 -0.0715 -1.0633
 2463SOL     OW19024   1.991   1.927   2.143  0.2785  0.6666  0.5288
 2463SOL    HW119025   1.955   1.876   2.071  1.3987  3.0058 -1.6781
 2463SOL    HW219026   2.086   1.916   2.146  0.2038 -0.5115 -1.8499
 2464SOL     OW19027   3.607   0.027   4.194 -0.5262  0.0562  0.3407
 2464SOL    HW119028   3.566   4.689   4.157 -0.6492  1.0400 -1.6131
 2464SOL    HW219029   3.535   0.053   4.252 -1.2531 -3.0193  0.8068
 2465SOL     OW19030   0.508   3.201   6.586 -0.3311  0.2810  0.1760
 2465SOL    HW119031   0.454   3.280   6.595  1.7625  1.2664  4.0583
 2465SOL    HW219032   0.464   3.140   6.645 -0.9555  0.1668 -0.4125
 2466SOL     OW19033   1.693   0.442  16.290 -0.1040 -0.5361 -0.2458
 2466SOL    HW119034   1.698   0.488  16.374 -0.9933 -1.7740  0.4805
 2466SOL    HW219035   1.781   0.414  16.264  0.1217  0.1733 -0.2385
 2467SOL     OW19036   1.599   3.019  16.971  0.6238  0.6438 -0.2438
 2467SOL    HW119037   1.649   2.945  17.008 -1.3626 -0.9842 -0.8383
 2467SOL    HW219038   1.556   3.042  17.054  1.1487 -0.7929  0.4382
 2468SOL     OW19039   3.551   1.618   8.948 -0.3563  0.1387  0.1615
 2468SOL    HW119040   3.611   1.668   9.003  0.0160 -0.0763 -0.0471
 2468SOL    HW219041   3.605   1.547   8.915 -0.5656 -0.0116  0.1389
 2469SOL     OW19042   3.656   0.724  17.414  0.0955  0.0144  0.1548
 2469SOL    HW119043   3.683   0.733  17.323  4.9556 -1.4461  1.4359
 2469SOL    HW219044   3.650   0.814  17.445  2.7499  0.8732 -1.7744
 2470SOL     OW19045   4.622   3.502   5.522 -0.5966 -0.4059  0.2431
 2470SOL    HW119046   4.700   3.541   5.562  0.7094 -0.7181 -2.0213
 2470SOL    HW219047   4.555   3.555   5.566  1.3232  1.1209  1.3659
 2471SOL     OW19048   4.289   4.316   2.988  0.2737 -0.2835  0.3223
 2471SOL    HW119049   4.301   4.221   2.982  0.3965 -0.1556 -1.3856
 2471SOL    HW219050   4.375   4.349   2.964  0.3922  0.6420  2.0143
 2472SOL     OW19051   1.464   2.203   1.035  0.2424 -0.0957  0.0782
 2472SOL    HW119052   1.485   2.206   1.128 -1.3314  2.3456  0.3438
 2472SOL    HW219053   1.385   2.254   1.018 -0.2137 -1.2340 -1.1889
 2473SOL     OW19054   0.540   3.848   2.538 -0.0520  0.2844  0.4049
 2473SOL    HW119055   0.552   3.921   2.599 -2.0181  0.4338  0.5953
 2473SOL    HW219056   0.618   3.800   2.567  1.3755  1.2637 -1.7718
 2474SOL     OW19057   3.860   1.606   5.399 -0.7734 -0.3268 -0.4210
 2474SOL    HW119058   3.949   1.638   5.417 -0.8574  1.9818 -4.3063
 2474SOL    HW219059   3.847   1.532   5.459  0.5148  0.4129  0.7611
 2475SOL     OW19060   1.718   0.827   9.792  0.5150 -0.4192 -0.2138
 2475SOL    HW119061   1.729   0.745   9.743  1.0030 -0.1390 -0.5748
 2475SOL    HW219062   1.639   0.859   9.747  0.4287 -0.0603  0.1924
 2476SOL     OW19063   3.362   2.634   5.407  0.6707 -0.1030  0.3114
 2476SOL    HW119064   3.297   2.621   5.338  1.0706  0.7724 -0.2318
 2476SOL    HW219065   3.324   2.689   5.476 -1.8997 -0.8939 -0.4681
 2477SOL     OW19066   4.135   2.553   8.062 -0.5008  0.1715 -0.2135
 2477SOL    HW119067   4.214   2.589   8.103 -0.4399 -0.8639  0.5629
 2477SOL    HW219068   4.140   2.463   8.094  0.6081  0.2612 -0.1304
 2478SOL     OW19069   2.890   1.203   5.147 -0.0371 -0.2447 -0.2990
 2478SOL    HW119070   2.894   1.245   5.061 -0.0218 -1.5565 -0.9436
 2478SOL    HW219071   2.795   1.196   5.157 -0.0744  1.0641  0.2895
 2479SOL     OW19072   2.815   0.543   2.943 -0.0991 -0.7282 -0.2083
 2479SOL    HW119073   2.794   0.477   2.878  1.4958 -1.0659 -0.3797
 2479SOL    HW219074   2.876   0.603   2.900  2.2904 -2.2875  1.0298
 2480SOL     OW19075   0.509   2.171   1.618  0.3525  0.3624 -0.2436
 2480SOL    HW119076   0.513   2.092   1.673  0.2860  0.6247  0.1384
 2480SOL    HW219077   0.416   2.187   1.603  0.0758 -1.0506 -0.0461
 2481SOL     OW19078   0.466   3.623   7.236  0.2988 -0.1475  0.0470
 2481SOL    HW119079   0.492   3.653   7.149 -1.1364 -0.5933 -0.5350
 2481SOL    HW219080   0.445   3.533   7.212  0.5644  0.4341 -2.3010
 2482SOL     OW19081   2.669   1.552   9.740  0.2723  0.4032  0.0477
 2482SOL    HW119082   2.605   1.623   9.735  0.4688  0.4948 -1.2224
 2482SOL    HW219083   2.623   1.480   9.698  1.3096 -0.2657  0.0470
 2483SOL     OW19084   0.681   0.249  11.658  0.4642  0.2746 -0.2999
 2483SOL    HW119085   0.622   0.265  11.584 -0.3994 -2.2612 -0.1298
 2483SOL    HW219086   0.719   0.337  11.666 -1.6904  0.9565  2.3295
 2484SOL     OW19087   2.841   2.866   5.997 -0.0932  0.1971  1.2435
 2484SOL    HW119088   2.816   2.839   5.909 -0.9187  0.3599  1.4297
 2484SOL    HW219089   2.881   2.785   6.027  1.2255  0.3178 -0.1889
 2485SOL     OW19090   2.045   0.490   3.170  0.4102 -0.0978 -0.5347
 2485SOL    HW119091   1.966   0.450   3.206  0.5690 -1.1198 -1.3330
 2485SOL    HW219092   2.098   0.504   3.249 -0.6041 -0.5149  0.2172
 2486SOL     OW19093   3.735   1.237   8.671 -0.1042 -0.3088 -0.0117
 2486SOL    HW119094   3.717   1.318   8.719 -0.1756 -0.7830  0.7509
 2486SOL    HW219095   3.813   1.206   8.716 -0.7036 -1.2108  0.3987
 2487SOL     OW19096   2.620   3.235   6.479  0.0602  0.2860  0.2930
 2487SOL    HW119097   2.583   3.314   6.517  1.5325  1.0422  0.1367
 2487SOL    HW219098   2.630   3.265   6.388 -0.3235 -1.8665 -0.4656
 2488SOL     OW19099   3.325   4.283   7.447  0.0439 -0.1667  0.0811
 2488SOL    HW119100   3.416   4.310   7.435  0.0311  0.4034  1.2752
 2488SOL    HW219101   3.294   4.357   7.498  0.1443 -0.5679  0.7217
 2489SOL     OW19102   0.328   2.299   2.400  0.6898 -0.4334  0.2612
 2489SOL    HW119103   0.301   2.389   2.422 -0.0445 -0.9858  1.6074
 2489SOL    HW219104   0.258   2.274   2.340  0.8398  1.1554 -0.5967
 2490SOL     OW19105   1.756   1.164   8.626  0.2916 -0.0134  0.0703
 2490SOL    HW119106   1.702   1.158   8.547 -0.2499 -2.0295  0.5938
 2490SOL    HW219107   1.701   1.163   8.704  1.5804 -0.6697  0.9794
 2491SOL     OW19108   0.599   2.991  16.991  0.2215 -0.2425 -0.5418
 2491SOL    HW119109   0.519   2.944  17.014  0.0263  1.4606  2.2858
 2491SOL    HW219110   0.653   2.915  16.968  0.5342  0.4089 -1.9504
 2492SOL     OW19111   0.107   1.947  11.632 -0.7817  0.0797  0.3067
 2492SOL    HW119112   0.077   1.982  11.716 -3.4649  2.2354 -1.5329
 2492SOL    HW219113   0.049   1.998  11.575 -0.5208  1.3368  1.1546
 2493SOL     OW19114   0.031   3.182   2.681  0.0007  0.5733  0.0147
 2493SOL    HW119115   0.118   3.193   2.719  0.6951 -1.4536 -1.0206
 2493SOL    HW219116   0.006   3.102   2.728  1.7849  0.6848  1.1654
 2494SOL     OW19117   4.122   3.530   5.295  0.0193  0.2776  0.1609
 2494SOL    HW119118   4.127   3.446   5.248 -1.2561 -0.6327  1.6365
 2494SOL    HW219119   4.038   3.524   5.341 -0.2666  1.0790 -0.2649
 2495SOL     OW19120   0.514   1.399   2.284  0.3334  0.0301 -0.0172
 2495SOL    HW119121   0.608   1.417   2.281  0.8573 -2.3366  3.0015
 2495SOL    HW219122   0.496   1.471   2.344  0.7028  0.2265 -0.1364
 2496SOL     OW19123   0.345   3.443  10.665  0.3693  0.4747  0.2439
 2496SOL    HW119124   0.250   3.440  10.675  0.2901 -0.8300 -0.9016
 2496SOL    HW219125   0.367   3.350  10.670  1.1159  0.6213 -0.3044
 2497SOL     OW19126   4.416   0.435   4.836  0.3739  1.1745  0.2430
 2497SOL    HW119127   4.339   0.490   4.847 -0.8513 -1.2180  3.8330
 2497SOL    HW219128   4.439   0.447   4.744 -1.2599 -0.6360 -0.3957
 2498SOL     OW19129   3.642   2.349   4.272  0.1468 -0.0337 -0.1254
 2498SOL    HW119130   3.595   2.276   4.313  2.7579 -0.5549  1.9205
 2498SOL    HW219131   3.728   2.335   4.310 -1.0104 -1.7803  1.8435
 2499SOL     OW19132   3.358   2.342   3.263  0.3520  0.1004 -0.0237
 2499SOL    HW119133   3.371   2.274   3.329 -0.7620 -2.1502 -2.1650
 2499SOL    HW219134   3.267   2.327   3.237  0.6068 -0.8525 -0.3491
 2500SOL     OW19135   2.443   4.017   2.085 -0.2558  0.1564 -0.1124
 2500SOL    HW119136   2.493   4.064   2.152 -0.9663 -0.7740  1.0731
 2500SOL    HW219137   2.509   4.024   2.016 -1.2230 -1.1120 -1.1607
 2501SOL     OW19138   3.399   4.483  14.668  0.4923  0.4727  0.5064
 2501SOL    HW119139   3.305   4.472  14.680  0.7134 -1.4069  0.5401
 2501SOL    HW219140   3.413   4.449  14.580 -2.5740 -0.0558  0.2162
 2502SOL     OW19141   1.284   0.643   8.216  0.8402 -0.2448  0.8553
 2502SOL    HW119142   1.313   0.672   8.302  1.7138  0.3713  0.3613
 2502SOL    HW219143   1.355   0.682   8.164  0.3137 -1.7914 -1.0496
 2503SOL     OW19144   1.778   2.204   6.814  0.1157  0.1492  0.2347
 2503SOL    HW119145   1.826   2.251   6.882  0.3848 -0.9175  0.7904
 2503SOL    HW219146   1.853   2.183   6.759 -0.0943  0.9044 -0.3302
 2504SOL     OW19147   1.705   2.603   2.295 -0.5461 -0.0621 -0.0754
 2504SOL    HW119148   1.762   2.531   2.321  2.0533  1.8615 -0.4171
 2504SOL    HW219149   1.713   2.651   2.377 -0.6130 -1.2348  0.6009
 2505SOL     OW19150   2.085   1.122   9.080  0.1678  0.0940  0.3024
 2505SOL    HW119151   2.065   1.075   8.999 -0.8695  0.6455  0.2371
 2505SOL    HW219152   2.167   1.162   9.050 -0.3250  1.7861  1.1999
 2506SOL     OW19153   2.341   2.366   7.032 -0.4932 -0.3335  0.2417
 2506SOL    HW119154   2.322   2.422   7.107 -0.8197  0.4621 -0.4343
 2506SOL    HW219155   2.275   2.392   6.968  1.0517 -0.1218 -1.2835
 2507SOL     OW19156   3.145   0.712   2.344 -0.0843  0.2334  0.3839
 2507SOL    HW119157   3.061   0.719   2.297  0.6367  0.0437 -0.9459
 2507SOL    HW219158   3.120   0.650   2.413 -0.7183 -1.9497 -1.7804
 2508SOL     OW19159   3.893   0.076  12.992  0.7732 -0.2863 -0.3692
 2508SOL    HW119160   3.902   0.052  13.084 -2.0825 -1.1855 -0.3135
 2508SOL    HW219161   3.899   0.171  12.993  0.6257 -0.2925  1.5420
 2509SOL     OW19162   1.147   2.701   9.312 -0.1576  0.4959 -0.1038
 2509SOL    HW119163   1.123   2.610   9.326 -0.4147  0.4328 -1.0088
 2509SOL    HW219164   1.153   2.732   9.403 -1.6407  0.4798 -0.0066
 2510SOL     OW19165   1.012   3.773   4.207 -0.3989  0.4537  0.1856
 2510SOL    HW119166   1.002   3.678   4.195 -2.2190  0.8727 -1.5231
 2510SOL    HW219167   1.039   3.808   4.122  0.9166 -0.1731  0.3421
 2511SOL     OW19168   3.290   3.130  16.421 -0.1013  0.0059  0.0791
 2511SOL    HW119169   3.286   3.178  16.338  1.4189  0.6915  0.4120
 2511SOL    HW219170   3.381   3.120  16.447 -0.3826 -0.5333  0.8420
 2512SOL     OW19171   1.760   0.198  16.852 -0.0660 -0.7959  0.7444
 2512SOL    HW119172   1.678   0.238  16.878 -0.3817  0.8548 -2.8262
 2512SOL    HW219173   1.748   0.182  16.759 -2.3135  1.4224  0.6851
 2513SOL     OW19174   1.315   2.168   8.271  0.5072  0.2718  0.9457
 2513SOL    HW119175   1.271   2.253   8.269  1.8836  0.9568 -0.5025
 2513SOL    HW219176   1.402   2.200   8.292  1.3493  0.0418 -2.1367
 2514SOL     OW19177   0.017   4.068   4.884 -0.0906 -0.1178  0.2102
 2514SOL    HW119178   0.059   4.076   4.798  0.5521  0.2733  0.5599
 2514SOL    HW219179   0.083   4.097   4.947 -0.8725  1.3972  0.3444
 2515SOL     OW19180   1.183   1.128  14.901 -0.3174 -0.3736  0.0907
 2515SOL    HW119181   1.255   1.191  14.904 -0.7798  0.2766 -2.3282
 2515SOL    HW219182   1.124   1.164  14.967 -1.9762 -2.8500 -0.0120
 2516SOL     OW19183   1.814   4.458   7.423 -0.3988  0.1678 -0.0052
 2516SOL    HW119184   1.903   4.446   7.456  0.1877  0.4751 -1.4914
 2516SOL    HW219185   1.827   4.529   7.361 -1.1278 -1.5739 -2.1353
 2517SOL     OW19186   1.336   0.969   0.186  0.2970  0.8396  0.2905
 2517SOL    HW119187   1.332   1.019   0.104 -2.6900  1.3131  0.7236
 2517SOL    HW219188   1.261   1.012   0.227 -0.2123  0.8378 -0.6537
 2518SOL     OW19189   3.290   2.718   6.845 -0.1169 -0.2371 -0.2891
 2518SOL    HW119190   3.203   2.692   6.813 -0.2380 -1.0096  0.6536
 2518SOL    HW219191   3.276   2.700   6.938 -1.8713 -3.1034 -1.1167
 2519SOL     OW19192   2.859   0.243   3.740  0.4056  0.0812  0.2669
 2519SOL    HW119193   2.796   0.230   3.669  1.0790 -3.2268  0.2952
 2519SOL    HW219194   2.917   0.306   3.699  0.9461  0.9045  2.3036
 2520SOL     OW19195   4.357   1.435   9.121  0.6913  0.4717 -0.3970
 2520SOL    HW119196   4.394   1.367   9.177  1.0506  0.9796 -0.0153
 2520SOL    HW219197   4.310   1.381   9.059  2.1056  0.2407 -1.2649
 2521SOL     OW19198   2.421   4.364   5.106 -0.8986  0.0454 -0.5105
 2521SOL    HW119199   2.467   4.338   5.186 -0.7721 -0.1691 -0.6502
 2521SOL    HW219200   2.488   4.418   5.064 -1.3451 -0.3455 -1.7459
 2522SOL     OW19201   2.835   1.205   9.316  0.5967  0.4272 -0.3891
 2522SOL    HW119202   2.750   1.211   9.272 -0.2494  0.2077  1.2225
 2522SOL    HW219203   2.889   1.260   9.259  0.1637 -0.0129 -1.2256
 2523SOL     OW19204   3.180   3.142   7.891 -0.1634 -0.1985  0.1200
 2523SOL    HW119205   3.121   3.187   7.832 -0.9447 -1.3366  0.0336
 2523SOL    HW219206   3.261   3.157   7.841 -0.2417  0.4700  0.1955
 2524SOL     OW19207   4.522   4.154   7.989 -0.2735 -0.2286 -0.2700
 2524SOL    HW119208   4.585   4.154   8.061 -0.9145 -0.3481  0.2916
 2524SOL    HW219209   4.438   4.180   8.027 -0.3509 -2.2786  0.9869
 2525SOL     OW19210   1.103   1.481   0.873  0.3253 -0.4477  0.5836
 2525SOL    HW119211   1.146   1.402   0.904  1.1948  0.2268  1.0978
 2525SOL    HW219212   1.015   1.475   0.911 -0.7243  0.7644 -1.6034
 2526SOL     OW19213   4.047   3.063   4.646  0.0193  0.1060 -0.1645
 2526SOL    HW119214   4.061   3.031   4.557  0.2134  0.7076 -0.3527
 2526SOL    HW219215   3.987   3.000   4.684  1.2812  0.4200  2.3422
 2527SOL     OW19216   3.709   1.977   2.404 -0.0996 -0.1074  0.2107
 2527SOL    HW119217   3.649   1.905   2.390  0.0668 -0.3532  0.7440
 2527SOL    HW219218   3.785   1.927   2.375 -0.4941 -0.2818 -0.5151
 2528SOL     OW19219   3.838   1.303   5.283 -0.2608  0.2713 -0.5882
 2528SOL    HW119220   3.863   1.395   5.295 -0.6902  0.4730 -1.2110
 2528SOL    HW219221   3.747   1.317   5.309  0.1525  0.2213  0.8681
 2529SOL     OW19222   2.269   0.342   5.358 -0.3302 -0.0913 -0.3324
 2529SOL    HW119223   2.346   0.388   5.326 -0.5392 -0.8707 -1.9582
 2529SOL    HW219224   2.291   0.249   5.367  1.0573  0.4991  2.2702
 2530SOL     OW19225   3.843   4.247   5.594 -0.1984  0.0362  0.0373
 2530SOL    HW119226   3.897   4.181   5.550 -0.2667 -0.6390  0.9494
 2530SOL    HW219227   3.856   4.212   5.683  0.3883 -1.5973 -0.6988
 2531SOL     OW19228   1.495   2.300   6.654  0.3751  0.0250 -0.0306
 2531SOL    HW119229   1.423   2.238   6.652  0.9293 -0.5770 -1.0177
 2531SOL    HW219230   1.453   2.376   6.693  1.9144 -0.5226  2.7691
 2532SOL     OW19231   4.614   0.736   5.026 -0.1363 -0.3012  0.0711
 2532SOL    HW119232   4.689   0.793   5.045 -0.6671  1.0783 -1.9641
 2532SOL    HW219233   4.578   0.725   5.114 -0.7529 -1.2639 -0.3087
 2533SOL     OW19234   2.443   1.374   2.240  0.6240  0.6601  0.2351
 2533SOL    HW119235   2.526   1.342   2.275  0.9835  2.0750  0.6591
 2533SOL    HW219236   2.418   1.301   2.183 -1.4635  1.7284 -0.2160
 2534SOL     OW19237   3.528   4.573   4.689 -0.1706 -0.5754 -1.1198
 2534SOL    HW119238   3.539   4.529   4.605  0.0179  0.1992 -1.4965
 2534SOL    HW219239   3.571   4.511   4.749  0.4218  0.7325 -0.1905
 2535SOL     OW19240   1.962   0.237  17.549 -0.6076 -0.1506  0.4024
 2535SOL    HW119241   1.880   0.269  17.588 -0.7161 -2.1599  1.8685
 2535SOL    HW219242   1.933   0.258  17.460  0.3642  0.9513  0.3527
 2536SOL     OW19243   1.369   0.050   9.060 -0.1354 -0.2471 -0.4324
 2536SOL    HW119244   1.284   0.065   9.018 -0.3387 -1.3909 -0.4443
 2536SOL    HW219245   1.408   0.137   9.067 -1.4231  0.2950  0.0284
 2537SOL     OW19246   1.761   2.813   8.609 -0.9871  0.4075 -0.2814
 2537SOL    HW119247   1.728   2.852   8.691 -1.4694 -3.7271  1.5189
 2537SOL    HW219248   1.711   2.870   8.551  0.8706  2.7891  0.4766
 2538SOL     OW19249   1.652   4.631   6.332 -0.8817 -0.0182  0.3791
 2538SOL    HW119250   1.714   4.564   6.360 -1.6310 -0.1298  1.7594
 2538SOL    HW219251   1.681   4.649   6.242 -2.0875  0.2807  0.0568
 2539SOL     OW19252   4.102   3.924   6.953 -0.4045  0.6673 -0.2639
 2539SOL    HW119253   4.038   3.973   7.004 -1.5155 -0.3776 -0.6478
 2539SOL    HW219254   4.180   3.971   6.984 -0.3332 -0.0624  0.6651
 2540SOL     OW19255   3.574   1.052  14.226  0.4429 -0.1263  0.4247
 2540SOL    HW119256   3.627   0.973  14.213  0.6661 -0.1832  1.6993
 2540SOL    HW219257   3.577   1.105  14.146 -1.2592 -0.7931 -0.0824
 2541SOL     OW19258   4.696   0.715   4.366 -0.8242  0.4430 -0.3950
 2541SOL    HW119259   4.609   0.684   4.340 -1.5667  1.4139  0.9135
 2541SOL    HW219260   4.661   0.774   4.433 -2.4271 -0.1582 -0.7025
 2542SOL     OW19261   4.519   4.440   5.757 -0.2368 -0.4317  0.0518
 2542SOL    HW119262   4.551   4.514   5.808 -1.4721  0.4041 -0.3753
 2542SOL    HW219263   4.445   4.474   5.705 -0.7093  1.1866  1.7907
 2543SOL     OW19264   0.564   4.511   0.078 -0.5662  0.0570 -0.1394
 2543SOL    HW119265   0.586   4.605   0.078  1.6361 -0.4498  0.4406
 2543SOL    HW219266   0.644   4.476   0.117 -0.9113 -0.6352 -0.0657
 2544SOL     OW19267   2.253   4.664   0.347  0.6030  0.6804  0.6432
 2544SOL    HW119268   2.245   4.584   0.295 -0.1332  0.3957  1.1847
 2544SOL    HW219269   2.276   4.731   0.284  0.4581 -0.4336 -0.5891
 2545SOL     OW19270   3.099   3.667  11.417 -0.0292  0.3744  0.2477
 2545SOL    HW119271   3.043   3.738  11.386  2.9545  2.6188  0.0016
 2545SOL    HW219272   3.062   3.662  11.505  1.4493 -1.5931  0.7499
 2546SOL     OW19273   4.722   2.335  11.968 -0.1904 -0.3461 -0.3194
 2546SOL    HW119274   0.018   2.338  12.057 -0.3399 -1.3929 -0.2278
 2546SOL    HW219275   4.652   2.269  11.976 -0.1231 -0.4402 -0.5200
 2547SOL     OW19276   3.012   3.623   6.921 -0.1100 -0.2945  0.0432
 2547SOL    HW119277   2.928   3.581   6.939  0.5323 -0.7764  1.8360
 2547SOL    HW219278   2.995   3.688   6.853 -1.2548 -0.1028  0.5165
 2548SOL     OW19279   0.262   4.079  15.532  0.5034  0.2410  0.4726
 2548SOL    HW119280   0.327   4.071  15.601 -0.6491  3.4002  1.9280
 2548SOL    HW219281   0.315   4.125  15.467 -1.6309  0.3865 -1.1837
 2549SOL     OW19282   1.882   1.376   6.899  0.2600 -0.5375  0.0185
 2549SOL    HW119283   1.950   1.335   6.953  1.2879  0.1865 -0.7298
 2549SOL    HW219284   1.817   1.387   6.968 -1.0020  2.8950 -1.7422
 2550SOL     OW19285   1.721   1.875   3.831 -0.5180  0.4775 -0.1032
 2550SOL    HW119286   1.646   1.880   3.771  0.7787  0.8309 -1.7092
 2550SOL    HW219287   1.683   1.857   3.917 -0.5784 -0.5575 -0.3512
 2551SOL     OW19288   1.115   0.500   4.951 -0.1448 -0.0527 -0.3103
 2551SOL    HW119289   1.130   0.415   4.991 -0.3421  0.3845  0.6820
 2551SOL    HW219290   1.042   0.485   4.891 -0.2633  0.8994 -0.4134
 2552SOL     OW19291   4.315   3.844   6.265 -0.2154  0.4982 -0.0245
 2552SOL    HW119292   4.241   3.784   6.272 -0.6019  0.9871  0.1094
 2552SOL    HW219293   4.370   3.790   6.208 -0.9531 -0.6280  0.3378
 2553SOL     OW19294   1.630   3.051   8.137  0.0671 -0.2312 -0.0395
 2553SOL    HW119295   1.547   3.082   8.100  0.0887  1.2160  1.1271
 2553SOL    HW219296   1.614   2.957   8.137  2.7909 -0.6867  0.6445
 2554SOL     OW19297   0.389   2.772   3.659  0.2365 -0.2522 -0.1997
 2554SOL    HW119298   0.462   2.754   3.719  0.8191 -0.8059 -1.0661
 2554SOL    HW219299   0.399   2.867   3.665 -1.6662 -0.1344  1.1695
 2555SOL     OW19300   0.051   0.402   9.491  0.4829  0.9694  0.1138
 2555SOL    HW119301   4.726   0.356   9.545 -0.2800  0.1101 -1.5502
 2555SOL    HW219302   0.128   0.353   9.519  0.0204 -0.2401 -0.7378
 2556SOL     OW19303   3.733   3.082   4.957  0.4162 -0.2890 -0.3186
 2556SOL    HW119304   3.649   3.037   4.949 -0.0049  0.2631  0.9475
 2556SOL    HW219305   3.714   3.161   5.009  0.2066  0.9522 -2.2972
 2557SOL     OW19306   1.334   1.965   4.398 -0.0143  0.2614 -0.5378
 2557SOL    HW119307   1.339   1.965   4.302  0.2000 -0.2031 -0.5257
 2557SOL    HW219308   1.341   2.059   4.419 -0.4838 -0.2744  1.9983
 2558SOL     OW19309   3.130   2.227   2.396  0.1747  0.3580  0.0916
 2558SOL    HW119310   3.054   2.233   2.339 -0.3721 -1.5453  0.6060
 2558SOL    HW219311   3.150   2.319   2.412 -0.8031  0.1724  2.4504
 2559SOL     OW19312   3.098   0.726  12.974 -0.7922 -0.0447 -0.5179
 2559SOL    HW119313   3.174   0.690  12.929  0.8184  1.5199  0.9831
 2559SOL    HW219314   3.125   0.796  13.033 -2.2014  0.6435 -0.6892
 2560SOL     OW19315   4.553   2.054  13.109  0.8280 -0.0495 -0.5310
 2560SOL    HW119316   4.584   2.061  13.019  1.3017 -1.3515 -0.4662
 2560SOL    HW219317   4.459   2.058  13.091  0.3885 -2.3589  1.2310
 2561SOL     OW19318   2.085   3.687   4.069  0.0099  0.1032  0.0434
 2561SOL    HW119319   2.138   3.748   4.120 -0.0368  0.0045  0.2082
 2561SOL    HW219320   2.143   3.679   3.993  0.0312 -0.0126  0.0727
 2562SOL     OW19321   1.421   2.196   2.784 -0.0287  0.0141  0.8114
 2562SOL    HW119322   1.364   2.132   2.742  0.6463 -0.4273  0.5700
 2562SOL    HW219323   1.479   2.131   2.824 -0.3658 -0.8572 -0.1248
 2563SOL     OW19324   3.904   0.254   3.976 -0.0453  0.3266 -0.8524
 2563SOL    HW119325   3.830   0.197   3.953  0.1899  0.1039 -1.0610
 2563SOL    HW219326   3.867   0.342   3.973 -0.9502 -0.0235  0.0029
 2564SOL     OW19327   2.555   0.942   7.007 -0.4656 -0.0242 -0.0606
 2564SOL    HW119328   2.628   0.929   7.068 -0.2883 -0.4871 -0.3734
 2564SOL    HW219329   2.600   0.914   6.927  0.1264  2.4341 -0.5894
 2565SOL     OW19330   3.710   2.035   1.984 -0.3005  0.9534  0.2006
 2565SOL    HW119331   3.739   2.118   1.947  0.7982  0.9140  0.9761
 2565SOL    HW219332   3.649   2.010   1.914 -0.9189  0.7580  0.8119
 2566SOL     OW19333   2.751   3.141   3.593 -0.5489  0.2038  0.4720
 2566SOL    HW119334   2.727   3.230   3.619  0.9206  1.0406 -1.0592
 2566SOL    HW219335   2.731   3.089   3.671 -0.2581  1.3558  1.3136
 2567SOL     OW19336   2.579   0.592  10.226  0.8631  0.5487 -0.3607
 2567SOL    HW119337   2.573   0.556  10.137  0.3270 -0.0725 -0.0700
 2567SOL    HW219338   2.521   0.533  10.273  3.6454 -1.4535  0.5624
 2568SOL     OW19339   1.283   3.161  16.922 -0.1240  0.4445 -0.1355
 2568SOL    HW119340   1.207   3.102  16.927  0.4299 -0.0144  2.9550
 2568SOL    HW219341   1.335   3.135  16.998  0.0285  2.6160  0.4961
 2569SOL     OW19342   4.301   0.634   5.727 -0.1326 -0.2694 -0.4851
 2569SOL    HW119343   4.211   0.659   5.707 -0.5425 -0.1402  1.4452
 2569SOL    HW219344   4.332   0.615   5.639 -1.1358 -1.2200 -0.6162
 2570SOL     OW19345   0.916   1.213   3.605 -0.2314  0.4374 -0.1885
 2570SOL    HW119346   0.880   1.213   3.693 -1.0844  1.4241 -0.5287
 2570SOL    HW219347   0.938   1.306   3.593  3.7122 -0.4427  0.4434
 2571SOL     OW19348   2.321   4.439   6.908 -0.0204 -0.3698  0.1920
 2571SOL    HW119349   2.391   4.494   6.943 -0.1234  0.7840 -1.4209
 2571SOL    HW219350   2.296   4.494   6.833  2.2899 -2.5922 -2.2296
 2572SOL     OW19351   4.567   0.077   3.841 -0.0182  0.3656 -0.0678
 2572SOL    HW119352   4.490   0.098   3.894 -1.0617 -1.2044 -0.9655
 2572SOL    HW219353   4.598   0.164   3.815  2.5794  0.3185  2.7785
 2573SOL     OW19354   0.613   0.116   4.647 -0.2474 -0.2777 -0.7212
 2573SOL    HW119355   0.570   0.200   4.631 -2.0718 -0.9446  0.7666
 2573SOL    HW219356   0.533   0.065   4.658 -0.7254  0.4186 -0.9312
 2574SOL     OW19357   3.207   4.280   6.890 -0.2175 -0.0186  0.2835
 2574SOL    HW119358   3.203   4.229   6.971 -0.8160  0.0821  0.3157
 2574SOL    HW219359   3.233   4.215   6.824 -0.4094  0.3981 -0.2034
 2575SOL     OW19360   0.381   1.522   5.900 -0.4440 -0.2063  0.1248
 2575SOL    HW119361   0.393   1.565   5.816  2.0461 -1.4552 -0.1710
 2575SOL    HW219362   0.331   1.589   5.947 -0.1945  1.2177 -1.6257
 2576SOL     OW19363   2.913   3.558  13.680  0.1840 -0.2401  0.3091
 2576SOL    HW119364   2.861   3.610  13.741  1.3641  1.9325 -0.5324
 2576SOL    HW219365   2.954   3.626  13.627  0.4525 -1.0027 -0.4725
 2577SOL     OW19366   0.496   0.006   6.628 -0.2911 -0.4745  0.5468
 2577SOL    HW119367   0.497   4.665   6.577  0.6700  0.7899 -1.4396
 2577SOL    HW219368   0.440   4.713   6.698 -1.7483  3.5479  1.2243
 2578SOL     OW19369   4.409   3.398   6.256  0.0039 -0.8455  0.1461
 2578SOL    HW119370   4.406   3.416   6.350 -0.5366 -1.5511  0.2669
 2578SOL    HW219371   4.434   3.305   6.258 -0.7149 -1.0513 -0.1588
 2579SOL     OW19372   0.640   0.354   8.602  0.0256 -0.3827 -0.0609
 2579SOL    HW119373   0.564   0.304   8.573  0.1796 -1.4192  1.2807
 2579SOL    HW219374   0.594   0.425   8.646 -1.9001  0.3901 -3.3355
 2580SOL     OW19375   3.788   0.502   3.267 -0.0086 -0.7323  0.1525
 2580SOL    HW119376   3.837   0.584   3.261  2.0285 -2.0091 -0.4841
 2580SOL    HW219377   3.764   0.515   3.359 -0.6360 -0.5879 -0.0354
 2581SOL     OW19378   2.245   4.323   6.142  0.0460  0.0417  0.3551
 2581SOL    HW119379   2.172   4.281   6.188  1.0416 -2.1036 -0.0216
 2581SOL    HW219380   2.226   4.262   6.071  2.9187 -0.0670 -0.3174
 2582SOL     OW19381   1.305   3.908   5.078 -0.1239  0.4480  0.2412
 2582SOL    HW119382   1.271   3.875   5.162  0.2474 -0.1412  0.1616
 2582SOL    HW219383   1.391   3.922   5.118  0.0512  0.9340 -0.3026
 2583SOL     OW19384   3.311   0.173   7.461  0.0344  0.1867 -0.3910
 2583SOL    HW119385   3.404   0.192   7.464  0.0839  0.3046 -2.2499
 2583SOL    HW219386   3.287   0.186   7.369 -0.3094  0.4563 -0.2610
 2584SOL     OW19387   0.301   4.361  11.970 -0.0612  0.2019  0.2300
 2584SOL    HW119388   0.346   4.288  12.013  1.2352  1.6405  1.3029
 2584SOL    HW219389   0.339   4.355  11.882  0.0145 -2.2760  0.4281
 2585SOL     OW19390   0.214   4.090  10.077  0.2436  0.3209 -0.2868
 2585SOL    HW119391   0.305   4.116  10.069  0.1258  1.3374  1.6637
 2585SOL    HW219392   0.194   4.135  10.160 -2.3704 -2.3839  0.5590
 2586SOL     OW19393   2.048   3.411  15.840 -0.6083 -0.1767  0.0456
 2586SOL    HW119394   2.059   3.504  15.821 -1.5565 -0.0875 -0.0656
 2586SOL    HW219395   1.953   3.408  15.847 -0.6492 -0.6676 -0.7012
 2587SOL     OW19396   1.309   1.049   3.169 -0.5272 -0.4539 -0.2668
 2587SOL    HW119397   1.226   1.096   3.181 -1.9787 -2.9506 -0.5765
 2587SOL    HW219398   1.354   1.059   3.253 -2.3220  0.1913  0.6135
 2588SOL     OW19399   0.540   3.754   2.277  0.0809  0.3218  0.3581
 2588SOL    HW119400   0.534   3.791   2.365  0.3059 -1.1001  0.9658
 2588SOL    HW219401   0.564   3.667   2.308 -1.0025  0.1534  0.7468
 2589SOL     OW19402   3.960   0.479  15.567 -0.3152 -0.4507  0.0254
 2589SOL    HW119403   4.050   0.506  15.580 -0.3321 -0.2211 -0.3333
 2589SOL    HW219404   3.965   0.386  15.545  0.1043 -0.7457  1.4038
 2590SOL     OW19405   2.356   3.211   8.773  0.0382 -0.7357  0.3856
 2590SOL    HW119406   2.399   3.268   8.837  0.7049 -0.4395 -0.3338
 2590SOL    HW219407   2.271   3.254   8.783 -0.7199 -2.3754  1.0870
 2591SOL     OW19408   2.313   4.126   4.345  0.3799  0.2807 -0.3611
 2591SOL    HW119409   2.248   4.055   4.345  1.1832 -0.4535 -0.9880
 2591SOL    HW219410   2.264   4.197   4.387 -0.6103 -0.0336 -0.9662
 2592SOL     OW19411   3.307   0.181   8.303 -0.4250  0.8318 -0.6047
 2592SOL    HW119412   3.343   0.227   8.379 -0.7213 -1.9245  1.1773
 2592SOL    HW219413   3.331   0.235   8.227  2.0296 -1.9087 -1.7459
 2593SOL     OW19414   1.719   3.265  12.498 -0.0216 -0.8230 -0.1113
 2593SOL    HW119415   1.729   3.360  12.505 -0.5420 -0.9444  2.3926
 2593SOL    HW219416   1.645   3.255  12.437 -0.4001  2.8485 -0.2994
 2594SOL     OW19417   2.316   1.946   7.959 -0.3271  0.4767 -0.3887
 2594SOL    HW119418   2.303   1.878   8.026 -1.8532  0.6405 -0.5168
 2594SOL    HW219419   2.373   2.005   8.008  1.1687 -1.8947  0.7283
 2595SOL     OW19420   3.339   0.576   8.187 -0.1664  0.3464  1.1418
 2595SOL    HW119421   3.264   0.530   8.148  1.1421  0.6039 -1.6930
 2595SOL    HW219422   3.334   0.543   8.277  0.0699 -1.8242  0.3703
 2596SOL     OW19423   2.730   0.079   4.729 -0.1163  0.1427  0.1877
 2596SOL    HW119424   2.790   0.005   4.731 -1.3121 -0.7574  3.3442
 2596SOL    HW219425   2.693   0.079   4.817 -0.6313  1.9797 -0.0389
 2597SOL     OW19426   3.268   1.410  15.208  0.4884  0.0929 -0.5502
 2597SOL    HW119427   3.199   1.353  15.243 -1.2620  1.0705 -2.4358
 2597SOL    HW219428   3.320   1.408  15.288  0.6873 -1.0445 -0.7037
 2598SOL     OW19429   0.980   2.694   1.941  0.1092  0.1455 -0.8430
 2598SOL    HW119430   1.005   2.601   1.945  0.1945  0.2460  0.9163
 2598SOL    HW219431   1.041   2.731   2.004 -1.6511  0.1034  0.8761
 2599SOL     OW19432   3.708   0.405  10.057 -0.1172 -0.5455  0.4039
 2599SOL    HW119433   3.657   0.336  10.014  1.7366 -1.1372 -0.8561
 2599SOL    HW219434   3.671   0.387  10.143  3.3506 -0.9173  1.7948
 2600SOL     OW19435   3.868   1.500   3.370  0.1709  0.8981  0.2174
 2600SOL    HW119436   3.849   1.407   3.373 -1.7891  1.2666 -0.8057
 2600SOL    HW219437   3.954   1.495   3.328  0.4697 -0.1712  0.9453
 2601SOL     OW19438   0.905   0.839   4.282 -0.0782  0.0127  0.1857
 2601SOL    HW119439   0.810   0.847   4.292  0.0286  1.6450 -0.1043
 2601SOL    HW219440   0.901   0.751   4.244  1.3567 -0.0977  0.2965
 2602SOL     OW19441   4.327   2.981   3.463 -0.0489  0.2464 -0.6463
 2602SOL    HW119442   4.322   2.987   3.558 -1.6158  1.6493 -0.8126
 2602SOL    HW219443   4.419   2.996   3.443 -0.3129  2.8228 -0.0477
 2603SOL     OW19444   4.270   1.399   2.166  0.4943 -0.6703  0.2663
 2603SOL    HW119445   4.239   1.312   2.140  1.2265 -1.4630  2.0022
 2603SOL    HW219446   4.237   1.458   2.099 -0.2750 -0.7372  0.5916
 2604SOL     OW19447   3.260   1.736   5.603 -0.0148 -0.4145 -0.4664
 2604SOL    HW119448   3.284   1.816   5.650  0.2328 -0.3091 -0.7711
 2604SOL    HW219449   3.332   1.744   5.540 -0.6957 -1.9549 -1.4338
 2605SOL     OW19450   2.785   1.902  14.495  0.0045 -0.2350 -0.6053
 2605SOL    HW119451   2.697   1.886  14.528  0.0690  1.0780  0.1904
 2605SOL    HW219452   2.839   1.870  14.568 -0.7065  0.2242  0.1184
 2606SOL     OW19453   1.076   2.861   9.629 -0.2167 -0.2907 -0.0087
 2606SOL    HW119454   1.071   2.949   9.591  0.3220 -0.2256  0.0650
 2606SOL    HW219455   1.167   2.861   9.661 -0.7996  0.8120  1.6320
 2607SOL     OW19456   4.096   0.745  15.346 -0.7395  0.6391  0.9512
 2607SOL    HW119457   4.122   0.698  15.267 -0.1451  0.2578  1.3753
 2607SOL    HW219458   4.168   0.805  15.361 -0.0186  0.1895 -0.8067
 2608SOL     OW19459   3.380   0.651   4.301  0.5379 -0.2122 -0.0611
 2608SOL    HW119460   3.424   0.566   4.306 -1.3869 -1.2623 -1.1168
 2608SOL    HW219461   3.290   0.626   4.284  0.2974  0.8463 -0.3136
 2609SOL     OW19462   1.003   0.826   8.170  0.4853  0.3642 -0.6336
 2609SOL    HW119463   0.945   0.754   8.145  2.5841 -1.4666 -0.2150
 2609SOL    HW219464   1.086   0.778   8.175  0.7033  0.5903 -1.9939
 2610SOL     OW19465   0.774   0.940   5.604 -0.1803 -0.3392  0.2171
 2610SOL    HW119466   0.699   0.979   5.560 -1.1902 -0.9516  1.3801
 2610SOL    HW219467   0.786   0.859   5.556 -1.3270 -0.3297 -0.0897
 2611SOL     OW19468   3.384   4.680  15.964 -0.0886 -0.4348 -0.5541
 2611SOL    HW119469   3.321   4.725  15.908  0.1219  0.2977 -0.2068
 2611SOL    HW219470   3.316   4.623  16.000 -1.5916  1.5578 -0.2516
 2612SOL     OW19471   3.058   1.683  15.731 -0.2623 -0.0315 -0.4737
 2612SOL    HW119472   3.085   1.743  15.800  0.0988 -0.7710  0.0203
 2612SOL    HW219473   2.975   1.726  15.710 -1.0877 -2.0538 -1.3054
 2613SOL     OW19474   1.834   2.085   2.348 -0.3228  1.3318  0.2305
 2613SOL    HW119475   1.882   2.020   2.297 -1.0746 -0.2682  1.5527
 2613SOL    HW219476   1.915   2.130   2.373  1.6185 -2.4296  0.8267
 2614SOL     OW19477   0.194   1.779   7.561  1.0496 -0.5782 -0.3740
 2614SOL    HW119478   0.188   1.724   7.484 -0.8727 -0.0922 -0.5567
 2614SOL    HW219479   0.102   1.804   7.570  0.7373 -1.9445  0.1641
 2615SOL     OW19480   2.594   0.049   5.631 -0.7291  0.3149  0.3925
 2615SOL    HW119481   2.538   0.013   5.700 -0.7435  1.8092  1.1542
 2615SOL    HW219482   2.668   0.075   5.686 -0.1389 -1.3166  0.3750
 2616SOL     OW19483   4.015   1.005   5.790 -0.4723 -0.1880  0.1526
 2616SOL    HW119484   4.046   0.916   5.775  1.3880  0.3408  0.9300
 2616SOL    HW219485   4.057   1.028   5.873 -0.0700 -0.0548 -0.0893
 2617SOL     OW19486   0.156   1.737  13.513  0.3242  0.0769  0.2372
 2617SOL    HW119487   0.063   1.722  13.500  0.8907 -1.5208 -1.8875
 2617SOL    HW219488   0.190   1.735  13.424  2.1150  1.9806  0.8668
 2618SOL     OW19489   1.132   4.358   3.676  0.8508  0.3200 -0.6953
 2618SOL    HW119490   1.060   4.376   3.616  0.3942  0.5770 -0.0686
 2618SOL    HW219491   1.170   4.446   3.674 -1.5364  1.3732  0.3387
 2619SOL     OW19492   1.806   4.286   5.398  0.7076 -0.6523  0.6649
 2619SOL    HW119493   1.863   4.345   5.447 -0.5112 -1.0266  2.5439
 2619SOL    HW219494   1.871   4.252   5.337 -0.7127 -0.2108 -1.0863
 2620SOL     OW19495   3.839   3.562   8.717  0.2278 -0.2936 -0.2650
 2620SOL    HW119496   3.779   3.527   8.783  0.4704 -1.1531 -0.4897
 2620SOL    HW219497   3.891   3.482   8.723 -1.4443 -1.4334 -0.9207
 2621SOL     OW19498   0.617   2.760   5.656 -0.2082  0.8483  0.1936
 2621SOL    HW119499   0.660   2.711   5.586  2.5257  0.2202  2.3491
 2621SOL    HW219500   0.692   2.798   5.699  0.1326  0.8367 -0.3837
 2622SOL     OW19501   0.177   3.964   7.099  0.6776  0.0431  0.0200
 2622SOL    HW119502   0.167   4.039   7.157 -2.1128 -0.2182 -0.1265
 2622SOL    HW219503   0.086   3.944   7.077  1.3351 -1.1310 -1.6617
 2623SOL     OW19504   2.606   2.978   7.693  0.2796  0.2286  0.4254
 2623SOL    HW119505   2.611   2.916   7.766  0.7252 -1.5950 -1.1678
 2623SOL    HW219506   2.653   2.926   7.629 -0.6391  0.0645 -0.1057
 2624SOL     OW19507   4.655   0.109   7.230 -0.3729  0.5053  0.0676
 2624SOL    HW119508   4.563   0.108   7.258 -0.6371 -0.6683 -0.8714
 2624SOL    HW219509   4.674   0.203   7.239  0.2459  0.5793 -2.1462
 2625SOL     OW19510   4.654   0.696   7.256 -0.3933 -0.2714 -0.5087
 2625SOL    HW119511   4.726   0.758   7.268  0.0910 -1.2121  1.5050
 2625SOL    HW219512   4.694   0.609   7.270 -0.3535 -0.0763  0.5705
 2626SOL     OW19513   0.643   0.041   0.069 -1.0150  0.3488  0.3269
 2626SOL    HW119514   0.698   0.119   0.077 -1.6278  0.8056  0.0596
 2626SOL    HW219515   0.608   0.074  17.742 -0.5233  1.8697  0.7323
 2627SOL     OW19516   0.226   1.606  16.152  0.2222  0.3012 -0.1181
 2627SOL    HW119517   0.189   1.523  16.124  2.0454  0.3024 -2.5091
 2627SOL    HW219518   0.217   1.665  16.077  0.9269 -0.3792 -0.7267
 2628SOL     OW19519   4.078   4.287   7.396  0.4554  0.1113 -0.2513
 2628SOL    HW119520   4.110   4.338   7.322  1.0505  2.8170  1.8934
 2628SOL    HW219521   4.142   4.215   7.401  0.5573  0.2784  0.8847
 2629SOL     OW19522   4.631   0.323   3.783  0.1654 -0.5547  0.0222
 2629SOL    HW119523   4.565   0.392   3.794  0.1586 -0.2749 -1.8974
 2629SOL    HW219524   4.701   0.377   3.748 -1.1022  1.5497  0.7155
 2630SOL     OW19525   4.589   4.039   1.960 -0.4959 -0.0623 -0.0468
 2630SOL    HW119526   4.541   3.968   2.003  1.1164 -1.0669  0.1409
 2630SOL    HW219527   4.620   4.000   1.878  0.3609 -1.1302  0.7659
 2631SOL     OW19528   3.231   1.792   9.546  0.6456 -0.2644 -0.2653
 2631SOL    HW119529   3.159   1.762   9.601  1.4692  1.4677  1.7210
 2631SOL    HW219530   3.297   1.808   9.613  1.5245  2.1624 -1.7209
 2632SOL     OW19531   3.721   3.480   7.748  0.3782 -0.6608  0.5645
 2632SOL    HW119532   3.789   3.434   7.698 -1.4813 -2.3241 -0.3959
 2632SOL    HW219533   3.682   3.410   7.800 -1.0635 -1.0273 -1.0200
 2633SOL     OW19534   4.104   0.020   2.181 -0.1475 -0.2069  0.4102
 2633SOL    HW119535   4.017   4.721   2.196 -0.5814  0.9933  0.9276
 2633SOL    HW219536   4.100   0.065   2.097  1.2475 -1.7702 -0.4945
 2634SOL     OW19537   3.545   0.967  17.582  0.4452 -0.1362 -0.4523
 2634SOL    HW119538   3.495   0.891  17.614 -1.9709  1.3764 -0.6277
 2634SOL    HW219539   3.569   1.008  17.665 -0.8904  1.0726 -0.6550
 2635SOL     OW19540   2.398   0.199  11.238  0.6850 -0.2999  0.0181
 2635SOL    HW119541   2.360   0.128  11.288  0.7373  1.1115  2.0631
 2635SOL    HW219542   2.432   0.255  11.308 -0.6823  0.6072 -0.0474
 2636SOL     OW19543   1.245   1.890   0.052 -0.0294  0.0699  0.2560
 2636SOL    HW119544   1.173   1.879   0.114 -0.6407  2.7184  0.0133
 2636SOL    HW219545   1.263   1.983   0.065  0.0103  0.2704 -1.2405
 2637SOL     OW19546   2.012   3.690   4.373 -0.8816  0.6798  0.1945
 2637SOL    HW119547   2.042   3.616   4.321 -1.4704  0.8751 -0.4351
 2637SOL    HW219548   2.093   3.742   4.368 -2.2284  2.8067  0.5932
 2638SOL     OW19549   0.853   1.564   5.701  0.2112  0.4583  0.3898
 2638SOL    HW119550   0.898   1.586   5.782  0.1199  0.0681  0.5495
 2638SOL    HW219551   0.893   1.478   5.683  0.2754  0.6201 -0.2655
 2639SOL     OW19552   2.402   3.415  13.139  0.2654  0.6701  0.2579
 2639SOL    HW119553   2.422   3.331  13.098 -1.0826 -0.3599  1.7301
 2639SOL    HW219554   2.447   3.407  13.223  2.5817  1.2303 -0.9181
 2640SOL     OW19555   3.904   0.584   8.991 -0.1397  0.3434  0.6047
 2640SOL    HW119556   3.973   0.611   8.930 -1.4912  1.6067 -0.3504
 2640SOL    HW219557   3.839   0.652   8.974 -1.1643 -0.7299  0.2335
 2641SOL     OW19558   4.328   4.181  14.773 -0.0176  0.1143  0.6927
 2641SOL    HW119559   4.333   4.230  14.691 -1.9685  1.3887  1.3372
 2641SOL    HW219560   4.299   4.251  14.832  1.0699  0.7213  0.4967
 2642SOL     OW19561   1.048   3.847   7.798  0.2071 -0.0143 -0.0040
 2642SOL    HW119562   0.997   3.916   7.756  1.1665  0.8803  0.2743
 2642SOL    HW219563   1.132   3.842   7.752 -0.1022  1.7516 -0.7373
 2643SOL     OW19564   0.683   0.247  15.059 -0.4276 -0.0564 -0.1429
 2643SOL    HW119565   0.648   0.164  15.092 -3.3315  0.5100 -1.7906
 2643SOL    HW219566   0.608   0.286  15.014 -1.2013 -1.7163 -0.3142
 2644SOL     OW19567   2.827   0.045   5.442 -0.3139  0.4448  0.6723
 2644SOL    HW119568   2.904   4.736   5.473 -0.5053 -0.7264 -0.6754
 2644SOL    HW219569   2.759   0.034   5.508 -1.4786 -1.7998 -0.8905
 2645SOL     OW19570   4.108   3.843   9.346 -0.1480 -0.0112  0.2304
 2645SOL    HW119571   4.163   3.913   9.311  2.2402 -1.6253  0.7780
 2645SOL    HW219572   4.059   3.893   9.411  0.8295  1.2744 -0.0328
 2646SOL     OW19573   0.876   4.426   5.580 -0.3829 -0.0569  0.3311
 2646SOL    HW119574   0.863   4.486   5.654  2.0342 -2.3314  2.5938
 2646SOL    HW219575   0.941   4.370   5.621 -0.8359  0.5408  1.8729
 2647SOL     OW19576   0.771   1.940  16.631  0.2041 -0.2991 -0.6004
 2647SOL    HW119577   0.852   1.988  16.649 -0.2342  0.7593 -1.3974
 2647SOL    HW219578   0.738   1.913  16.717  1.5923  1.2304  0.4104
 2648SOL     OW19579   0.615   3.552  13.939 -0.6678 -0.3958  0.8209
 2648SOL    HW119580   0.588   3.642  13.921 -1.7600 -0.6604  1.1077
 2648SOL    HW219581   0.702   3.567  13.903 -0.4110  1.7869  2.3644
 2649SOL     OW19582   4.009   0.131   1.957 -0.1352  0.4229 -0.1565
 2649SOL    HW119583   3.959   0.209   1.933  0.9132  0.7547 -1.2219
 2649SOL    HW219584   4.031   0.097   1.871  0.8634  1.0042 -0.1290
 2650SOL     OW19585   0.537   3.423   5.640  0.0372  0.5893  0.3629
 2650SOL    HW119586   0.519   3.456   5.552 -0.4055 -1.5555 -0.3538
 2650SOL    HW219587   0.626   3.394   5.619 -1.2760 -1.2110 -2.6648
 2651SOL     OW19588   1.931   0.952   0.254 -0.0499 -0.5767 -0.4391
 2651SOL    HW119589   1.877   0.984   0.182 -0.7484  1.7423  1.1057
 2651SOL    HW219590   1.976   1.036   0.264  0.7838 -1.4567  3.2606
 2652SOL     OW19591   3.680   3.685  11.533  0.2838 -0.3171  0.3439
 2652SOL    HW119592   3.622   3.722  11.599  0.3937  2.7832 -1.2908
 2652SOL    HW219593   3.692   3.760  11.475 -3.0894  0.0130  0.0741
 2653SOL     OW19594   3.501   3.995   2.076  0.0220  0.0590  0.0761
 2653SOL    HW119595   3.458   3.949   2.148 -0.3459  0.4960  0.1422
 2653SOL    HW219596   3.539   3.918   2.035  1.2171 -0.0254  1.3447
 2654SOL     OW19597   4.574   1.119   8.214  0.2703 -0.1091 -0.0816
 2654SOL    HW119598   4.599   1.091   8.127  1.0568 -2.1814  0.8179
 2654SOL    HW219599   4.660   1.154   8.239  0.6083 -0.9436 -0.0981
 2655SOL     OW19600   2.704   3.752   6.800 -0.6090  0.6190 -0.1151
 2655SOL    HW119601   2.743   3.789   6.720  0.6373 -0.0067  0.2081
 2655SOL    HW219602   2.671   3.670   6.764  1.9009 -1.4152  2.3351
 2656SOL     OW19603   4.290   2.186   5.463 -0.1666 -0.2712  0.2778
 2656SOL    HW119604   4.330   2.101   5.441 -0.8515 -0.4428 -0.2844
 2656SOL    HW219605   4.312   2.236   5.384 -1.3563 -0.3585 -0.1043
 2657SOL     OW19606   2.949   3.300   7.128 -0.2618 -0.6157 -0.5316
 2657SOL    HW119607   2.992   3.365   7.183 -0.2738 -2.3183  1.4772
 2657SOL    HW219608   3.028   3.277   7.080  0.5498  3.6692 -1.2811
 2658SOL     OW19609   2.533   0.407  17.231  0.1448 -0.8667  0.0876
 2658SOL    HW119610   2.503   0.403  17.140 -0.2780  1.4310  0.1258
 2658SOL    HW219611   2.451   0.389  17.278 -0.2032 -1.7108 -0.8340
 2659SOL     OW19612   1.597   0.743   3.235  0.0683 -0.0994 -0.4896
 2659SOL    HW119613   1.610   0.820   3.291 -0.6623 -0.5141  0.2492
 2659SOL    HW219614   1.505   0.753   3.210 -0.2273 -0.3651  0.4649
 2660SOL     OW19615   1.088   0.594   7.164 -0.2403 -0.2745 -0.2738
 2660SOL    HW119616   1.161   0.557   7.213  0.1904 -0.4255 -1.0218
 2660SOL    HW219617   1.123   0.668   7.114  0.3113 -1.0913 -1.0891
 2661SOL     OW19618   0.146   0.807   1.655 -0.2905 -0.3729 -0.2679
 2661SOL    HW119619   0.230   0.835   1.618 -0.5465  0.8802  0.1011
 2661SOL    HW219620   0.137   0.869   1.727 -0.6372  0.8470 -1.3718
 2662SOL     OW19621   0.345   0.562  11.022  0.0779 -0.3872  0.4323
 2662SOL    HW119622   0.390   0.542  10.940  0.5377  1.3244  0.2626
 2662SOL    HW219623   0.284   0.491  11.043 -1.2096  0.8124  0.7279
 2663SOL     OW19624   2.130   1.235   5.764 -0.5569  0.0371  0.0532
 2663SOL    HW119625   2.149   1.148   5.800 -0.9239 -0.3726 -0.7420
 2663SOL    HW219626   2.042   1.220   5.728 -0.9701 -0.0334  1.0923
 2664SOL     OW19627   3.226   1.473   9.359 -0.1065  0.0896 -0.4570
 2664SOL    HW119628   3.273   1.546   9.320 -1.2963  1.0738 -0.0829
 2664SOL    HW219629   3.141   1.489   9.318  0.7620  3.1394 -1.1010
 2665SOL     OW19630   2.141   4.523   5.202  0.3667 -0.2005  0.0120
 2665SOL    HW119631   2.210   4.513   5.268 -0.2092 -3.1470  0.1945
 2665SOL    HW219632   2.194   4.514   5.123  0.5297  0.8272  0.0089
 2666SOL     OW19633   0.342   4.150   6.673 -0.2511 -0.1224 -0.0353
 2666SOL    HW119634   0.342   4.212   6.600 -0.1417 -0.8437 -0.6555
 2666SOL    HW219635   0.412   4.195   6.721  0.0378 -0.1829 -0.3947
 2667SOL     OW19636   4.392   4.565   6.687  0.0375  0.5413 -0.3142
 2667SOL    HW119637   4.417   4.495   6.627  1.5332  1.2244 -0.4697
 2667SOL    HW219638   4.466   4.566   6.747  0.9307 -1.6033 -1.4083
 2668SOL     OW19639   2.529   2.148   1.768  0.1392  0.2307  0.0294
 2668SOL    HW119640   2.453   2.136   1.824  0.3167 -0.2947  0.1577
 2668SOL    HW219641   2.585   2.078   1.802  0.5510  0.9044  0.7240
 2669SOL     OW19642   1.125   4.104   7.522 -0.3200  0.2494  0.4564
 2669SOL    HW119643   1.216   4.075   7.526 -0.2894  0.1028 -1.5923
 2669SOL    HW219644   1.110   4.153   7.604  1.2768  0.7966  0.4216
 2670SOL     OW19645   2.818   2.774   2.865  0.3861  0.1674 -0.3147
 2670SOL    HW119646   2.833   2.737   2.951  2.2629  0.4929 -0.5074
 2670SOL    HW219647   2.756   2.845   2.882  0.9051  0.6810 -0.5456
 2671SOL     OW19648   1.838   4.031   6.355 -0.1812 -0.0976  0.1321
 2671SOL    HW119649   1.823   3.976   6.432  3.0135 -0.1914  0.6697
 2671SOL    HW219650   1.747   4.030   6.324  0.4344 -2.2173 -1.6407
 2672SOL     OW19651   1.183   0.218  11.768  0.2718 -0.2165  0.3776
 2672SOL    HW119652   1.191   0.260  11.683  3.0033  2.8862  2.1694
 2672SOL    HW219653   1.100   0.250  11.803  0.7714  0.5027  0.8980
 2673SOL     OW19654   0.652   2.212  15.833 -0.5292 -0.3110  0.5276
 2673SOL    HW119655   0.570   2.163  15.824 -1.0655  0.6633  0.1674
 2673SOL    HW219656   0.708   2.153  15.884  2.8727  1.1010 -1.5881
 2674SOL     OW19657   3.760   2.545  13.411  0.0647 -0.4661  0.0007
 2674SOL    HW119658   3.832   2.499  13.453  1.5370 -0.2459 -2.2666
 2674SOL    HW219659   3.763   2.633  13.449  1.3276 -0.0711 -1.0076
 2675SOL     OW19660   0.777   3.259   3.538 -0.4148 -0.1978  0.3134
 2675SOL    HW119661   0.723   3.321   3.490  1.1787  0.9536 -0.0135
 2675SOL    HW219662   0.799   3.316   3.611  1.7608  0.6906 -1.0273
 2676SOL     OW19663   1.581   1.466   8.414 -0.4029 -0.1446 -0.5787
 2676SOL    HW119664   1.494   1.502   8.429 -0.0864  0.0948  0.6489
 2676SOL    HW219665   1.572   1.391   8.472 -1.0174  0.4637  0.1141
 2677SOL     OW19666   2.691   0.764   6.166 -0.0683 -0.1428  0.2431
 2677SOL    HW119667   2.628   0.697   6.141  0.4359 -1.0301  1.3873
 2677SOL    HW219668   2.637   0.827   6.214 -0.3661  0.4256 -0.8346
 2678SOL     OW19669   3.587   1.829   3.050  0.4366  0.1034  0.7730
 2678SOL    HW119670   3.663   1.866   3.006 -0.4393  0.3961 -0.4751
 2678SOL    HW219671   3.629   1.771   3.114  3.2488 -1.2652 -2.2911
 2679SOL     OW19672   0.376   1.733   1.869 -0.4380 -0.4888 -0.1657
 2679SOL    HW119673   0.434   1.661   1.897  0.4465 -0.1559 -1.1407
 2679SOL    HW219674   0.444   1.799   1.855 -1.1720  0.2530 -0.1983
 2680SOL     OW19675   2.791   2.472   6.814 -0.6538 -0.3862  0.1600
 2680SOL    HW119676   2.783   2.564   6.786  4.4558  0.2778  0.9339
 2680SOL    HW219677   2.698   2.449   6.813 -0.7443 -0.0118 -0.1186
 2681SOL     OW19678   4.037   2.107   8.804  0.6560 -0.7074  0.0500
 2681SOL    HW119679   4.028   2.052   8.726  0.9439 -1.4791  0.5509
 2681SOL    HW219680   3.949   2.088   8.835  1.0687  0.5914  2.0151
 2682SOL     OW19681   1.317   0.245   3.065  0.6341 -0.6435  0.2393
 2682SOL    HW119682   1.397   0.296   3.053  0.4935 -0.8038 -1.4395
 2682SOL    HW219683   1.259   0.282   2.999  0.4037  1.0405  1.3879
 2683SOL     OW19684   3.798   2.900   5.489  0.3008  0.4184  0.2042
 2683SOL    HW119685   3.879   2.850   5.489  0.0380 -0.0366 -3.4005
 2683SOL    HW219686   3.734   2.844   5.533  0.7487  0.6941  1.2021
 2684SOL     OW19687   4.588   2.099   7.049  0.7959  0.0810  0.2354
 2684SOL    HW119688   4.495   2.078   7.046  0.8531 -0.5788  3.5675
 2684SOL    HW219689   4.594   2.182   7.096  0.1392  0.1904  0.1198
 2685SOL     OW19690   3.328   0.646   7.801  0.2468  0.1636 -0.3406
 2685SOL    HW119691   3.243   0.691   7.802  1.3075  2.1483 -0.0065
 2685SOL    HW219692   3.397   0.712   7.801  0.4497 -0.0456  0.5914
 2686SOL     OW19693   0.901   2.320   5.096 -0.9760 -0.4128  0.1425
 2686SOL    HW119694   0.949   2.297   5.016 -0.8058  2.4525 -0.5851
 2686SOL    HW219695   0.808   2.320   5.077 -1.4175  1.3603  2.2757
 2687SOL     OW19696   1.219   4.241   6.801  0.2007 -0.1047 -0.4747
 2687SOL    HW119697   1.289   4.193   6.846 -1.1750 -0.8177  0.9099
 2687SOL    HW219698   1.234   4.207   6.713  0.5184  0.3530 -0.5964
 2688SOL     OW19699   0.261   2.774  10.067 -0.0526 -0.0721  0.1664
 2688SOL    HW119700   0.252   2.726   9.984 -2.7105 -0.5515  0.7302
 2688SOL    HW219701   0.350   2.807  10.080  0.5700 -1.5254 -0.3948
 2689SOL     OW19702   3.930   4.541   8.901 -0.6087  0.4086 -0.0808
 2689SOL    HW119703   4.001   4.479   8.886 -0.3819  0.3754  1.1342
 2689SOL    HW219704   3.855   4.482   8.904 -0.3057  0.0199 -0.0593
 2690SOL     OW19705   1.553   0.903   2.088 -0.6981 -0.0796 -0.0874
 2690SOL    HW119706   1.604   0.963   2.142 -0.8265 -0.5059  0.5156
 2690SOL    HW219707   1.532   0.960   2.014  1.3709 -0.0226 -0.6315
 2691SOL     OW19708   3.906   1.227   9.188 -0.2425  0.5577  0.6324
 2691SOL    HW119709   3.854   1.183   9.255 -0.3605 -0.7002 -0.2847
 2691SOL    HW219710   3.916   1.148   9.135  1.1870 -1.3575  3.7290
 2692SOL     OW19711   1.407   3.229   6.950  0.0252 -0.0764 -0.6404
 2692SOL    HW119712   1.366   3.152   6.989  1.3427 -0.3751  0.1172
 2692SOL    HW219713   1.457   3.267   7.023 -0.1573 -1.9858  0.4646
 2693SOL     OW19714   1.279   2.076  15.709 -0.2825  0.1853 -0.1373
 2693SOL    HW119715   1.212   2.117  15.765  0.0307  1.0221 -0.3829
 2693SOL    HW219716   1.247   2.100  15.622 -2.6043 -0.1813  0.5906
 2694SOL     OW19717   4.235   3.627   3.298 -0.1799  0.0340 -0.2293
 2694SOL    HW119718   4.187   3.650   3.378 -0.3140 -1.1254  0.0258
 2694SOL    HW219719   4.314   3.679   3.308  0.3112 -0.2934 -2.3025
 2695SOL     OW19720   1.101   4.287   5.021  0.7158 -0.1447  0.1172
 2695SOL    HW119721   1.110   4.253   5.110  1.6686  1.5454  0.6600
 2695SOL    HW219722   1.166   4.356   5.033 -1.3141  2.0567 -1.5116
 2696SOL     OW19723   4.723   4.389   5.958 -0.3916  0.0235 -0.6518
 2696SOL    HW119724   0.031   4.463   5.920 -0.0937 -0.0638 -0.4530
 2696SOL    HW219725   4.671   4.359   5.884 -0.7810  3.2827 -1.6835
 2697SOL     OW19726   0.964   1.893  16.397  0.4195 -0.3044  0.2830
 2697SOL    HW119727   1.029   1.915  16.464  0.8437  2.7203 -1.1314
 2697SOL    HW219728   0.950   1.803  16.426 -0.8052 -0.2608 -0.2101
 2698SOL     OW19729   1.159   2.127  15.487  0.3420  0.2480  0.1366
 2698SOL    HW119730   1.174   2.222  15.493 -1.9930  0.7530 -1.7332
 2698SOL    HW219731   1.065   2.136  15.472  0.2995  2.9443  1.9920
 2699SOL     OW19732   2.955   2.490   0.329 -0.0509 -0.0348  0.1023
 2699SOL    HW119733   2.933   2.550   0.400 -1.1744  0.2070 -0.4518
 2699SOL    HW219734   2.969   2.553   0.258 -1.2155  0.5585  0.3968
 2700SOL     OW19735   1.684   3.185  16.549  0.0691 -0.4612 -0.2641
 2700SOL    HW119736   1.605   3.229  16.519 -0.3161 -0.6917  0.4368
 2700SOL    HW219737   1.640   3.120  16.603 -3.0160  1.2673 -0.6921
 2701SOL     OW19738   4.517   3.932   4.817  0.3328  0.3175 -0.6911
 2701SOL    HW119739   4.604   3.971   4.826  0.4003  0.0025  0.0311
 2701SOL    HW219740   4.527   3.891   4.731 -0.3788  1.5392 -1.3512
 2702SOL     OW19741   4.531   4.494   7.062 -0.0898 -0.0780  0.7432
 2702SOL    HW119742   4.542   4.476   6.969 -1.0854  2.4009  0.1383
 2702SOL    HW219743   4.623   4.508   7.087  0.3842  1.0819 -1.6361
 2703SOL     OW19744   3.470   4.183   3.360  0.2536  0.2470  0.7847
 2703SOL    HW119745   3.387   4.173   3.407 -0.3014  1.9461  0.1551
 2703SOL    HW219746   3.486   4.088   3.363  0.5640  0.3238  1.3991
 2704SOL     OW19747   0.558   0.231   2.652 -0.2309  0.1151  0.3253
 2704SOL    HW119748   0.539   0.184   2.734  0.1281 -1.7977 -0.6748
 2704SOL    HW219749   0.581   0.160   2.591  1.5164  1.1553 -0.2185
 2705SOL     OW19750   4.239   2.642   7.784  0.6809 -0.5147  0.1627
 2705SOL    HW119751   4.318   2.589   7.797  1.9054  1.3197  0.1226
 2705SOL    HW219752   4.191   2.626   7.866  2.1714 -0.6161  1.0144
 2706SOL     OW19753   1.680   0.117   0.321 -0.6544 -0.2489 -0.0216
 2706SOL    HW119754   1.588   0.113   0.295 -0.2208 -1.1143 -1.4114
 2706SOL    HW219755   1.718   0.072   0.246 -0.8967  1.2004 -1.0284
 2707SOL     OW19756   1.550   0.996   4.863  0.1423 -0.0506  0.3080
 2707SOL    HW119757   1.586   0.933   4.925 -0.4242  0.4138  1.1035
 2707SOL    HW219758   1.565   1.077   4.911  2.3511 -0.9374  1.0855
 2708SOL     OW19759   3.960   1.728   9.013  0.4259  0.3496 -0.4063
 2708SOL    HW119760   3.872   1.751   9.041  0.4466  1.3808 -1.2082
 2708SOL    HW219761   3.986   1.655   9.070  0.4632 -0.3182 -1.2695
 2709SOL     OW19762   3.309   0.665  16.099 -0.8113  0.1711  0.1942
 2709SOL    HW119763   3.331   0.749  16.058  0.6591  0.7362  2.1143
 2709SOL    HW219764   3.378   0.610  16.061 -0.0534  2.8061 -2.1899
 2710SOL     OW19765   0.798   1.848   7.567 -0.2999  0.3188 -0.5881
 2710SOL    HW119766   0.874   1.791   7.579 -0.5047  0.2098  0.1997
 2710SOL    HW219767   0.824   1.907   7.497  0.0369  1.0895  0.1887
 2711SOL     OW19768   4.083   3.443   6.514 -0.1827  0.5837 -0.1665
 2711SOL    HW119769   4.056   3.424   6.425  2.5800 -2.2336 -0.4128
 2711SOL    HW219770   4.001   3.461   6.560  0.0171  2.1870 -0.4227
 2712SOL     OW19771   2.841   0.636   7.526 -0.0845 -0.6173  0.2604
 2712SOL    HW119772   2.801   0.555   7.496 -2.4266  0.9723 -0.8928
 2712SOL    HW219773   2.931   0.606   7.543 -0.7542 -2.0042  1.3246
 2713SOL     OW19774   4.387   4.444   5.324  0.1106  0.8058 -0.1751
 2713SOL    HW119775   4.418   4.457   5.234  2.0353 -0.8088  0.2652
 2713SOL    HW219776   4.343   4.360   5.315  0.6211  0.5654 -0.4157
 2714SOL     OW19777   0.097   0.906   6.289 -0.5116 -0.0047  0.0804
 2714SOL    HW119778   0.098   1.000   6.308  2.5667  0.4257 -2.2704
 2714SOL    HW219779   0.150   0.893   6.211 -2.9791 -2.1540 -1.2234
 2715SOL     OW19780   1.982   4.713  17.276 -0.6652  0.1945 -0.4071
 2715SOL    HW119781   1.972   4.737  17.184 -0.0828  1.2052 -0.2055
 2715SOL    HW219782   1.968   0.062  17.310  2.4904  0.2226  0.8491
 2716SOL     OW19783   3.682   2.092  12.226 -0.5156 -0.7978 -1.0202
 2716SOL    HW119784   3.702   2.179  12.261  2.8572 -1.6207 -0.8914
 2716SOL    HW219785   3.681   2.046  12.310 -0.3976  3.1194  1.1122
 2717SOL     OW19786   1.150   4.341   0.448 -0.2072  0.6797  0.0741
 2717SOL    HW119787   1.139   4.366   0.356  0.2282 -1.5971 -0.5853
 2717SOL    HW219788   1.224   4.393   0.480  0.5144 -1.0657  1.1914
 2718SOL     OW19789   0.226   3.948  17.730  0.2886  0.0919  0.7505
 2718SOL    HW119790   0.138   3.962   0.009  0.2040  0.2987  0.4582
 2718SOL    HW219791   0.246   4.034  17.693  0.7473 -0.7276 -0.8887
 2719SOL     OW19792   4.552   4.215  15.301 -0.0599 -0.2440 -0.1751
 2719SOL    HW119793   4.591   4.136  15.265  0.6901 -0.8442  1.9519
 2719SOL    HW219794   4.638   4.256  15.310  0.1673 -1.3953  3.0079
 2720SOL     OW19795   1.386   3.240  14.149  0.0211 -0.2420  0.3883
 2720SOL    HW119796   1.362   3.303  14.081  0.9801 -0.9545 -0.6169
 2720SOL    HW219797   1.343   3.157  14.126  0.4119 -0.4538  0.4279
 2721SOL     OW19798   3.963   4.731  15.789 -0.1538 -0.3486 -0.3350
 2721SOL    HW119799   4.021   0.068  15.794 -0.7031 -0.0772  2.2829
 2721SOL    HW219800   3.951   4.694  15.877  1.3603 -3.3902 -1.4029
 2722SOL     OW19801   2.418   3.492   2.500 -0.4443 -0.1935 -0.1069
 2722SOL    HW119802   2.464   3.558   2.552 -1.4550  0.5205 -0.1151
 2722SOL    HW219803   2.328   3.507   2.530 -1.6464  0.8142 -4.1105
 2723SOL     OW19804   2.762   1.343   6.273 -0.4146  0.1205 -0.2536
 2723SOL    HW119805   2.837   1.297   6.235 -0.9258 -0.2870 -0.7776
 2723SOL    HW219806   2.759   1.298   6.358  0.0686 -1.2392 -0.9462
 2724SOL     OW19807   2.966   4.631   7.983 -0.7811  0.2035 -0.4810
 2724SOL    HW119808   2.873   4.639   7.964 -1.1920 -0.1591  1.3250
 2724SOL    HW219809   2.999   4.623   7.894 -1.2674 -0.0291 -0.6394
 2725SOL     OW19810   0.210   1.270   3.468  0.3324  0.1755 -0.4127
 2725SOL    HW119811   0.154   1.264   3.545 -2.2149  2.1287 -2.1450
 2725SOL    HW219812   0.271   1.197   3.456  0.4613  0.2463 -0.1953
 2726SOL     OW19813   2.318   4.681   6.170  0.3072 -0.2106  0.1965
 2726SOL    HW119814   2.280   4.658   6.085 -1.4755  0.9150  0.6922
 2726SOL    HW219815   2.367   0.021   6.151  3.2694 -2.2297 -0.4532
 2727SOL     OW19816   0.404   2.148  17.122 -0.3943  0.2846  0.2892
 2727SOL    HW119817   0.461   2.181  17.052 -0.8140 -0.8501 -0.5782
 2727SOL    HW219818   0.355   2.226  17.148 -1.8531 -0.7753  0.6892
 2728SOL     OW19819   3.623   4.001  12.703  0.2852  0.2409 -0.0747
 2728SOL    HW119820   3.615   4.062  12.630  0.2368  0.1251 -0.1644
 2728SOL    HW219821   3.547   4.023  12.758 -0.9638 -2.8753 -0.5701
 2729SOL     OW19822   4.265   4.365   3.662 -0.0566 -0.7974 -0.2090
 2729SOL    HW119823   4.177   4.354   3.697 -0.2979  1.0612 -0.2206
 2729SOL    HW219824   4.241   4.379   3.571 -0.3249  1.2186  0.1736
 2730SOL     OW19825   2.209   3.459   4.330  0.2555  0.0964  0.4580
 2730SOL    HW119826   2.218   3.374   4.373  0.0511 -1.0514 -1.7815
 2730SOL    HW219827   2.301   3.488   4.334  0.4253 -0.6724  2.1941
 2731SOL     OW19828   2.516   2.373   4.894  0.0499 -0.5693 -0.2821
 2731SOL    HW119829   2.609   2.355   4.877  0.4218  1.0088  0.0969
 2731SOL    HW219830   2.498   2.305   4.959 -1.0037 -0.4971 -0.5025
 2732SOL     OW19831   4.307   1.158  10.016  0.9681  0.1835 -0.0992
 2732SOL    HW119832   4.325   1.075  10.060 -2.4512  0.0854  1.1035
 2732SOL    HW219833   4.322   1.222  10.086 -0.6157 -1.6719  1.9208
 2733SOL     OW19834   0.789   1.647  13.249  0.2865 -0.1874  0.1170
 2733SOL    HW119835   0.723   1.581  13.274 -0.5516 -0.1466 -1.8977
 2733SOL    HW219836   0.845   1.636  13.326 -0.2331 -0.6607  0.4331
 2734SOL     OW19837   4.158   0.233   5.620  0.3118 -0.7900 -0.0442
 2734SOL    HW119838   4.120   0.235   5.708 -0.4370  2.1580 -0.4386
 2734SOL    HW219839   4.133   0.144   5.592  1.1986 -0.5568 -1.5950
 2735SOL     OW19840   4.014   2.619  12.490 -0.3820 -0.6407  0.6088
 2735SOL    HW119841   4.034   2.709  12.462 -0.8866 -0.3557  1.1614
 2735SOL    HW219842   3.949   2.596  12.423 -0.1983 -3.4960  1.4436
 2736SOL     OW19843   0.224   3.975   8.600 -0.2127 -0.4519  0.7440
 2736SOL    HW119844   0.195   4.058   8.637 -1.0570 -1.6795  2.8256
 2736SOL    HW219845   0.167   3.964   8.523 -0.4986  0.8019  0.7757
 2737SOL     OW19846   2.850   3.191  15.861  0.8728 -0.2142  0.6827
 2737SOL    HW119847   2.855   3.248  15.785 -0.4477 -2.3044 -0.9705
 2737SOL    HW219848   2.878   3.104  15.833  1.4242 -0.1048  0.8949
 2738SOL     OW19849   3.993   3.085   9.889  0.2966  0.2786  0.6293
 2738SOL    HW119850   3.972   3.043   9.972  2.6540 -0.4613  0.8608
 2738SOL    HW219851   4.053   3.019   9.855 -1.4395 -1.3622  0.7873
 2739SOL     OW19852   1.909   1.768   1.940  0.1008  0.0148 -0.3529
 2739SOL    HW119853   1.987   1.715   1.958 -0.5781 -0.8642  0.0196
 2739SOL    HW219854   1.878   1.724   1.860 -1.0441 -0.2471  0.2275
 2740SOL     OW19855   3.534   2.229   5.638 -0.6668  0.0584  0.0167
 2740SOL    HW119856   3.514   2.294   5.571  0.2696  1.0211  0.6662
 2740SOL    HW219857   3.630   2.222   5.640 -0.6842  0.0028  0.9063
 2741SOL     OW19858   4.093   0.975  13.050  0.2188 -0.1165 -0.9840
 2741SOL    HW119859   4.137   0.892  13.067  0.3357 -0.1141 -1.2723
 2741SOL    HW219860   4.128   1.045  13.105 -2.7614  1.0842 -0.5780
 2742SOL     OW19861   4.734   1.990  11.896 -0.5480 -0.1512 -0.0509
 2742SOL    HW119862   4.680   2.042  11.956 -2.2068 -0.5975 -1.1539
 2742SOL    HW219863   4.727   1.908  11.946  0.8746  0.9908  2.0462
 2743SOL     OW19864   4.631   3.316   2.063  0.1621 -0.0674 -0.2934
 2743SOL    HW119865   4.655   3.374   2.136  1.2316  1.4197 -1.8296
 2743SOL    HW219866   4.707   3.258   2.073 -0.7426 -0.8999  1.9332
 2744SOL     OW19867   1.479   0.591   9.097 -0.4722  0.0895 -0.2236
 2744SOL    HW119868   1.471   0.682   9.126  1.0098 -0.3712  1.6736
 2744SOL    HW219869   1.512   0.559   9.181  1.5483 -0.4969 -1.2257
 2745SOL     OW19870   1.970   3.701   6.353 -0.0658  0.0100  0.7895
 2745SOL    HW119871   1.920   3.681   6.274 -0.0621 -0.6401  0.9479
 2745SOL    HW219872   1.987   3.616   6.394 -1.3715  0.3293  1.9527
 2746SOL     OW19873   2.207   3.418   7.458 -0.0556  0.0306  0.0965
 2746SOL    HW119874   2.233   3.490   7.514 -0.7734 -0.2173  0.7549
 2746SOL    HW219875   2.209   3.337   7.510  0.4323 -1.1174 -1.6925
 2747SOL     OW19876   0.157   4.072   8.038  0.2470 -0.4282 -0.1587
 2747SOL    HW119877   0.127   4.118   8.116 -0.1861 -1.2909  0.1804
 2747SOL    HW219878   0.090   4.004   8.030 -1.0334  1.0718 -2.0669
 2748SOL     OW19879   2.722   3.704   4.205 -0.2479  0.4286  0.5438
 2748SOL    HW119880   2.764   3.633   4.253 -0.5734 -0.0361  0.1401
 2748SOL    HW219881   2.675   3.746   4.277 -1.5066 -0.8543  0.4745
 2749SOL     OW19882   0.271   3.567   0.814 -0.3429 -0.3585 -0.0201
 2749SOL    HW119883   0.187   3.613   0.808 -0.3396 -0.5179 -1.3139
 2749SOL    HW219884   0.327   3.634   0.853  0.0083  0.2934 -1.6542
 2750SOL     OW19885   1.394   4.320   7.305 -0.5189 -0.3262 -0.1277
 2750SOL    HW119886   1.370   4.408   7.279 -0.0264 -0.4674 -1.0553
 2750SOL    HW219887   1.480   4.323   7.264  0.9768 -1.9474  2.8333
 2751SOL     OW19888   0.535   3.201   7.919  0.6914 -0.1917 -0.0685
 2751SOL    HW119889   0.456   3.167   7.963  1.6822  0.0022  1.8718
 2751SOL    HW219890   0.583   3.222   7.999 -1.1295 -0.8424  1.2161
 2752SOL     OW19891   1.446   3.672   3.080 -0.0956 -0.4697  0.0073
 2752SOL    HW119892   1.460   3.660   2.986 -1.4243 -0.7154 -0.1664
 2752SOL    HW219893   1.356   3.642   3.095  0.3966 -1.1977  1.5343
 2753SOL     OW19894   3.741   2.144  10.673  0.9028 -0.2679 -0.2231
 2753SOL    HW119895   3.799   2.155  10.598 -1.2753  0.7416 -1.7548
 2753SOL    HW219896   3.709   2.053  10.670 -0.5728  0.1629  2.0594
 2754SOL     OW19897   0.544   2.186  17.366  1.0717  0.4061 -0.7259
 2754SOL    HW119898   0.486   2.175  17.291 -0.4378 -0.6323  0.5877
 2754SOL    HW219899   0.535   2.101  17.409 -0.6392  0.6326 -0.6145
 2755SOL     OW19900   2.232   3.502  10.972  0.7944  0.0863  0.2829
 2755SOL    HW119901   2.239   3.434  11.038 -0.5738  0.5498  0.9052
 2755SOL    HW219902   2.185   3.449  10.907 -0.9589  1.8689  0.0990
 2756SOL     OW19903   0.930   3.966   8.057  0.3062 -0.0328 -0.4896
 2756SOL    HW119904   0.949   3.939   7.967 -0.6406 -2.0439 -0.0902
 2756SOL    HW219905   1.003   3.930   8.107 -0.9200  2.3271  3.0479
 2757SOL     OW19906   4.356   4.595   9.388  0.1836  0.1571 -0.1765
 2757SOL    HW119907   4.423   4.557   9.445 -0.1357 -1.5438 -0.9315
 2757SOL    HW219908   4.284   4.605   9.449  0.1708  1.3316 -0.3868
 2758SOL     OW19909   1.655   3.215  14.141  0.4575  0.1842  0.8499
 2758SOL    HW119910   1.666   3.301  14.102  0.9949 -0.5538 -0.6373
 2758SOL    HW219911   1.560   3.225  14.139  0.4079 -0.5457 -1.4504
 2759SOL     OW19912   3.803   2.212   9.740 -0.0668 -0.7718 -0.5512
 2759SOL    HW119913   3.800   2.307   9.734 -0.1284 -0.6977  0.7954
 2759SOL    HW219914   3.719   2.186   9.701  0.7965 -0.4781 -2.6002
 2760SOL     OW19915   0.084   0.977   8.213  0.5754 -0.2666 -0.2109
 2760SOL    HW119916   0.163   1.019   8.247  0.6015 -0.1352 -0.4279
 2760SOL    HW219917   0.078   0.894   8.260  0.1360  0.3345  0.7988
 2761SOL     OW19918   0.323   1.801   8.080  0.9516  0.5499 -0.6245
 2761SOL    HW119919   0.260   1.863   8.043 -1.9782 -0.3316  2.8947
 2761SOL    HW219920   0.406   1.848   8.070  2.0467 -1.3465 -0.5626
 2762SOL     OW19921   0.292   0.244   6.700  0.2547  0.6905  0.8384
 2762SOL    HW119922   0.350   0.256   6.775  0.5822  0.5597  0.6035
 2762SOL    HW219923   0.350   0.284   6.635  2.3488 -3.0748  0.3868
 2763SOL     OW19924   2.415   2.431  12.442 -0.3655  0.5739 -0.7401
 2763SOL    HW119925   2.332   2.479  12.437  0.3676  1.8506 -0.8254
 2763SOL    HW219926   2.376   2.362  12.496 -0.2400  1.4717  0.4990
 2764SOL     OW19927   1.992   0.611   0.555 -0.0509  0.1693  0.4136
 2764SOL    HW119928   2.001   0.631   0.462 -0.2930 -2.4740 -0.1881
 2764SOL    HW219929   1.897   0.614   0.561 -0.0534 -0.2239  0.5882
 2765SOL     OW19930   3.809   0.548   8.276 -0.0688  0.6666  0.6149
 2765SOL    HW119931   3.751   0.543   8.199 -1.3974  0.1841  1.6354
 2765SOL    HW219932   3.749   0.586   8.340 -0.5863 -0.0133  0.5373
 2766SOL     OW19933   2.385   3.115   2.658 -0.0024 -0.1323  0.2217
 2766SOL    HW119934   2.458   3.145   2.713 -0.3752  1.8319 -0.3806
 2766SOL    HW219935   2.435   3.045   2.615  1.4282  0.1026  1.4684
 2767SOL     OW19936   0.471   1.840  14.117  0.4678  0.0559 -0.4853
 2767SOL    HW119937   0.436   1.752  14.105  1.0932 -0.2030 -0.4021
 2767SOL    HW219938   0.388   1.889  14.116  0.7408  0.5343  0.0404
 2768SOL     OW19939   2.064   1.989  14.239  0.3332 -0.2362  0.2611
 2768SOL    HW119940   2.024   2.024  14.159  2.2419 -0.6218 -0.8583
 2768SOL    HW219941   1.997   2.017  14.302  0.5301 -0.0947  0.4086
 2769SOL     OW19942   3.761   4.252  10.401 -0.0143  0.7978 -0.0398
 2769SOL    HW119943   3.702   4.270  10.473  0.8512 -0.9872  1.1134
 2769SOL    HW219944   3.820   4.328  10.406 -0.4036  1.0457  0.6936
 2770SOL     OW19945   0.013   1.561   1.296  0.5837  0.3325 -0.1113
 2770SOL    HW119946   4.660   1.572   1.319 -0.0901 -2.5219 -1.3619
 2770SOL    HW219947   0.006   1.470   1.268 -0.5502  0.1600  0.7640
 2771SOL     OW19948   0.949   3.369   4.518 -0.0062 -0.0396 -0.1713
 2771SOL    HW119949   0.913   3.285   4.546 -0.4717  0.5335  0.9622
 2771SOL    HW219950   1.026   3.326   4.482 -0.5116 -0.1289 -1.1439
 2772SOL     OW19951   2.936   4.653   4.112 -0.4455  0.1947 -0.4115
 2772SOL    HW119952   2.910   4.652   4.020  0.2594 -2.5374 -0.5998
 2772SOL    HW219953   2.886   4.732   4.134  0.1369  0.0093  1.6257
 2773SOL     OW19954   3.425   0.117   9.114  0.4276  0.5797  0.0363
 2773SOL    HW119955   3.341   0.139   9.155 -0.1552  0.0283 -0.8245
 2773SOL    HW219956   3.395   0.054   9.047 -1.3294  0.2804  1.0987
 2774SOL     OW19957   1.510   0.268   3.720  0.0912  0.0429  0.0943
 2774SOL    HW119958   1.444   0.246   3.655 -0.2432 -1.6115  1.0103
 2774SOL    HW219959   1.547   0.355   3.702  0.2500  0.5078  2.5271
 2775SOL     OW19960   0.244   0.210   6.116 -0.5048  0.3400 -0.2099
 2775SOL    HW119961   0.215   0.173   6.200 -1.2133 -0.8088 -0.9699
 2775SOL    HW219962   0.221   0.301   6.135  1.5169 -0.1057  4.5470
 2776SOL     OW19963   2.496   3.879   0.678 -0.1535 -0.3175 -0.4901
 2776SOL    HW119964   2.511   3.969   0.707  1.0528 -0.8855  0.6895
 2776SOL    HW219965   2.511   3.891   0.584 -0.7662  1.0419 -0.4137
 2777SOL     OW19966   2.529   1.419   4.216 -0.0116  0.6909 -0.5232
 2777SOL    HW119967   2.587   1.362   4.166 -0.5549 -1.0872  0.8452
 2777SOL    HW219968   2.446   1.370   4.212 -0.1205  0.7487  0.9105
 2778SOL     OW19969   0.462   3.954   9.867 -0.1260 -0.0423  0.1344
 2778SOL    HW119970   0.487   3.906   9.946 -0.5771  0.5342  0.6288
 2778SOL    HW219971   0.378   3.914   9.845 -1.7454  3.2967  0.1661
 2779SOL     OW19972   3.771   1.007  10.332 -0.0341 -0.2583  0.0042
 2779SOL    HW119973   3.830   0.933  10.315  1.3106  0.0130  3.5858
 2779SOL    HW219974   3.836   1.071  10.363  1.0708 -0.2052 -2.4188
 2780SOL     OW19975   1.788   3.206  12.742 -0.3815  0.0421 -0.0409
 2780SOL    HW119976   1.746   3.219  12.657 -0.0763  0.3664 -0.1452
 2780SOL    HW219977   1.738   3.127  12.761  0.2518 -0.2068  0.5763
 2781SOL     OW19978   3.937   1.539  15.661  0.0900  0.3585 -0.6251
 2781SOL    HW119979   3.924   1.486  15.740 -0.0183  0.9509 -0.2505
 2781SOL    HW219980   3.980   1.617  15.694 -0.4766  0.4167 -0.0330
 2782SOL     OW19981   0.387   2.357   4.988  0.0511  0.2694  0.4642
 2782SOL    HW119982   0.327   2.300   5.037 -0.9113  2.3258  1.6603
 2782SOL    HW219983   0.345   2.441   4.971 -0.0365 -0.1231 -1.3527
 2783SOL     OW19984   2.305   0.116   1.701  0.1007  0.0791  0.2803
 2783SOL    HW119985   2.346   0.031   1.718 -0.8616 -0.4912 -0.2447
 2783SOL    HW219986   2.212   0.096   1.703  0.6977 -2.7734 -0.0738
 2784SOL     OW19987   2.906   0.937   3.094  0.1543  0.8157  0.0974
 2784SOL    HW119988   2.910   1.017   3.145  1.4390  1.2000 -0.6158
 2784SOL    HW219989   2.900   0.878   3.169 -2.8353  1.8189  0.6522
 2785SOL     OW19990   1.946   1.423   0.490 -0.1566  0.6580  0.4171
 2785SOL    HW119991   1.956   1.501   0.544  0.8688  0.8244 -0.0019
 2785SOL    HW219992   1.863   1.447   0.450  0.3094  1.3627 -0.1322
 2786SOL     OW19993   4.291   4.432   0.337 -0.2664 -0.9684 -0.4481
 2786SOL    HW119994   4.329   4.475   0.260  2.7005 -2.7645  0.0273
 2786SOL    HW219995   4.237   4.368   0.291 -1.0428 -1.1035  0.6714
 2787SOL     OW19996   3.599   2.902   7.360  0.1587 -0.1619  0.1020
 2787SOL    HW119997   3.604   2.839   7.289  1.6768 -0.9460  0.8959
 2787SOL    HW219998   3.687   2.940   7.364 -0.0710  0.4197 -0.4864
 2788SOL     OW19999   0.872   4.246   8.511  0.9942 -0.6114 -0.7402
 2788SOL    HW120000   0.867   4.326   8.563  1.4639 -0.5608 -0.7725
 2788SOL    HW220001   0.943   4.204   8.559 -0.8724  0.9361  3.4303
 2789SOL     OW20002   3.536   4.153  15.316  0.1621  0.1706 -0.0793
 2789SOL    HW120003   3.586   4.122  15.392 -1.4018  1.5543  1.5253
 2789SOL    HW220004   3.579   4.102  15.247 -0.6775 -1.1118  0.3473
 2790SOL     OW20005   1.364   0.432   9.950  0.1612  0.2612  0.3304
 2790SOL    HW120006   1.459   0.435   9.936  0.1862  0.9903  0.7086
 2790SOL    HW220007   1.345   0.497  10.017  0.4426  0.6723  0.0145
 2791SOL     OW20008   0.703   2.142   1.423  0.0055 -0.0326 -0.3783
 2791SOL    HW120009   0.648   2.182   1.490  1.9397  0.7243  0.7411
 2791SOL    HW220010   0.633   2.124   1.360  0.4177 -1.6675 -0.3784
 2792SOL     OW20011   2.630   0.552   5.899 -0.0638 -0.4902  0.2616
 2792SOL    HW120012   2.711   0.595   5.928  1.4302 -4.1267  1.4868
 2792SOL    HW220013   2.663   0.463   5.890 -1.7845 -1.1754  0.8114
 2793SOL     OW20014   0.357   0.351   3.120 -0.5355  0.3584  0.4840
 2793SOL    HW120015   0.298   0.345   3.045  0.4379 -0.5216 -0.2186
 2793SOL    HW220016   0.429   0.301   3.081 -1.3673  0.5495 -1.3319
 2794SOL     OW20017   4.194   3.360   3.285 -1.1999 -0.4282 -0.2771
 2794SOL    HW120018   4.276   3.367   3.333  0.2311  0.5508 -2.9042
 2794SOL    HW220019   4.178   3.454   3.279 -0.0131 -0.0541  2.3410
 2795SOL     OW20020   1.932   2.625  14.407 -0.0055  0.6241  0.3228
 2795SOL    HW120021   1.934   2.720  14.398 -0.5051  0.8497  2.4805
 2795SOL    HW220022   1.839   2.602  14.405  0.2506 -0.1917 -2.2787
 2796SOL     OW20023   4.322   4.055   3.009  0.2516  0.1173  0.4863
 2796SOL    HW120024   4.357   4.044   3.098 -1.3882  1.5122  1.2987
 2796SOL    HW220025   4.352   3.973   2.971 -3.3033  0.9399 -4.1556
 2797SOL     OW20026   1.341   2.884   0.337  0.0949 -0.2759  0.1810
 2797SOL    HW120027   1.321   2.955   0.398 -3.0905 -0.0136 -1.1836
 2797SOL    HW220028   1.256   2.845   0.353 -1.1460  2.8648  1.2308
 2798SOL     OW20029   0.990   0.741   6.864  0.2878  0.6757 -0.3197
 2798SOL    HW120030   1.021   0.652   6.849  2.2054  1.7337 -2.5634
 2798SOL    HW220031   0.898   0.722   6.848  0.3062 -0.0515  0.4094
 2799SOL     OW20032   3.394   2.029   8.410 -0.0177  0.5375  0.0705
 2799SOL    HW120033   3.372   2.045   8.319  0.2396  0.5690  0.0132
 2799SOL    HW220034   3.346   2.097   8.458 -1.0737  0.8849 -1.5013
 2800SOL     OW20035   4.262   1.675  14.276 -0.7012 -0.1372 -0.4353
 2800SOL    HW120036   4.302   1.595  14.240  0.2656  0.7141 -1.2506
 2800SOL    HW220037   4.225   1.634  14.355 -1.6275  1.7958  0.1123
 2801SOL     OW20038   2.300   0.398   9.063 -0.7766  0.2224  0.0825
 2801SOL    HW120039   2.368   0.448   9.109 -1.0285 -1.4672  2.3003
 2801SOL    HW220040   2.236   0.467   9.075 -0.8126  0.4018 -1.1707
 2802SOL     OW20041   4.465   3.229  16.725 -0.1998 -0.5730  0.5148
 2802SOL    HW120042   4.473   3.319  16.758 -2.9199 -0.3321  0.5538
 2802SOL    HW220043   4.549   3.185  16.733  1.6279  2.7301 -0.6903
 2803SOL     OW20044   0.516   2.069  12.188 -0.2906  0.3283  0.3729
 2803SOL    HW120045   0.593   2.069  12.244  0.8504 -1.0609 -1.1981
 2803SOL    HW220046   0.505   2.159  12.156 -0.7603 -0.0407 -0.5077
 2804SOL     OW20047   3.704   0.136  11.011  0.5629 -0.0984 -0.2622
 2804SOL    HW120048   3.691   0.229  10.991 -3.3644 -0.9972 -2.0674
 2804SOL    HW220049   3.643   0.115  11.082  0.2120  1.4285 -0.1085
 2805SOL     OW20050   0.719   2.788  13.183 -0.7033  0.0426 -0.2124
 2805SOL    HW120051   0.798   2.791  13.237 -0.5953 -0.0101 -0.3711
 2805SOL    HW220052   0.766   2.771  13.102 -1.7415 -0.8611 -0.6305
 2806SOL     OW20053   3.819   0.823  14.906 -0.7352 -0.4935 -0.5273
 2806SOL    HW120054   3.787   0.774  14.829  1.0148 -2.6083  0.0951
 2806SOL    HW220055   3.747   0.798  14.965 -1.1478  1.4978 -0.2069
 2807SOL     OW20056   3.187   3.932  13.939 -0.2347  0.0680 -0.3457
 2807SOL    HW120057   3.102   3.924  13.897  0.0949 -0.0325 -0.9971
 2807SOL    HW220058   3.198   4.025  13.959 -1.2320  0.1027  0.0080
 2808SOL     OW20059   3.898   3.729   9.230 -0.5014  0.2243  0.1679
 2808SOL    HW120060   3.968   3.756   9.290 -1.0131  1.8199  0.0364
 2808SOL    HW220061   3.905   3.633   9.230  1.1892  0.3553 -2.4263
 2809SOL     OW20062   4.658   0.262   5.633  0.0364  0.4895 -0.5577
 2809SOL    HW120063   4.697   0.261   5.721 -0.4253 -1.9479 -0.3820
 2809SOL    HW220064   4.570   0.294   5.654 -0.0159 -0.6322  0.9345
 2810SOL     OW20065   1.535   2.908  17.355 -0.1678  0.0064 -0.0932
 2810SOL    HW120066   1.600   2.867  17.297 -0.3464 -0.3170 -0.0636
 2810SOL    HW220067   1.580   2.966  17.416  0.0502  0.6046 -0.8208
 2811SOL     OW20068   1.322   0.458  15.139  0.7117  0.5655 -0.1148
 2811SOL    HW120069   1.336   0.415  15.223  0.0574  1.5475  0.4910
 2811SOL    HW220070   1.386   0.409  15.087  1.0628  2.4064 -1.4007
 2812SOL     OW20071   1.964   2.172  14.702 -0.3440  0.2391 -0.6258
 2812SOL    HW120072   1.993   2.227  14.629 -0.6580  0.5085 -0.5457
 2812SOL    HW220073   2.009   2.092  14.674 -0.5100 -0.6326  1.6114
 2813SOL     OW20074   3.134   1.817   0.476  0.6682  0.0910 -0.2159
 2813SOL    HW120075   3.178   1.901   0.489  1.1716  0.1704 -2.3078
 2813SOL    HW220076   3.069   1.823   0.545  0.3229 -1.5665 -0.3833
 2814SOL     OW20077   1.084   3.872   4.625 -0.0899 -0.4277 -0.0631
 2814SOL    HW120078   1.042   3.908   4.703 -2.3605 -2.1367 -0.4704
 2814SOL    HW220079   1.005   3.849   4.577  0.5104 -1.6629 -0.4702
 2815SOL     OW20080   1.143   3.189   4.459 -0.2864 -0.2319 -0.0114
 2815SOL    HW120081   1.187   3.171   4.376  0.7945 -1.1010  0.7387
 2815SOL    HW220082   1.140   3.098   4.489 -0.2114 -0.8448 -1.8360
 2816SOL     OW20083   2.331   3.535   5.734  0.2996  0.1235  0.0622
 2816SOL    HW120084   2.386   3.520   5.811 -0.2065 -1.5282  0.0942
 2816SOL    HW220085   2.263   3.593   5.768 -1.0703 -2.6038  1.9697
 2817SOL     OW20086   2.299   1.128   9.700  0.0907 -0.3676 -0.3426
 2817SOL    HW120087   2.224   1.186   9.712  0.8312 -0.1772  3.4695
 2817SOL    HW220088   2.309   1.077   9.781 -2.0041 -1.5348 -0.7965
 2818SOL     OW20089   0.514   0.077   8.365  0.1137  0.2218  0.4615
 2818SOL    HW120090   0.556   4.732   8.374  1.2938  0.7175 -0.4029
 2818SOL    HW220091   0.439   0.055   8.311  0.3757  1.2498 -0.3260
 2819SOL     OW20092   2.197   0.757  11.433 -0.1564  0.0692  0.2332
 2819SOL    HW120093   2.139   0.732  11.361  1.3417 -2.1528 -0.1832
 2819SOL    HW220094   2.150   0.834  11.466  1.6050  0.6625  1.3346
 2820SOL     OW20095   4.513   4.195   9.493  0.2025 -0.1437 -0.2043
 2820SOL    HW120096   4.607   4.209   9.478 -0.4701  1.8225 -2.4897
 2820SOL    HW220097   4.470   4.278   9.471  0.4359 -0.3059 -1.2571
 2821SOL     OW20098   1.361   0.608   8.676  0.1936 -0.0478  0.1865
 2821SOL    HW120099   1.282   0.559   8.654 -1.3414  2.2062  0.6974
 2821SOL    HW220100   1.361   0.619   8.771 -2.1401 -3.0431  0.4969
 2822SOL     OW20101   3.107   2.831  16.583 -0.2495  0.0759 -0.0754
 2822SOL    HW120102   3.056   2.879  16.517  1.2230  1.0401 -0.5089
 2822SOL    HW220103   3.148   2.762  16.531 -1.2850  0.2644 -1.1511
 2823SOL     OW20104   3.338   1.670   4.552 -0.0037 -0.3629  0.1720
 2823SOL    HW120105   3.430   1.660   4.577  0.0031  0.0322  0.3042
 2823SOL    HW220106   3.336   1.766   4.550 -1.5628 -0.3749  1.0727
 2824SOL     OW20107   3.821   1.231   3.353 -0.6586  0.6138 -0.2101
 2824SOL    HW120108   3.825   1.165   3.284 -2.3384  1.3631 -1.0168
 2824SOL    HW220109   3.726   1.234   3.361 -0.6094 -1.4655  1.3758
 2825SOL     OW20110   4.137   0.200   9.322 -0.0764 -0.2526 -0.3758
 2825SOL    HW120111   4.139   0.138   9.248 -1.6628  1.4098 -1.8247
 2825SOL    HW220112   4.098   0.272   9.273 -0.9386 -1.0945 -0.9274
 2826SOL     OW20113   2.845   0.844   0.778  0.2699  0.5735 -0.2887
 2826SOL    HW120114   2.896   0.793   0.715 -0.0920  1.0162 -0.9413
 2826SOL    HW220115   2.760   0.815   0.744 -1.0299  1.4019  2.2984
 2827SOL     OW20116   1.324   0.503  10.964  0.4019 -0.0789  0.7096
 2827SOL    HW120117   1.372   0.444  11.023  2.6944 -0.3493 -1.4218
 2827SOL    HW220118   1.284   0.561  11.028 -0.5877 -0.2800  0.2699
 2828SOL     OW20119   0.303   4.440   0.263 -0.3937 -0.1242 -0.3206
 2828SOL    HW120120   0.363   4.438   0.188 -3.4761  0.4018 -2.7872
 2828SOL    HW220121   0.219   4.462   0.224  0.0793 -1.5178 -2.1140
 2829SOL     OW20122   3.301   2.687   8.540 -0.1420 -0.4593  0.7256
 2829SOL    HW120123   3.368   2.749   8.568  0.4078 -1.3191  1.2833
 2829SOL    HW220124   3.247   2.739   8.480  0.5002  2.7757  2.9406
 2830SOL     OW20125   2.335   1.485   3.395  0.0548  0.6485  0.3915
 2830SOL    HW120126   2.407   1.480   3.332  0.1372 -3.0209  0.7764
 2830SOL    HW220127   2.273   1.427   3.351  0.0719  1.3407 -0.5348
 2831SOL     OW20128   0.403   2.252   8.583 -0.3208 -0.5020  0.2242
 2831SOL    HW120129   0.390   2.244   8.678  0.9195  0.0004  0.4294
 2831SOL    HW220130   0.349   2.332   8.579  1.3532  0.5603 -0.7861
 2832SOL     OW20131   3.373   0.835   1.427  0.0994  0.3361  0.1286
 2832SOL    HW120132   3.444   0.841   1.363  0.8693 -0.5448  0.8994
 2832SOL    HW220133   3.299   0.810   1.372  0.2572 -1.9604  0.9461
 2833SOL     OW20134   0.426   4.158  12.087 -0.0855 -0.3245  0.5163
 2833SOL    HW120135   0.487   4.163  12.160  0.0027  3.0500  0.1835
 2833SOL    HW220136   0.358   4.100  12.122 -0.5339  0.3685  0.7885
 2834SOL     OW20137   4.158   1.711   3.155 -0.3936  0.2910 -0.2907
 2834SOL    HW120138   4.177   1.624   3.190  1.1465  0.0434 -1.7735
 2834SOL    HW220139   4.170   1.695   3.062  1.1651  2.9872 -0.5669
 2835SOL     OW20140   1.557   2.287   5.901 -0.3730  0.4847 -0.6894
 2835SOL    HW120141   1.484   2.265   5.959  0.0527  1.4481  0.2045
 2835SOL    HW220142   1.510   2.296   5.818 -1.4933 -0.7150 -0.1811
 2836SOL     OW20143   2.137   4.263   4.518  0.1124 -0.3129  1.0307
 2836SOL    HW120144   2.071   4.194   4.525  0.7511 -0.8401  1.7562
 2836SOL    HW220145   2.083   4.333   4.482 -2.6750 -0.6689  4.5973
 2837SOL     OW20146   2.777   4.267   5.093 -0.1521 -0.0683 -0.3014
 2837SOL    HW120147   2.859   4.265   5.044 -0.5944  0.0755 -1.0570
 2837SOL    HW220148   2.735   4.185   5.070  0.0237 -0.1998 -0.1530
 2838SOL     OW20149   1.842   1.148  16.855  0.3493 -0.0551 -0.1898
 2838SOL    HW120150   1.822   1.229  16.808 -0.6686 -0.4218 -0.3865
 2838SOL    HW220151   1.760   1.147  16.905  0.0621  0.7626 -0.6523
 2839SOL     OW20152   0.358   0.736   5.218  0.5184  0.1640 -0.0891
 2839SOL    HW120153   0.385   0.769   5.304  2.5595  0.2949 -0.7823
 2839SOL    HW220154   0.377   0.642   5.225  0.0772  0.2809  2.9864
 2840SOL     OW20155   0.861   0.967   2.310  0.1788 -0.3664  0.1258
 2840SOL    HW120156   0.933   0.909   2.288  2.2884  2.1617  0.4675
 2840SOL    HW220157   0.810   0.910   2.368  0.2142  1.7637  2.2435
 2841SOL     OW20158   4.442   0.475   3.107 -0.2997  0.2720 -0.1330
 2841SOL    HW120159   4.454   0.382   3.085 -1.1906  0.4516 -1.4184
 2841SOL    HW220160   4.471   0.513   3.024  1.5593  1.4574  1.0663
 2842SOL     OW20161   4.379   2.647   5.302 -0.2159 -0.2355 -0.8298
 2842SOL    HW120162   4.290   2.617   5.322 -1.1424  2.0983 -1.4361
 2842SOL    HW220163   4.393   2.626   5.210 -4.2001 -0.4300 -1.3930
 2843SOL     OW20164   3.100   1.361   2.185  0.1569  0.2232 -0.2189
 2843SOL    HW120165   3.117   1.267   2.173 -2.3318 -0.3837  0.9840
 2843SOL    HW220166   3.164   1.402   2.127 -1.3919 -1.4765 -3.0874
 2844SOL     OW20167   4.006   1.936   5.324 -0.2946 -0.4302  0.2655
 2844SOL    HW120168   3.918   1.932   5.287 -0.0689 -0.9882 -0.2121
 2844SOL    HW220169   4.052   1.965   5.246  2.4946  0.0361  2.0763
 2845SOL     OW20170   4.577   3.545  15.903 -0.4862 -0.0433 -0.4181
 2845SOL    HW120171   4.501   3.494  15.876 -0.3752  0.2326 -1.2473
 2845SOL    HW220172   4.539   3.631  15.882  2.8460  1.5973  0.1825
 2846SOL     OW20173   1.358   0.129   8.477  0.2124 -0.2404 -0.5252
 2846SOL    HW120174   1.362   0.224   8.475 -0.6432 -0.1716  1.1234
 2846SOL    HW220175   1.335   0.097   8.390  0.6481  4.1181 -2.2148
 2847SOL     OW20176   3.645   3.725  13.277  0.3952  0.3629  0.3276
 2847SOL    HW120177   3.626   3.632  13.287 -0.4974  0.3476 -1.5646
 2847SOL    HW220178   3.724   3.728  13.223 -2.0883 -1.6739 -3.4061
 2848SOL     OW20179   3.355   4.559  16.778 -0.1869 -0.0663 -0.6850
 2848SOL    HW120180   3.368   4.643  16.821  2.4794 -0.2077 -1.2231
 2848SOL    HW220181   3.435   4.550  16.728 -2.0688 -1.8827 -3.3754
 2849SOL     OW20182   1.796   2.707   2.845 -0.2274  0.4464  0.0325
 2849SOL    HW120183   1.717   2.683   2.893 -0.5088  4.2117  1.4466
 2849SOL    HW220184   1.852   2.726   2.921  1.4527  0.5835 -1.2243
 2850SOL     OW20185   1.346   0.967  14.766 -0.0875 -0.3118  0.0293
 2850SOL    HW120186   1.289   1.020  14.822 -0.3830 -0.2003 -0.3814
 2850SOL    HW220187   1.312   1.001  14.684 -0.1657 -1.7778 -0.5299
 2851SOL     OW20188   1.684   1.242   5.450  0.5711  0.0249 -0.5760
 2851SOL    HW120189   1.674   1.199   5.535  0.0445 -2.4999 -1.9245
 2851SOL    HW220190   1.598   1.280   5.431 -1.2322 -2.9836  1.5593
 2852SOL     OW20191   2.799   2.729   6.699 -0.5597  0.3101 -0.1291
 2852SOL    HW120192   2.761   2.813   6.726 -2.6415  0.0167 -2.1490
 2852SOL    HW220193   2.805   2.741   6.604  0.1798  2.3542  0.1815
 2853SOL     OW20194   0.111   4.177   6.459 -0.1375 -0.0982 -0.3151
 2853SOL    HW120195   0.020   4.184   6.489  0.0438 -0.5220  0.3189
 2853SOL    HW220196   0.112   4.239   6.386 -1.1652  0.0922 -0.1674
 2854SOL     OW20197   3.607   3.170  13.353  0.1714  0.6107 -0.7415
 2854SOL    HW120198   3.577   3.184  13.263  1.0948 -0.4111 -1.2044
 2854SOL    HW220199   3.688   3.221  13.351 -1.0986  2.6779  0.7631
 2855SOL     OW20200   3.324   1.342   4.783  0.4592 -0.5809  0.0452
 2855SOL    HW120201   3.393   1.405   4.764 -1.2115  1.2692  0.0830
 2855SOL    HW220202   3.297   1.365   4.872  4.5480 -1.6188  1.5616
 2856SOL     OW20203   1.474   3.711   6.773 -0.4387  0.6276  0.1644
 2856SOL    HW120204   1.457   3.767   6.849  1.9565  1.6154 -0.0373
 2856SOL    HW220205   1.470   3.620   6.803  0.8467  1.0078  1.4900
 2857SOL     OW20206   4.075   3.915   3.324 -0.2436 -0.2717 -0.0964
 2857SOL    HW120207   4.130   3.924   3.401 -3.4846  2.1465  1.9518
 2857SOL    HW220208   3.991   3.896   3.365 -0.0906 -1.7070 -0.4523
 2858SOL     OW20209   4.284   0.193   6.226  0.4197 -0.6573  0.0172
 2858SOL    HW120210   4.269   0.267   6.284  0.3736 -0.3066 -0.4476
 2858SOL    HW220211   4.364   0.161   6.268  1.0078  0.6894 -0.1081
 2859SOL     OW20212   4.213   3.671   6.603 -0.7217  0.3046 -0.2282
 2859SOL    HW120213   4.176   3.725   6.533 -1.2697 -1.5641 -1.3623
 2859SOL    HW220214   4.181   3.584   6.578  1.6838 -0.5221 -0.4279
 2860SOL     OW20215   1.986   0.290   8.015 -0.2364 -0.1944  0.0206
 2860SOL    HW120216   1.919   0.287   8.083  1.2036 -0.9333  1.4063
 2860SOL    HW220217   1.948   0.357   7.959  1.7045  0.0355 -1.0215
 2861SOL     OW20218   4.313   1.116   8.390 -0.1314 -0.3204 -0.4861
 2861SOL    HW120219   4.348   1.032   8.361 -1.5585 -0.5698 -1.4687
 2861SOL    HW220220   4.343   1.167   8.315 -0.8459 -1.3565 -1.4768
 2862SOL     OW20221   2.714   3.076   2.030  0.0431  0.2631 -0.2367
 2862SOL    HW120222   2.713   3.169   2.008  1.1877 -0.2630 -2.5424
 2862SOL    HW220223   2.768   3.038   1.960 -0.6985  1.5422 -1.4978
 2863SOL     OW20224   1.108   1.403  11.073 -0.3992  0.4161  0.4753
 2863SOL    HW120225   1.128   1.494  11.051  0.2164  0.1385 -0.0712
 2863SOL    HW220226   1.112   1.364  10.986 -3.0811  0.7373  0.1944
 2864SOL     OW20227   3.201   1.231   4.569 -0.6814  0.2376 -0.0801
 2864SOL    HW120228   3.237   1.268   4.649 -1.5105  1.0666 -0.0924
 2864SOL    HW220229   3.220   1.298   4.503  0.8316 -1.1172 -1.0203
 2865SOL     OW20230   1.108   2.165   8.696 -0.3260 -0.0721  0.1825
 2865SOL    HW120231   1.157   2.239   8.660  0.6223 -0.7634  0.0331
 2865SOL    HW220232   1.171   2.097   8.669 -0.5736  0.1840 -1.0536
 2866SOL     OW20233   2.790   0.534   6.336  0.5065  0.0946 -0.0936
 2866SOL    HW120234   2.818   0.558   6.425  2.1017 -1.5386 -0.1572
 2866SOL    HW220235   2.740   0.612   6.313 -0.5423  0.5101  3.4951
 2867SOL     OW20236   1.518   1.371   4.776 -0.2673 -0.0550  0.0694
 2867SOL    HW120237   1.541   1.348   4.686 -1.4032 -3.0270  0.5379
 2867SOL    HW220238   1.466   1.294   4.798 -3.0018  1.7735 -0.0186
 2868SOL     OW20239   2.956   2.112   3.049 -0.1724 -0.2839  0.2019
 2868SOL    HW120240   2.897   2.188   3.043  0.9137  0.4703 -1.0503
 2868SOL    HW220241   2.922   2.056   2.979  2.0167 -0.2401 -0.8932
 2869SOL     OW20242   2.448   1.300   7.708 -0.7301 -0.3659  0.8024
 2869SOL    HW120243   2.470   1.309   7.801  1.6978 -1.2548  0.3047
 2869SOL    HW220244   2.353   1.300   7.720 -1.0144 -0.0549 -1.4618
 2870SOL     OW20245   2.550   2.918   4.573 -1.0384  0.0154 -0.0036
 2870SOL    HW120246   2.546   2.884   4.662  0.7475  0.2111  0.1619
 2870SOL    HW220247   2.542   3.009   4.603 -0.3553 -0.4969  1.6839
 2871SOL     OW20248   1.893   3.067  14.124  0.1625 -0.6600  0.1545
 2871SOL    HW120249   1.972   3.114  14.150  1.0603 -1.7937 -0.5068
 2871SOL    HW220250   1.817   3.123  14.141 -0.2048 -1.0294 -0.2748
 2872SOL     OW20251   3.085   2.846   5.667  0.5965  0.1587 -0.0385
 2872SOL    HW120252   3.030   2.803   5.733  2.6720 -0.1360  1.4967
 2872SOL    HW220253   3.031   2.921   5.642 -0.2275  0.2821  2.1194
 2873SOL     OW20254   4.571   1.969   3.419  0.4929  0.1194  0.0968
 2873SOL    HW120255   4.494   1.992   3.471  0.0732 -1.2207  0.0685
 2873SOL    HW220256   4.534   1.962   3.331  0.4359 -0.2457  0.1499
 2874SOL     OW20257   0.157   1.694  13.201  0.2648  0.3624 -0.3600
 2874SOL    HW120258   0.117   1.780  13.212  1.3013  0.6993  0.6566
 2874SOL    HW220259   0.122   1.676  13.113 -2.8734  1.3348  0.7029
 2875SOL     OW20260   4.366   2.827   9.307  0.1793  0.0670 -0.0696
 2875SOL    HW120261   4.397   2.910   9.343 -1.7243 -0.1153  1.9354
 2875SOL    HW220262   4.441   2.768   9.307  0.4920  0.4895  1.7173
 2876SOL     OW20263   1.233   0.869   1.641 -0.0800 -0.4890  0.2362
 2876SOL    HW120264   1.221   0.913   1.725  1.5884  1.4434 -0.5358
 2876SOL    HW220265   1.250   0.777   1.663 -1.4752 -0.5354  1.0974
 2877SOL     OW20266   4.609   1.773   9.429  0.1274 -0.1873 -0.6802
 2877SOL    HW120267   4.681   1.781   9.366  1.5726  0.9004  1.1123
 2877SOL    HW220268   4.541   1.808   9.371  1.4539  1.5020 -1.2045
 2878SOL     OW20269   3.312   1.398  14.935 -0.6214  0.3045 -0.4827
 2878SOL    HW120270   3.316   1.422  15.027 -1.0701  1.6396 -0.8078
 2878SOL    HW220271   3.285   1.307  14.945 -2.4215  0.5312 -3.2729
 2879SOL     OW20272   4.604   1.684   7.036 -0.8783 -0.4451  0.3273
 2879SOL    HW120273   4.531   1.692   6.975 -0.2695  0.2451 -0.3156
 2879SOL    HW220274   4.640   1.597   7.020  0.6352  0.7702 -3.1016
 2880SOL     OW20275   0.879   0.643  16.254 -0.2326  0.0452 -0.3731
 2880SOL    HW120276   0.963   0.607  16.226 -1.3089 -1.5632 -1.5225
 2880SOL    HW220277   0.860   0.585  16.328 -0.9025  1.4349  0.5527
 2881SOL     OW20278   2.463   4.557   3.353  0.4856  0.6401  0.2467
 2881SOL    HW120279   2.420   4.491   3.299 -0.2274  2.1017 -0.9655
 2881SOL    HW220280   2.495   4.505   3.428 -0.2014  1.5278  1.1524
 2882SOL     OW20281   3.965   1.041   2.123 -0.0469 -0.1161 -0.1270
 2882SOL    HW120282   4.042   1.095   2.108  0.1407 -0.2660  0.2971
 2882SOL    HW220283   3.992   0.949   2.122  0.4978  0.0454  0.3295
 2883SOL     OW20284   3.102   0.217   6.576 -0.0278  0.0516  0.0513
 2883SOL    HW120285   3.017   0.257   6.560  0.1886 -0.5081 -2.4128
 2883SOL    HW220286   3.084   0.123   6.583 -1.1026  0.2063 -0.7015
 2884SOL     OW20287   0.914   0.239   9.980  0.3044  0.5452  0.2369
 2884SOL    HW120288   0.984   0.304   9.993 -0.6690  1.3234  1.5678
 2884SOL    HW220289   0.947   0.207   9.896  0.6868 -0.6234  0.8310
 2885SOL     OW20290   3.470   3.616  15.104 -0.2863 -0.0566 -0.6044
 2885SOL    HW120291   3.470   3.568  15.022 -0.2642  0.8574 -1.1347
 2885SOL    HW220292   3.375   3.612  15.117 -0.3381 -0.9079 -1.2928
 2886SOL     OW20293   4.445   1.176   2.670  0.4589 -0.5504 -0.1776
 2886SOL    HW120294   4.428   1.265   2.641  1.2562 -1.1145 -2.3622
 2886SOL    HW220295   4.385   1.120   2.620 -0.3424 -0.0173  0.1978
 2887SOL     OW20296   1.620   1.292  13.261  0.0870 -0.3279  0.6157
 2887SOL    HW120297   1.578   1.279  13.176 -0.4441 -1.1723  1.0062
 2887SOL    HW220298   1.706   1.252  13.254  0.3386  0.1268  1.1270
 2888SOL     OW20299   3.832   2.114   4.090  0.6716 -0.3872  0.3087
 2888SOL    HW120300   3.868   2.086   4.006 -0.0913  0.1769 -0.2114
 2888SOL    HW220301   3.779   2.189   4.065  0.6648 -0.6418 -0.4170
 2889SOL     OW20302   2.192   2.780   6.218  0.0817 -0.0275 -0.0532
 2889SOL    HW120303   2.160   2.692   6.200 -1.2708  0.1216  1.5711
 2889SOL    HW220304   2.175   2.787   6.312 -1.8580  0.8546 -0.4589
 2890SOL     OW20305   1.398   0.763   8.464  0.2014  0.0700  0.1267
 2890SOL    HW120306   1.376   0.855   8.452 -1.4761 -0.2982  0.4237
 2890SOL    HW220307   1.378   0.740   8.555 -0.0398 -0.6054 -0.0923
 2891SOL     OW20308   4.711   4.227   2.673 -0.9005 -0.4423 -0.8080
 2891SOL    HW120309   4.660   4.160   2.628 -0.3705 -0.7370 -0.9667
 2891SOL    HW220310   4.668   4.227   2.759  0.9384 -1.0191  0.0940
 2892SOL     OW20311   2.448   2.441   7.977  0.3549  0.2625 -0.6208
 2892SOL    HW120312   2.354   2.431   7.991  0.0416  0.9961 -2.2441
 2892SOL    HW220313   2.476   2.499   8.048  0.2368  1.2329 -1.3727
 2893SOL     OW20314   3.062   2.613   5.822  0.2669  0.3008  0.0680
 2893SOL    HW120315   3.019   2.602   5.907 -0.3806 -0.7835 -0.3992
 2893SOL    HW220316   3.154   2.620   5.847 -0.3396  2.5156  1.6728
 2894SOL     OW20317   2.537   2.708   3.917  0.3879  0.9192  0.3257
 2894SOL    HW120318   2.595   2.660   3.857  0.4093  1.0011  0.2800
 2894SOL    HW220319   2.472   2.638   3.917  0.3906  0.9376  1.8727
 2895SOL     OW20320   3.287   4.661   1.849 -0.1508 -0.0135 -0.8012
 2895SOL    HW120321   3.334   4.737   1.817  1.3704 -1.3570 -1.7701
 2895SOL    HW220322   3.196   4.685   1.833 -0.1247  0.4256 -0.2948
 2896SOL     OW20323   2.543   1.509   7.504  0.0385 -1.0273  0.9110
 2896SOL    HW120324   2.496   1.570   7.560 -0.5697 -2.1581  1.6483
 2896SOL    HW220325   2.527   1.427   7.552 -0.1515 -1.5520 -0.0572
 2897SOL     OW20326   2.297   3.269   7.163  0.3901  0.1123  0.0535
 2897SOL    HW120327   2.207   3.290   7.186  0.7633  1.7509  0.0264
 2897SOL    HW220328   2.297   3.175   7.182  3.1484 -0.2912 -1.8631
 2898SOL     OW20329   1.410   1.779   2.877  0.2170  0.0878  0.1792
 2898SOL    HW120330   1.499   1.751   2.856  0.0294 -0.8780  0.6944
 2898SOL    HW220331   1.428   1.815   2.964  1.2805  1.6926 -0.6952
 2899SOL     OW20332   4.107   0.658   8.846 -0.1790  0.0344  0.2499
 2899SOL    HW120333   4.173   0.684   8.910  1.7299 -0.6816 -1.4264
 2899SOL    HW220334   4.169   0.611   8.791 -0.3442  0.1622 -0.0431
 2900SOL     OW20335   3.420   2.554  15.196 -0.8519  0.2520 -0.3090
 2900SOL    HW120336   3.513   2.572  15.210 -0.4843 -0.6097 -1.8050
 2900SOL    HW220337   3.398   2.492  15.266 -4.9635  1.0177 -0.9234
 2901SOL     OW20338   1.907   1.592   7.483  0.1693 -0.0744 -0.4025
 2901SOL    HW120339   1.929   1.652   7.412  0.0131  0.0306 -0.3636
 2901SOL    HW220340   1.983   1.544   7.516 -0.6352 -0.9514  0.1817
 2902SOL     OW20341   0.664   1.456   9.528 -0.3139  0.7681 -0.0443
 2902SOL    HW120342   0.676   1.506   9.447  1.6861 -0.6286 -0.6079
 2902SOL    HW220343   0.591   1.498   9.574  0.0351 -0.5987  1.7282
 2903SOL     OW20344   4.111   0.074   3.408 -0.0018 -0.0943 -0.0746
 2903SOL    HW120345   4.147   0.034   3.329 -0.5908  1.5238 -1.1517
 2903SOL    HW220346   4.146   0.162   3.417 -0.4240  0.3794 -3.0488
 2904SOL     OW20347   0.189   2.332  14.609  0.1070 -0.1308 -0.2966
 2904SOL    HW120348   0.267   2.301  14.563  0.3697  1.0155 -0.6342
 2904SOL    HW220349   0.199   2.285  14.691 -1.3152 -0.2007 -0.1641
 2905SOL     OW20350   2.204   4.409   5.731  0.2581 -0.2846  0.1133
 2905SOL    HW120351   2.150   4.357   5.672  0.7768 -0.1083 -0.5164
 2905SOL    HW220352   2.287   4.398   5.684 -1.2112 -0.2205 -2.5049
 2906SOL     OW20353   0.198   3.770   3.420 -0.2288 -0.0424  0.7930
 2906SOL    HW120354   0.258   3.813   3.360  0.2453 -1.1879  0.4401
 2906SOL    HW220355   0.144   3.842   3.451 -0.9081  0.2332 -1.0048
 2907SOL     OW20356   4.528   3.947   5.562  0.7733  0.3403  0.3891
 2907SOL    HW120357   4.594   3.940   5.631 -0.3242  1.6023  1.5632
 2907SOL    HW220358   4.517   4.042   5.560 -0.3241  0.2320  1.5174
 2908SOL     OW20359   1.557   1.545   2.501  0.2314  0.0007  0.0125
 2908SOL    HW120360   1.609   1.473   2.537 -0.3972 -0.0567  0.8159
 2908SOL    HW220361   1.623   1.614   2.510  2.6281 -2.3141 -0.0352
 2909SOL     OW20362   3.150   1.306   1.638 -0.1159  0.1735 -0.0789
 2909SOL    HW120363   3.241   1.289   1.614  0.1919 -2.2589  2.7399
 2909SOL    HW220364   3.139   1.398   1.616  1.9433  0.8620  1.7841
 2910SOL     OW20365   0.002   2.887   8.445 -0.1187 -0.1791 -0.7018
 2910SOL    HW120366   0.078   2.940   8.471 -0.7278 -0.4121  1.5898
 2910SOL    HW220367   4.674   2.912   8.510 -0.3199 -0.1672 -0.9155
 2911SOL     OW20368   3.371   2.438   4.634  0.3500  0.2649 -1.3629
 2911SOL    HW120369   3.466   2.450   4.639  0.1883  0.8390  0.2720
 2911SOL    HW220370   3.335   2.516   4.677  0.0827  0.1111 -1.3060
 2912SOL     OW20371   0.678   2.174   3.854 -0.2264  0.5458 -0.3154
 2912SOL    HW120372   0.647   2.139   3.937  0.6136 -0.3018 -0.3620
 2912SOL    HW220373   0.704   2.262   3.880  1.1560  0.2179 -0.5932
 2913SOL     OW20374   3.927   3.310  11.083 -0.0141 -0.1147 -0.0390
 2913SOL    HW120375   3.924   3.219  11.052  1.1272 -0.6677  1.4559
 2913SOL    HW220376   3.865   3.315  11.155 -1.7008  2.9154 -1.7106
 2914SOL     OW20377   0.060   1.404   8.964 -0.4027 -0.0098 -0.1243
 2914SOL    HW120378   0.099   1.364   8.886 -1.1134  1.5959 -1.2937
 2914SOL    HW220379   4.708   1.378   8.959 -0.8329  1.7439 -1.4606
 2915SOL     OW20380   1.818   2.782  15.195 -0.2458  1.0060 -0.3037
 2915SOL    HW120381   1.764   2.779  15.274  2.2822  1.8037  1.4603
 2915SOL    HW220382   1.768   2.830  15.130 -1.6137 -0.0039  0.0126
 2916SOL     OW20383   4.029   0.954   6.288  0.2108  0.7179  0.9593
 2916SOL    HW120384   4.103   0.894   6.286  0.8919  1.6311 -0.6152
 2916SOL    HW220385   4.037   0.980   6.380 -1.5753  0.4993  1.1753
 2917SOL     OW20386   2.244   0.399   0.626 -0.4395 -0.2473 -0.4007
 2917SOL    HW120387   2.155   0.366   0.634 -1.2615  1.6395 -1.5878
 2917SOL    HW220388   2.282   0.352   0.700  1.7971  1.9278 -0.1662
 2918SOL     OW20389   1.266   4.407   2.050 -0.1312 -0.2593  0.1261
 2918SOL    HW120390   1.171   4.415   2.054  0.0481  2.2569 -0.7867
 2918SOL    HW220391   1.257   4.312   2.043 -1.9207 -0.1599  1.2824
 2919SOL     OW20392   3.316   1.860   1.508  0.1967  0.3524 -0.3300
 2919SOL    HW120393   3.281   1.948   1.498 -0.4632  0.3225  1.7172
 2919SOL    HW220394   3.281   1.806   1.437 -0.5308 -0.7975  0.9027
 2920SOL     OW20395   1.056   3.117   7.338 -0.1552  0.5843  0.4072
 2920SOL    HW120396   1.058   3.046   7.402 -0.4064 -0.2873 -0.5323
 2920SOL    HW220397   1.060   3.191   7.397  2.5216 -0.6539  1.7706
 2921SOL     OW20398   3.543   1.504   4.759 -0.4445 -0.4649  0.2096
 2921SOL    HW120399   3.566   1.543   4.675  1.3451  0.9167  1.3430
 2921SOL    HW220400   3.594   1.423   4.765  1.8793  1.0036  0.2835
 2922SOL     OW20401   3.044   2.621   3.592  0.5367 -0.3138  0.3317
 2922SOL    HW120402   2.973   2.587   3.538  1.6374 -0.8084 -0.8376
 2922SOL    HW220403   3.071   2.544   3.643 -0.5960  0.0098  1.3860
 2923SOL     OW20404   1.712   2.718  11.625 -0.1360 -0.1711 -0.9514
 2923SOL    HW120405   1.806   2.699  11.625 -0.4866 -1.8930  0.9411
 2923SOL    HW220406   1.686   2.720  11.717 -0.3773  0.7013 -1.0375
 2924SOL     OW20407   0.220   1.500   1.781  0.2924 -0.4020  0.6417
 2924SOL    HW120408   0.126   1.509   1.793  0.3417  1.2915 -0.2056
 2924SOL    HW220409   0.255   1.573   1.833  1.6683 -1.2144  0.8455
 2925SOL     OW20410   0.880   0.067   4.587 -0.6117 -0.4155 -0.0747
 2925SOL    HW120411   0.785   0.078   4.595 -0.8956 -1.1745 -2.3763
 2925SOL    HW220412   0.902   0.160   4.588  1.0141 -0.8102  0.1733
 2926SOL     OW20413   4.062   3.637   2.429  0.4539 -0.0510  0.3328
 2926SOL    HW120414   4.037   3.562   2.482 -1.1184  1.4454  1.7040
 2926SOL    HW220415   4.072   3.705   2.495  1.0259  1.1868 -1.0276
 2927SOL     OW20416   3.451   1.570   5.877  0.1501 -0.5437  0.9614
 2927SOL    HW120417   3.435   1.643   5.938 -0.2260  0.7537 -0.6894
 2927SOL    HW220418   3.526   1.595   5.823 -0.6043 -2.0977 -0.7986
 2928SOL     OW20419   2.688   4.648   7.607 -0.5644 -0.1942  0.0830
 2928SOL    HW120420   2.751   4.720   7.609 -0.1470 -0.5799  0.8063
 2928SOL    HW220421   2.607   4.684   7.571 -0.7604 -1.5777 -0.8060
 2929SOL     OW20422   4.652   3.047   9.619 -0.3098 -0.5211 -0.5006
 2929SOL    HW120423   4.701   2.968   9.599 -0.5066 -0.5960 -0.6963
 2929SOL    HW220424   4.686   3.066   9.707  0.9071  0.8145 -1.2632
 2930SOL     OW20425   0.605   1.877   0.193  0.2798  0.3941  0.3212
 2930SOL    HW120426   0.630   1.935   0.265 -0.9873  0.3308  0.8031
 2930SOL    HW220427   0.582   1.797   0.241  0.1962  0.6810  0.7539
 2931SOL     OW20428   3.432   4.580   9.486 -0.4909 -0.1198  0.2378
 2931SOL    HW120429   3.468   4.565   9.398  0.7393  0.4786  0.6325
 2931SOL    HW220430   3.398   4.669   9.479  0.6250  0.5099  2.8575
 2932SOL     OW20431   3.567   3.462   1.155 -0.0980  0.2199 -0.2308
 2932SOL    HW120432   3.514   3.421   1.087  1.1453  0.7221 -1.4918
 2932SOL    HW220433   3.650   3.416   1.143 -1.0885 -1.7886  0.5707
 2933SOL     OW20434   2.281   0.004   4.249 -0.0694  0.4420  0.3874
 2933SOL    HW120435   2.312   4.654   4.263  0.2550  0.7113  1.3481
 2933SOL    HW220436   2.314   0.023   4.161  1.3884 -1.8690  0.4337
 2934SOL     OW20437   4.123   3.506  10.363 -0.0646 -0.7192  0.3755
 2934SOL    HW120438   4.103   3.444  10.293  1.5570  0.8946 -1.5340
 2934SOL    HW220439   4.195   3.558  10.325  0.8307 -1.6516  0.7804
 2935SOL     OW20440   0.973   3.046   3.726  0.7605  0.4942  0.6400
 2935SOL    HW120441   0.975   2.962   3.679 -0.2836  0.5814  0.4513
 2935SOL    HW220442   0.881   3.050   3.753  0.1131 -1.1575 -1.3752
 2936SOL     OW20443   3.529   1.723   8.008  0.3830 -0.0085  0.0415
 2936SOL    HW120444   3.510   1.729   8.102 -3.0926  0.4969 -0.6830
 2936SOL    HW220445   3.535   1.627   8.000 -1.4177 -0.1092 -0.0718
 2937SOL     OW20446   3.506   3.954   8.542 -0.4829 -0.1561 -0.5221
 2937SOL    HW120447   3.508   3.979   8.450 -0.3351  0.4045 -0.3685
 2937SOL    HW220448   3.417   3.925   8.562 -1.5074  1.5222 -2.7809
 2938SOL     OW20449   1.914   2.306   0.578 -0.5173  0.4476 -0.3247
 2938SOL    HW120450   1.830   2.352   0.580  1.1234  3.4386 -0.3135
 2938SOL    HW220451   1.966   2.376   0.618  2.3336 -1.2487 -1.0706
 2939SOL     OW20452   1.105   3.154   8.984 -0.7668  0.7277 -0.3406
 2939SOL    HW120453   1.069   3.113   9.062 -0.0320  1.0339  0.1575
 2939SOL    HW220454   1.120   3.077   8.929 -2.1900 -0.2311  0.6250
 2940SOL     OW20455   2.525   3.870   9.120 -0.6741 -0.1916  0.3043
 2940SOL    HW120456   2.450   3.924   9.144 -1.9287 -1.1612 -1.4878
 2940SOL    HW220457   2.499   3.838   9.034  1.7039  1.1440 -0.9281
 2941SOL     OW20458   2.968   0.922   9.579  0.2301  0.3949 -0.3766
 2941SOL    HW120459   2.972   1.018   9.578 -2.3938  0.5104 -0.2842
 2941SOL    HW220460   2.886   0.906   9.532  0.0736  0.3715 -0.0968
 2942SOL     OW20461   3.126   0.384   8.694  0.1122  0.0398  0.3385
 2942SOL    HW120462   3.037   0.362   8.669  0.2526 -3.1276  2.5651
 2942SOL    HW220463   3.102   0.475   8.716  0.8052  0.9529 -2.7580
 2943SOL     OW20464   0.289   3.158   8.012  0.0649  0.1535  0.2453
 2943SOL    HW120465   0.268   3.248   8.038  1.2031  0.7227 -0.8056
 2943SOL    HW220466   0.212   3.141   7.958  1.6831 -0.6832 -1.8206
 2944SOL     OW20467   2.691   4.685   3.562 -0.4743 -0.0812 -0.2926
 2944SOL    HW120468   2.718   4.599   3.528  1.6680  1.7068 -3.0573
 2944SOL    HW220469   2.648   4.709   3.479  0.0739  1.0130 -0.2546
 2945SOL     OW20470   4.448   2.646   7.455 -0.0797 -0.2036 -0.6281
 2945SOL    HW120471   4.434   2.696   7.374  0.1115  1.6471  0.4865
 2945SOL    HW220472   4.358   2.625   7.478 -0.4657 -0.6820 -2.6191
 2946SOL     OW20473   4.557   2.864   0.622 -0.0413 -0.2915 -0.2876
 2946SOL    HW120474   4.569   2.959   0.617 -1.3895 -0.0004  1.8001
 2946SOL    HW220475   4.553   2.836   0.531 -0.3795  0.2679 -0.4394
 2947SOL     OW20476   0.557   3.146   6.961 -0.4098  0.0187 -0.3739
 2947SOL    HW120477   0.576   3.052   6.956 -0.9610 -0.1967  1.6674
 2947SOL    HW220478   0.649   3.171   6.970 -0.5275  0.2106  0.2822
 2948SOL     OW20479   1.764   3.262   9.945  0.3963  0.0466  0.2995
 2948SOL    HW120480   1.748   3.344   9.991  1.4308 -0.8930  2.3772
 2948SOL    HW220481   1.851   3.277   9.906 -1.1679  0.2228 -3.1020
 2949SOL     OW20482   1.416   4.634   9.963  0.1791 -0.5166 -0.3507
 2949SOL    HW120483   1.483   4.566   9.958 -1.2845 -1.8406 -2.0599
 2949SOL    HW220484   1.471   4.705   9.996  0.0912  0.1216 -1.5364
 2950SOL     OW20485   1.429   4.611   3.489  0.0507 -0.0088 -0.1244
 2950SOL    HW120486   1.372   4.581   3.419  0.7549 -0.7238 -0.3893
 2950SOL    HW220487   1.513   4.591   3.447 -0.5186  1.4126 -1.9457
 2951SOL     OW20488   1.518   2.950   8.431  0.1604  0.2165  0.3752
 2951SOL    HW120489   1.485   3.009   8.498  0.6948  0.3442  0.5260
 2951SOL    HW220490   1.516   3.004   8.353  1.3702 -0.6457 -0.2541
 2952SOL     OW20491   4.567   1.246   8.953 -0.1776  0.3742  0.4081
 2952SOL    HW120492   4.474   1.262   8.942 -0.2214  1.0506  1.6449
 2952SOL    HW220493   4.570   1.185   9.027 -1.0652  1.2867  1.1890
 2953SOL     OW20494   0.539   4.121   5.946  0.4963  0.0725 -0.7258
 2953SOL    HW120495   0.533   4.089   6.036  0.8134  0.3101 -0.6221
 2953SOL    HW220496   0.453   4.163   5.938  0.6505  0.4764 -0.1906
 2954SOL     OW20497   0.275   2.837   7.805 -0.1432 -0.2275  0.7032
 2954SOL    HW120498   0.358   2.840   7.853  0.2424 -1.1275  0.0937
 2954SOL    HW220499   0.293   2.765   7.744  0.8026  1.5553 -1.1079
 2955SOL     OW20500   0.553   4.306   4.266 -0.5857  0.2344 -0.1056
 2955SOL    HW120501   0.474   4.336   4.220 -1.0668 -1.5176 -0.4224
 2955SOL    HW220502   0.532   4.318   4.358 -0.4635 -1.2030  0.1036
 2956SOL     OW20503   2.250   4.614   6.718  0.6152 -0.0531  0.6173
 2956SOL    HW120504   2.159   4.620   6.687  0.6684 -0.2971  0.4154
 2956SOL    HW220505   2.288   4.699   6.694  0.4227 -0.5284 -1.3391
 2957SOL     OW20506   1.945   2.874   8.042  0.0362  0.1359  0.3204
 2957SOL    HW120507   1.887   2.943   8.009 -0.0435  0.5760  1.3814
 2957SOL    HW220508   1.921   2.802   7.983  0.9589  0.9011 -0.9997
 2958SOL     OW20509   4.226   3.803   0.874  0.5127 -0.5395 -0.3800
 2958SOL    HW120510   4.229   3.884   0.824  0.6598  0.1754  0.7919
 2958SOL    HW220511   4.155   3.808   0.937  1.0230 -2.9658  0.3970
 2959SOL     OW20512   0.415   0.797   3.045  0.2764 -0.1648  0.4640
 2959SOL    HW120513   0.428   0.869   3.108  1.4981 -1.0300  1.1986
 2959SOL    HW220514   0.429   0.725   3.106  0.2350 -0.8324 -0.3140
 2960SOL     OW20515   2.938   2.511   3.339  0.4424 -0.0058 -0.3266
 2960SOL    HW120516   3.005   2.452   3.305 -1.4348  0.1284 -4.2255
 2960SOL    HW220517   2.915   2.579   3.276 -0.9047  0.1471  0.3157
 2961SOL     OW20518   3.560   4.730   3.590 -0.6723  0.5330  0.2789
 2961SOL    HW120519   3.485   0.012   3.645 -0.0479  2.5653  0.3257
 2961SOL    HW220520   3.541   0.012   3.498  1.9312  2.3126  0.1661
 2962SOL     OW20521   4.254   1.757   5.286 -0.0442  0.1735  1.0708
 2962SOL    HW120522   4.264   1.704   5.206  0.0692 -0.6837  1.6525
 2962SOL    HW220523   4.215   1.825   5.231  0.6884  0.8417  1.3871
 2963SOL     OW20524   0.770   2.004  17.132 -0.3840 -0.1592 -0.7598
 2963SOL    HW120525   0.691   1.969  17.174 -0.8316  1.4637 -0.2038
 2963SOL    HW220526   0.764   1.960  17.048 -0.8881  0.3040 -0.9697
 2964SOL     OW20527   2.195   4.506  16.127  0.6064  0.1309 -0.7042
 2964SOL    HW120528   2.278   4.520  16.173  0.8735 -3.1012 -0.2137
 2964SOL    HW220529   2.162   4.431  16.177 -0.5526  0.7622 -0.5126
 2965SOL     OW20530   1.149   2.922   3.354  0.2204 -0.1069  0.0276
 2965SOL    HW120531   1.123   3.008   3.387  1.2325  0.0751  0.3348
 2965SOL    HW220532   1.231   2.949   3.313  0.0540 -1.1876 -0.9989
 2966SOL     OW20533   0.944   3.133   5.218 -0.3514 -0.0707  0.2234
 2966SOL    HW120534   1.011   3.197   5.243  0.6013 -1.4490  1.2262
 2966SOL    HW220535   0.877   3.155   5.282 -0.1526 -3.1290  1.4719
 2967SOL     OW20536   4.719   0.747   8.799 -0.6625 -0.2459  0.1267
 2967SOL    HW120537   4.735   0.757   8.893  0.7126 -2.7871  0.1578
 2967SOL    HW220538   4.699   0.838   8.778  2.8481  0.5489  0.1955
 2968SOL     OW20539   3.895   3.335   7.632  0.1196 -0.6369 -0.1002
 2968SOL    HW120540   3.990   3.324   7.627  0.2655  0.3191  0.7178
 2968SOL    HW220541   3.862   3.308   7.546  2.6358  0.0566 -1.2828
 2969SOL     OW20542   2.073   1.547   4.756  0.2979 -0.6173 -0.2932
 2969SOL    HW120543   1.979   1.565   4.758  0.8592  2.4012 -0.2135
 2969SOL    HW220544   2.102   1.569   4.845 -0.7427  2.5905 -0.7474
 2970SOL     OW20545   1.662   3.729   1.721 -0.5137 -0.3816 -0.0632
 2970SOL    HW120546   1.675   3.672   1.645 -0.9190 -0.2394 -0.2421
 2970SOL    HW220547   1.567   3.738   1.723 -0.3727  1.2371 -0.2441
 2971SOL     OW20548   2.308   1.401   6.028 -0.8526  0.2696 -0.3261
 2971SOL    HW120549   2.331   1.334   5.963  0.6377  0.6003 -0.1507
 2971SOL    HW220550   2.395   1.415   6.066 -0.3622  0.1344 -1.3854
 2972SOL     OW20551   4.592   4.610   3.693 -0.3368 -0.2705 -0.1918
 2972SOL    HW120552   4.587   4.692   3.741  1.8073  0.1573 -0.6869
 2972SOL    HW220553   4.684   4.585   3.702 -0.4129  0.0677  1.4732
 2973SOL     OW20554   3.883   1.361   2.141  0.0418  0.3564  0.4156
 2973SOL    HW120555   3.857   1.438   2.191 -0.4301  0.0954  0.5703
 2973SOL    HW220556   3.807   1.305   2.156 -0.8742  0.9435 -2.0097
 2974SOL     OW20557   0.127   3.695   7.187 -0.1583  0.5976 -0.0668
 2974SOL    HW120558   0.136   3.788   7.164 -2.1568  0.8207  0.0257
 2974SOL    HW220559   0.159   3.699   7.277 -1.2546 -1.2073  0.4108
 2975SOL     OW20560   2.011   4.240   6.325  0.0280  0.6237  0.6440
 2975SOL    HW120561   2.073   4.202   6.388  0.4861  0.8929  0.3599
 2975SOL    HW220562   1.945   4.172   6.333  0.2453 -0.1337 -4.3808
 2976SOL     OW20563   1.238   4.344   6.261 -0.5319  0.2453  0.4627
 2976SOL    HW120564   1.267   4.416   6.205 -2.4628 -0.4427 -1.3822
 2976SOL    HW220565   1.239   4.271   6.199  2.0360  1.6258 -1.1275
 2977SOL     OW20566   3.652   2.586   0.607 -0.2491  0.1647 -0.2539
 2977SOL    HW120567   3.595   2.554   0.677 -0.1739  0.3574 -0.1031
 2977SOL    HW220568   3.740   2.552   0.623  0.1736  1.7515  0.7851
 2978SOL     OW20569   3.102   3.797   3.642 -0.5633  0.0797 -0.8060
 2978SOL    HW120570   3.079   3.742   3.567 -1.9284 -2.5818  1.5880
 2978SOL    HW220571   3.135   3.728   3.700 -1.4693  0.2513 -0.0960
 2979SOL     OW20572   0.755   2.980   1.510  0.0411  0.1122 -0.0961
 2979SOL    HW120573   0.734   2.992   1.602  0.7562 -3.6704  0.5512
 2979SOL    HW220574   0.715   2.895   1.490 -0.4446  0.6830 -1.6093
 2980SOL     OW20575   1.693   3.011   7.020  0.0706  0.1397 -0.5221
 2980SOL    HW120576   1.718   2.949   6.951  1.2016 -0.1878  0.1994
 2980SOL    HW220577   1.608   2.969   7.035  0.4566 -0.2392  0.5644
 2981SOL     OW20578   3.316   1.014   3.293 -0.1287  0.6288  0.4175
 2981SOL    HW120579   3.227   1.050   3.300 -0.5128 -0.1299 -0.4816
 2981SOL    HW220580   3.318   0.999   3.198 -0.6133 -0.3712  0.5658
 2982SOL     OW20581   2.748   0.907   4.999 -0.0708 -0.2290  0.3527
 2982SOL    HW120582   2.705   0.930   4.916 -0.4971  1.1504  0.9524
 2982SOL    HW220583   2.831   0.955   4.999 -0.9211  1.2480 -1.1204
 2983SOL     OW20584   0.394   1.872   1.323  0.2208  0.0587 -0.0559
 2983SOL    HW120585   0.475   1.821   1.326  0.5512  0.6344  0.7964
 2983SOL    HW220586   0.340   1.819   1.382  1.6677  0.3493  1.5374
 2984SOL     OW20587   3.932   1.778   2.269  0.6467 -0.5627 -0.1830
 2984SOL    HW120588   3.892   1.785   2.182  0.6416  1.9146  0.0066
 2984SOL    HW220589   3.882   1.699   2.292  1.9085 -1.4596 -0.5579
 2985SOL     OW20590   3.521   4.061   1.022 -0.2714 -0.5715  0.6555
 2985SOL    HW120591   3.466   4.088   0.949 -1.1364 -0.7091  1.2465
 2985SOL    HW220592   3.479   3.988   1.069 -1.4582 -0.5209 -0.3285
 2986SOL     OW20593   0.366   3.075   4.245  0.2962  0.4550 -0.1325
 2986SOL    HW120594   0.401   2.990   4.271  1.4104  0.9141 -0.1419
 2986SOL    HW220595   0.364   3.068   4.149 -1.3537 -1.6168  0.0553
 2987SOL     OW20596   3.885   3.315   4.031  0.3363  0.8333  0.2139
 2987SOL    HW120597   3.954   3.262   4.070  0.7569  1.2122 -0.0101
 2987SOL    HW220598   3.940   3.387   3.998  0.2605 -0.8320 -3.4940
 2988SOL     OW20599   4.489   4.010   9.218  0.0207 -0.8129 -0.0704
 2988SOL    HW120600   4.466   4.075   9.284 -0.5192 -1.7973  0.6933
 2988SOL    HW220601   4.466   4.060   9.139 -0.5509 -1.0518 -0.0536
 2989SOL     OW20602   3.026   1.880  10.701 -0.1391 -0.0858 -0.1432
 2989SOL    HW120603   3.068   1.880  10.787  2.4752 -2.5311 -1.3752
 2989SOL    HW220604   3.033   1.972  10.676  2.9843 -0.2436  0.1509
 2990SOL     OW20605   0.127   3.777   2.261 -0.5780 -0.2854  0.2937
 2990SOL    HW120606   0.180   3.823   2.197  0.7180  0.5289  1.9445
 2990SOL    HW220607   0.193   3.761   2.329 -2.1471  0.7674  2.0745
 2991SOL     OW20608   1.812   3.821   6.533  0.0207 -0.6171 -0.4060
 2991SOL    HW120609   1.735   3.769   6.510  1.0903 -2.0126 -0.8273
 2991SOL    HW220610   1.876   3.776   6.478  1.5896  1.1153 -0.0083
 2992SOL     OW20611   1.874   1.494  11.982 -0.9826 -0.1379 -0.1149
 2992SOL    HW120612   1.846   1.522  12.069  0.3287  1.0528 -0.0792
 2992SOL    HW220613   1.793   1.494  11.932 -0.3343  0.6162 -1.1661
 2993SOL     OW20614   2.700   1.730   5.743  0.1959 -0.7612  0.2127
 2993SOL    HW120615   2.610   1.714   5.774  0.0844  1.3364  0.9842
 2993SOL    HW220616   2.681   1.757   5.654 -2.8327 -0.1851  1.0303
 2994SOL     OW20617   3.268   2.976   4.826  0.0842  0.1503  0.4636
 2994SOL    HW120618   3.183   3.006   4.793 -1.2907 -1.1663  2.8324
 2994SOL    HW220619   3.327   3.016   4.762 -1.9323  1.8726 -0.3302
 2995SOL     OW20620   1.555   0.849  12.077 -0.0302 -0.0400  0.2387
 2995SOL    HW120621   1.499   0.833  12.153  2.3163 -3.0277  1.3569
 2995SOL    HW220622   1.544   0.762  12.038 -1.3090 -0.4003  1.4209
 2996SOL     OW20623   4.401   4.498   7.537  0.3165 -0.3175  0.2117
 2996SOL    HW120624   4.435   4.552   7.608  0.8911 -1.8050  1.0943
 2996SOL    HW220625   4.324   4.460   7.578 -0.3121  0.5703 -0.1629
 2997SOL     OW20626   4.437   2.599   2.725  0.9680  0.0848 -0.1749
 2997SOL    HW120627   4.480   2.651   2.658  0.9818  1.1717  0.6684
 2997SOL    HW220628   4.506   2.605   2.791  0.9121  0.9146 -0.1936
 2998SOL     OW20629   4.393   2.537   2.202 -0.0345 -0.2053 -0.0821
 2998SOL    HW120630   4.343   2.512   2.279 -1.2016  0.1456 -0.7283
 2998SOL    HW220631   4.335   2.601   2.162  0.0930 -0.1064 -0.1091
 2999SOL     OW20632   1.750   0.395  10.621  0.1220 -0.1774  0.0406
 2999SOL    HW120633   1.773   0.417  10.711  0.0532 -2.3604  0.6051
 2999SOL    HW220634   1.665   0.354  10.639 -0.5972  0.2851 -2.2297
 3000SOL     OW20635   2.785   2.670   2.311 -0.0769 -0.3982  0.0892
 3000SOL    HW120636   2.714   2.608   2.296 -1.5524  1.4753 -0.5845
 3000SOL    HW220637   2.757   2.748   2.264  1.6519 -0.3295 -0.8281
 3001SOL     OW20638   0.985   1.640  16.469  1.2204 -0.2132  0.4004
 3001SOL    HW120639   0.948   1.553  16.459 -2.5116  1.2313  1.6219
 3001SOL    HW220640   1.007   1.647  16.562  0.6585  0.2083  0.5018
 3002SOL     OW20641   3.346   4.545   5.018 -0.1234  0.2266  0.1855
 3002SOL    HW120642   3.340   4.488   4.941  2.4895 -0.5739  0.5828
 3002SOL    HW220643   3.289   4.616   4.988  0.9805  1.0727  0.0955
 3003SOL     OW20644   1.471   1.378   5.340  0.0638  0.3799  0.3840
 3003SOL    HW120645   1.491   1.437   5.267  1.2749  0.4835  0.7983
 3003SOL    HW220646   1.376   1.369   5.332  0.2883 -1.2597 -0.5303
 3004SOL     OW20647   2.454   4.708   4.008 -0.1120 -0.2174 -0.2546
 3004SOL    HW120648   2.468   4.732   3.917  2.5171 -0.4569  0.1073
 3004SOL    HW220649   2.414   4.621   3.998 -1.8283  0.5737 -0.2470
 3005SOL     OW20650   0.157   3.584   6.939  0.2564 -0.5049 -0.0321
 3005SOL    HW120651   0.147   3.601   7.033  1.0857 -0.8103  0.1125
 3005SOL    HW220652   0.099   3.652   6.904 -0.5372 -1.7388 -1.0727
 3006SOL     OW20653   3.748   1.065   2.713 -0.3339 -0.3515  0.1615
 3006SOL    HW120654   3.750   1.103   2.626 -2.8493 -2.4034 -0.8038
 3006SOL    HW220655   3.825   1.007   2.718 -0.2591 -0.2258  0.4812
 3007SOL     OW20656   2.792   0.926   5.914 -0.1298 -0.0504 -0.3338
 3007SOL    HW120657   2.779   0.860   5.983  0.6301 -0.5329 -0.6591
 3007SOL    HW220658   2.887   0.937   5.924  0.3289 -3.1475 -1.4782
 3008SOL     OW20659   4.373   0.800   7.702  0.7311 -0.9451 -0.3775
 3008SOL    HW120660   4.362   0.877   7.758 -1.4638 -0.2330 -1.7591
 3008SOL    HW220661   4.468   0.802   7.691  0.9209  4.5528  2.1046
 3009SOL     OW20662   0.858   4.084   2.456  0.6276 -0.6519  0.7253
 3009SOL    HW120663   0.789   4.072   2.391  0.5016 -1.4965  1.0272
 3009SOL    HW220664   0.853   4.176   2.483  1.6614 -0.5806  0.6867
 3010SOL     OW20665   4.396   1.396   8.745 -0.0124 -0.5415 -0.1507
 3010SOL    HW120666   4.314   1.351   8.721  1.0450 -1.5645 -1.8815
 3010SOL    HW220667   4.445   1.372   8.666  0.7412 -1.4240  0.5922
 3011SOL     OW20668   0.763   1.624   6.117  0.1582 -0.0253 -0.0238
 3011SOL    HW120669   0.686   1.573   6.142 -0.5149  1.2971  0.6263
 3011SOL    HW220670   0.755   1.692   6.184  0.6213  1.3603 -1.3947
 3012SOL     OW20671   4.224   3.800   2.256 -0.5084 -0.2722  0.3842
 3012SOL    HW120672   4.195   3.713   2.285  3.7602 -1.6817  0.4060
 3012SOL    HW220673   4.264   3.776   2.173  0.7397 -0.1591  0.9498
 3013SOL     OW20674   0.082   0.951   9.488  0.3801 -0.3393  0.0018
 3013SOL    HW120675   0.071   1.005   9.567 -0.0319  0.1982 -0.4274
 3013SOL    HW220676   0.044   1.015   9.428  0.4322  0.1954  0.5378
 3014SOL     OW20677   1.240   3.370   9.052  0.1188 -0.0871  0.0277
 3014SOL    HW120678   1.198   3.291   9.021  0.3139  0.2759 -1.1570
 3014SOL    HW220679   1.328   3.362   9.014  0.0076  1.7755 -0.6571
 3015SOL     OW20680   1.389   0.309   7.373  0.0447  0.0277  0.3310
 3015SOL    HW120681   1.463   0.360   7.408 -0.4495  1.1872 -0.3457
 3015SOL    HW220682   1.319   0.373   7.383 -1.0322 -1.2177  0.6922
 3016SOL     OW20683   1.755   1.618   2.096  0.2432 -0.4558 -0.0223
 3016SOL    HW120684   1.817   1.684   2.063 -2.6295  2.5425  0.6234
 3016SOL    HW220685   1.668   1.648   2.070  0.8425  2.4061  1.2540
 3017SOL     OW20686   2.573   1.577   0.422  0.4411  0.1337 -0.7299
 3017SOL    HW120687   2.650   1.589   0.366  1.5536 -1.8377  0.4113
 3017SOL    HW220688   2.531   1.509   0.368  1.3118  1.0666 -2.6003
 3018SOL     OW20689   4.728   1.589   6.164  0.3457  0.4227  0.2169
 3018SOL    HW120690   4.675   1.511   6.145  3.0083 -1.1798 -0.6159
 3018SOL    HW220691   0.076   1.561   6.139  0.6279 -1.0755  2.8089
 3019SOL     OW20692   3.702   2.040   8.486 -1.3875 -0.8363 -0.4354
 3019SOL    HW120693   3.704   1.962   8.542 -0.6176 -0.4596  0.0499
 3019SOL    HW220694   3.639   2.011   8.419 -1.2616  0.8297 -1.2729
 3020SOL     OW20695   3.952   3.812   4.383  0.0894  0.2939 -0.1379
 3020SOL    HW120696   3.945   3.876   4.454 -0.4689  1.6157 -1.3788
 3020SOL    HW220697   3.871   3.823   4.333 -0.5793  2.0088  1.3391
 3021SOL     OW20698   4.088   4.257   2.816 -0.1088 -0.3438 -0.3208
 3021SOL    HW120699   4.019   4.320   2.839 -0.4200 -0.0808 -2.0180
 3021SOL    HW220700   4.145   4.270   2.892 -0.8640  0.1895  0.1571
 3022SOL     OW20701   3.390   2.487  12.545  0.0793  0.0228  0.2268
 3022SOL    HW120702   3.321   2.553  12.540 -1.0549 -1.1550  0.7792
 3022SOL    HW220703   3.409   2.498  12.638  3.2807 -1.1343 -0.2750
 3023SOL     OW20704   0.942   4.022  15.778  0.0401  0.0820  0.1677
 3023SOL    HW120705   1.018   3.965  15.782 -0.3447 -0.2537  2.5259
 3023SOL    HW220706   0.978   4.105  15.748  0.5920  1.5255  4.8523
 3024SOL     OW20707   3.407   2.635  16.812  0.3364  0.0306  0.0654
 3024SOL    HW120708   3.428   2.683  16.732  1.8506 -1.8939 -0.6741
 3024SOL    HW220709   3.457   2.558  16.788  0.9144 -0.4581  2.7801
 3025SOL     OW20710   3.831   0.066   3.654 -0.3685 -0.0893  0.0399
 3025SOL    HW120711   3.741   0.040   3.635 -0.5877  0.1664  0.7223
 3025SOL    HW220712   3.858   0.003   3.720 -0.6875  0.4986  0.7304
 3026SOL     OW20713   0.420   0.941   7.829  0.1136 -0.3811 -0.0123
 3026SOL    HW120714   0.458   0.854   7.817  2.5660  0.7372 -0.4476
 3026SOL    HW220715   0.463   0.983   7.754 -2.1042  0.2743 -0.9328
 3027SOL     OW20716   2.270   0.260   2.685  0.0314  0.0533 -0.0714
 3027SOL    HW120717   2.346   0.273   2.741 -0.0107 -1.2108  0.2825
 3027SOL    HW220718   2.197   0.284   2.743 -0.5471  1.4501 -1.3701
 3028SOL     OW20719   3.172   4.365  11.928  0.3684  0.2595 -0.0296
 3028SOL    HW120720   3.103   4.371  11.862  0.4965 -2.1503 -0.4107
 3028SOL    HW220721   3.237   4.427  11.896  0.8678 -0.5258 -0.5579
 3029SOL     OW20722   0.081   1.886   5.400 -0.7394 -0.2736 -0.0738
 3029SOL    HW120723   0.140   1.884   5.475  0.9157  0.6884 -1.3443
 3029SOL    HW220724   0.002   1.917   5.445  0.5690  3.6601 -0.5195
 3030SOL     OW20725   2.310   0.939   2.453 -0.4836 -0.3430  0.0008
 3030SOL    HW120726   2.374   0.962   2.520  1.1416 -2.6289 -0.7691
 3030SOL    HW220727   2.360   0.881   2.397 -1.3484  0.6084 -1.7630
 3031SOL     OW20728   4.547   1.288   4.210 -0.2838  0.3030 -0.6892
 3031SOL    HW120729   4.617   1.352   4.200  0.1036 -0.1705 -1.0503
 3031SOL    HW220730   4.514   1.285   4.120  1.1987 -0.7145 -1.1944
 3032SOL     OW20731   1.900   4.267   2.568 -0.4904 -0.5161  0.3244
 3032SOL    HW120732   1.930   4.352   2.600 -1.4968 -0.1278  0.2441
 3032SOL    HW220733   1.877   4.281   2.476 -0.5824 -0.1957  0.3965
 3033SOL     OW20734   3.889   2.323  14.775  0.6703 -0.3822 -0.7235
 3033SOL    HW120735   3.933   2.398  14.816 -2.0752 -0.0007  1.4970
 3033SOL    HW220736   3.827   2.364  14.715  0.3642 -1.9807 -1.5138
 3034SOL     OW20737   4.486   0.314   8.083  0.3551 -0.6212  0.2972
 3034SOL    HW120738   4.545   0.364   8.027  1.4565 -1.8418  0.3696
 3034SOL    HW220739   4.475   0.378   8.154  1.0626  0.3687 -0.4843
 3035SOL     OW20740   3.204   0.038   5.396 -0.7531  0.0267  0.1946
 3035SOL    HW120741   3.130   0.003   5.446 -0.1886 -0.7981  0.4530
 3035SOL    HW220742   3.264   4.704   5.397  1.2113  1.6212 -1.9200
 3036SOL     OW20743   3.648   0.590   8.064 -0.0538 -0.5100  0.1705
 3036SOL    HW120744   3.691   0.672   8.041 -2.4119  0.1143 -2.0018
 3036SOL    HW220745   3.556   0.618   8.068  0.3336  1.0400 -1.8891
 3037SOL     OW20746   3.926   3.050   2.273  0.0626  0.6443 -0.1550
 3037SOL    HW120747   3.993   3.018   2.334  2.3075  0.0610 -2.9468
 3037SOL    HW220748   3.932   2.988   2.200 -1.5156  2.4950 -1.8451
 3038SOL     OW20749   2.880   1.575   3.248  0.5395 -0.3808 -0.2983
 3038SOL    HW120750   2.784   1.577   3.243  0.5337  0.4419  0.2145
 3038SOL    HW220751   2.895   1.613   3.161  1.4089  1.2236  0.5460
 3039SOL     OW20752   1.929   1.152   0.577 -0.7822 -0.4887 -0.3720
 3039SOL    HW120753   1.929   1.170   0.483 -2.9093  1.8647  0.0745
 3039SOL    HW220754   1.922   1.245   0.598  0.4289 -0.2867 -0.8264
 3040SOL     OW20755   1.427   3.463  14.559  0.1173  0.3700 -0.1689
 3040SOL    HW120756   1.355   3.462  14.495 -0.0900  1.1699  0.0511
 3040SOL    HW220757   1.379   3.467  14.642 -0.4056 -1.8791 -0.3808
 3041SOL     OW20758   1.812   1.755   7.740  0.1431 -0.4448  0.4058
 3041SOL    HW120759   1.811   1.850   7.747 -1.1101 -0.5871  2.2277
 3041SOL    HW220760   1.844   1.735   7.652  0.9060  1.8339  0.1730
 3042SOL     OW20761   2.097   0.636   6.952  0.3863 -0.6974 -0.7385
 3042SOL    HW120762   2.035   0.622   6.880  0.6556  0.8239 -1.2664
 3042SOL    HW220763   2.171   0.590   6.914  0.0944 -1.2603 -0.6261
 3043SOL     OW20764   2.741   1.404   2.755 -0.7290  0.4198  0.1634
 3043SOL    HW120765   2.676   1.460   2.797 -1.2412 -1.3638  1.7098
 3043SOL    HW220766   2.730   1.425   2.662  1.8579  0.0129 -0.2223
 3044SOL     OW20767   2.019   0.784   5.867 -0.0966  0.1035 -0.7932
 3044SOL    HW120768   1.953   0.800   5.933  0.1321  1.0403 -0.7873
 3044SOL    HW220769   1.962   0.775   5.791  0.0693  0.0170 -0.9097
 3045SOL     OW20770   3.243   1.488   8.855  0.0935  0.1043 -0.0739
 3045SOL    HW120771   3.186   1.447   8.791  1.5618 -1.1362 -0.5898
 3045SOL    HW220772   3.315   1.426   8.867 -0.2467 -0.5965 -1.6644
 3046SOL     OW20773   3.667   4.458   5.507  0.1860 -0.5077 -0.0515
 3046SOL    HW120774   3.713   4.447   5.424  2.4327 -2.2267  1.4150
 3046SOL    HW220775   3.705   4.385   5.557 -0.1537 -0.7318 -0.1221
 3047SOL     OW20776   0.416   3.702  16.767 -0.5465  0.2362 -0.3872
 3047SOL    HW120777   0.463   3.666  16.693 -0.6762  0.3671 -0.5345
 3047SOL    HW220778   0.368   3.765  16.713 -1.0330  1.5344  1.5196
 3048SOL     OW20779   4.197   2.151   3.931 -0.0411 -0.4084 -0.3705
 3048SOL    HW120780   4.223   2.090   4.000  0.7619  1.2918  0.8233
 3048SOL    HW220781   4.155   2.219   3.985  0.0779  1.2374 -2.3457
 3049SOL     OW20782   3.318   3.282   1.427 -0.5215 -0.5146  0.3576
 3049SOL    HW120783   3.283   3.270   1.339  2.1225 -0.4041 -0.7103
 3049SOL    HW220784   3.408   3.254   1.408 -0.5987 -0.3263 -0.2919
 3050SOL     OW20785   3.622   1.821   0.359  0.3374 -0.0711 -0.0886
 3050SOL    HW120786   3.600   1.734   0.392  0.1791  0.8330  2.1727
 3050SOL    HW220787   3.677   1.859   0.428  0.2897 -0.6402  0.2558
 3051SOL     OW20788   3.948   3.794  11.144 -0.2700  0.2615 -0.3443
 3051SOL    HW120789   4.008   3.813  11.216 -0.6544  0.7140 -0.1443
 3051SOL    HW220790   3.867   3.807  11.192 -0.1455 -0.9474  0.1915
 3052SOL     OW20791   2.888   3.515  15.938  0.7027 -0.3655 -0.2347
 3052SOL    HW120792   2.896   3.439  15.995  1.9577  1.3454  1.8720
 3052SOL    HW220793   2.851   3.585  15.991  3.3158 -0.2976  1.4847
 3053SOL     OW20794   0.068   3.717   0.828 -0.0385  0.8370  0.1905
 3053SOL    HW120795   0.014   3.780   0.780 -0.9685 -1.4986 -1.8091
 3053SOL    HW220796   0.094   3.783   0.892 -1.9425  0.6678  1.1633
 3054SOL     OW20797   3.208   4.423  15.719 -0.0392  0.0157  0.6842
 3054SOL    HW120798   3.192   4.339  15.760 -0.4671  0.4069  1.3107
 3054SOL    HW220799   3.236   4.385  15.636 -2.6354  0.4461 -0.4081
 3055SOL     OW20800   2.553   3.184  13.014  0.2209  0.6874  0.0167
 3055SOL    HW120801   2.484   3.145  12.960 -1.0614  1.6201  0.9802
 3055SOL    HW220802   2.613   3.210  12.944 -2.0592  0.3713 -2.0347
 3056SOL     OW20803   0.845   2.355   2.790 -0.1736 -0.3762 -0.1601
 3056SOL    HW120804   0.797   2.437   2.803  1.8363  0.7776  0.0750
 3056SOL    HW220805   0.783   2.288   2.763 -1.6862  0.1680  1.9345
 3057SOL     OW20806   0.555   2.316   4.126  0.5898 -0.6405  0.2993
 3057SOL    HW120807   0.526   2.225   4.129 -1.2069 -0.0594  0.3762
 3057SOL    HW220808   0.598   2.328   4.211  1.2083 -1.7212  0.1519
 3058SOL     OW20809   1.958   3.888  14.497  0.0707  0.6246 -0.3671
 3058SOL    HW120810   1.870   3.924  14.493 -0.5152 -0.8397 -0.8297
 3058SOL    HW220811   1.946   3.805  14.451  2.9465  0.8338 -1.5083
 3059SOL     OW20812   3.693   1.125  15.213 -0.1984 -0.5586 -0.5172
 3059SOL    HW120813   3.620   1.161  15.164  1.3127  2.6095 -0.4269
 3059SOL    HW220814   3.747   1.201  15.192 -0.5045  0.1476  1.2365
 3060SOL     OW20815   1.420   2.198   4.980 -0.2830 -0.0847  0.3365
 3060SOL    HW120816   1.506   2.228   4.949 -0.1311 -1.0061 -0.1433
 3060SOL    HW220817   1.390   2.171   4.893  1.6163  4.2870 -1.6634
 3061SOL     OW20818   3.492   4.387   8.899  0.1418  0.0245  0.1732
 3061SOL    HW120819   3.399   4.370   8.915  0.4724  0.5053  2.5752
 3061SOL    HW220820   3.520   4.407   8.988  0.1123  3.5166 -0.6092
 3062SOL     OW20821   1.765   4.065   4.771 -0.2816 -0.1966 -0.3385
 3062SOL    HW120822   1.808   4.069   4.856  0.2035 -1.7474 -0.5203
 3062SOL    HW220823   1.708   3.989   4.773 -1.8329  0.9700 -0.3493
 3063SOL     OW20824   3.869   3.901   9.568 -0.7367 -0.0982 -0.2577
 3063SOL    HW120825   3.811   3.834   9.531 -1.6617  1.4170 -1.5289
 3063SOL    HW220826   3.813   3.964   9.613 -1.5554 -0.7989 -0.3090
 3064SOL     OW20827   3.120   0.380  13.623 -0.2786 -0.7918  0.1707
 3064SOL    HW120828   3.208   0.352  13.596  0.2599  1.5516 -0.4738
 3064SOL    HW220829   3.123   0.364  13.718 -2.1911 -2.6130 -0.0737
 3065SOL     OW20830   2.716   1.002   2.877 -0.1994  0.1620  0.4501
 3065SOL    HW120831   2.773   0.976   2.949 -0.6778  3.4362  1.9773
 3065SOL    HW220832   2.633   1.008   2.923  0.0273  0.9382  0.7607
 3066SOL     OW20833   4.539   3.902  10.290  0.2225  0.1897  0.6977
 3066SOL    HW120834   4.629   3.876  10.311  0.0677  0.2813  1.4952
 3066SOL    HW220835   4.541   3.913  10.195 -0.3551 -1.6719  0.4781
 3067SOL     OW20836   4.323   4.519   0.080  0.0612 -0.6322  0.0218
 3067SOL    HW120837   4.256   4.586   0.068  0.8141  0.1835  0.3739
 3067SOL    HW220838   4.357   4.518  17.746  2.1963  1.1048  0.8033
 3068SOL     OW20839   0.879   1.918   7.987  0.3587 -0.2790  0.4497
 3068SOL    HW120840   0.840   1.945   8.070 -1.7675 -0.0791 -0.6174
 3068SOL    HW220841   0.854   1.826   7.988 -0.8803  0.0693  1.4601
 3069SOL     OW20842   0.650   1.150  13.086 -0.2938 -0.2849  0.5899
 3069SOL    HW120843   0.572   1.171  13.136 -0.0937  0.6984  0.4820
 3069SOL    HW220844   0.652   1.058  13.111 -0.8669 -0.3061  0.5469
 3070SOL     OW20845   0.335   0.409   0.425  0.0757 -0.1545 -0.1114
 3070SOL    HW120846   0.391   0.407   0.502 -1.1827 -0.3337  0.7975
 3070SOL    HW220847   0.320   0.315   0.415 -1.2844  0.0707 -0.1028
 3071SOL     OW20848   0.048   1.413   2.945 -0.0864  0.2480 -0.3881
 3071SOL    HW120849   0.112   1.351   2.980 -0.8812 -1.0177 -1.1781
 3071SOL    HW220850   4.706   1.364   2.930 -1.0301  1.0187  2.1887
 3072SOL     OW20851   0.098   2.492   2.006  0.1293 -0.1592  0.7291
 3072SOL    HW120852   0.042   2.561   1.972  1.4883  0.7101  0.2454
 3072SOL    HW220853   0.029   2.435   2.040 -0.2955  1.3943  2.4732
 3073SOL     OW20854   1.426   2.755   4.100 -0.4872  0.3984 -0.5231
 3073SOL    HW120855   1.404   2.810   4.025 -1.0057  1.0000  0.0720
 3073SOL    HW220856   1.380   2.671   4.094  0.2246  0.1063 -1.7493
 3074SOL     OW20857   0.046   0.168   6.798  0.8363 -0.3783 -0.0433
 3074SOL    HW120858   0.019   0.092   6.745 -0.3634  2.0236 -2.9087
 3074SOL    HW220859   0.121   0.208   6.754  1.7846 -0.0398  1.8914
 3075SOL     OW20860   2.636   1.972  10.728 -0.1061 -0.6532  0.4082
 3075SOL    HW120861   2.666   1.980  10.818  2.0529 -0.6304 -0.3218
 3075SOL    HW220862   2.645   1.878  10.715 -1.4006 -0.5920 -0.9409
 3076SOL     OW20863   4.140   3.514  11.619  0.3781 -1.0910  0.5378
 3076SOL    HW120864   4.064   3.515  11.561  0.2919  0.4171  0.6850
 3076SOL    HW220865   4.093   3.500  11.701 -0.2152  0.5753  0.4806
 3077SOL     OW20866   3.749   4.235   4.434 -0.4796 -0.3744 -0.2941
 3077SOL    HW120867   3.676   4.203   4.381 -0.6197  0.7045 -0.7537
 3077SOL    HW220868   3.716   4.224   4.523  2.8736  1.0288  1.0898
 3078SOL     OW20869   4.592   0.788   6.225 -0.0258 -0.2580  0.2332
 3078SOL    HW120870   4.648   0.840   6.282  0.3722  0.8722 -1.1749
 3078SOL    HW220871   4.513   0.842   6.233 -1.0806 -1.8165  0.2189
 3079SOL     OW20872   4.032   0.968   9.745  0.3769 -0.5464  0.6107
 3079SOL    HW120873   3.940   0.989   9.762  0.9275 -0.5634  3.5373
 3079SOL    HW220874   4.064   1.039   9.690 -0.3753 -1.3532 -0.8891
 3080SOL     OW20875   3.884   2.189   1.144  0.0092  0.6554 -0.0944
 3080SOL    HW120876   3.796   2.170   1.178  0.1901  0.7102  0.4001
 3080SOL    HW220877   3.861   2.249   1.073 -0.7754  0.1667 -0.2527
 3081SOL     OW20878   4.306   1.008   2.514 -0.0773  0.1462  0.1087
 3081SOL    HW120879   4.218   1.047   2.515  0.6383  1.7040  1.6437
 3081SOL    HW220880   4.292   0.913   2.513  0.1747  0.1234 -0.9244
 3082SOL     OW20881   3.386   1.538   0.625  0.3355 -0.5970 -0.0972
 3082SOL    HW120882   3.414   1.487   0.700  1.5635 -0.3600 -0.4005
 3082SOL    HW220883   3.318   1.587   0.672  0.7189 -1.5982  1.4848
 3083SOL     OW20884   2.590   3.586   5.266 -0.2926  0.7273  0.0875
 3083SOL    HW120885   2.633   3.503   5.246  0.7713  0.8292  1.9524
 3083SOL    HW220886   2.614   3.585   5.358  1.5227 -1.7697 -0.4052
 3084SOL     OW20887   3.058   1.341   1.202  0.2569 -0.2496  0.3254
 3084SOL    HW120888   3.130   1.380   1.152  1.7091 -1.4050  1.4929
 3084SOL    HW220889   3.038   1.266   1.146 -0.1170  0.3096 -0.2863
 3085SOL     OW20890   4.099   3.124   7.511 -0.5607  0.6044  0.1951
 3085SOL    HW120891   4.174   3.183   7.516  0.6472 -0.8384 -1.2652
 3085SOL    HW220892   4.132   3.036   7.494  1.2663  1.3969 -0.3205
 3086SOL     OW20893   3.000   4.603   7.257  0.3693 -0.5892  0.6722
 3086SOL    HW120894   3.021   4.556   7.338  1.7550 -0.4183  0.4110
 3086SOL    HW220895   3.085   4.618   7.216  0.6943 -1.0215  1.1916
 3087SOL     OW20896   4.325   4.618   3.812  0.0885  0.4565  0.6909
 3087SOL    HW120897   4.316   4.539   3.759 -0.7190  0.4219  0.8953
 3087SOL    HW220898   4.420   4.612   3.821  0.3426  2.4376 -0.4729
 3088SOL     OW20899   1.325   3.567   9.591 -0.2291 -1.2223 -0.3564
 3088SOL    HW120900   1.370   3.561   9.507  1.4239 -1.6553  0.5600
 3088SOL    HW220901   1.308   3.661   9.582  2.0769 -0.4419  3.7236
 3089SOL     OW20902   3.131   4.379  11.049  0.2980 -0.2585 -0.2874
 3089SOL    HW120903   3.109   4.288  11.032  1.4643 -0.1125 -2.5682
 3089SOL    HW220904   3.061   4.436  11.017 -0.6807 -0.9312  0.6249
 3090SOL     OW20905   0.518   3.154   5.105 -0.0031  0.0971 -0.0714
 3090SOL    HW120906   0.460   3.082   5.129 -0.2527 -0.1382 -1.3981
 3090SOL    HW220907   0.522   3.214   5.179  0.9694 -0.5595  0.4027
 3091SOL     OW20908   4.035   1.765   0.373 -0.0782  0.1974 -0.2063
 3091SOL    HW120909   3.961   1.705   0.365  0.9717 -1.3456  1.7545
 3091SOL    HW220910   4.107   1.726   0.323 -0.5660  0.6177 -1.2507
 3092SOL     OW20911   1.332   4.047  15.165  0.3969  0.6599 -0.2550
 3092SOL    HW120912   1.415   4.041  15.211 -0.7148 -1.8318  1.4430
 3092SOL    HW220913   1.354   4.132  15.128  1.6100  0.3593 -0.2101
 3093SOL     OW20914   0.962   1.335   4.037 -0.0549  0.2052 -0.0097
 3093SOL    HW120915   0.966   1.244   4.067  0.2121 -0.0975 -0.9618
 3093SOL    HW220916   0.871   1.358   4.018  0.1815  0.3619 -0.9702
 3094SOL     OW20917   2.476   2.336  15.049  0.5021  0.2682 -0.2699
 3094SOL    HW120918   2.563   2.305  15.024  1.1078  1.3227  0.5205
 3094SOL    HW220919   2.483   2.321  15.143 -1.1377 -1.5101 -0.4212
 3095SOL     OW20920   1.104   3.080   6.583  0.4521  0.1123  0.4792
 3095SOL    HW120921   1.199   3.084   6.572  0.4481  1.7503  1.0570
 3095SOL    HW220922   1.099   3.175   6.593  1.1614  0.2213 -0.1483
 3096SOL     OW20923   1.713   1.289  14.046 -0.7729 -0.0457  0.5752
 3096SOL    HW120924   1.670   1.229  14.107 -1.2362  3.0966  3.3373
 3096SOL    HW220925   1.763   1.225  13.995 -2.4053 -1.1680  0.4136
 3097SOL     OW20926   3.737   0.863   6.389  0.2207  0.6704  0.1069
 3097SOL    HW120927   3.678   0.818   6.451  0.4561  0.0477 -0.1206
 3097SOL    HW220928   3.808   0.799   6.395  0.3283  0.8180  0.3917
 3098SOL     OW20929   2.235   4.371   3.269  0.3928 -0.1820 -0.6834
 3098SOL    HW120930   2.271   4.354   3.182 -0.9553  0.8624 -1.4389
 3098SOL    HW220931   2.142   4.354   3.257  0.5448 -1.2830 -0.3709
 3099SOL     OW20932   0.421   3.961   6.514  0.1693  0.6791 -0.4783
 3099SOL    HW120933   0.505   4.002   6.493  1.3463 -0.3524  2.1804
 3099SOL    HW220934   0.382   4.029   6.570 -0.9004  1.4739 -2.1933
 3100SOL     OW20935   1.740   2.398   6.561  0.3458 -0.0611  0.2392
 3100SOL    HW120936   1.669   2.350   6.604  1.4420 -0.0548  2.0285
 3100SOL    HW220937   1.759   2.448   6.640  0.5263  0.5871 -0.2115
 3101SOL     OW20938   1.303   1.941   1.808  0.1333 -0.1008  0.6721
 3101SOL    HW120939   1.328   2.017   1.861  0.6883 -0.6513  1.2124
 3101SOL    HW220940   1.391   1.924   1.774  0.3323  2.7921 -0.3133
 3102SOL     OW20941   3.930   0.816  11.285 -0.1200 -0.6720 -0.5880
 3102SOL    HW120942   3.903   0.828  11.376  3.2006 -0.9137  0.4199
 3102SOL    HW220943   4.008   0.763  11.299  1.1030  1.3413  0.2865
 3103SOL     OW20944   3.861   2.015  12.917  0.3710  0.5284  0.0123
 3103SOL    HW120945   3.788   2.066  12.953  0.2299  0.6130 -0.3940
 3103SOL    HW220946   3.837   1.923  12.916  0.1550  0.5919 -0.6517
 3104SOL     OW20947   2.136   2.399   6.833  0.1178  0.3311 -0.3038
 3104SOL    HW120948   2.109   2.433   6.748 -0.3865  0.8768  0.0749
 3104SOL    HW220949   2.153   2.308   6.809  2.1504  0.4441  0.7181
 3105SOL     OW20950   2.717   4.606   7.869 -0.2872  0.1498 -0.0450
 3105SOL    HW120951   2.645   4.544   7.861 -0.0605 -0.0512 -0.5173
 3105SOL    HW220952   2.708   4.643   7.781 -0.7507  0.8615  0.3011
 3106SOL     OW20953   4.543   0.850   6.840 -0.2082 -0.0588 -0.2439
 3106SOL    HW120954   4.568   0.859   6.932  0.8885  0.1441 -0.5671
 3106SOL    HW220955   4.453   0.823   6.855 -0.2334 -0.0828 -0.4318
 3107SOL     OW20956   3.757   4.146   4.723 -0.3455 -0.2127 -0.1318
 3107SOL    HW120957   3.844   4.118   4.754  0.1329  0.7500 -0.6243
 3107SOL    HW220958   3.701   4.074   4.752 -0.0866 -1.4357 -2.6938
 3108SOL     OW20959   2.991   0.481   3.626 -0.8186  0.1704 -0.1206
 3108SOL    HW120960   2.955   0.536   3.695 -1.7469  0.1667 -0.6114
 3108SOL    HW220961   2.953   0.518   3.546  0.5253  1.5240 -0.1445
 3109SOL     OW20962   4.311   3.583   1.780 -0.1686  0.1192 -0.0135
 3109SOL    HW120963   4.307   3.537   1.864 -1.1276 -3.9564 -2.2831
 3109SOL    HW220964   4.341   3.513   1.722 -2.2859 -1.1892  0.4452
 3110SOL     OW20965   0.171   3.816   9.748 -0.7285  0.4616 -0.2494
 3110SOL    HW120966   0.194   3.859   9.666  2.0031 -2.0460 -0.8155
 3110SOL    HW220967   0.242   3.752   9.761  0.0621  1.5949  1.0655
 3111SOL     OW20968   1.562   3.357   0.302  0.3060  0.1462 -0.2088
 3111SOL    HW120969   1.509   3.331   0.378  1.7373  0.4120  0.8930
 3111SOL    HW220970   1.565   3.452   0.303 -0.5657  0.1541  1.4160
 3112SOL     OW20971   3.655   1.461   1.621  0.1996 -0.9635 -0.2800
 3112SOL    HW120972   3.657   1.546   1.665  1.9878 -0.8682 -0.5353
 3112SOL    HW220973   3.646   1.497   1.533  2.0352 -0.0387 -0.0852
 3113SOL     OW20974   1.163   0.283  16.488  0.2089 -0.4069 -0.1924
 3113SOL    HW120975   1.257   0.267  16.482 -0.1073 -1.6739 -1.8118
 3113SOL    HW220976   1.149   0.325  16.403 -0.9596  1.8936  1.1302
 3114SOL     OW20977   4.374   4.623  16.844 -0.4870  0.0675  0.3079
 3114SOL    HW120978   4.428   4.584  16.775  0.1373  3.6075 -1.2425
 3114SOL    HW220979   4.405   4.583  16.925  4.1302  0.8911 -1.0782
 3115SOL     OW20980   4.305   0.353   8.881  0.2892  0.0444  0.5899
 3115SOL    HW120981   4.328   0.281   8.940 -0.3441  0.5062  1.4043
 3115SOL    HW220982   4.339   0.426   8.934 -1.4056  1.5015 -0.3187
 3116SOL     OW20983   2.846   0.639  10.236 -0.2930  0.1395 -0.3071
 3116SOL    HW120984   2.756   0.633  10.204 -0.2149 -1.1391 -0.2701
 3116SOL    HW220985   2.866   0.554  10.274  2.2311  1.5830  1.5908
 3117SOL     OW20986   2.630   0.666   8.331  0.1735 -0.3764 -0.0237
 3117SOL    HW120987   2.586   0.601   8.386 -0.0289 -0.3433 -0.1480
 3117SOL    HW220988   2.708   0.690   8.382 -1.0675  1.1106  1.2209
 3118SOL     OW20989   3.945   1.536   6.248 -0.4244 -0.6962 -0.4557
 3118SOL    HW120990   4.034   1.544   6.282 -0.9462 -0.1236  0.7839
 3118SOL    HW220991   3.959   1.501   6.159  1.3036 -1.6663  0.1860
 3119SOL     OW20992   1.997   2.841   3.577 -0.0058 -0.0062  0.4798
 3119SOL    HW120993   1.949   2.914   3.615  0.5259  0.8761 -0.5651
 3119SOL    HW220994   2.024   2.796   3.657  1.2070  0.1576  0.1543
 3120SOL     OW20995   3.640   0.101   9.328  0.8802 -0.0318 -0.1472
 3120SOL    HW120996   3.559   0.135   9.288 -0.4040 -0.0552  2.4348
 3120SOL    HW220997   3.642   0.171   9.393 -4.3333  0.8154 -0.8249
 3121SOL     OW20998   3.630   0.698  14.345 -0.1957 -0.1628  0.0410
 3121SOL    HW120999   3.590   0.654  14.420 -1.1881 -1.3753 -1.2102
 3121SOL    HW221000   3.693   0.634  14.311 -0.4795 -1.8625  2.6551
 3122SOL     OW21001   4.212   3.323   9.282 -0.1644 -0.1308 -0.4898
 3122SOL    HW121002   4.244   3.413   9.291 -0.9402  0.0477  0.5639
 3122SOL    HW221003   4.170   3.301   9.365 -0.2420 -1.0823 -0.7874
 3123SOL     OW21004   3.171   3.564  17.731 -0.2510  0.6052 -0.8078
 3123SOL    HW121005   3.183   3.656  17.708  0.3326  0.7583  0.0815
 3123SOL    HW221006   3.108   3.575   0.047  2.0946 -2.8032  1.7567
 3124SOL     OW21007   1.169   4.136   2.812  0.2652  0.1341 -0.3626
 3124SOL    HW121008   1.227   4.129   2.736  0.7127 -3.5331  0.3022
 3124SOL    HW221009   1.233   4.185   2.864 -0.0436  0.9235 -0.7322
 3125SOL     OW21010   0.323   4.385   3.905 -0.3100  0.0168  0.4265
 3125SOL    HW121011   0.324   4.294   3.936  2.3423 -0.3084 -0.6292
 3125SOL    HW221012   0.321   4.441   3.982 -0.8964 -0.4961  0.7845
 3126SOL     OW21013   3.316   4.062  11.365  0.7549  0.2609 -0.3472
 3126SOL    HW121014   3.386   4.122  11.390  0.2115  0.8390 -0.1997
 3126SOL    HW221015   3.327   3.992  11.429  0.3641  0.2851 -0.2499
 3127SOL     OW21016   1.747   2.252   2.096 -0.2133  0.1291  0.3959
 3127SOL    HW121017   1.805   2.211   2.032  1.3228  0.5231  1.5621
 3127SOL    HW221018   1.740   2.177   2.156 -2.9421 -0.1614 -0.2665
 3128SOL     OW21019   0.417   1.927   9.713  0.4312  0.1304  0.2448
 3128SOL    HW121020   0.481   1.973   9.658  0.9606 -0.3108  0.4923
 3128SOL    HW221021   0.338   1.966   9.674  1.4714  1.9556 -0.0300
 3129SOL     OW21022   3.277   1.368   1.936 -0.3460  0.4314 -0.0605
 3129SOL    HW121023   3.350   1.371   1.874  1.2352 -0.4412  1.7695
 3129SOL    HW221024   3.268   1.273   1.935 -2.6952  0.6809 -1.5254
 3130SOL     OW21025   3.220   4.123  16.906  0.6394  0.1473  0.3842
 3130SOL    HW121026   3.225   4.180  16.829  2.2623  2.7088  2.4086
 3130SOL    HW221027   3.126   4.107  16.915  0.7048  0.6252  1.9043
 3131SOL     OW21028   1.569   3.103   9.907  0.0003  0.5200  0.0510
 3131SOL    HW121029   1.555   3.120   9.814 -0.8829  0.6874  0.2147
 3131SOL    HW221030   1.632   3.174   9.919 -0.4357  0.6569  1.6003
 3132SOL     OW21031   3.481   1.076  14.710  0.5544 -0.2660  0.1135
 3132SOL    HW121032   3.442   0.990  14.725 -1.2619  0.6097  0.3951
 3132SOL    HW221033   3.540   1.056  14.638  1.1256  0.0309  0.4952
 3133SOL     OW21034   1.224   1.953  16.583  0.0629  0.6290 -0.0518
 3133SOL    HW121035   1.281   1.987  16.514 -0.5971  0.0846 -0.8759
 3133SOL    HW221036   1.194   2.038  16.615 -0.3185  0.9429 -1.2449
 3134SOL     OW21037   1.068   4.668   4.803 -0.4825  0.3690  0.3138
 3134SOL    HW121038   1.048   4.728   4.875 -0.7726  2.0765 -1.1915
 3134SOL    HW221039   0.993   4.678   4.744 -0.8319  1.7943  1.0031
 3135SOL     OW21040   1.364   0.646   4.846 -0.9394  0.1408 -0.2908
 3135SOL    HW121041   1.299   0.580   4.869  0.5142 -1.7620 -1.5318
 3135SOL    HW221042   1.434   0.616   4.904 -1.3401 -1.2458 -0.5246
 3136SOL     OW21043   2.629   3.997   8.826  0.5253  0.5810  0.4065
 3136SOL    HW121044   2.678   3.916   8.837  0.6291  0.6892  0.7400
 3136SOL    HW221045   2.640   4.000   8.730 -0.1288  0.7658  0.3408
 3137SOL     OW21046   2.785   2.892   4.975  0.0340 -0.5187  0.3742
 3137SOL    HW121047   2.850   2.962   4.979 -0.0800 -0.4603  1.1564
 3137SOL    HW221048   2.714   2.953   4.957  0.8808  0.2639 -0.3216
 3138SOL     OW21049   3.672   1.718   5.725 -0.0095 -0.2156 -0.4546
 3138SOL    HW121050   3.631   1.774   5.660  2.2402 -1.1866 -2.7065
 3138SOL    HW221051   3.730   1.664   5.672  1.5728 -0.5622  1.6010
 3139SOL     OW21052   3.751   0.408   6.260 -0.6375 -0.2032 -0.4201
 3139SOL    HW121053   3.713   0.334   6.306  0.5601 -2.0860 -2.4921
 3139SOL    HW221054   3.811   0.442   6.327 -1.2770  0.2706 -0.0766
 3140SOL     OW21055   0.561   2.827   3.090  0.3881 -0.0418  0.4869
 3140SOL    HW121056   0.596   2.827   3.180 -1.6479 -1.0967  1.2817
 3140SOL    HW221057   0.589   2.738   3.066  1.9512  0.5588  0.0760
 3141SOL     OW21058   0.403   1.172   1.089  0.6177 -0.6340 -0.3498
 3141SOL    HW121059   0.390   1.255   1.043  1.5768 -0.0463  0.4440
 3141SOL    HW221060   0.354   1.184   1.171  0.2767 -0.5147 -0.5694
 3142SOL     OW21061   4.294   2.245   1.454  0.3545  0.1306  0.1129
 3142SOL    HW121062   4.382   2.209   1.443  0.8439  1.5717 -0.6397
 3142SOL    HW221063   4.261   2.206   1.373 -0.2613  1.0141 -0.0587
 3143SOL     OW21064   2.890   4.186   1.851 -0.0882  0.6028 -0.1224
 3143SOL    HW121065   2.924   4.239   1.923  1.4579 -2.0125  1.0486
 3143SOL    HW221066   2.964   4.126   1.840  0.5271  0.9850  2.0642
 3144SOL     OW21067   2.789   0.151   4.163 -0.2905 -0.0052 -0.4082
 3144SOL    HW121068   2.876   0.188   4.179 -0.5571 -0.9605  3.2591
 3144SOL    HW221069   2.744   0.219   4.113  0.1116  0.4347 -0.1738
 3145SOL     OW21070   0.409   0.920  15.836  0.0870 -0.5260 -0.4082
 3145SOL    HW121071   0.435   0.974  15.911  0.2823  0.8667 -1.4748
 3145SOL    HW221072   0.463   0.965  15.771 -0.3373  0.9109  0.2283
 3146SOL     OW21073   3.816   2.927   4.739 -0.4038 -0.3614 -0.1142
 3146SOL    HW121074   3.778   2.969   4.816  0.8958  2.2319 -0.8828
 3146SOL    HW221075   3.860   2.852   4.777  1.6517  0.7817 -0.2355
 3147SOL     OW21076   2.716   4.494  16.676  0.0965  0.1548  0.0633
 3147SOL    HW121077   2.788   4.535  16.629  1.1276  0.7461  2.1234
 3147SOL    HW221078   2.650   4.491  16.607  0.4395 -1.5333 -0.1751
 3148SOL     OW21079   4.048   1.777   6.048 -0.7362  0.2311  0.2093
 3148SOL    HW121080   3.973   1.805   5.997  0.4803  0.0905 -1.6776
 3148SOL    HW221081   4.107   1.848   6.024 -0.0664 -0.4829 -0.2624
 3149SOL     OW21082   1.352   2.877   2.333 -0.0219  0.2518 -0.0477
 3149SOL    HW121083   1.446   2.896   2.334 -0.0333  0.3505 -0.9542
 3149SOL    HW221084   1.350   2.819   2.409 -2.0949  2.3651  1.5107
 3150SOL     OW21085   2.275   4.082   9.078  0.3564 -0.4641 -0.3006
 3150SOL    HW121086   2.190   4.115   9.107  0.7242 -0.1179  0.3744
 3150SOL    HW221087   2.278   4.117   8.989 -3.5517 -0.2032 -0.3649
 3151SOL     OW21088   2.058   0.895   4.363  0.5154  0.6582 -0.7216
 3151SOL    HW121089   1.967   0.901   4.333  0.6169  0.2925 -1.1078
 3151SOL    HW221090   2.086   0.986   4.352  0.2028  0.7537 -0.7156
 3152SOL     OW21091   4.148   4.506  15.856  0.1611 -0.3537 -0.4732
 3152SOL    HW121092   4.195   4.569  15.801 -1.0187  0.3989 -0.5996
 3152SOL    HW221093   4.125   4.439  15.792  0.6045 -1.2898  0.3342
 3153SOL     OW21094   3.505   2.188   9.698  0.5421  0.0329 -0.0080
 3153SOL    HW121095   3.494   2.283   9.685  1.4102 -0.0044 -1.0198
 3153SOL    HW221096   3.442   2.153   9.635 -2.5971  0.8615  2.6913
 3154SOL     OW21097   0.435   4.206   7.336  0.0622  0.4698  0.6777
 3154SOL    HW121098   0.459   4.122   7.374  0.8439 -0.1133 -1.0897
 3154SOL    HW221099   0.340   4.215   7.343 -0.0409  0.1883 -0.2664
 3155SOL     OW21100   0.782   3.156   4.652  0.0688  0.2257  0.2347
 3155SOL    HW121101   0.805   3.068   4.620 -3.1453 -1.2707  1.9622
 3155SOL    HW221102   0.710   3.138   4.713 -0.6870  0.1638 -0.6886
 3156SOL     OW21103   2.729   1.742   1.748  0.4139 -0.3991 -0.3140
 3156SOL    HW121104   2.717   1.647   1.748  0.4576 -0.3826 -3.6351
 3156SOL    HW221105   2.659   1.775   1.692  0.5172  0.0491 -0.1841
 3157SOL     OW21106   4.583   1.567   5.507 -0.3746  0.1946 -0.3099
 3157SOL    HW121107   4.593   1.499   5.574 -0.8037 -1.2117 -1.6567
 3157SOL    HW221108   4.546   1.637   5.560  0.8600  0.3369  0.3653
 3158SOL     OW21109   0.698   0.258   1.184 -0.1938  0.0269 -0.1527
 3158SOL    HW121110   0.760   0.269   1.111  0.1559 -2.0952 -0.1754
 3158SOL    HW221111   0.619   0.291   1.141  0.7742  2.8649  0.2230
 3159SOL     OW21112   2.347   1.574   9.521  0.6015  0.2731 -0.0395
 3159SOL    HW121113   2.315   1.639   9.459  3.8100  2.2079  0.3127
 3159SOL    HW221114   2.270   1.558   9.575 -0.0287 -0.9290 -1.2932
 3160SOL     OW21115   1.795   3.176   4.036  0.1487  0.2238 -0.6382
 3160SOL    HW121116   1.861   3.211   4.096 -2.1487  0.6001  1.6400
 3160SOL    HW221117   1.757   3.100   4.081 -0.7656  1.5147  0.7586
 3161SOL     OW21118   2.813   0.314   8.304 -0.4169 -0.2377 -0.1469
 3161SOL    HW121119   2.791   0.236   8.254  1.7820  0.0651 -1.6414
 3161SOL    HW221120   2.798   0.388   8.245 -0.2653  0.1730  0.3251
 3162SOL     OW21121   3.727   2.642   9.832 -0.4943 -0.3722  0.0480
 3162SOL    HW121122   3.762   2.665   9.918 -1.1946 -2.1159  0.7802
 3162SOL    HW221123   3.755   2.720   9.784 -0.1985  0.8891  2.3029
 3163SOL     OW21124   3.479   1.049  13.080  0.1158  0.3802  0.0597
 3163SOL    HW121125   3.428   1.015  13.154  2.4705 -0.5840  1.2618
 3163SOL    HW221126   3.499   0.975  13.023 -0.6792  0.1783  0.0381
 3164SOL     OW21127   3.058   1.457   4.268  0.3139 -0.0962  0.3864
 3164SOL    HW121128   3.034   1.548   4.283  1.0872 -0.4081  3.5117
 3164SOL    HW221129   2.969   1.421   4.273  0.1159  0.6483  2.2825
 3165SOL     OW21130   1.942   1.086  11.934  0.5311 -0.2818  0.4836
 3165SOL    HW121131   1.850   1.103  11.913  0.9190 -0.6372 -1.4873
 3165SOL    HW221132   1.923   1.011  11.991 -1.2231 -0.6625 -0.5914
 3166SOL     OW21133   4.137   0.100   6.509 -0.3945 -0.0172 -0.0236
 3166SOL    HW121134   4.219   0.076   6.466 -0.3135 -2.0990  1.2889
 3166SOL    HW221135   4.087   0.019   6.497 -1.4022  0.4867  0.7702
 3167SOL     OW21136   3.558   3.276   7.257 -0.2468  0.0695  0.3499
 3167SOL    HW121137   3.483   3.294   7.314 -0.2886 -2.0792  0.9542
 3167SOL    HW221138   3.522   3.325   7.183  0.4696 -0.3764 -0.2981
 3168SOL     OW21139   2.983   3.627  10.410  0.1663 -0.3227  0.1807
 3168SOL    HW121140   3.030   3.652  10.489  1.6801 -0.2151 -0.7630
 3168SOL    HW221141   2.950   3.542  10.439  0.9743 -0.7057 -0.0445
 3169SOL     OW21142   0.235   2.450   6.289  0.1806  0.1796 -0.5253
 3169SOL    HW121143   0.271   2.444   6.377 -2.3035  1.0938  0.5353
 3169SOL    HW221144   0.317   2.459   6.240  0.4652 -2.8888 -0.6623
 3170SOL     OW21145   0.993   3.725   8.573  0.2059 -0.3257  0.0041
 3170SOL    HW121146   1.029   3.770   8.496  0.0000  0.3420  0.2940
 3170SOL    HW221147   1.038   3.779   8.638 -0.6104  0.7823 -0.3569
 3171SOL     OW21148   0.487   2.270  13.970  0.2251 -0.1997 -0.1768
 3171SOL    HW121149   0.470   2.191  14.022 -2.3599  0.8695  0.6203
 3171SOL    HW221150   0.575   2.295  13.996  0.1334  2.6176 -2.5750
 3172SOL     OW21151   0.994   2.831   6.642  0.4959  0.0065  0.5869
 3172SOL    HW121152   1.012   2.800   6.553  2.4371 -3.3837  2.1870
 3172SOL    HW221153   1.022   2.922   6.646 -0.6338  0.4551 -1.7975
 3173SOL     OW21154   1.479   0.751  14.811  0.9019  0.5220 -0.1080
 3173SOL    HW121155   1.420   0.823  14.791 -0.5334  0.0580  2.3513
 3173SOL    HW221156   1.524   0.777  14.892 -2.0407 -1.3039  2.1079
 3174SOL     OW21157   3.425   0.514   9.848  0.2178  0.1241  0.2066
 3174SOL    HW121158   3.435   0.505   9.943 -0.7025  1.0308  0.3921
 3174SOL    HW221159   3.473   0.596   9.834  0.6403 -0.0210  0.8089
 3175SOL     OW21160   4.261   1.015   4.164  1.2913 -0.3322 -0.3365
 3175SOL    HW121161   4.248   0.986   4.255  2.4932 -3.6147 -1.2001
 3175SOL    HW221162   4.189   1.077   4.158  1.0666 -0.6025 -0.4573
 3176SOL     OW21163   4.652   1.216   6.348 -0.1974  0.3054 -0.0888
 3176SOL    HW121164   4.570   1.211   6.299  0.5642 -1.6639 -1.1879
 3176SOL    HW221165   4.696   1.277   6.289  0.6015 -0.6543 -0.4961
 3177SOL     OW21166   3.899   2.548   0.008  0.0054 -0.0944 -0.0276
 3177SOL    HW121167   3.816   2.593  17.749 -0.6463 -1.4737 -0.4939
 3177SOL    HW221168   3.908   2.520  17.673  0.9327  0.8863 -0.2459
 3178SOL     OW21169   3.401   2.413  17.315  0.3589 -0.1299 -0.0332
 3178SOL    HW121170   3.472   2.396  17.377 -0.5364 -0.8725  0.7894
 3178SOL    HW221171   3.330   2.423  17.379  0.0040 -2.6570 -0.0134
 3179SOL     OW21172   2.613   3.407   3.312 -0.1369  0.3890  0.0435
 3179SOL    HW121173   2.590   3.324   3.355  0.1759  0.1422 -0.2673
 3179SOL    HW221174   2.543   3.471   3.326  1.6271  2.1346  0.8411
 3180SOL     OW21175   0.474   2.675  12.413 -0.1004  0.0202  0.0523
 3180SOL    HW121176   0.549   2.616  12.405  0.9607  1.4583 -0.6985
 3180SOL    HW221177   0.470   2.715  12.326 -2.3716  0.2080  0.2409
 3181SOL     OW21178   3.589   2.582   7.800  0.3510 -0.0935  0.4222
 3181SOL    HW121179   3.642   2.659   7.821 -0.6905  0.6621  0.2694
 3181SOL    HW221180   3.603   2.521   7.872 -1.2384 -1.6068 -0.5375
 3182SOL     OW21181   4.090   3.998  15.858 -0.6231 -0.9199  0.3013
 3182SOL    HW121182   4.047   4.083  15.854  0.3890 -0.4097  0.1298
 3182SOL    HW221183   4.183   4.021  15.852 -0.8724 -0.1250 -0.6135
 3183SOL     OW21184   0.193   3.213   8.787  0.1531 -0.0309 -0.0077
 3183SOL    HW121185   0.203   3.125   8.749  0.9644  0.4033 -0.7839
 3183SOL    HW221186   0.149   3.254   8.712 -0.3682  1.1284  0.9322
 3184SOL     OW21187   0.528   1.213   7.353 -0.3020  0.0368  0.1972
 3184SOL    HW121188   0.498   1.296   7.316  1.5484  0.0523 -1.3167
 3184SOL    HW221189   0.453   1.158   7.332 -0.9916  1.2915 -0.6382
 3185SOL     OW21190   1.918   1.410   5.640 -0.2112  0.4400 -0.4509
 3185SOL    HW121191   1.859   1.482   5.622  1.4269  1.5159 -1.4829
 3185SOL    HW221192   1.872   1.363   5.710  1.8089 -0.4968  0.2420
 3186SOL     OW21193   2.062   1.569  14.098 -0.0399 -0.0116  0.0939
 3186SOL    HW121194   2.138   1.627  14.090  0.8568 -1.0889  0.9051
 3186SOL    HW221195   2.096   1.484  14.070 -2.0975  0.1321 -2.8447
 3187SOL     OW21196   3.836   0.672  10.126 -0.1251  0.5550  0.2548
 3187SOL    HW121197   3.748   0.671  10.163 -0.5081 -1.1839 -0.7304
 3187SOL    HW221198   3.845   0.594  10.072  3.2552  0.2317  1.2408
 3188SOL     OW21199   0.495   2.156   4.804  0.3765  0.4355 -0.2661
 3188SOL    HW121200   0.431   2.215   4.844  0.5142 -0.4661  1.2981
 3188SOL    HW221201   0.466   2.074   4.843 -2.5851  0.5566 -2.1946
 3189SOL     OW21202   1.087   1.891  14.519  0.3299 -0.6101  0.3298
 3189SOL    HW121203   1.010   1.937  14.487  1.2075 -0.1897 -1.1743
 3189SOL    HW221204   1.059   1.895  14.611  0.1916 -0.3957  0.2782
 3190SOL     OW21205   1.583   2.065   6.963 -0.4128  0.2000  0.3210
 3190SOL    HW121206   1.606   2.153   6.934 -4.3560  0.9052 -0.7470
 3190SOL    HW221207   1.670   2.046   6.999  0.3370  1.8555 -0.6687
 3191SOL     OW21208   0.292   2.186   7.904  0.0269  0.1636 -0.0273
 3191SOL    HW121209   0.289   2.145   7.818  2.2443  1.2526 -0.6246
 3191SOL    HW221210   0.385   2.168   7.916 -0.1147 -1.2628 -1.1940
 3192SOL     OW21211   3.033   0.514  15.587 -0.1504 -0.1524 -0.0895
 3192SOL    HW121212   3.041   0.609  15.600  3.2811 -0.4756  0.1222
 3192SOL    HW221213   3.123   0.490  15.565 -0.1109 -1.1956  1.2187
 3193SOL     OW21214   0.192   2.176   3.871 -0.2117  0.0651 -0.8842
 3193SOL    HW121215   0.250   2.244   3.908 -0.5264  0.6643 -1.4952
 3193SOL    HW221216   0.202   2.194   3.778 -1.5059 -0.9422 -1.2119
 3194SOL     OW21217   0.445   4.229   9.790  0.3773  0.7989  0.1310
 3194SOL    HW121218   0.530   4.211   9.749 -0.0340 -1.1832  0.1414
 3194SOL    HW221219   0.443   4.146   9.838  0.4655  0.7976  0.1333
 3195SOL     OW21220   3.733   4.614   1.124  0.2218 -0.1010  0.1345
 3195SOL    HW121221   3.802   4.642   1.063  0.2362 -1.3565 -0.4129
 3195SOL    HW221222   3.661   4.601   1.062  1.3632  0.4477 -1.3179
 3196SOL     OW21223   4.656   1.741   7.566 -0.3671  0.9584  0.2939
 3196SOL    HW121224   4.566   1.773   7.552 -0.1075  0.9393 -1.4208
 3196SOL    HW221225   4.627   1.650   7.578  0.6934  0.5042 -0.6074
 3197SOL     OW21226   1.898   3.107   3.169 -0.0380  0.5226 -0.3650
 3197SOL    HW121227   1.911   3.200   3.187  0.4506  0.0250  1.9031
 3197SOL    HW221228   1.958   3.095   3.096  0.1057  0.3043 -0.2124
 3198SOL     OW21229   3.389   1.191   2.437  0.0426 -0.1933  0.7272
 3198SOL    HW121230   3.319   1.191   2.371 -0.4761 -1.6645  1.2677
 3198SOL    HW221231   3.372   1.112   2.489 -1.0843 -0.0701  0.5468
 3199SOL     OW21232   0.637   2.039   9.626  0.1604 -0.0594 -0.0594
 3199SOL    HW121233   0.629   2.132   9.646 -0.9679 -0.0958 -0.3519
 3199SOL    HW221234   0.655   2.041   9.532 -1.2171  0.7712 -0.3100
 3200SOL     OW21235   4.143   4.692   5.792 -0.5214  0.3688  0.7118
 3200SOL    HW121236   4.152   0.020   5.859 -3.4952 -1.4081  2.9107
 3200SOL    HW221237   4.105   4.625   5.848  2.2052 -1.5977  0.2020
 3201SOL     OW21238   3.112   2.002  17.285  0.0040  0.0755  0.2700
 3201SOL    HW121239   3.097   2.085  17.328  2.6543 -0.8364  2.9134
 3201SOL    HW221240   3.035   1.952  17.310  2.0795 -3.5110 -0.4594
 3202SOL     OW21241   3.080   1.509   3.427  0.4892  0.5860  0.5479
 3202SOL    HW121242   3.031   1.484   3.506  0.0896 -1.6113 -0.3971
 3202SOL    HW221243   3.010   1.523   3.363 -0.2398 -1.4478  0.8786
 3203SOL     OW21244   3.013   1.615  10.877  0.1977 -0.1132  0.6763
 3203SOL    HW121245   2.940   1.569  10.918 -0.1254 -1.9538 -2.0029
 3203SOL    HW221246   3.010   1.702  10.918 -0.4185  0.0244  0.3244
 3204SOL     OW21247   1.979   0.396   3.492  0.1137  0.5143  0.0304
 3204SOL    HW121248   1.932   0.479   3.492  0.0448  0.4752 -0.3197
 3204SOL    HW221249   1.965   0.363   3.581 -1.9220  1.6631  0.1481
 3205SOL     OW21250   1.178   2.142   4.006 -0.0281 -0.5696 -0.0450
 3205SOL    HW121251   1.153   2.187   4.087 -2.6187 -1.6205 -0.2462
 3205SOL    HW221252   1.099   2.094   3.980 -0.8180 -0.2083  1.6964
 3206SOL     OW21253   0.751   4.087   3.901 -0.6520 -0.0020 -0.4435
 3206SOL    HW121254   0.727   4.048   3.986  0.3782 -0.1608 -0.2239
 3206SOL    HW221255   0.761   4.003   3.856 -0.3337 -0.6716  0.8747
 3207SOL     OW21256   3.082   0.798  14.710 -0.5427  0.3988 -0.1853
 3207SOL    HW121257   2.992   0.777  14.685 -0.0119 -1.1010 -0.8596
 3207SOL    HW221258   3.123   0.777  14.626 -2.0532 -1.7194 -0.3895
 3208SOL     OW21259   2.034   0.534   8.552 -0.0596 -0.1993 -0.1522
 3208SOL    HW121260   2.103   0.590   8.589 -0.4828  0.4073 -0.2902
 3208SOL    HW221261   2.087   0.466   8.511  0.3829  0.2510 -0.3287
 3209SOL     OW21262   2.861   0.248   5.982  0.2407 -0.7012  0.3429
 3209SOL    HW121263   2.823   0.281   6.063  1.6511 -0.6180  0.9734
 3209SOL    HW221264   2.946   0.217   6.013  0.1819 -0.1240  1.0666
 3210SOL     OW21265   1.168   3.795   6.007 -0.3278 -0.3306  0.2259
 3210SOL    HW121266   1.223   3.719   5.990 -2.1101 -1.1719 -1.8194
 3210SOL    HW221267   1.112   3.795   5.929 -0.3510  4.2869  0.2191
 3211SOL     OW21268   2.937   0.662  16.087 -0.1033  0.5419 -0.2929
 3211SOL    HW121269   2.925   0.746  16.132  0.0743  0.4454 -0.0658
 3211SOL    HW221270   2.998   0.615  16.144 -0.5133 -0.1742 -0.4491
 3212SOL     OW21271   3.090   1.320   8.713  0.7829 -0.1641  0.0942
 3212SOL    HW121272   3.043   1.262   8.773  1.4663 -1.0377 -0.2188
 3212SOL    HW221273   3.015   1.367   8.675  0.2074 -1.4730 -0.4027
 3213SOL     OW21274   3.433   3.068   3.899  0.4275 -0.0297  0.4263
 3213SOL    HW121275   3.523   3.087   3.873  0.2247 -3.4275 -2.7056
 3213SOL    HW221276   3.401   3.042   3.813  0.1750  0.9981  0.2092
 3214SOL     OW21277   2.456   0.316   0.444  0.1829 -0.1841  0.1162
 3214SOL    HW121278   2.378   0.357   0.481  0.4415  0.0109  0.4466
 3214SOL    HW221279   2.440   0.226   0.470  0.3165 -0.5287 -0.9881
 3215SOL     OW21280   0.033   1.963   1.309 -0.0581  0.3060  0.0608
 3215SOL    HW121281   0.093   1.981   1.381 -0.6673  2.0591  0.1415
 3215SOL    HW221282   0.085   1.914   1.245 -0.2150 -0.4108  0.4924
 3216SOL     OW21283   4.053   0.602   3.875 -0.0672  0.3571 -0.1844
 3216SOL    HW121284   4.070   0.514   3.840 -1.2208  0.3008 -0.5841
 3216SOL    HW221285   4.072   0.586   3.968  1.6401  1.3715 -0.3677
 3217SOL     OW21286   3.488   3.472   2.355  0.3379  0.2372  0.1929
 3217SOL    HW121287   3.574   3.507   2.380  1.3961 -1.9458 -0.4336
 3217SOL    HW221288   3.514   3.380   2.358 -0.7090 -0.0039  2.0282
 3218SOL     OW21289   3.201   4.581  14.922  0.8733  0.2951  0.1453
 3218SOL    HW121290   3.187   4.532  14.841 -0.4909  1.0493 -0.0809
 3218SOL    HW221291   3.205   4.676  14.907 -3.2339  0.6748  1.2961
 3219SOL     OW21292   2.700   2.135   6.903 -0.0718  0.2087  0.2674
 3219SOL    HW121293   2.784   2.149   6.947  0.7590 -0.5300 -1.0862
 3219SOL    HW221294   2.658   2.221   6.893  1.4914  1.0763  1.2282
 3220SOL     OW21295   1.393   3.468   0.794 -0.2444  0.0343 -0.2647
 3220SOL    HW121296   1.464   3.419   0.835 -1.1586 -1.9743 -1.0718
 3220SOL    HW221297   1.428   3.477   0.706 -0.2221  0.2474 -0.2341
 3221SOL     OW21298   2.930   2.773  14.097  0.3216  1.0650 -0.5296
 3221SOL    HW121299   2.988   2.709  14.138 -0.5068  1.0131  0.5652
 3221SOL    HW221300   2.867   2.786  14.168 -0.4372 -1.1399 -0.8195
 3222SOL     OW21301   0.928   3.616  12.279 -0.3795 -0.5019  0.4168
 3222SOL    HW121302   0.991   3.544  12.285 -0.1528 -0.2061  1.4401
 3222SOL    HW221303   0.913   3.637  12.371 -1.6763  1.6179 -0.2801
 3223SOL     OW21304   4.457   2.904  17.204  0.5236  0.0021 -0.7334
 3223SOL    HW121305   4.449   2.924  17.297  2.8804  1.0898 -0.7751
 3223SOL    HW221306   4.402   2.827  17.188  2.9106 -1.9336  0.4128
 3224SOL     OW21307   4.408   0.607   4.473  0.1272 -0.0402 -0.1389
 3224SOL    HW121308   4.322   0.650   4.476  0.9888  1.8938 -3.0517
 3224SOL    HW221309   4.380   0.519   4.445 -0.6860 -0.2944  1.4892
 3225SOL     OW21310   0.911   4.658   6.644 -0.3740  0.5731 -0.4407
 3225SOL    HW121311   0.840   4.612   6.687 -0.7816  1.6849  0.0806
 3225SOL    HW221312   0.972   4.665   6.718 -0.1652 -0.8798 -0.4801
 3226SOL     OW21313   0.715   3.916   4.119 -0.5001 -0.1404 -0.0994
 3226SOL    HW121314   0.767   3.837   4.130  1.2951  0.7418 -2.2354
 3226SOL    HW221315   0.681   3.939   4.206  1.2195  0.8730  0.3121
 3227SOL     OW21316   2.581   1.597   2.898  0.4283 -0.0985  0.3283
 3227SOL    HW121317   2.489   1.605   2.871  0.4370  2.3184  0.9525
 3227SOL    HW221318   2.587   1.659   2.971 -1.0410  0.9427 -0.4258
 3228SOL     OW21319   3.749   0.720  16.888  0.4287  0.1704  0.8662
 3228SOL    HW121320   3.735   0.799  16.836  0.4299 -0.9218 -0.8020
 3228SOL    HW221321   3.828   0.680  16.852 -0.0154  1.7206 -1.8750
 3229SOL     OW21322   3.662   4.693   8.924 -0.4248 -0.0373  0.1473
 3229SOL    HW121323   3.670   0.043   8.957  0.7524 -0.5958  1.3810
 3229SOL    HW221324   3.756   4.677   8.918 -0.1132  2.4235 -1.6148
 3230SOL     OW21325   1.817   2.322  15.824  0.2363 -0.2222 -0.2331
 3230SOL    HW121326   1.744   2.290  15.771  0.0571  2.1529 -1.4071
 3230SOL    HW221327   1.872   2.246  15.843 -0.8393 -0.6368  1.1648
 3231SOL     OW21328   1.739   2.143   4.144  0.1148 -0.4430  0.3164
 3231SOL    HW121329   1.805   2.143   4.213  1.5014  2.0547 -0.9785
 3231SOL    HW221330   1.781   2.111   4.064  0.6800  0.2526  0.3259
 3232SOL     OW21331   2.129   3.274   1.913 -0.2433  0.2022  0.1701
 3232SOL    HW121332   2.105   3.250   2.003 -0.8170  1.2217  0.2958
 3232SOL    HW221333   2.193   3.204   1.909 -1.7219 -1.1507  0.2853
 3233SOL     OW21334   2.173   1.119  10.476 -0.3235 -0.0645 -0.1092
 3233SOL    HW121335   2.216   1.097  10.558 -1.2835 -2.2331 -0.1979
 3233SOL    HW221336   2.124   1.041  10.453 -2.6091  1.0909  0.8190
 3234SOL     OW21337   2.096   2.107   6.431 -0.0555  0.0328  0.2441
 3234SOL    HW121338   2.094   2.066   6.345  1.0387 -2.0953  1.2079
 3234SOL    HW221339   2.169   2.169   6.427  1.8247 -2.2294 -0.3227
 3235SOL     OW21340   3.521   0.062   3.320 -0.1251  0.7746 -0.3910
 3235SOL    HW121341   3.472   0.091   3.243  0.7669  2.1370 -0.4270
 3235SOL    HW221342   3.609   0.099   3.312  0.5041 -0.5708  0.2189
 3236SOL     OW21343   1.241   4.686   2.457 -0.0258 -0.0802 -0.3840
 3236SOL    HW121344   1.277   4.606   2.417 -1.3983 -1.9799  2.1728
 3236SOL    HW221345   1.221   4.736   2.378  1.3188 -1.3258 -1.5289
 3237SOL     OW21346   3.129   4.261   6.142 -0.3351 -0.3669 -0.2565
 3237SOL    HW121347   3.081   4.333   6.184 -1.1836  0.6278 -2.9695
 3237SOL    HW221348   3.092   4.250   6.055 -0.4943  0.9394 -0.3477
 3238SOL     OW21349   3.552   0.983   0.372 -0.9613 -0.2745  0.5437
 3238SOL    HW121350   3.508   0.901   0.352 -0.0972 -0.4269 -0.7980
 3238SOL    HW221351   3.471   1.033   0.378  0.2067  1.9199 -1.3746
 3239SOL     OW21352   3.070   0.627  10.101  0.1525 -0.1627  0.0015
 3239SOL    HW121353   3.041   0.674  10.023 -2.2761 -0.9635  0.4272
 3239SOL    HW221354   2.995   0.640  10.160 -0.7778 -1.9626 -0.7817
 3240SOL     OW21355   0.374   1.557  10.777 -0.1491 -0.2496 -0.2259
 3240SOL    HW121356   0.325   1.485  10.817  0.3171 -1.4580 -1.8382
 3240SOL    HW221357   0.323   1.564  10.696 -1.4231  0.1985  0.6198
 3241SOL     OW21358   1.935   4.685   5.314  0.7725 -0.4958 -0.5906
 3241SOL    HW121359   1.959   4.728   5.396  1.7120 -0.5863 -0.8177
 3241SOL    HW221360   2.005   4.634   5.273 -0.7039 -1.9263 -1.3312
 3242SOL     OW21361   2.983   1.284  11.839 -0.1013  0.1032 -0.3785
 3242SOL    HW121362   2.953   1.195  11.823  1.0260 -0.3119 -0.1867
 3242SOL    HW221363   2.903   1.336  11.830 -0.2019 -0.1382 -0.8725
 3243SOL     OW21364   2.077   2.822   6.453  0.6988 -0.2160  0.0101
 3243SOL    HW121365   2.091   2.829   6.547  0.5236  0.9959 -0.0584
 3243SOL    HW221366   1.983   2.838   6.438  0.6319 -1.1897 -0.5904
 3244SOL     OW21367   0.127   1.222   4.882  0.2542  0.4232 -0.5163
 3244SOL    HW121368   0.085   1.285   4.941  0.0110  0.1482 -0.3934
 3244SOL    HW221369   0.055   1.180   4.835 -0.5279  0.2153  0.8794
 3245SOL     OW21370   3.072   3.065   2.875  0.2403  0.2066  0.3176
 3245SOL    HW121371   3.139   3.025   2.931  0.2901 -1.1594 -0.7075
 3245SOL    HW221372   3.109   3.065   2.787 -1.0310  0.9180 -0.2263
 3246SOL     OW21373   4.583   1.169  16.281  0.0391 -0.3256  0.8823
 3246SOL    HW121374   4.510   1.231  16.293  1.3484  1.6943 -1.6539
 3246SOL    HW221375   4.663   1.221  16.290 -1.4251  1.9487  0.9848
 3247SOL     OW21376   2.815   4.471   7.028  0.1786 -0.5815 -0.0163
 3247SOL    HW121377   2.779   4.469   7.116  1.1962 -0.4410  0.4043
 3247SOL    HW221378   2.828   4.378   7.010 -0.1031 -0.4232 -1.0464
 3248SOL     OW21379   0.484   0.855   2.259  0.7628  0.1372 -0.1518
 3248SOL    HW121380   0.457   0.935   2.214  2.7342  0.2644 -1.0781
 3248SOL    HW221381   0.554   0.828   2.201  0.7511 -1.2822  0.5036
 3249SOL     OW21382   0.219   3.659   7.894 -0.4509 -0.2765 -0.4278
 3249SOL    HW121383   0.267   3.697   7.820 -0.4753 -0.1686 -0.3880
 3249SOL    HW221384   0.156   3.726   7.918  0.5326  0.6066 -0.2874
 3250SOL     OW21385   3.196   1.208  11.097  0.2911 -0.2041  0.6780
 3250SOL    HW121386   3.135   1.134  11.097 -0.2880  0.2963 -1.5896
 3250SOL    HW221387   3.228   1.192  11.187  1.9067  0.4722  0.2301
 3251SOL     OW21388   3.492   1.690   4.932  0.6194  0.1806 -0.0354
 3251SOL    HW121389   3.398   1.677   4.949  0.4115 -1.6231 -2.4237
 3251SOL    HW221390   3.510   1.630   4.859  4.4925  0.4999  0.6615
 3252SOL     OW21391   0.058   4.695   9.272  0.2243  0.2525 -0.2391
 3252SOL    HW121392   0.122   4.671   9.339  0.2263 -2.1988 -1.0994
 3252SOL    HW221393   0.089   4.626   9.212 -0.5185  0.1370 -0.4855
 3253SOL     OW21394   2.654   0.950  11.189  0.0366  0.1386 -0.3358
 3253SOL    HW121395   2.690   1.038  11.180 -1.9988  1.0069 -0.1114
 3253SOL    HW221396   2.706   0.901  11.125 -1.8857  0.4660 -2.1817
 3254SOL     OW21397   1.811   3.165  14.436  0.2733 -0.3812 -0.3011
 3254SOL    HW121398   1.864   3.213  14.373 -0.7343 -0.1602 -0.9927
 3254SOL    HW221399   1.759   3.236  14.475  1.4056  0.1572  0.2192
 3255SOL     OW21400   2.289   4.269  13.880  0.3345 -0.1793  0.3798
 3255SOL    HW121401   2.263   4.261  13.972 -0.9501  1.4035  0.1567
 3255SOL    HW221402   2.222   4.329  13.847  2.1996  1.2831 -0.7108
 3256SOL     OW21403   1.919   2.041   6.617 -0.7180  0.6246 -0.6591
 3256SOL    HW121404   1.982   2.080   6.557 -2.2995 -0.4166 -3.0180
 3256SOL    HW221405   1.991   2.006   6.669 -1.7429 -1.0389 -0.3600
 3257SOL     OW21406   4.530   3.523  16.798  0.1945  0.3699 -0.2535
 3257SOL    HW121407   4.447   3.572  16.803  0.5513  0.8859  0.6338
 3257SOL    HW221408   4.571   3.561  16.721  0.1932 -0.5353 -0.7033
 3258SOL     OW21409   1.071   0.801   2.277 -0.2648  0.1530  0.6704
 3258SOL    HW121410   1.133   0.806   2.204 -0.2891 -0.0068  0.6387
 3258SOL    HW221411   1.076   0.717   2.323 -0.3369 -2.1590 -3.5981
 3259SOL     OW21412   3.896   2.495   7.380  0.2026 -0.1956  0.2009
 3259SOL    HW121413   3.800   2.493   7.388  0.3013 -4.0409  0.6026
 3259SOL    HW221414   3.919   2.517   7.470  1.4571  0.2478 -0.2359
 3260SOL     OW21415   0.082   1.030  16.915  0.4609 -0.1347  0.1919
 3260SOL    HW121416   4.730   1.004  16.907  0.1051  0.9327  0.8138
 3260SOL    HW221417   0.123   0.947  16.940 -1.3774 -0.0090  3.4989
 3261SOL     OW21418   0.199   3.311   6.897  0.1875 -0.5230 -0.7640
 3261SOL    HW121419   0.177   3.404   6.888  1.5054 -0.2442 -1.0640
 3261SOL    HW221420   0.234   3.322   6.985  0.5738 -0.0597 -0.9774
 3262SOL     OW21421   4.157   4.678  17.692  0.1708 -0.3417  0.1267
 3262SOL    HW121422   4.072   4.720  17.708  1.4451  1.2970  2.6464
 3262SOL    HW221423   4.204   0.001  17.638  3.1688 -1.7731  1.0818
 3263SOL     OW21424   1.717   4.278   2.779 -0.2045  0.4032 -0.0374
 3263SOL    HW121425   1.769   4.299   2.702 -1.0764 -0.3882 -0.8380
 3263SOL    HW221426   1.672   4.195   2.763  0.0646  0.0825  0.8686
 3264SOL     OW21427   3.689   4.706   7.360 -0.4325 -0.2103 -1.0369
 3264SOL    HW121428   3.671   4.733   7.450  1.5734 -0.8430 -0.4412
 3264SOL    HW221429   3.648   4.620   7.371 -1.4013  0.4059  0.1404
 3265SOL     OW21430   0.825   1.372   7.834  0.2231 -0.4451 -0.1734
 3265SOL    HW121431   0.828   1.289   7.881 -0.4735 -1.5223 -1.9879
 3265SOL    HW221432   0.779   1.431   7.893 -0.2124  0.8186 -1.7730
 3266SOL     OW21433   2.208   4.546  17.236 -0.7992 -0.1236 -0.1795
 3266SOL    HW121434   2.212   4.544  17.141 -0.6600  1.4562 -0.2093
 3266SOL    HW221435   2.136   4.606  17.256  0.3507  1.0606  0.4482
 3267SOL     OW21436   4.167   4.443   8.853 -1.6224 -0.2201  0.6796
 3267SOL    HW121437   4.254   4.403   8.861 -0.6371  1.8819  0.5549
 3267SOL    HW221438   4.184   4.515   8.791 -0.0598  0.3546  1.7605
 3268SOL     OW21439   0.269   0.993   5.458 -0.4496 -0.5893 -0.0285
 3268SOL    HW121440   0.230   1.047   5.389  1.7556  1.0238  0.0042
 3268SOL    HW221441   0.196   0.934   5.479 -0.7951 -0.4798 -0.9146
 3269SOL     OW21442   0.388   3.414  15.347 -0.1594  0.1289 -0.0811
 3269SOL    HW121443   0.410   3.429  15.439  0.0391 -0.5578 -0.0180
 3269SOL    HW221444   0.461   3.357  15.322 -0.0459  0.8117 -1.3324
 3270SOL     OW21445   1.707   4.487   3.704 -0.0308 -0.2881 -0.1243
 3270SOL    HW121446   1.637   4.524   3.758 -1.4867 -1.9368 -0.9057
 3270SOL    HW221447   1.716   4.398   3.739 -0.7485 -0.2803  0.0798
 3271SOL     OW21448   4.387   4.295  15.980  0.3654  0.3230  0.0061
 3271SOL    HW121449   4.337   4.347  15.917 -1.5473  1.0958  2.1714
 3271SOL    HW221450   4.401   4.363  16.046 -2.5842 -0.6007  1.5875
 3272SOL     OW21451   2.294   2.316   8.640 -0.4637 -0.0685 -0.0376
 3272SOL    HW121452   2.383   2.333   8.671  0.3514 -0.2963 -2.2718
 3272SOL    HW221453   2.262   2.406   8.632 -1.3806 -0.4565 -0.7411
 3273SOL     OW21454   1.624   3.041   6.081  0.3412  0.3227 -0.6841
 3273SOL    HW121455   1.709   3.053   6.038  1.4881 -0.7940  1.3208
 3273SOL    HW221456   1.609   2.948   6.064  0.3136  0.0942  0.5914
 3274SOL     OW21457   3.137   3.976   2.585 -0.0001  0.4531  0.2144
 3274SOL    HW121458   3.102   3.888   2.600 -0.2247  0.8551  2.0465
 3274SOL    HW221459   3.227   3.964   2.618  0.0907 -0.3038 -0.3203
 3275SOL     OW21460   1.397   4.050   7.552  0.2273  0.1695  0.0821
 3275SOL    HW121461   1.483   4.027   7.517  0.6029  0.1187  1.0427
 3275SOL    HW221462   1.389   3.975   7.611  1.4857 -2.1212 -2.6893
 3276SOL     OW21463   0.894   4.625   3.458 -0.2861  0.3873 -0.2411
 3276SOL    HW121464   0.841   4.551   3.487  1.7307 -1.6370 -1.6923
 3276SOL    HW221465   0.941   4.640   3.540  1.9841  1.0810 -1.6636
 3277SOL     OW21466   0.036   1.539  17.562 -0.1752 -0.3618  0.5677
 3277SOL    HW121467   0.005   1.530  17.472  0.2315  0.7843  0.3141
 3277SOL    HW221468   4.720   1.471  17.599  0.7735  0.0114  2.6670
 3278SOL     OW21469   3.026   3.691   5.533  0.6880  0.4144  0.3531
 3278SOL    HW121470   3.112   3.710   5.494  0.3191  1.2378 -0.0511
 3278SOL    HW221471   2.978   3.752   5.478 -0.3819  0.4398  1.3278
 3279SOL     OW21472   0.493   0.737   9.655  0.0570 -0.0821 -0.3293
 3279SOL    HW121473   0.483   0.830   9.631  2.4065  0.3633  0.4002
 3279SOL    HW221474   0.438   0.690   9.593  1.7777 -0.0023 -1.9162
 3280SOL     OW21475   1.447   3.097  17.163  0.5260 -0.4337  0.1138
 3280SOL    HW121476   1.458   3.189  17.185 -1.8038 -0.4538  1.3738
 3280SOL    HW221477   1.442   3.053  17.248  0.9887 -1.7200 -0.5163
 3281SOL     OW21478   0.782   3.682   5.968  0.7721  0.3805 -0.2916
 3281SOL    HW121479   0.690   3.703   5.990  1.2815  0.6087  1.6738
 3281SOL    HW221480   0.819   3.680   6.056 -0.6728 -1.1640  0.2793
 3282SOL     OW21481   3.692   2.153   2.605 -0.1031  0.1872 -0.4946
 3282SOL    HW121482   3.690   2.088   2.535  0.9330 -0.3969  0.0110
 3282SOL    HW221483   3.604   2.131   2.634  0.3870 -0.1005  0.7674
 3283SOL     OW21484   0.435   4.592  12.097  0.4017  0.6053  0.2916
 3283SOL    HW121485   0.389   4.609  12.015  2.2242  1.3579 -0.5614
 3283SOL    HW221486   0.411   4.502  12.117  2.2584  0.0506 -0.0059
 3284SOL     OW21487   2.979   1.115   0.237 -0.3715  0.4076  0.3560
 3284SOL    HW121488   3.013   1.203   0.224  1.4675 -0.7969 -3.0372
 3284SOL    HW221489   2.946   1.096   0.149 -1.2537 -1.0388  0.9878
 3285SOL     OW21490   1.769   3.756   2.901 -0.3170  0.0792  0.4664
 3285SOL    HW121491   1.724   3.800   2.973 -0.5161  0.4253  0.1302
 3285SOL    HW221492   1.811   3.834   2.864  3.0921 -2.2985 -0.6484
 3286SOL     OW21493   4.438   3.014   4.954 -0.3198 -0.1441 -0.6649
 3286SOL    HW121494   4.450   3.102   4.917 -0.8389  0.6285  1.0306
 3286SOL    HW221495   4.450   3.031   5.047 -1.6176  0.4650 -0.6057
 3287SOL     OW21496   3.146   3.831   5.782  0.0244 -0.3473 -0.2006
 3287SOL    HW121497   3.097   3.882   5.717  0.2034 -0.3700 -0.3543
 3287SOL    HW221498   3.095   3.751   5.796  0.7960 -0.6153  1.0999
 3288SOL     OW21499   0.971   1.527   4.849  0.4249  0.1885 -0.0885
 3288SOL    HW121500   0.909   1.598   4.828  0.9201  1.1077  1.6121
 3288SOL    HW221501   1.019   1.575   4.916 -0.1279 -1.6614  1.6203
 3289SOL     OW21502   4.247   2.118   3.121  0.3392 -0.8205  0.0463
 3289SOL    HW121503   4.173   2.157   3.075 -0.4506 -2.0692  0.2495
 3289SOL    HW221504   4.272   2.184   3.185 -1.8142 -0.7588  0.8131
 3290SOL     OW21505   3.481   2.091  13.825  0.1737 -0.5108 -0.1453
 3290SOL    HW121506   3.441   2.178  13.831  1.6999  0.0467  2.0455
 3290SOL    HW221507   3.558   2.112  13.878  1.0871 -1.3930 -1.1560
 3291SOL     OW21508   4.097   4.455   8.307 -0.0646 -0.2208 -0.1740
 3291SOL    HW121509   4.049   4.450   8.389  2.0568 -2.0506  0.9459
 3291SOL    HW221510   4.177   4.411   8.333 -1.0351 -0.7004  1.9647
 3292SOL     OW21511   3.486   3.481   7.088 -0.3482  0.4228  0.5626
 3292SOL    HW121512   3.418   3.529   7.040 -0.3631  0.6047  0.7676
 3292SOL    HW221513   3.541   3.449   7.017 -0.0142  0.7796  0.6616
 3293SOL     OW21514   2.326   1.711   2.884  0.1305 -0.2966 -0.0288
 3293SOL    HW121515   2.308   1.805   2.895 -1.8125 -1.1051  3.7290
 3293SOL    HW221516   2.275   1.696   2.805  0.3533  0.0771 -0.2456
 3294SOL     OW21517   2.116   2.901  11.860  0.0181  1.1314  0.3592
 3294SOL    HW121518   2.096   2.886  11.953  2.7613  1.5226  1.0082
 3294SOL    HW221519   2.088   2.991  11.843 -1.3204  0.4719 -0.9933
 3295SOL     OW21520   1.566   0.255  13.064  0.7837  0.4018 -0.0660
 3295SOL    HW121521   1.492   0.313  13.044  0.0241 -0.0159  1.5292
 3295SOL    HW221522   1.608   0.246  12.979  0.2176  2.3743 -0.5466
 3296SOL     OW21523   1.672   1.957   6.661 -0.3303 -0.0057 -0.5924
 3296SOL    HW121524   1.760   1.985   6.635 -0.2475  0.5228  0.2303
 3296SOL    HW221525   1.651   2.020   6.730 -1.3782  0.0697 -0.9822
 3297SOL     OW21526   1.122   2.338   8.161 -0.6023  1.0101  0.2718
 3297SOL    HW121527   1.150   2.422   8.126  1.5892  0.9035  1.8270
 3297SOL    HW221528   1.149   2.280   8.089 -0.3028 -0.1236  1.3063
 3298SOL     OW21529   3.237   0.328   3.409 -0.2005 -0.3382 -0.2832
 3298SOL    HW121530   3.327   0.350   3.386 -0.2175  2.2025  2.0533
 3298SOL    HW221531   3.191   0.404   3.372 -1.0224 -0.3977  0.6183
 3299SOL     OW21532   2.814   0.063   8.522 -0.2542  0.1112 -0.0416
 3299SOL    HW121533   2.862   4.735   8.571  1.4723  2.6606  1.8117
 3299SOL    HW221534   2.892   0.103   8.483  1.6685 -1.8194  1.7591
 3300SOL     OW21535   0.455   0.905   9.078  0.0363 -0.6884  0.2187
 3300SOL    HW121536   0.394   0.920   9.150  0.0787  1.2669 -0.1751
 3300SOL    HW221537   0.529   0.963   9.093 -2.2878  2.3900 -0.2598
 3301SOL     OW21538   1.540   3.970   5.154  0.1583  0.1186  0.6095
 3301SOL    HW121539   1.626   3.990   5.117 -0.4971  0.7784 -0.5401
 3301SOL    HW221540   1.533   4.030   5.228  1.9653  0.6390  0.3754
 3302SOL     OW21541   2.670   2.012   4.732  0.4488 -0.7892 -0.0667
 3302SOL    HW121542   2.620   2.088   4.702  1.8804  0.8591  1.6964
 3302SOL    HW221543   2.660   1.947   4.663 -3.0016  2.8466 -2.9783
 3303SOL     OW21544   0.544   1.957   9.304  0.4496  0.0137 -0.2169
 3303SOL    HW121545   0.577   1.924   9.221 -1.2400 -1.6072 -0.2451
 3303SOL    HW221546   0.572   2.048   9.302 -0.7865  0.4436  1.4393
 3304SOL     OW21547   4.473   2.772   4.698 -0.2776  0.5019 -0.6740
 3304SOL    HW121548   4.510   2.841   4.642 -0.8845 -0.3754 -2.1726
 3304SOL    HW221549   4.526   2.694   4.680  0.8805  0.5476  2.6627
 3305SOL     OW21550   3.232   4.283   1.926  0.0949  0.0006  0.0485
 3305SOL    HW121551   3.258   4.291   2.018  0.1814 -0.5044  0.0659
 3305SOL    HW221552   3.287   4.209   1.901  0.7346  0.4358  0.1768
 3306SOL     OW21553   4.077   4.032  10.954 -0.0165 -0.0350  0.0167
 3306SOL    HW121554   4.003   3.996  10.904 -1.2870  0.8428  1.2575
 3306SOL    HW221555   4.023   4.089  11.009 -2.5646 -0.1113 -2.3737
 3307SOL     OW21556   1.618   0.333   8.000  0.0806 -0.6296 -0.1102
 3307SOL    HW121557   1.615   0.427   7.981 -1.3621 -0.4160  1.1341
 3307SOL    HW221558   1.644   0.292   7.918 -0.6749  0.4071 -0.8694
 3308SOL     OW21559   1.366   1.043  15.154  0.5440 -0.2462 -0.0961
 3308SOL    HW121560   1.299   0.991  15.110 -0.1963  1.6434 -1.2140
 3308SOL    HW221561   1.438   0.995  15.115 -0.3987 -0.2884 -1.7946
 3309SOL     OW21562   1.565   3.061   9.643 -0.3638 -0.2898 -0.9127
 3309SOL    HW121563   1.612   2.978   9.649  0.4618  0.2608  0.5091
 3309SOL    HW221564   1.627   3.105   9.585 -0.4199 -0.0904 -0.8229
 3310SOL     OW21565   1.837   0.505  11.417  0.1320 -0.6711 -0.2610
 3310SOL    HW121566   1.828   0.450  11.339  0.1744 -0.4834 -0.3979
 3310SOL    HW221567   1.864   0.589  11.381 -0.4982 -0.0560  0.6982
 3311SOL     OW21568   1.872   3.452  16.182 -0.2988  0.1140 -0.2888
 3311SOL    HW121569   1.852   3.435  16.274  0.2510 -2.7508 -0.6743
 3311SOL    HW221570   1.958   3.412  16.174 -0.7715 -0.7941 -0.9565
 3312SOL     OW21571   3.330   0.673   2.874 -0.0753 -0.5022 -0.2431
 3312SOL    HW121572   3.259   0.735   2.888  0.4532 -0.1778  0.9685
 3312SOL    HW221573   3.338   0.677   2.778  0.9154 -0.3171 -0.1570
 3313SOL     OW21574   1.067   3.748   3.152  0.0752 -0.4193  0.2090
 3313SOL    HW121575   1.068   3.757   3.057  0.1710 -0.4670  0.2055
 3313SOL    HW221576   0.992   3.803   3.174 -0.4263 -1.3302  0.7823
 3314SOL     OW21577   2.645   1.279   0.574  0.3190  0.4303 -0.3170
 3314SOL    HW121578   2.641   1.184   0.567  0.6889  0.4921 -1.3698
 3314SOL    HW221579   2.584   1.307   0.506  0.7802  0.1772 -0.8403
 3315SOL     OW21580   3.332   0.696   6.251  0.1820 -0.3900 -0.1803
 3315SOL    HW121581   3.393   0.624   6.268  0.4597  0.1910  1.2554
 3315SOL    HW221582   3.314   0.726   6.340  0.5443 -0.7919  0.0303
 3316SOL     OW21583   3.300   2.717  17.603  0.2668 -0.5004 -0.2524
 3316SOL    HW121584   3.321   2.758  17.519  0.5828 -2.6766 -1.2359
 3316SOL    HW221585   3.360   2.769  17.656 -0.1430  1.9221 -2.2131
 3317SOL     OW21586   3.938   0.693   5.221  0.1401 -0.3883 -0.2316
 3317SOL    HW121587   3.874   0.661   5.286  1.2405 -0.0535  1.0159
 3317SOL    HW221588   3.973   0.765   5.274 -0.8538  0.9504 -1.4087
 3318SOL     OW21589   0.927   1.812   5.631  0.2730  0.3870 -0.6244
 3318SOL    HW121590   0.899   1.721   5.638  0.7287  0.1801 -1.4338
 3318SOL    HW221591   1.001   1.797   5.571  2.6253 -3.1526  3.2197
 3319SOL     OW21592   3.280   0.776   9.499  0.6088 -0.2757  0.0803
 3319SOL    HW121593   3.282   0.835   9.574  0.5848 -2.2975  1.6666
 3319SOL    HW221594   3.225   0.711   9.541 -1.3292  1.7368  0.6140
 3320SOL     OW21595   2.852   4.074   7.585 -0.0077  0.4029 -0.2820
 3320SOL    HW121596   2.889   4.160   7.606 -1.1882  0.3214  2.1449
 3320SOL    HW221597   2.829   4.026   7.665 -1.3594  0.0098 -0.9246
 3321SOL     OW21598   3.645   2.597   4.004 -0.2474  0.7097 -0.1337
 3321SOL    HW121599   3.740   2.598   4.012 -0.1796 -0.3224 -0.7730
 3321SOL    HW221600   3.635   2.657   3.930 -0.8483  1.0594  0.2289
 3322SOL     OW21601   0.533   0.263   6.555 -0.3255  0.7206  0.4841
 3322SOL    HW121602   0.524   0.171   6.577 -0.7192  1.0824  1.7911
 3322SOL    HW221603   0.537   0.260   6.459 -1.8577  0.8682  0.4137
 3323SOL     OW21604   0.267   2.892   3.085 -0.3398  0.2193 -0.0883
 3323SOL    HW121605   0.362   2.901   3.082 -0.1866 -0.8840  1.1432
 3323SOL    HW221606   0.243   2.971   3.133  1.3396  1.0039 -0.5398
 3324SOL     OW21607   4.547   4.626   8.923 -0.6904 -0.4728 -0.3575
 3324SOL    HW121608   4.553   4.688   8.995 -0.6715  1.4727 -2.0155
 3324SOL    HW221609   4.463   4.587   8.949  0.0296 -0.2113  2.3417
 3325SOL     OW21610   1.112   0.646   2.777 -0.2892  0.4400  0.0282
 3325SOL    HW121611   1.123   0.741   2.771  2.4403  0.1949  1.1397
 3325SOL    HW221612   1.018   0.640   2.794  0.1268  1.1673  2.5826
 3326SOL     OW21613   3.039   0.613   8.303  0.2139  0.3921 -0.0686
 3326SOL    HW121614   3.079   0.697   8.277 -1.1915  1.3265  0.8137
 3326SOL    HW221615   3.059   0.566   8.222 -0.3052 -0.6415  0.4040
 3327SOL     OW21616   0.461   1.757  11.710  0.4520  0.2610 -0.2362
 3327SOL    HW121617   0.532   1.779  11.649  2.2340  0.8865  2.0606
 3327SOL    HW221618   0.485   1.813  11.784  1.7215 -2.0077  1.0696
 3328SOL     OW21619   1.775   3.764   5.530 -1.0499 -0.2662  0.0976
 3328SOL    HW121620   1.718   3.834   5.562 -1.0854  0.6925 -2.0134
 3328SOL    HW221621   1.760   3.763   5.435  2.2740  1.3185 -0.4412
 3329SOL     OW21622   0.981   1.310   6.239  0.0062 -0.9859  0.1673
 3329SOL    HW121623   1.052   1.246   6.233  1.6355  0.9727 -1.6000
 3329SOL    HW221624   0.996   1.331   6.331  0.0123  0.4969 -0.1616
 3330SOL     OW21625   0.845   2.032   7.377 -0.2078 -0.3883 -0.1356
 3330SOL    HW121626   0.786   2.077   7.317  2.2431  2.0589 -0.7160
 3330SOL    HW221627   0.865   2.104   7.438  0.1031  0.3654 -1.1192
 3331SOL     OW21628   3.473   2.939  17.735 -0.2345  0.4158  0.0511
 3331SOL    HW121629   3.522   2.927   0.060 -1.2429 -0.4928  0.5240
 3331SOL    HW221630   3.462   3.034  17.727 -2.6669 -0.0122 -1.7405
 3332SOL     OW21631   1.897   0.146  13.036 -0.2421 -0.0934  0.2335
 3332SOL    HW121632   1.851   0.132  13.119  0.6784 -4.1725  0.0346
 3332SOL    HW221633   1.936   0.060  13.022 -0.1951 -0.1708  0.8409
 3333SOL     OW21634   0.342   3.283   0.966  0.1484  0.2920  0.3048
 3333SOL    HW121635   0.341   3.353   0.901 -0.8147 -0.4720 -0.5057
 3333SOL    HW221636   0.254   3.304   0.997 -0.7608 -1.7304 -0.8657
 3334SOL     OW21637   1.182   3.436  11.297  0.0445 -0.2794  0.6115
 3334SOL    HW121638   1.225   3.354  11.323 -0.5923 -1.4905 -2.1429
 3334SOL    HW221639   1.157   3.416  11.207 -1.3150  0.2473  0.8834
 3335SOL     OW21640   3.105   0.471   1.564 -0.1508 -0.2098  0.1069
 3335SOL    HW121641   3.166   0.535   1.598  0.5103  0.2168 -1.8867
 3335SOL    HW221642   3.142   0.391   1.601  0.6973 -0.3510 -1.0521
 3336SOL     OW21643   1.467   0.191   6.018  0.1643 -0.1195  0.6003
 3336SOL    HW121644   1.412   0.246   5.962 -1.2608 -2.6902 -0.4980
 3336SOL    HW221645   1.550   0.240   6.024 -0.0971  0.3896  0.0217
 3337SOL     OW21646   3.825   3.324   7.366 -0.5150 -0.2913 -0.1374
 3337SOL    HW121647   3.872   3.302   7.285 -0.5855  1.6596 -0.7066
 3337SOL    HW221648   3.733   3.318   7.340 -1.0348 -1.2310  1.9425
 3338SOL     OW21649   2.509   2.306   6.226 -0.2404 -0.4667  0.4968
 3338SOL    HW121650   2.574   2.374   6.245 -0.0033 -0.5616  0.0296
 3338SOL    HW221651   2.554   2.229   6.261  1.9242  1.2930  1.5867
 3339SOL     OW21652   0.005   1.989   4.348  0.7656 -0.5204  0.5079
 3339SOL    HW121653   0.069   1.999   4.278  1.2712  0.4844  1.1061
 3339SOL    HW221654   0.055   1.996   4.430  1.4756 -1.1273  0.1228
 3340SOL     OW21655   0.502   4.119   8.670  0.1426  0.1620 -0.7564
 3340SOL    HW121656   0.425   4.115   8.613 -0.8868 -1.5180  0.7717
 3340SOL    HW221657   0.562   4.066   8.618  1.0301 -0.4174  0.8447
 3341SOL     OW21658   0.256   1.294   7.959  0.1810  0.4105 -0.0542
 3341SOL    HW121659   0.274   1.249   8.042 -0.3681 -1.5645 -1.0028
 3341SOL    HW221660   0.285   1.381   7.985  1.9665  0.0208 -0.7528
 3342SOL     OW21661   3.705   1.833   5.316  0.0079  0.1800 -0.4224
 3342SOL    HW121662   3.743   1.751   5.347 -3.4338 -0.9520  0.8539
 3342SOL    HW221663   3.613   1.808   5.309  0.0561  0.0595 -0.6443
 3343SOL     OW21664   2.383   3.629  10.731  0.3495 -0.4380  0.6384
 3343SOL    HW121665   2.309   3.650  10.788 -0.5335  0.8680 -1.0200
 3343SOL    HW221666   2.386   3.692  10.659  0.9225 -1.9218 -0.6251
 3344SOL     OW21667   2.200   0.418  12.497  0.1312 -0.1148  0.3621
 3344SOL    HW121668   2.284   0.402  12.541 -2.1074 -1.2314  4.2297
 3344SOL    HW221669   2.142   0.454  12.564  2.1852  0.7426  1.6817
 3345SOL     OW21670   0.370   0.327   8.212  0.1266 -0.2290 -0.3659
 3345SOL    HW121671   0.459   0.343   8.180  0.6020  2.8121  2.3935
 3345SOL    HW221672   0.385   0.258   8.277 -1.8544  2.2669  2.7869
 3346SOL     OW21673   2.647   4.424   4.286  0.0413  0.4098  0.1641
 3346SOL    HW121674   2.585   4.495   4.266  0.4688  0.7933  0.2083
 3346SOL    HW221675   2.724   4.457   4.241  0.7539  0.2099  1.2259
 3347SOL     OW21676   3.858   1.609  15.058  0.1784 -0.0407  0.0797
 3347SOL    HW121677   3.953   1.597  15.066 -0.0831 -0.9437  1.8599
 3347SOL    HW221678   3.858   1.671  14.985 -1.4099 -2.0068 -1.5928
 3348SOL     OW21679   4.453   2.404   6.181  0.4675 -0.1255 -0.2693
 3348SOL    HW121680   4.547   2.402   6.163 -0.0624  1.2854 -3.3061
 3348SOL    HW221681   4.460   2.383   6.274 -2.4588  1.4193  0.3072
 3349SOL     OW21682   4.048   2.266  10.466  0.1288  0.4696  0.4095
 3349SOL    HW121683   3.981   2.198  10.460  0.7698 -0.2094  0.9192
 3349SOL    HW221684   4.003   2.329  10.522  3.4382  3.6628 -0.4431
 3350SOL     OW21685   1.090   4.210   3.909 -0.1083  0.0685  0.1452
 3350SOL    HW121686   1.089   4.242   3.819 -1.1188 -0.9328 -0.1814
 3350SOL    HW221687   1.083   4.290   3.962  0.2347  0.1139  0.1274
 3351SOL     OW21688   3.875   4.614   1.952  0.3761 -0.2201  0.0366
 3351SOL    HW121689   3.910   4.699   1.979 -3.0941  0.8734  1.1208
 3351SOL    HW221690   3.800   4.609   2.012 -0.1621 -1.6964 -0.7629
 3352SOL     OW21691   3.225   0.767  14.483 -0.4694 -0.1251 -0.1296
 3352SOL    HW121692   3.170   0.691  14.463  0.1293 -1.0385  1.7159
 3352SOL    HW221693   3.235   0.816  14.401 -1.9354 -0.0155 -0.2383
 3353SOL     OW21694   4.688   2.032   3.980  0.2105  0.1164  0.1363
 3353SOL    HW121695   0.039   2.061   3.988  0.4282 -0.6461  0.4255
 3353SOL    HW221696   4.650   2.118   3.960  0.8174  0.4131  0.2621
 3354SOL     OW21697   1.489   4.380   4.394  0.2470  0.1903  0.3714
 3354SOL    HW121698   1.488   4.313   4.326 -1.7734  0.6889 -0.0853
 3354SOL    HW221699   1.443   4.335   4.466 -1.0838  1.1092  0.0993
 3355SOL     OW21700   2.662   0.899   1.358 -0.3547 -0.0132 -0.1043
 3355SOL    HW121701   2.625   0.858   1.436  2.5724 -1.3068  0.5936
 3355SOL    HW221702   2.657   0.991   1.383 -2.8927  0.2474 -1.5877
 3356SOL     OW21703   4.601   1.583   5.809  0.3007  0.6086 -0.2405
 3356SOL    HW121704   4.583   1.495   5.841  0.5658  1.5270  2.4647
 3356SOL    HW221705   4.550   1.639   5.867 -0.8806  0.2320 -0.9273
 3357SOL     OW21706   2.156   2.135   6.803 -0.3259  0.6066  0.1144
 3357SOL    HW121707   2.135   2.055   6.850  0.1708  0.9713  0.9516
 3357SOL    HW221708   2.223   2.111   6.738 -1.7837 -0.7304 -0.8786
 3358SOL     OW21709   3.317   0.404   9.381  0.3941 -0.2479 -0.3071
 3358SOL    HW121710   3.374   0.390   9.456 -0.5088  3.0783  1.0177
 3358SOL    HW221711   3.231   0.378   9.414 -0.4462  1.4971 -1.1079
 3359SOL     OW21712   2.796   1.066  17.182 -0.6599 -0.2721 -0.6978
 3359SOL    HW121713   2.801   1.109  17.268 -3.2576 -1.0158 -0.1581
 3359SOL    HW221714   2.872   1.008  17.189  0.0726  0.8273  0.4617
 3360SOL     OW21715   2.642   1.713   0.656 -0.3653  0.3403 -0.6399
 3360SOL    HW121716   2.632   1.672   0.570 -2.9892 -1.6406  0.6243
 3360SOL    HW221717   2.563   1.675   0.693 -0.7456  2.8528  1.1772
 3361SOL     OW21718   2.223   2.422  11.257  0.5231  0.2335 -0.0012
 3361SOL    HW121719   2.171   2.388  11.185  0.1090 -3.6912  2.1415
 3361SOL    HW221720   2.237   2.352  11.321 -1.5302 -1.0508 -0.9943
 3362SOL     OW21721   1.319   0.309  17.596  0.2370  0.4516  0.4229
 3362SOL    HW121722   1.270   0.390  17.591  1.4009  1.1531  0.4207
 3362SOL    HW221723   1.261   0.261  17.536 -0.7205 -0.6193  2.1833
 3363SOL     OW21724   3.452   4.491  15.018  0.7485 -0.3077  0.1709
 3363SOL    HW121725   3.482   4.582  15.022  1.5056 -0.4592 -2.1907
 3363SOL    HW221726   3.366   4.512  14.983  0.4285 -2.0730 -0.0951
 3364SOL     OW21727   1.900   2.781  14.010  0.0968  0.3742  0.2846
 3364SOL    HW121728   1.912   2.863  14.058  0.0455  0.7501 -0.3615
 3364SOL    HW221729   1.989   2.748  14.022 -0.4723 -0.9731  0.8502
 3365SOL     OW21730   0.422   0.175   9.400 -0.4445 -0.0903  0.4185
 3365SOL    HW121731   0.362   0.108   9.365 -0.6933  0.7977 -0.8547
 3365SOL    HW221732   0.499   0.120   9.418 -1.8261 -1.9379  0.7488
 3366SOL     OW21733   2.839   0.224   9.559  0.1122 -0.4619 -0.1046
 3366SOL    HW121734   2.775   0.274   9.508  0.9513  0.0360 -0.6847
 3366SOL    HW221735   2.783   0.149   9.582  1.0712 -0.6109  1.7335
 3367SOL     OW21736   4.160   2.732  14.922 -0.5621  0.1038  0.3635
 3367SOL    HW121737   4.206   2.649  14.912 -1.4122 -0.2759 -0.4011
 3367SOL    HW221738   4.181   2.789  14.848  0.7297 -0.5394  0.2363
 3368SOL     OW21739   0.283   1.336   0.622  0.0331  0.2241  0.2671
 3368SOL    HW121740   0.328   1.262   0.581 -1.4148 -0.0619 -0.7768
 3368SOL    HW221741   0.195   1.332   0.584  0.4348 -0.8934 -0.5651
 3369SOL     OW21742   1.172   3.428   7.043 -0.2951  0.0813  0.2359
 3369SOL    HW121743   1.229   3.353   7.064  0.2294 -0.0270 -1.5706
 3369SOL    HW221744   1.110   3.378   6.990 -0.3429 -0.5966  0.9236
 3370SOL     OW21745   1.660   0.103  11.886 -0.4000 -0.1958 -0.1309
 3370SOL    HW121746   1.567   0.123  11.884  0.1604  2.4016 -0.1504
 3370SOL    HW221747   1.659   0.018  11.930  0.2954  0.0764  0.4195
 3371SOL     OW21748   3.404   0.627   2.267  0.4014 -0.7446  0.0962
 3371SOL    HW121749   3.316   0.664   2.268  0.4505 -0.6553  0.7931
 3371SOL    HW221750   3.404   0.589   2.354 -1.1923 -2.4183 -0.6320
 3372SOL     OW21751   2.780   3.341   5.244  0.3828 -0.0840 -0.6676
 3372SOL    HW121752   2.846   3.298   5.297  0.4042  2.4601  1.3939
 3372SOL    HW221753   2.797   3.313   5.155  0.8069 -0.6265 -0.4146
 3373SOL     OW21754   4.673   1.031   2.116 -0.0926  0.1549 -0.2027
 3373SOL    HW121755   4.694   1.003   2.205 -2.1919 -0.8592 -0.0229
 3373SOL    HW221756   4.697   0.954   2.064  2.0671  0.8727 -0.2634
 3374SOL     OW21757   3.613   4.143   8.717  0.5395  0.1813 -0.6049
 3374SOL    HW121758   3.569   4.084   8.655  1.0388 -1.7705  0.9378
 3374SOL    HW221759   3.604   4.090   8.796  2.2571  0.4710 -0.2304
 3375SOL     OW21760   4.645   4.505   6.821  0.1594  0.1730 -0.1508
 3375SOL    HW121761   4.708   4.545   6.882 -0.1242  3.2791 -1.9222
 3375SOL    HW221762   4.687   4.420   6.803  0.7798  0.2165  1.0353
 3376SOL     OW21763   0.571   0.474   9.754  0.1451  0.6035 -0.0640
 3376SOL    HW121764   0.559   0.563   9.722 -2.0008  1.1045  2.1247
 3376SOL    HW221765   0.664   0.471   9.730  0.2640  1.6043  0.2581
 3377SOL     OW21766   1.568   2.090   2.425  0.0953 -0.5221 -0.1016
 3377SOL    HW121767   1.654   2.103   2.464  0.4435 -1.4622 -0.5448
 3377SOL    HW221768   1.566   2.005   2.380  1.1851 -0.4398 -0.2913
 3378SOL     OW21769   0.421   3.676   4.172 -0.1055 -0.1816  0.1497
 3378SOL    HW121770   0.507   3.672   4.213 -0.4041 -1.4994  0.6681
 3378SOL    HW221771   0.392   3.758   4.214  0.8414  0.9134 -1.3437
 3379SOL     OW21772   3.211   4.579  10.381  0.3654  0.3608 -0.1537
 3379SOL    HW121773   3.227   4.500  10.329  3.5331 -0.5215  2.1726
 3379SOL    HW221774   3.180   4.644  10.318 -2.1023 -2.7090 -2.1050
 3380SOL     OW21775   2.179   4.217   8.573 -0.5957 -0.0492  0.1918
 3380SOL    HW121776   2.168   4.288   8.637  0.1032  2.1570 -2.1266
 3380SOL    HW221777   2.267   4.188   8.596  0.5954  0.4854 -3.7023
 3381SOL     OW21778   4.472   4.410   2.497 -0.0022 -0.8162  0.1784
 3381SOL    HW121779   4.471   4.315   2.506 -0.0455 -1.0711 -2.3833
 3381SOL    HW221780   4.382   4.427   2.471 -0.0993 -1.4378  0.1036
 3382SOL     OW21781   4.519   3.677   7.369  0.2359 -0.2580 -0.1706
 3382SOL    HW121782   4.542   3.676   7.276  1.5627  0.6154  0.1578
 3382SOL    HW221783   4.524   3.582   7.379 -2.4980 -0.4290 -0.2564
 3383SOL     OW21784   2.435   0.207   8.604  0.2833  0.5296 -0.0213
 3383SOL    HW121785   2.402   0.274   8.664  2.0627  1.8711 -0.5269
 3383SOL    HW221786   2.405   0.122   8.636  2.3569  0.2174  1.0609
 3384SOL     OW21787   2.230   0.694   4.065 -0.2970  0.3938 -0.0166
 3384SOL    HW121788   2.179   0.639   4.006 -0.6152  0.6446  0.0302
 3384SOL    HW221789   2.205   0.777   4.026 -2.8365 -1.2809 -1.9287
 3385SOL     OW21790   2.312   2.127   2.980  0.5299 -0.3687  0.5684
 3385SOL    HW121791   2.244   2.189   3.005 -0.7079 -2.4290  2.3407
 3385SOL    HW221792   2.365   2.186   2.928  1.2824 -2.0935 -0.6244
 3386SOL     OW21793   2.593   3.990   5.320  0.0904  0.9111 -0.6235
 3386SOL    HW121794   2.598   4.080   5.353 -1.0173 -0.0015  2.0733
 3386SOL    HW221795   2.497   3.988   5.316  0.1493 -2.5751  0.0444
 3387SOL     OW21796   1.033   4.712  10.508  0.0751 -0.4291 -0.1513
 3387SOL    HW121797   0.982   4.676  10.581 -0.4836 -0.0739 -0.3682
 3387SOL    HW221798   0.990   4.665  10.437  0.2616  2.3390 -2.0725
 3388SOL     OW21799   3.944   0.211  13.352 -0.4869  0.1741  0.4101
 3388SOL    HW121800   3.862   0.231  13.307 -0.1973  0.7655  0.1486
 3388SOL    HW221801   3.926   0.255  13.435 -0.6795  0.5394  0.1750
 3389SOL     OW21802   3.838   0.928  17.273  0.2219  0.1663  0.0107
 3389SOL    HW121803   3.914   0.891  17.318  1.8059 -0.9342 -3.5726
 3389SOL    HW221804   3.799   0.851  17.232  0.0613  0.7756 -1.0044
 3390SOL     OW21805   3.410   0.556  14.557  0.3536  0.2053 -0.4423
 3390SOL    HW121806   3.359   0.637  14.556 -2.5260 -1.5826  2.0080
 3390SOL    HW221807   3.451   0.547  14.644  0.7597  0.5947 -0.5942
 3391SOL     OW21808   1.299   4.112   2.505  0.1297 -0.2531  0.0533
 3391SOL    HW121809   1.216   4.097   2.459  1.2485 -0.3350 -1.9635
 3391SOL    HW221810   1.356   4.046   2.464  0.6164 -0.2609  0.7471
 3392SOL     OW21811   2.756   3.035   4.142 -0.3360  0.8173 -0.4181
 3392SOL    HW121812   2.800   3.099   4.197 -1.1851  0.8510  0.2263
 3392SOL    HW221813   2.815   2.960   4.148  0.3836  1.4448  0.2449
 3393SOL     OW21814   3.545   1.712  15.786 -0.6995  0.0982  0.2619
 3393SOL    HW121815   3.483   1.780  15.811 -0.1497  0.2168  1.3218
 3393SOL    HW221816   3.628   1.758  15.774 -0.6575  0.5691  2.2522
 3394SOL     OW21817   4.507   4.074   5.920  0.2432 -0.7549  0.2545
 3394SOL    HW121818   4.437   4.009   5.909 -1.0825  0.8895 -1.0634
 3394SOL    HW221819   4.574   4.047   5.857  0.2319 -0.7243  0.2294
 3395SOL     OW21820   0.388   1.802   6.889 -0.0617  0.2638  0.1356
 3395SOL    HW121821   0.384   1.790   6.794 -1.2837  2.1388 -0.0507
 3395SOL    HW221822   0.483   1.801   6.903  0.3589  0.8353 -2.7778
 3396SOL     OW21823   2.789   0.003  15.710  0.2909 -0.6320  0.6841
 3396SOL    HW121824   2.862   0.033  15.764  0.6330 -0.1982 -0.0236
 3396SOL    HW221825   2.824   4.655  15.695  0.7456 -0.6667  1.8998
 3397SOL     OW21826   0.029   3.065   5.071  0.1970  0.3624  0.9858
 3397SOL    HW121827   0.025   3.072   4.976 -2.6386  0.8348  1.1146
 3397SOL    HW221828   0.066   2.977   5.080 -0.0987  0.0119 -1.1948
 3398SOL     OW21829   3.028   2.906   3.970 -1.0003  0.0935 -0.0238
 3398SOL    HW121830   3.038   2.890   3.877 -2.5944  1.3266 -0.3997
 3398SOL    HW221831   3.041   3.000   3.980 -0.4834 -0.2042  2.2226
 3399SOL     OW21832   4.053   4.049  14.023  0.2379 -0.0244  0.1912
 3399SOL    HW121833   4.062   4.124  13.965  2.5173  0.3089  0.9806
 3399SOL    HW221834   3.971   4.005  13.998  0.7884 -1.2380  0.4875
 3400SOL     OW21835   4.264   1.401   2.695  0.0674 -0.4745 -0.1182
 3400SOL    HW121836   4.235   1.470   2.635  2.3477  0.1946 -0.4588
 3400SOL    HW221837   4.193   1.339   2.684  1.3712 -1.7514 -1.2660
 3401SOL     OW21838   3.768   3.317   6.110  0.2299 -0.6666 -0.3050
 3401SOL    HW121839   3.783   3.223   6.100 -2.1036 -0.9759 -0.8415
 3401SOL    HW221840   3.764   3.343   6.019  1.2978 -0.3585 -0.2671
 3402SOL     OW21841   0.408   2.994   2.354 -0.2052 -0.1051 -0.6708
 3402SOL    HW121842   0.385   2.953   2.271  0.7302 -0.1216 -0.9274
 3402SOL    HW221843   0.328   2.978   2.404  0.9268 -0.1277  1.1569
 3403SOL     OW21844   0.263   2.580  11.522 -0.4864  0.8649  0.2863
 3403SOL    HW121845   0.194   2.626  11.569 -1.3390  0.3385 -0.4697
 3403SOL    HW221846   0.229   2.490  11.528 -1.2344  1.2133  1.2168
 3404SOL     OW21847   3.889   2.101  14.622  0.1915  0.0762 -0.3253
 3404SOL    HW121848   3.888   2.166  14.692  3.9060 -1.4740  1.1625
 3404SOL    HW221849   3.981   2.076  14.632  0.2997  0.9290  0.8290
 3405SOL     OW21850   0.622   1.728   4.514  0.1489 -0.0815  0.6661
 3405SOL    HW121851   0.585   1.657   4.462 -0.2449  0.2786  0.4554
 3405SOL    HW221852   0.563   1.731   4.589  0.0234 -0.9557  0.6034
 3406SOL     OW21853   2.179   1.085   3.545  0.0491 -0.4999  0.6034
 3406SOL    HW121854   2.256   1.099   3.490 -0.5606  1.9491  0.3922
 3406SOL    HW221855   2.220   1.050   3.624 -0.2155 -1.5013  0.2935
 3407SOL     OW21856   2.564   3.413   7.120  0.0573  0.0051 -0.3208
 3407SOL    HW121857   2.545   3.322   7.096 -1.7570  0.1634  0.5075
 3407SOL    HW221858   2.500   3.468   7.075  0.2132  0.0734 -0.4615
 3408SOL     OW21859   0.464   1.604   0.764 -0.0846  0.1594 -0.2171
 3408SOL    HW121860   0.519   1.600   0.843  0.6763 -0.4132 -0.7792
 3408SOL    HW221861   0.449   1.512   0.744 -1.9215  0.3667  0.1875
 3409SOL     OW21862   2.101   1.974   5.565 -0.1703  0.0107 -0.8335
 3409SOL    HW121863   2.131   1.912   5.632  2.6116  2.1471 -0.0928
 3409SOL    HW221864   2.174   2.036   5.564 -0.1526 -0.0133 -1.0253
 3410SOL     OW21865   1.314   1.171   1.833 -0.2803  1.1228 -0.3092
 3410SOL    HW121866   1.410   1.167   1.832 -0.3378 -0.0259 -0.7044
 3410SOL    HW221867   1.293   1.083   1.862  1.1935  1.2801  1.2221
 3411SOL     OW21868   0.867   2.671   3.114 -0.4068 -0.0145 -0.1407
 3411SOL    HW121869   0.782   2.636   3.089  0.3105 -1.5451 -0.4438
 3411SOL    HW221870   0.930   2.609   3.076 -0.3537 -0.6998  1.0611
 3412SOL     OW21871   3.379   1.047   6.810  0.0642 -0.0826 -0.1993
 3412SOL    HW121872   3.322   1.060   6.886  0.6974 -0.0043  0.2646
 3412SOL    HW221873   3.381   1.139   6.781 -2.1412  0.2933  0.8659
 3413SOL     OW21874   4.130   0.755   7.055 -0.2244  0.1836  0.3162
 3413SOL    HW121875   4.169   0.671   7.078 -0.4029 -0.3345 -1.2580
 3413SOL    HW221876   4.197   0.815   7.087  2.4121 -2.0733 -0.9447
 3414SOL     OW21877   3.340   3.011  17.406 -0.8480  0.1281  0.3607
 3414SOL    HW121878   3.369   2.924  17.377  2.5120  0.8930  1.4090
 3414SOL    HW221879   3.325   3.050  17.320  2.0849  1.6886  0.5493
 3415SOL     OW21880   0.382   3.274   2.308  0.2914 -0.1082  0.5489
 3415SOL    HW121881   0.347   3.257   2.221  1.2813  2.4035 -0.3085
 3415SOL    HW221882   0.386   3.189   2.353  1.2419 -0.9886 -1.2009
 3416SOL     OW21883   1.823   2.792   9.865  0.0803  0.1875 -0.1740
 3416SOL    HW121884   1.910   2.777   9.903  0.0564  0.6303  0.0568
 3416SOL    HW221885   1.796   2.875   9.903 -0.6876  0.0300 -0.3703
 3417SOL     OW21886   0.256   3.011   7.478 -0.0154  0.1411  0.1012
 3417SOL    HW121887   0.300   3.096   7.479 -0.9415  0.6179  0.2998
 3417SOL    HW221888   0.162   3.027   7.473  0.0619  0.9310  1.1830
 3418SOL     OW21889   1.605   3.991   1.136 -0.1185 -0.0218 -0.0795
 3418SOL    HW121890   1.559   4.011   1.054  0.4641  1.2964 -0.0878
 3418SOL    HW221891   1.610   4.072   1.187  1.6175  1.8756 -3.2413
 3419SOL     OW21892   2.804   3.175   2.728  0.0336 -0.0007  0.3768
 3419SOL    HW121893   2.732   3.238   2.734  1.5702  2.1051 -3.0870
 3419SOL    HW221894   2.885   3.220   2.754 -1.0298  1.4429  1.1796
 3420SOL     OW21895   3.696   0.469   5.175 -0.5648  0.3718  0.4525
 3420SOL    HW121896   3.773   0.427   5.212  0.5679 -0.1917 -2.4913
 3420SOL    HW221897   3.627   0.434   5.231  0.2935  2.2658  2.7109
 3421SOL     OW21898   0.841   0.444   7.057 -0.4024  0.5773  0.5024
 3421SOL    HW121899   0.879   0.357   7.041 -1.2531  0.2403  0.3303
 3421SOL    HW221900   0.919   0.483   7.097 -0.6264 -0.5770  2.0544
 3422SOL     OW21901   1.246   4.729  11.404 -0.5452 -0.1183  0.4405
 3422SOL    HW121902   1.271   4.710  11.494 -2.1139 -0.5118  0.7903
 3422SOL    HW221903   1.325   0.034  11.374 -0.7772  0.4377  0.6570
 3423SOL     OW21904   0.003   3.427   8.527  0.3544 -0.0481  0.3166
 3423SOL    HW121905   4.704   3.365   8.589 -0.2371 -0.2078 -0.2080
 3423SOL    HW221906   0.093   3.425   8.560  0.7462 -0.4876 -0.7552
 3424SOL     OW21907   4.190   3.126   6.251  0.0204 -0.3245  0.4603
 3424SOL    HW121908   4.160   3.211   6.220  0.9388  0.5263  1.8770
 3424SOL    HW221909   4.208   3.084   6.167 -1.3238 -0.1946  0.1133
 3425SOL     OW21910   2.275   4.310   7.316 -0.3155 -0.0307 -0.0640
 3425SOL    HW121911   2.347   4.362   7.279 -0.1761  0.3027  0.6723
 3425SOL    HW221912   2.323   4.246   7.367 -1.9829 -0.8245  0.4795
 3426SOL     OW21913   2.652   4.494   7.238 -0.2439 -0.1537 -0.1807
 3426SOL    HW121914   2.562   4.521   7.220  0.5521  2.1391 -0.8074
 3426SOL    HW221915   2.648   4.494   7.334  0.9586 -0.4450 -0.1339
 3427SOL     OW21916   1.000   2.204   4.845  0.2236  0.0054 -0.0468
 3427SOL    HW121917   0.923   2.200   4.788  0.3430  0.1784 -0.2184
 3427SOL    HW221918   1.002   2.120   4.891  1.1561 -0.5221 -1.0406
 3428SOL     OW21919   4.716   2.609   4.702 -0.3293 -0.2654  0.0698
 3428SOL    HW121920   4.722   2.515   4.685 -3.0874 -0.1907 -1.3573
 3428SOL    HW221921   4.730   2.604   4.797 -0.1134 -1.1027 -0.0105
 3429SOL     OW21922   3.160   2.964   3.366  0.7324  0.2749 -0.0155
 3429SOL    HW121923   3.073   2.979   3.330  1.0294  2.4864  0.1481
 3429SOL    HW221924   3.164   3.033   3.432 -1.5160  0.6328 -0.2438
 3430SOL     OW21925   4.279   1.231  16.030  0.1853 -0.1418  0.2635
 3430SOL    HW121926   4.289   1.244  16.124  1.8190 -0.5107  0.1385
 3430SOL    HW221927   4.367   1.258  16.004  0.4479  0.7551  2.1019
 3431SOL     OW21928   1.889   3.507   4.104  0.6832 -0.0892  0.2664
 3431SOL    HW121929   1.937   3.427   4.128  1.0781  0.4129  1.1475
 3431SOL    HW221930   1.958   3.573   4.103 -0.1249  0.7325 -0.4833
 3432SOL     OW21931   3.396   1.279  15.788 -0.1704  0.0807 -0.2399
 3432SOL    HW121932   3.470   1.339  15.787  1.0911 -1.5676 -2.5645
 3432SOL    HW221933   3.331   1.335  15.746 -2.0591 -1.6565  0.3583
 3433SOL     OW21934   0.000   3.847   9.148  0.1647 -0.1128 -0.1940
 3433SOL    HW121935   4.649   3.819   9.162 -0.3354  1.6775  0.1438
 3433SOL    HW221936   0.007   3.857   9.053  2.2383 -0.0994 -0.0393
 3434SOL     OW21937   3.971   0.269  14.981 -0.1832 -0.0687 -0.1020
 3434SOL    HW121938   3.983   0.325  15.058  1.4501  0.2235 -0.5725
 3434SOL    HW221939   4.020   0.190  15.002  2.8541  1.3893 -1.6666
 3435SOL     OW21940   4.649   3.672   8.806  0.2203 -0.1955 -0.1353
 3435SOL    HW121941   4.577   3.735   8.796  1.4541  1.4569  1.4443
 3435SOL    HW221942   4.606   3.607   8.861  1.9234  0.5889  2.1091
 3436SOL     OW21943   2.590   2.128   4.397  0.3352 -0.0881  0.5849
 3436SOL    HW121944   2.574   2.186   4.471  2.2203  3.9178 -2.1362
 3436SOL    HW221945   2.684   2.145   4.391 -0.0325  1.8981  0.6871
 3437SOL     OW21946   0.141   0.844   6.548  0.0604 -0.4593  0.1286
 3437SOL    HW121947   0.046   0.845   6.563 -0.4881 -0.3970 -3.2671
 3437SOL    HW221948   0.142   0.893   6.466  2.6094 -0.5483  0.1116
 3438SOL     OW21949   3.007   0.792   0.969 -0.4336 -0.0734 -0.0773
 3438SOL    HW121950   2.973   0.854   1.033 -2.3408 -3.6389  2.3741
 3438SOL    HW221951   2.937   0.785   0.905 -0.4582  0.7754 -0.1380
 3439SOL     OW21952   0.744   3.216   8.434 -0.6104 -0.0321  0.2846
 3439SOL    HW121953   0.717   3.265   8.512 -2.0483 -0.7040  0.2081
 3439SOL    HW221954   0.840   3.226   8.438 -0.5967 -0.1277  0.2015
 3440SOL     OW21955   4.249   0.747   2.466  0.0712  0.3363  0.4674
 3440SOL    HW121956   4.204   0.675   2.422  1.0832  0.5247 -0.8673
 3440SOL    HW221957   4.308   0.692   2.517 -0.0189 -2.2657 -2.1985
 3441SOL     OW21958   1.938   3.361  12.035 -0.0678 -0.8283 -0.3192
 3441SOL    HW121959   1.947   3.321  12.121  1.6895  1.3845  0.5202
 3441SOL    HW221960   1.981   3.297  11.978  1.6142 -0.8093  0.9299
 3442SOL     OW21961   2.775   2.235   1.660  0.3635 -0.3262 -0.6366
 3442SOL    HW121962   2.792   2.298   1.730  0.8356 -0.1564 -0.9055
 3442SOL    HW221963   2.680   2.224   1.672  0.0125  2.2020 -1.1529
 3443SOL     OW21964   1.969   2.546   0.708  0.1040 -0.3904  0.2734
 3443SOL    HW121965   1.879   2.562   0.737 -0.1345  0.0414 -0.6933
 3443SOL    HW221966   1.993   2.629   0.667 -3.8934  1.0313  0.7996
 3444SOL     OW21967   3.422   2.127   4.102  0.6307  0.2412  0.2610
 3444SOL    HW121968   3.458   2.061   4.043  0.7027 -1.5295  2.2546
 3444SOL    HW221969   3.447   2.088   4.186  2.1144  1.3975  0.3579
 3445SOL     OW21970   0.233   1.670   3.019  0.0954 -0.4876  0.1436
 3445SOL    HW121971   0.154   1.708   3.056 -0.6177 -2.0591  0.2192
 3445SOL    HW221972   0.216   1.576   3.030  0.3775 -0.6572 -0.8154
 3446SOL     OW21973   0.953   1.522   9.506 -0.0994 -0.8398 -0.3306
 3446SOL    HW121974   0.993   1.438   9.529 -0.3798 -0.9247 -0.1515
 3446SOL    HW221975   0.865   1.489   9.522 -1.0056  0.9096 -1.7684
 3447SOL     OW21976   3.331   0.322  10.305  0.7576 -1.0081  0.0704
 3447SOL    HW121977   3.272   0.280  10.367  0.0337 -0.3236 -0.1530
 3447SOL    HW221978   3.404   0.261  10.310  0.8149 -0.9039  0.5578
 3448SOL     OW21979   1.836   2.936   5.894 -0.4513 -0.2006 -0.8191
 3448SOL    HW121980   1.857   2.979   5.811 -3.4853  0.0070 -1.4862
 3448SOL    HW221981   1.926   2.936   5.925 -1.3638 -1.0114  1.9110
 3449SOL     OW21982   3.819   1.327   2.522 -0.4594 -0.3096 -0.0846
 3449SOL    HW121983   3.794   1.338   2.613 -1.7469  0.3126 -0.5208
 3449SOL    HW221984   3.774   1.251   2.486  0.0860  0.8156 -3.1532
 3450SOL     OW21985   2.058   1.429   5.931  0.4361 -0.3873 -0.3271
 3450SOL    HW121986   2.081   1.345   5.893  1.8789 -0.1472  0.0356
 3450SOL    HW221987   2.135   1.451   5.983 -1.7591  0.1712  2.6681
 3451SOL     OW21988   0.530   1.546   4.312  0.4767  0.1130  0.4048
 3451SOL    HW121989   0.461   1.497   4.267  0.2246  0.2102  0.6879
 3451SOL    HW221990   0.587   1.482   4.356  1.7282 -0.0655 -1.4691
 3452SOL     OW21991   4.461   3.662  12.433 -0.4799 -0.3260  0.0972
 3452SOL    HW121992   4.487   3.610  12.509 -0.8032 -0.6606 -0.0242
 3452SOL    HW221993   4.518   3.613  12.373 -1.9225 -1.3691 -0.4207
 3453SOL     OW21994   0.843   2.175  11.849  0.1811  0.3087 -0.5470
 3453SOL    HW121995   0.848   2.101  11.788 -0.7171  0.5500 -0.9032
 3453SOL    HW221996   0.917   2.218  11.806 -1.4009  1.7453 -1.8011
 3454SOL     OW21997   2.244   2.959  14.097  0.3057 -0.0404  1.3480
 3454SOL    HW121998   2.202   2.878  14.067 -2.1234  1.6410  0.1482
 3454SOL    HW221999   2.237   3.003  14.012  0.0934 -0.5393  1.1073
 3455SOL     OW22000   2.410   2.000   9.408 -0.0113 -0.4534 -0.1625
 3455SOL    HW122001   2.400   1.980   9.315  0.9478  1.7012 -0.7491
 3455SOL    HW222002   2.482   1.940   9.431 -2.2084 -2.0583  2.5309
 3456SOL     OW22003   2.563   2.251   7.160 -0.1520  0.4717  0.1694
 3456SOL    HW122004   2.497   2.273   7.094 -2.1536 -0.9453  1.7076
 3456SOL    HW222005   2.542   2.303   7.238  2.6400  1.3364  0.3429
 3457SOL     OW22006   3.547   3.538  16.528  0.1693  0.1927  0.4063
 3457SOL    HW122007   3.456   3.519  16.554  0.0032  2.0263  1.1165
 3457SOL    HW222008   3.525   3.604  16.463  1.5647  0.1718 -0.0670
 3458SOL     OW22009   1.241   1.297   5.172 -0.1484  0.2476  0.1983
 3458SOL    HW122010   1.181   1.230   5.139  1.5090 -0.8566 -0.5614
 3458SOL    HW222011   1.318   1.269   5.123  1.1510  4.0813  0.0404
 3459SOL     OW22012   2.144   4.162   6.548  0.5149 -0.1130 -0.5050
 3459SOL    HW122013   2.219   4.219   6.568  0.0968  0.8604 -1.7155
 3459SOL    HW222014   2.188   4.084   6.582 -0.4875 -0.9472 -1.1425
 3460SOL     OW22015   0.020   2.519   8.612 -0.2372 -0.6269  0.5305
 3460SOL    HW122016   0.063   2.570   8.543  1.0295 -0.6645  1.3011
 3460SOL    HW222017   4.665   2.531   8.601 -0.5282 -0.0043  3.7567
 3461SOL     OW22018   1.853   3.951   1.759  0.0104 -0.3258 -0.2751
 3461SOL    HW122019   1.894   3.928   1.676  1.6928  0.0107  0.4591
 3461SOL    HW222020   1.770   3.902   1.761  0.8629 -1.8683 -2.5595
 3462SOL     OW22021   0.647   2.200  13.286 -0.2657 -0.4619 -0.4305
 3462SOL    HW122022   0.563   2.156  13.299  1.0924 -2.7709  0.4872
 3462SOL    HW222023   0.611   2.289  13.276 -1.4900 -0.8178  0.7706
 3463SOL     OW22024   0.860   0.162  15.278  0.3711 -0.1826  0.6366
 3463SOL    HW122025   0.804   0.180  15.202 -0.3399 -0.0758  1.1906
 3463SOL    HW222026   0.931   0.224  15.267 -0.1302  0.3949  0.6280
 3464SOL     OW22027   3.361   2.365  11.706  0.1325 -0.5850  0.1884
 3464SOL    HW122028   3.401   2.425  11.643  0.8024 -0.9942  0.2156
 3464SOL    HW222029   3.329   2.299  11.644  2.8219 -0.7250 -1.0961
 3465SOL     OW22030   1.124   2.599   3.265  0.6681  0.0329 -0.1993
 3465SOL    HW122031   1.074   2.587   3.184  0.6365  1.3151 -0.3804
 3465SOL    HW222032   1.207   2.643   3.245  2.6270 -2.4448  2.6028
 3466SOL     OW22033   2.048   1.293   8.104 -0.7363  0.4176  0.2428
 3466SOL    HW122034   2.080   1.202   8.099 -0.7239  0.5468 -2.0283
 3466SOL    HW222035   1.977   1.291   8.167 -0.6633 -0.7745  0.2857
 3467SOL     OW22036   1.843   0.587  12.134  0.5796 -0.6552  0.2248
 3467SOL    HW122037   1.847   0.497  12.102 -0.1619 -0.7260  0.3316
 3467SOL    HW222038   1.876   0.573  12.223  0.0970  0.4943  0.5768
 3468SOL     OW22039   2.795   2.082   3.909 -0.0789  0.2592 -0.3449
 3468SOL    HW122040   2.851   2.149   3.870  0.7928 -1.0616 -1.4033
 3468SOL    HW222041   2.715   2.134   3.916  0.2553  0.9639 -1.6715
 3469SOL     OW22042   0.061   1.905  17.505  0.7360  0.3293  0.2357
 3469SOL    HW122043   0.136   1.855  17.473  0.6947  1.5739 -1.7740
 3469SOL    HW222044   0.095   1.919  17.594 -1.9306 -0.6420  1.4158
 3470SOL     OW22045   1.836   1.654   8.013 -0.6499  0.9040 -0.0436
 3470SOL    HW122046   1.798   1.703   7.940  0.0427  1.0626 -0.2976
 3470SOL    HW222047   1.761   1.646   8.073 -0.8127  0.0290 -0.3759
 3471SOL     OW22048   0.197   1.399   3.898  0.4468 -0.0155 -0.0649
 3471SOL    HW122049   0.190   1.310   3.864 -1.2849  0.4387 -0.8802
 3471SOL    HW222050   0.193   1.454   3.820 -0.5865  0.6616  0.4548
 3472SOL     OW22051   0.767   3.285   1.813 -0.5437 -0.7778 -0.0243
 3472SOL    HW122052   0.739   3.257   1.900 -2.3479 -0.3049 -0.4496
 3472SOL    HW222053   0.681   3.306   1.775  0.1421  1.7527 -0.2301
 3473SOL     OW22054   2.629   4.644  17.486 -0.0964 -0.1728  0.3828
 3473SOL    HW122055   2.642   4.577  17.418 -4.0320 -2.1352  1.5698
 3473SOL    HW222056   2.715   4.641  17.527  0.4382 -2.6822 -0.8759
 3474SOL     OW22057   3.851   1.730   6.510  0.0805 -0.1334 -0.0473
 3474SOL    HW122058   3.774   1.710   6.456 -0.0367 -1.0586  0.4590
 3474SOL    HW222059   3.920   1.676   6.472  0.6999 -0.6602  1.8512
 3475SOL     OW22060   0.271   3.312  17.675  0.2421  0.1804 -0.3132
 3475SOL    HW122061   0.273   3.245  17.607  1.3849 -0.0514 -0.0550
 3475SOL    HW222062   0.334   3.374  17.638  1.5305 -0.7143  0.3781
 3476SOL     OW22063   2.940   3.623   6.204  0.3547 -0.0188  0.2450
 3476SOL    HW122064   2.930   3.582   6.118 -0.5801 -1.3416  0.9935
 3476SOL    HW222065   2.895   3.705   6.184 -0.6331 -0.6937 -0.3065
 3477SOL     OW22066   4.541   3.996   0.975  0.1209  0.1486  0.6084
 3477SOL    HW122067   4.615   3.964   1.026  0.4259  0.9411  0.6573
 3477SOL    HW222068   4.554   3.959   0.888  0.9477 -0.9407  1.2042
 3478SOL     OW22069   4.712   2.093   9.135 -0.0570  0.1128  0.2100
 3478SOL    HW122070   0.028   2.159   9.092  1.0673 -0.6338  0.5224
 3478SOL    HW222071   4.696   2.036   9.060  1.6549  0.9542 -0.7838
 3479SOL     OW22072   3.657   3.371  12.066  0.0070  0.0035 -0.2550
 3479SOL    HW122073   3.646   3.298  12.126 -3.2653 -0.2815 -1.2363
 3479SOL    HW222074   3.588   3.331  12.014 -1.7576  0.4004  1.8247
 3480SOL     OW22075   1.765   2.228  10.719 -0.2402  0.2762  0.1146
 3480SOL    HW122076   1.822   2.259  10.649  0.0941 -0.5846 -0.0022
 3480SOL    HW222077   1.698   2.175  10.676 -0.5297  1.3413 -0.7590
 3481SOL     OW22078   2.647   4.173   1.965  0.4736  0.9157 -0.0438
 3481SOL    HW122079   2.658   4.231   2.041 -3.3781  1.0501  0.4396
 3481SOL    HW222080   2.733   4.165   1.925 -0.0419  0.6980 -1.0927
 3482SOL     OW22081   0.004   3.668   9.549  0.6041 -0.0696  0.1813
 3482SOL    HW122082   0.041   3.682   9.637 -0.3066 -0.5029  0.6369
 3482SOL    HW222083   4.722   3.756   9.520  0.4386 -0.2289 -0.1822
 3483SOL     OW22084   2.125   1.174   4.423 -0.4484 -0.3133  0.6717
 3483SOL    HW122085   2.116   1.205   4.514  0.0518 -2.8572  1.6016
 3483SOL    HW222086   2.037   1.203   4.398 -0.3636 -0.8210 -0.1912
 3484SOL     OW22087   1.873   4.513   1.748  0.5156  0.7606 -0.4097
 3484SOL    HW122088   1.781   4.539   1.753  0.6448  0.8099  1.5672
 3484SOL    HW222089   1.911   4.560   1.823 -1.0999 -1.7907  1.9935
 3485SOL     OW22090   4.080   0.709   9.665  0.0062  0.5914  0.1028
 3485SOL    HW122091   4.090   0.797   9.699 -1.1388 -0.3975  2.9830
 3485SOL    HW222092   4.028   0.719   9.585  1.6772  0.6151 -0.9758
 3486SOL     OW22093   0.322   2.829   6.388 -0.2621  0.1188  0.2788
 3486SOL    HW122094   0.397   2.804   6.442  0.9065  0.9351 -0.9729
 3486SOL    HW222095   0.341   2.922   6.381 -0.6137  0.2593  1.2971
 3487SOL     OW22096   2.092   2.454   3.318 -0.1598  0.0516  0.0857
 3487SOL    HW122097   2.120   2.389   3.382  0.1056 -0.6697 -0.7697
 3487SOL    HW222098   2.023   2.500   3.366  0.2400 -1.6565  2.2854
 3488SOL     OW22099   4.122   1.181   5.392 -0.7063  0.2160  0.6337
 3488SOL    HW122100   4.124   1.209   5.301 -1.8182 -1.8719 -0.0355
 3488SOL    HW222101   4.211   1.150   5.413 -0.7455 -2.3038 -2.8905
 3489SOL     OW22102   1.173   2.300   7.026  0.1186  0.1723  0.3581
 3489SOL    HW122103   1.160   2.255   6.943  1.7410  1.5016 -0.6184
 3489SOL    HW222104   1.093   2.280   7.074 -0.9799  1.3664 -0.9923
 3490SOL     OW22105   4.564   3.802   4.578  0.2117 -0.0487 -0.1930
 3490SOL    HW122106   4.593   3.734   4.518  0.2989 -0.7174  0.6176
 3490SOL    HW222107   4.556   3.883   4.527 -1.5384  0.2276  0.5043
 3491SOL     OW22108   3.885   1.240   5.018 -0.3402 -0.4009 -0.2093
 3491SOL    HW122109   3.942   1.312   4.991 -0.7751 -0.0186 -0.1030
 3491SOL    HW222110   3.874   1.255   5.111 -0.0766  2.0493 -0.5845
 3492SOL     OW22111   1.688   4.163   4.402 -0.0776 -0.2469 -0.2118
 3492SOL    HW122112   1.701   4.124   4.315 -2.1795 -1.0563 -0.1722
 3492SOL    HW222113   1.648   4.247   4.381 -0.5822 -0.6965 -1.0562
 3493SOL     OW22114   0.755   2.995  12.951 -0.4933  0.5458 -0.2805
 3493SOL    HW122115   0.773   3.083  12.986 -0.4149  0.0636  0.9160
 3493SOL    HW222116   0.837   2.952  12.974 -1.0875  1.2655  3.2896
 3494SOL     OW22117   2.085   3.565  10.662  0.6924  0.4085  0.1612
 3494SOL    HW122118   2.123   3.653  10.665 -0.3088  0.8622 -0.2126
 3494SOL    HW222119   2.008   3.589  10.610 -0.3492 -0.7179  1.2101
 3495SOL     OW22120   2.598   0.583   0.114 -0.1114 -0.3788 -0.4923
 3495SOL    HW122121   2.638   0.497   0.124  1.4797  0.3651 -0.4350
 3495SOL    HW222122   2.563   0.589   0.203  1.3960 -0.9418  0.1383
 3496SOL     OW22123   2.421   3.946  11.369  0.4945 -0.1228 -0.1325
 3496SOL    HW122124   2.399   3.959  11.277  3.8071  1.7871 -0.6777
 3496SOL    HW222125   2.359   3.881  11.401  1.0754 -0.8527 -0.4858
 3497SOL     OW22126   1.874   0.300  12.576 -0.3645 -0.2578 -0.1035
 3497SOL    HW122127   1.938   0.347  12.630 -0.1030  1.2872 -1.7861
 3497SOL    HW222128   1.924   0.302  12.494 -2.0181  1.2483 -1.0701
 3498SOL     OW22129   0.651   2.948   8.167 -0.1500  0.5651 -0.0861
 3498SOL    HW122130   0.640   2.959   8.261 -0.3913 -2.6739  0.2530
 3498SOL    HW222131   0.743   2.968   8.149  0.8164 -2.0083  1.9593
 3499SOL     OW22132   4.295   0.723   6.810  0.2490 -0.2047  0.1164
 3499SOL    HW122133   4.205   0.754   6.805  0.9862  1.8528 -0.3270
 3499SOL    HW222134   4.294   0.665   6.886  3.9259 -1.4392 -0.7938
 3500SOL     OW22135   1.711   0.860   6.843 -0.2722  0.0741 -0.2875
 3500SOL    HW122136   1.631   0.820   6.808  1.2039 -3.3658  0.2886
 3500SOL    HW222137   1.677   0.894   6.926 -2.8091 -1.0623 -0.8435
 3501SOL     OW22138   3.434   2.427   2.860  0.0252  0.3086 -0.2494
 3501SOL    HW122139   3.390   2.413   2.777  0.8958 -1.5721 -0.3913
 3501SOL    HW222140   3.523   2.391   2.854  0.5840  1.8458 -1.0641
 3502SOL     OW22141   4.264   0.505   8.656  0.4921  0.2276 -0.4783
 3502SOL    HW122142   4.266   0.459   8.571 -2.1726  0.7909 -0.8439
 3502SOL    HW222143   4.288   0.434   8.715 -0.8710  0.9058  0.8822
 3503SOL     OW22144   3.733   2.910   2.428  0.1858 -0.4844 -0.4765
 3503SOL    HW122145   3.802   2.941   2.370  1.0610  0.8270  1.2964
 3503SOL    HW222146   3.761   2.941   2.514  1.3454 -2.2593 -0.2030
 3504SOL     OW22147   1.524   4.341   8.294  0.1778 -0.4809  0.0208
 3504SOL    HW122148   1.586   4.329   8.222 -0.5161 -0.2439 -0.6184
 3504SOL    HW222149   1.580   4.389   8.354 -0.2000  0.0642 -0.0678
 3505SOL     OW22150   3.798   3.895   8.632 -0.3849 -0.3071  0.0025
 3505SOL    HW122151   3.819   3.865   8.544  0.6594  0.2126  0.0830
 3505SOL    HW222152   3.705   3.917   8.619  0.0019  2.5221  1.8973
 3506SOL     OW22153   2.775   4.194  11.655  0.2158  0.3642 -0.1045
 3506SOL    HW122154   2.712   4.124  11.640 -1.1962  1.9793 -1.5491
 3506SOL    HW222155   2.809   4.213  11.568 -3.2094  0.0799 -1.4685
 3507SOL     OW22156   3.288   4.723   8.916  0.6018  0.6540  0.3804
 3507SOL    HW122157   3.305   4.696   8.826  0.4485  1.0237  0.2401
 3507SOL    HW222158   3.198   0.012   8.897  1.4866  2.7743 -0.6353
 3508SOL     OW22159   1.614   2.847   4.884  0.4358  0.0938 -0.3724
 3508SOL    HW122160   1.641   2.893   4.805 -0.3784 -1.4646 -1.5413
 3508SOL    HW222161   1.563   2.917   4.925  0.9220 -0.4801  1.2144
 3509SOL     OW22162   4.422   3.027   4.187  0.0365 -0.1675 -0.3893
 3509SOL    HW122163   4.393   2.967   4.256 -0.0258  1.7688  1.2690
 3509SOL    HW222164   4.413   3.112   4.231  1.6911 -0.3141  0.2250
 3510SOL     OW22165   4.493   2.786   0.378 -0.3871  0.0702 -0.3744
 3510SOL    HW122166   4.440   2.709   0.354  0.3091 -0.5431  0.0400
 3510SOL    HW222167   4.497   2.828   0.292 -2.6935 -0.0091 -0.5024
 3511SOL     OW22168   4.418   1.320  11.726 -0.0167  0.5550 -0.1709
 3511SOL    HW122169   4.482   1.366  11.780 -0.6554 -1.0698  1.9866
 3511SOL    HW222170   4.341   1.321  11.784  0.0803  0.7394 -0.0458
 3512SOL     OW22171   4.297   2.560   4.492  0.1849 -0.6369 -0.5259
 3512SOL    HW122172   4.375   2.611   4.470  0.9989 -1.6681 -0.0431
 3512SOL    HW222173   4.337   2.491   4.546  2.0584  0.3239 -0.7030
 3513SOL     OW22174   1.306   1.972   8.577  0.4894 -0.8650 -0.3662
 3513SOL    HW122175   1.304   1.972   8.482 -1.7167  0.3928 -0.3012
 3513SOL    HW222176   1.400   1.955   8.586  1.2500  2.0663 -2.9306
 3514SOL     OW22177   3.617   3.572   3.872 -0.3461 -0.2865  0.3470
 3514SOL    HW122178   3.574   3.488   3.890  0.2035 -1.0374 -1.8388
 3514SOL    HW222179   3.642   3.555   3.781 -1.4116 -1.3272  0.2423
 3515SOL     OW22180   2.836   0.094   5.763  0.0844  0.2701  0.1375
 3515SOL    HW122181   2.886   0.013   5.771  0.4608  0.4874 -0.0038
 3515SOL    HW222182   2.851   0.132   5.849 -0.9498  0.3635  0.2818
 3516SOL     OW22183   2.460   1.722   9.130  0.1795 -0.3498 -0.3456
 3516SOL    HW122184   2.368   1.741   9.151 -0.5866 -4.0041 -0.3543
 3516SOL    HW222185   2.502   1.786   9.188 -0.1270 -0.7346  0.3047
 3517SOL     OW22186   3.247   2.822   4.155 -0.3786  0.3744  0.3584
 3517SOL    HW122187   3.188   2.851   4.085  0.3235  0.3142 -0.2670
 3517SOL    HW222188   3.256   2.730   4.128 -2.2468  0.5831 -1.0352
 3518SOL     OW22189   1.884   0.426   6.520 -0.1268  0.3868  0.1227
 3518SOL    HW122190   1.826   0.350   6.526 -0.6385  0.5972 -2.1840
 3518SOL    HW222191   1.965   0.379   6.542 -1.2548 -1.2108  0.8391
 3519SOL     OW22192   0.656   0.156  16.448  0.5217 -0.9497 -0.1899
 3519SOL    HW122193   0.581   0.143  16.505  1.2577 -0.2705  0.9226
 3519SOL    HW222194   0.732   0.118  16.490 -0.9320 -3.2180  0.3473
 3520SOL     OW22195   0.608   2.725   3.413  0.1372 -0.4455 -0.0479
 3520SOL    HW122196   0.560   2.804   3.437  1.7003 -0.3191  2.6584
 3520SOL    HW222197   0.694   2.741   3.452 -0.4557  1.6321  0.4000
 3521SOL     OW22198   2.069   0.686   9.485  0.1497  0.1610 -0.0095
 3521SOL    HW122199   2.159   0.682   9.453 -0.1714 -0.8299 -0.7604
 3521SOL    HW222200   2.078   0.750   9.556 -0.1068  0.4844 -0.2738
 3522SOL     OW22201   2.450   4.085  10.467 -0.0669  0.1639  0.8640
 3522SOL    HW122202   2.357   4.101  10.480 -0.0758 -0.4973  1.5912
 3522SOL    HW222203   2.459   4.127  10.381  3.7934  0.2451  1.2961
 3523SOL     OW22204   2.815   3.257  13.408 -0.3790 -0.0229 -0.7986
 3523SOL    HW122205   2.863   3.206  13.474 -0.1130  1.2554 -0.0120
 3523SOL    HW222206   2.893   3.299  13.371  2.2908 -4.3225 -0.0834
 3524SOL     OW22207   1.968   1.495   3.942  0.1173 -0.1758  0.0159
 3524SOL    HW122208   2.045   1.477   3.995 -1.1529  1.3315  2.3853
 3524SOL    HW222209   1.957   1.410   3.901 -1.5826 -0.2602  0.6486
 3525SOL     OW22210   2.122   1.618   8.022 -0.6599  0.6853  0.2072
 3525SOL    HW122211   2.136   1.548   8.086 -0.8946 -0.4804 -1.0253
 3525SOL    HW222212   2.033   1.644   8.048  0.0400  2.4751  0.7820
 3526SOL     OW22213   1.781   4.327   9.304 -0.4815  0.5244  0.5712
 3526SOL    HW122214   1.833   4.404   9.326  0.8708 -0.1910 -0.1381
 3526SOL    HW222215   1.695   4.369   9.292 -0.1209  1.1098  0.0258
 3527SOL     OW22216   3.453   3.510   9.421  0.3561  0.1804  0.1340
 3527SOL    HW122217   3.375   3.561   9.443 -0.6974 -0.3644 -2.3430
 3527SOL    HW222218   3.514   3.579   9.396  0.6912 -0.0969  0.1837
 3528SOL     OW22219   0.289   3.450  16.212 -0.2639  0.1133  0.0739
 3528SOL    HW122220   0.253   3.463  16.124  1.2020  0.4531 -0.4641
 3528SOL    HW222221   0.379   3.468  16.186  0.2086 -2.4038 -0.0388
 3529SOL     OW22222   4.556   2.263   3.639  0.0684  0.1074  0.0100
 3529SOL    HW122223   4.478   2.210   3.622  0.6233 -0.7450  0.1561
 3529SOL    HW222224   4.538   2.298   3.726  1.9283 -0.6829  0.7221
 3530SOL     OW22225   1.995   4.334   8.986  0.2287 -0.1705  0.1645
 3530SOL    HW122226   1.979   4.264   9.050 -2.1703  0.2805  0.0408
 3530SOL    HW222227   2.002   4.410   9.043  0.4139 -0.7483  0.9235
 3531SOL     OW22228   4.434   2.161   6.759  0.0830  0.0572 -0.0420
 3531SOL    HW122229   4.408   2.192   6.846 -0.1742 -0.7713  0.1770
 3531SOL    HW222230   4.501   2.226   6.736  2.3842 -1.9379  1.0457
 3532SOL     OW22231   0.037   0.914  12.968 -0.2188 -0.4269 -0.2019
 3532SOL    HW122232   0.005   0.878  12.885  0.8430 -2.5361  0.3085
 3532SOL    HW222233   4.706   0.971  12.998  0.6434  0.0010  1.0222
 3533SOL     OW22234   3.277   3.349   8.107  0.0589  0.0529 -0.2144
 3533SOL    HW122235   3.315   3.262   8.097  0.2633  0.2269 -0.9325
 3533SOL    HW222236   3.184   3.324   8.107  0.9426 -3.2714 -2.7093
 3534SOL     OW22237   2.359   1.111   2.085  0.3154 -0.5630 -0.1217
 3534SOL    HW122238   2.455   1.115   2.079  0.7005 -3.4638  3.4162
 3534SOL    HW222239   2.329   1.134   1.998  0.7914 -1.1750 -0.4493
 3535SOL     OW22240   3.219   1.095   6.155 -0.7738  0.2306  0.3290
 3535SOL    HW122241   3.311   1.070   6.154 -0.4458  1.3196  2.7409
 3535SOL    HW222242   3.194   1.051   6.237  2.6803 -0.6519  0.8791
 3536SOL     OW22243   0.267   3.689   3.041  0.2080 -0.3621 -0.2604
 3536SOL    HW122244   0.182   3.688   3.085 -0.4572 -0.0400 -1.5454
 3536SOL    HW222245   0.237   3.680   2.950  1.4683 -2.9910 -0.4231
 3537SOL     OW22246   0.019   4.385   5.000  0.1260 -0.0046  0.0706
 3537SOL    HW122247   0.018   4.470   5.045  1.3760  0.1071 -0.1101
 3537SOL    HW222248   0.106   4.350   5.018 -0.8370 -1.0082  2.7194
 3538SOL     OW22249   2.923   1.916   5.505 -0.6164  0.3727 -0.3561
 3538SOL    HW122250   2.966   1.971   5.440 -0.1058  2.2346  1.5269
 3538SOL    HW222251   2.995   1.855   5.522 -1.6000 -0.9832 -1.1052
 3539SOL     OW22252   3.016   2.711  16.280 -0.3112  0.7382 -0.6934
 3539SOL    HW122253   3.033   2.642  16.215 -0.7951  1.5210 -1.6643
 3539SOL    HW222254   2.928   2.688  16.308  0.1746  1.3352  1.2660
 3540SOL     OW22255   2.425   2.601   5.371 -0.0639 -0.2071  0.1699
 3540SOL    HW122256   2.385   2.520   5.403  3.7949 -2.1770  0.0730
 3540SOL    HW222257   2.503   2.572   5.322 -0.0095  1.7918 -0.8940
 3541SOL     OW22258   2.996   3.813   4.562 -0.4865  0.2852  0.2399
 3541SOL    HW122259   2.980   3.843   4.473 -1.2344  1.9268  0.9257
 3541SOL    HW222260   2.959   3.888   4.609 -1.1609  0.4689 -0.5781
 3542SOL     OW22261   2.065   2.320  14.099  0.1827  0.4614 -0.3642
 3542SOL    HW122262   2.023   2.405  14.109 -0.3552  0.2409 -0.7461
 3542SOL    HW222263   2.028   2.295  14.015 -0.1060  0.7944 -0.3350
 3543SOL     OW22264   3.207   0.572   3.286  0.8573 -0.0453 -0.2971
 3543SOL    HW122265   3.284   0.571   3.229  0.3385  3.2174 -1.0922
 3543SOL    HW222266   3.156   0.650   3.265  0.7880  0.0441  0.1925
 3544SOL     OW22267   3.078   0.804   4.444  0.2294  0.8080 -0.0095
 3544SOL    HW122268   3.032   0.836   4.521  0.1693  3.2543 -1.0623
 3544SOL    HW222269   3.119   0.887   4.420 -1.1266  1.2268 -0.8385
 3545SOL     OW22270   0.634   0.206   1.459 -0.4987 -0.4848  0.2806
 3545SOL    HW122271   0.712   0.235   1.506  0.4597  1.3145 -2.4880
 3545SOL    HW222272   0.663   0.214   1.369  0.8824  0.6656  0.8342
 3546SOL     OW22273   3.136   4.638   2.957 -0.1500  0.4234  0.3004
 3546SOL    HW122274   3.128   4.733   2.950  2.9220  0.6004 -0.8565
 3546SOL    HW222275   3.194   4.618   2.884 -0.0720  0.7627  0.2665
 3547SOL     OW22276   4.479   2.002   8.277  0.2740 -0.2911 -0.2138
 3547SOL    HW122277   4.384   1.999   8.277  0.2391  1.0424 -1.9356
 3547SOL    HW222278   4.490   2.083   8.226 -2.5827  0.4537  0.3766
 3548SOL     OW22279   1.786   2.046  17.015  0.6299  0.7639 -0.6035
 3548SOL    HW122280   1.784   2.134  17.051 -2.1700  0.2376  0.5177
 3548SOL    HW222281   1.701   2.025  16.975  1.0941 -0.9403 -0.6819
 3549SOL     OW22282   2.111   1.314  11.623  0.9589 -0.1417  0.4372
 3549SOL    HW122283   2.155   1.346  11.544  2.2194  2.3205  2.1573
 3549SOL    HW222284   2.154   1.232  11.646 -0.1521 -1.0625 -0.7673
 3550SOL     OW22285   1.019   2.953   6.139 -0.0288  0.1724  0.5831
 3550SOL    HW122286   0.944   2.901   6.112  0.3831  0.5490 -1.2899
 3550SOL    HW222287   0.984   2.998   6.215  1.1592 -2.2232  2.5589
 3551SOL     OW22288   0.567   1.873  17.247 -0.1222  0.0966 -0.1425
 3551SOL    HW122289   0.559   1.894  17.340  0.9703 -4.1434  0.8967
 3551SOL    HW222290   0.484   1.827  17.236 -0.1323 -0.3878  1.9901
 3552SOL     OW22291   1.439   0.310   7.078 -0.0029 -0.2457 -0.4091
 3552SOL    HW122292   1.494   0.233   7.065  0.0850 -0.3205  0.3842
 3552SOL    HW222293   1.431   0.310   7.173 -0.1218 -1.4704 -0.4223
 3553SOL     OW22294   3.332   1.827   6.865 -0.2416 -0.2983  0.1892
 3553SOL    HW122295   3.421   1.835   6.900 -1.1592  1.1448  2.1700
 3553SOL    HW222296   3.298   1.914   6.884 -1.1077 -0.8534  1.2366
 3554SOL     OW22297   4.052   3.277   5.200 -0.4729 -0.1177  0.3872
 3554SOL    HW122298   3.975   3.267   5.255  0.1220 -0.0738  1.2365
 3554SOL    HW222299   4.038   3.204   5.140  1.4359  0.2344 -0.4926
 3555SOL     OW22300   2.657   0.668  15.659 -0.5568 -0.2495  0.2895
 3555SOL    HW122301   2.710   0.743  15.688 -0.7589 -0.0176  0.0633
 3555SOL    HW222302   2.573   0.713  15.662  0.1525  1.1635 -0.5705
 3556SOL     OW22303   4.615   1.515   5.241 -0.1854  0.1291 -0.3139
 3556SOL    HW122304   4.594   1.528   5.333 -1.6349  2.8817 -1.0329
 3556SOL    HW222305   4.625   1.608   5.220 -1.2027 -0.1820 -2.1693
 3557SOL     OW22306   2.798   3.918   9.226 -0.0509 -0.1443  0.2042
 3557SOL    HW122307   2.753   3.838   9.201  1.0852 -0.8228  0.3088
 3557SOL    HW222308   2.758   3.941   9.310  0.0149  0.5152  0.0608
 3558SOL     OW22309   2.314   3.438   5.469 -0.0235  0.1291 -0.3540
 3558SOL    HW122310   2.331   3.477   5.555 -0.2277 -0.0668 -0.2251
 3558SOL    HW222311   2.383   3.373   5.455 -0.0675 -0.0248  0.1442
 3559SOL     OW22312   2.127   3.476   5.122 -0.5688 -0.3577  0.0346
 3559SOL    HW122313   2.204   3.422   5.105 -0.7204 -0.5572 -0.0268
 3559SOL    HW222314   2.091   3.481   5.033 -2.0125  3.3436  0.8108
 3560SOL     OW22315   4.038   2.442  12.972 -0.4032 -0.3103  0.1829
 3560SOL    HW122316   3.995   2.373  12.921 -0.0907 -0.0386 -0.4464
 3560SOL    HW222317   4.024   2.403  13.058  2.5575 -0.7462  0.4538
 3561SOL     OW22318   3.106   0.934  13.450  0.6336 -0.3102 -0.5549
 3561SOL    HW122319   3.100   0.872  13.377 -1.3253 -0.1629 -0.5301
 3561SOL    HW222320   3.050   0.894  13.518 -0.6620  1.4805 -0.5752
 3562SOL     OW22321   3.437   1.819   9.715  0.1867 -0.4784  0.1281
 3562SOL    HW122322   3.481   1.779   9.640 -0.2070 -0.9368  0.1407
 3562SOL    HW222323   3.504   1.876   9.754 -1.4533  1.6025 -0.0576
 3563SOL     OW22324   1.608   0.572   4.234 -0.6868  0.1071  0.8374
 3563SOL    HW122325   1.569   0.526   4.160 -1.2029  1.2742  0.3761
 3563SOL    HW222326   1.696   0.536   4.231 -0.5950  0.5713 -1.5723
 3564SOL     OW22327   3.484   0.468   6.297 -0.1070 -0.1844  0.3130
 3564SOL    HW122328   3.577   0.453   6.286  0.0050 -1.2940  2.8465
 3564SOL    HW222329   3.460   0.437   6.385  1.0501 -0.8403  0.3983
 3565SOL     OW22330   4.272   1.652   0.308  0.6657  0.5930 -0.1136
 3565SOL    HW122331   4.316   1.702   0.239  0.0980  0.6777 -0.4189
 3565SOL    HW222332   4.274   1.566   0.266 -2.0818  1.1094 -1.3239
 3566SOL     OW22333   3.108   0.947  15.959  0.0229 -0.2896 -0.0422
 3566SOL    HW122334   3.203   0.948  15.971 -0.1981 -0.2068  1.7804
 3566SOL    HW222335   3.076   0.952  16.049 -0.2767 -0.5036 -0.1387
 3567SOL     OW22336   0.621   3.625   7.456 -0.0934 -0.2165 -0.0052
 3567SOL    HW122337   0.558   3.629   7.385  0.9669 -0.7578 -0.9840
 3567SOL    HW222338   0.686   3.614   7.386  1.0442  0.4115  0.9492
 3568SOL     OW22339   1.154   4.156   4.529  0.4382 -0.0171 -0.1307
 3568SOL    HW122340   1.079   4.215   4.524  1.4222  1.2894  0.5881
 3568SOL    HW222341   1.152   4.132   4.436  2.6835 -2.6396  0.5223
 3569SOL     OW22342   1.989   2.882   7.616  0.7155  0.6216 -0.4003
 3569SOL    HW122343   1.922   2.894   7.683  2.9591 -1.2948  2.2109
 3569SOL    HW222344   2.069   2.912   7.661 -0.5659  0.5428  1.9263
 3570SOL     OW22345   3.800   0.420  17.037 -0.5895 -0.5952 -0.1659
 3570SOL    HW122346   3.813   0.364  17.113  0.4148 -0.4957 -0.2651
 3570SOL    HW222347   3.890   0.418  17.003 -0.9708  3.0783 -1.3341
 3571SOL     OW22348   0.157   3.765   4.528  0.0270  0.2380  0.1991
 3571SOL    HW122349   0.157   3.680   4.484 -2.3194 -0.0113  0.6381
 3571SOL    HW222350   0.136   3.724   4.612 -2.5932 -1.0036 -1.0458
 3572SOL     OW22351   4.606   4.519   4.327  0.9748  0.0489 -0.1741
 3572SOL    HW122352   4.556   4.449   4.369 -2.1094  0.2654 -3.3893
 3572SOL    HW222353   4.678   4.535   4.387 -0.2773  0.6813  1.1631
 3573SOL     OW22354   0.156   3.515   3.372 -0.2332  0.6280  0.4354
 3573SOL    HW122355   0.178   3.498   3.280 -2.1120 -1.0280  0.3146
 3573SOL    HW222356   0.159   3.611   3.370  4.8409  0.4514 -1.5732
 3574SOL     OW22357   2.282   1.240   8.249  0.2661  0.0808 -0.2124
 3574SOL    HW122358   2.265   1.154   8.211  0.2585  1.5252 -3.4330
 3574SOL    HW222359   2.195   1.278   8.240  1.4557  2.7620 -0.3453
 3575SOL     OW22360   1.351   0.842   5.086  0.1949 -0.0932  0.4001
 3575SOL    HW122361   1.331   0.750   5.103  0.4216 -0.4494 -1.3076
 3575SOL    HW222362   1.397   0.838   5.002 -1.1436  0.7311 -0.3706
 3576SOL     OW22363   1.174   1.751  10.181  0.4795 -0.1243 -0.0284
 3576SOL    HW122364   1.135   1.821  10.128  1.7051  0.5815  0.0125
 3576SOL    HW222365   1.265   1.778  10.194 -0.8800  3.8806  1.1247
 3577SOL     OW22366   0.169   3.252   7.221 -0.1656  0.5932  0.5445
 3577SOL    HW122367   0.181   3.158   7.234  1.0167  0.4627 -1.4156
 3577SOL    HW222368   0.248   3.279   7.174  0.1779  0.4193  1.0234
 3578SOL     OW22369   1.328   0.095   2.119  0.8269 -0.2571  0.1880
 3578SOL    HW122370   1.328   0.151   2.041  0.1161 -0.1277  0.2758
 3578SOL    HW222371   1.250   0.126   2.166 -2.6748 -1.6807 -4.7045
 3579SOL     OW22372   1.450   0.296  12.186  0.2484 -0.1796  0.4420
 3579SOL    HW122373   1.448   0.281  12.091  0.4144  0.1018  0.3920
 3579SOL    HW222374   1.428   0.205  12.206 -1.9918 -0.1165 -1.7382
 3580SOL     OW22375   1.731   2.123   4.490 -0.3726 -0.3080 -0.1748
 3580SOL    HW122376   1.780   2.107   4.410 -1.5746 -3.1244 -0.3552
 3580SOL    HW222377   1.669   2.050   4.493  2.6144 -2.8122  0.3349
 3581SOL     OW22378   3.058   4.073  13.091  0.0748  0.4400  0.2412
 3581SOL    HW122379   3.075   4.085  13.184  1.6021  1.0968 -0.1324
 3581SOL    HW222380   3.094   4.147  13.043 -0.8394 -0.4460 -1.8281
 3582SOL     OW22381   1.789   2.160  13.385 -0.0727 -0.0989  0.0352
 3582SOL    HW122382   1.744   2.078  13.405 -2.2645  0.8628 -0.9616
 3582SOL    HW222383   1.723   2.209  13.336 -0.8502 -1.7653 -0.5711
 3583SOL     OW22384   3.430   1.995   2.606  0.4463  0.7760  0.1313
 3583SOL    HW122385   3.510   1.952   2.575  0.6196  1.5103 -0.4516
 3583SOL    HW222386   3.441   1.966   2.696 -0.3524  2.3838  0.7406
 3584SOL     OW22387   2.584   1.606  14.500 -0.1453 -0.2748 -0.6724
 3584SOL    HW122388   2.555   1.599  14.409 -0.1774 -0.5537 -0.6406
 3584SOL    HW222389   2.676   1.584  14.487  0.0092 -1.3078  2.1491
 3585SOL     OW22390   1.509   1.321   9.092  0.2352 -0.3394  0.0331
 3585SOL    HW122391   1.496   1.376   9.170  3.1874 -0.8586  0.8891
 3585SOL    HW222392   1.419   1.301   9.068 -0.2602  2.4047 -0.4026
 3586SOL     OW22393   2.591   0.071   5.032 -0.2688  0.0115 -0.0354
 3586SOL    HW122394   2.497   0.075   5.049 -0.9163 -3.2562 -2.8077
 3586SOL    HW222395   2.626   0.137   5.093 -1.6617  1.3899 -0.7578
 3587SOL     OW22396   3.793   4.030   4.156  0.4716  0.0641 -0.2283
 3587SOL    HW122397   3.759   3.997   4.240  0.5734 -0.5299 -0.4198
 3587SOL    HW222398   3.726   4.094   4.132 -1.1736 -0.4429  3.0158
 3588SOL     OW22399   0.016   2.345   3.401  0.2677 -0.1247  0.4453
 3588SOL    HW122400   4.706   2.308   3.475  0.0604  0.5850  0.6651
 3588SOL    HW222401   4.697   2.334   3.326  0.9179  2.6755 -0.4679
 3589SOL     OW22402   0.323   1.932   5.293  0.1475 -0.4982 -0.4088
 3589SOL    HW122403   0.314   1.838   5.306 -1.0016 -0.2393  0.6006
 3589SOL    HW222404   0.231   1.955   5.281 -0.1084 -1.8154 -0.9540
 3590SOL     OW22405   1.103   3.440   3.583 -0.2578 -0.1633 -0.3340
 3590SOL    HW122406   1.095   3.381   3.658 -0.5619  0.0425 -0.2081
 3590SOL    HW222407   1.195   3.426   3.560 -0.6562 -0.1361 -1.8915
 3591SOL     OW22408   1.942   0.989  17.454  0.8967  0.2319  0.4306
 3591SOL    HW122409   2.029   0.955  17.431  0.2128  0.4909 -2.5675
 3591SOL    HW222410   1.929   0.936  17.532 -2.5488  0.9470  0.3340
 3592SOL     OW22411   2.350   3.694  16.432  0.5484  0.0259 -0.0080
 3592SOL    HW122412   2.403   3.629  16.477 -0.9747 -1.3974 -0.2807
 3592SOL    HW222413   2.335   3.754  16.505  1.0111  0.5623 -0.3544
 3593SOL     OW22414   3.242   1.963   6.102  0.6847 -0.6468 -0.2605
 3593SOL    HW122415   3.286   1.928   6.180  0.3432 -0.3767  0.0499
 3593SOL    HW222416   3.150   1.938   6.106  0.4621  0.5304  2.0762
 3594SOL     OW22417   0.701   1.788   7.211 -0.6062 -0.3882 -0.2999
 3594SOL    HW122418   0.725   1.718   7.272  0.2087  0.4788  0.3631
 3594SOL    HW222419   0.666   1.861   7.261  2.4174 -0.2728  1.6429
 3595SOL     OW22420   1.872   0.186   2.901 -0.5430 -0.1078 -0.5313
 3595SOL    HW122421   1.823   0.116   2.945  0.7665 -1.3210 -0.9889
 3595SOL    HW222422   1.821   0.266   2.908  0.3429  0.2865  1.2987
 3596SOL     OW22423   3.727   4.408  10.757  0.1625 -0.3045  0.1086
 3596SOL    HW122424   3.773   4.446  10.682  1.1268 -2.3663 -0.3285
 3596SOL    HW222425   3.766   4.321  10.757 -0.0263 -0.3876  0.3056
 3597SOL     OW22426   0.840   4.583   2.682 -0.0002 -0.0360 -0.2557
 3597SOL    HW122427   0.933   4.565   2.676  0.2319  0.2731  2.6449
 3597SOL    HW222428   0.840   4.613   2.773  0.2051 -1.4534  0.2185
 3598SOL     OW22429   2.428   0.245   7.867 -0.6385  0.2458 -0.7253
 3598SOL    HW122430   2.414   0.187   7.942  0.6026 -0.1406 -0.7891
 3598SOL    HW222431   2.516   0.277   7.886 -0.1699 -0.6098 -1.4206
 3599SOL     OW22432   0.157   1.153   3.763  0.2024  0.1084  0.2573
 3599SOL    HW122433   0.199   1.085   3.710 -0.6420 -0.7666  0.7034
 3599SOL    HW222434   0.070   1.115   3.773  0.7482 -1.0275  0.7060
 3600SOL     OW22435   4.138   2.696  13.043 -0.3367  0.1792  0.1789
 3600SOL    HW122436   4.113   2.700  13.135  0.2531 -2.8515  0.4595
 3600SOL    HW222437   4.131   2.601  13.032  0.5221  0.1000  0.2892
 3601SOL     OW22438   1.476   0.275   0.120  0.4032  0.3332  0.5325
 3601SOL    HW122439   1.414   0.224   0.173  0.4177 -0.6475 -0.3766
 3601SOL    HW222440   1.424   0.292   0.041 -0.1261 -3.5532  0.0412
 3602SOL     OW22441   2.309   1.849   8.223  0.0594 -0.0294 -0.3338
 3602SOL    HW122442   2.345   1.823   8.308 -0.1127  1.6393  0.2491
 3602SOL    HW222443   2.252   1.922   8.247  1.3376  0.4884  1.0743
 3603SOL     OW22444   2.148   2.894   5.805  0.2082  0.4000 -0.1978
 3603SOL    HW122445   2.119   2.910   5.895 -1.2834 -0.2887 -0.5528
 3603SOL    HW222446   2.104   2.961   5.753 -1.8053 -0.7318  0.0613
 3604SOL     OW22447   3.552   4.433   3.756 -0.0540  0.0721  0.1660
 3604SOL    HW122448   3.643   4.464   3.759 -0.5378  1.3550  1.3997
 3604SOL    HW222449   3.512   4.496   3.697 -0.3571 -0.1261  0.1579
 3605SOL     OW22450   4.367   3.567   5.760 -0.6667 -0.8224  0.4521
 3605SOL    HW122451   4.338   3.600   5.675  2.7194 -0.6142 -0.5839
 3605SOL    HW222452   4.287   3.515   5.768 -1.4276  0.3953  0.7696
 3606SOL     OW22453   0.144   1.568   8.285 -0.3436  0.1925 -0.6917
 3606SOL    HW122454   0.120   1.627   8.213 -2.4585  0.2563  0.0627
 3606SOL    HW222455   0.165   1.629   8.357  1.5753 -0.0238 -1.0727
 3607SOL     OW22456   3.270   3.770   4.355  0.3688  0.5934  0.1398
 3607SOL    HW122457   3.183   3.809   4.366  1.0372  1.9499  0.5785
 3607SOL    HW222458   3.239   3.680   4.340 -1.7569  1.1003  1.4416
 3608SOL     OW22459   0.666   0.685   7.054  0.1068  0.2513 -0.0156
 3608SOL    HW122460   0.670   0.692   6.959  1.7768 -1.2699 -0.0469
 3608SOL    HW222461   0.710   0.601   7.067 -1.1063 -0.4385 -0.3737
 3609SOL     OW22462   4.733   0.312   7.558 -0.3184  0.0885 -0.1726
 3609SOL    HW122463   4.658   0.252   7.562 -1.0274  0.9761 -0.1049
 3609SOL    HW222464   0.062   0.253   7.589  0.2899  0.5950 -0.5589
 3610SOL     OW22465   2.664   0.306   8.749  0.0830  0.1533 -0.9490
 3610SOL    HW122466   2.597   0.283   8.685 -0.4167  0.3725 -0.5017
 3610SOL    HW222467   2.614   0.294   8.829  1.1300 -2.1149 -0.6442
 3611SOL     OW22468   0.221   3.069   8.540  0.0367  0.5342 -0.2030
 3611SOL    HW122469   0.303   3.028   8.564 -0.6414 -1.6570 -1.6190
 3611SOL    HW222470   0.251   3.092   8.452 -2.1948  0.4887 -0.9793
 3612SOL     OW22471   4.501   1.958   4.177 -1.2211 -0.4944 -0.5463
 3612SOL    HW122472   4.564   1.972   4.107  0.3197 -0.9120  0.7774
 3612SOL    HW222473   4.563   1.947   4.249 -0.0775 -0.0692 -1.4614
 3613SOL     OW22474   3.503   2.804   2.458  0.1272 -0.2392 -0.1855
 3613SOL    HW122475   3.500   2.805   2.554  0.7108  1.0162 -0.1827
 3613SOL    HW222476   3.579   2.860   2.446  0.0257 -0.2981 -1.0976
 3614SOL     OW22477   3.448   3.367  14.892  0.2253 -0.5027 -0.3580
 3614SOL    HW122478   3.371   3.376  14.836  0.0692  0.6808  0.0547
 3614SOL    HW222479   3.515   3.361  14.824  1.3046 -0.0270  0.6727
 3615SOL     OW22480   3.143   1.965   2.510  0.1094 -0.2063 -0.2096
 3615SOL    HW122481   3.124   2.044   2.460 -0.6172 -0.1814  0.1007
 3615SOL    HW222482   3.235   1.987   2.528 -0.5538  1.2924  1.3912
 3616SOL     OW22483   3.603   0.607   8.535 -0.3453  0.4676  0.0905
 3616SOL    HW122484   3.527   0.592   8.591 -1.5997  1.9154 -1.2038
 3616SOL    HW222485   3.667   0.541   8.560  0.1427  1.1310  0.6081
 3617SOL     OW22486   3.664   3.387   2.018 -0.0242 -0.0673  0.6219
 3617SOL    HW122487   3.730   3.455   2.032  1.4178 -1.1813 -0.5901
 3617SOL    HW222488   3.698   3.308   2.061  1.6669 -0.1433 -0.8026
 3618SOL     OW22489   0.655   3.297  15.292  0.1585  1.0025  0.1375
 3618SOL    HW122490   0.718   3.369  15.289  0.2584  0.8532 -1.0991
 3618SOL    HW222491   0.701   3.223  15.254 -0.0301  1.6390 -1.3122
 3619SOL     OW22492   4.380   0.461   3.811  0.6101  0.2052 -0.3392
 3619SOL    HW122493   4.381   0.506   3.895  0.3788 -1.2522  0.4512
 3619SOL    HW222494   4.315   0.391   3.820  1.2933 -0.7044 -2.4138
 3620SOL     OW22495   4.225   0.734   7.327  0.1605  0.1655  1.0791
 3620SOL    HW122496   4.277   0.809   7.354 -0.8861  1.1612  0.3228
 3620SOL    HW222497   4.267   0.661   7.373  0.5924  1.7752  3.2097
 3621SOL     OW22498   1.337   2.795   3.063  0.6260  0.1479 -0.1353
 3621SOL    HW122499   1.346   2.878   3.110 -0.1223  0.7513 -1.0528
 3621SOL    HW222500   1.301   2.832   2.982  2.8220  0.1650 -1.0900
 3622SOL     OW22501   1.939   1.459  14.335 -0.1132 -0.1892  0.3207
 3622SOL    HW122502   1.915   1.495  14.250 -0.4616  0.7027  0.7974
 3622SOL    HW222503   1.856   1.469  14.380  0.4895 -0.6083  1.5307
 3623SOL     OW22504   0.581   1.591  16.837  0.0271 -0.1513  0.3337
 3623SOL    HW122505   0.573   1.555  16.926 -0.8230 -0.8031 -0.0019
 3623SOL    HW222506   0.514   1.538  16.794  2.0851 -0.5684 -2.2872
 3624SOL     OW22507   2.219   1.372   0.510  0.3877  0.2111 -0.5115
 3624SOL    HW122508   2.259   1.423   0.581  0.3804 -1.2541  0.5488
 3624SOL    HW222509   2.129   1.361   0.541  0.4896 -1.3617 -0.7813
 3625SOL     OW22510   3.618   1.812  15.191  0.5323  0.2000  0.6271
 3625SOL    HW122511   3.562   1.793  15.267 -0.3464 -1.2897 -0.4003
 3625SOL    HW222512   3.624   1.722  15.160 -2.7368  0.4188 -0.6823
 3626SOL     OW22513   0.095   0.360  11.388  0.0609  0.0259 -0.2904
 3626SOL    HW122514   0.080   0.272  11.423 -0.8889 -0.4187 -1.8491
 3626SOL    HW222515   0.079   0.344  11.295  0.9944  0.2186 -0.4927
 3627SOL     OW22516   2.812   0.427   4.349 -0.2013  0.1303  0.0496
 3627SOL    HW122517   2.854   0.352   4.308 -1.0985  1.3439 -3.0512
 3627SOL    HW222518   2.826   0.397   4.439 -1.1904 -2.0301 -0.5213
 3628SOL     OW22519   2.633   0.916   7.950  0.2061  0.5595 -0.4938
 3628SOL    HW122520   2.714   0.951   7.986  0.8722 -0.9843 -0.5189
 3628SOL    HW222521   2.663   0.862   7.877 -1.8512  0.0683 -0.9637
 3629SOL     OW22522   2.244   0.380   4.151  0.3304 -0.2202  0.0570
 3629SOL    HW122523   2.308   0.317   4.119  1.1277 -0.0919  1.4385
 3629SOL    HW222524   2.274   0.464   4.114  2.2346 -0.8559  0.1628
 3630SOL     OW22525   3.084   2.152   1.919 -0.0860 -0.3949 -0.0784
 3630SOL    HW122526   3.162   2.124   1.966 -2.3232 -4.0047  1.5309
 3630SOL    HW222527   3.081   2.247   1.928 -0.5940 -0.5937  1.8246
 3631SOL     OW22528   1.695   0.649   1.963  0.0010 -0.4406 -0.2957
 3631SOL    HW122529   1.652   0.728   1.996  2.8798  0.9664 -0.0135
 3631SOL    HW222530   1.781   0.684   1.940  0.0953  0.9662  2.0974
 3632SOL     OW22531   0.712   0.007   9.082 -0.1982  0.1726  0.5122
 3632SOL    HW122532   0.787   0.063   9.103  0.0743 -0.0879  0.2387
 3632SOL    HW222533   0.693   4.718   9.172 -4.3105 -0.8528 -0.7130
 3633SOL     OW22534   1.877   0.780  11.432  0.2910 -0.5715  0.0519
 3633SOL    HW122535   1.932   0.858  11.439  1.7713 -1.6320  0.4991
 3633SOL    HW222536   1.870   0.744  11.521 -2.8677  1.7109  0.7116
 3634SOL     OW22537   2.154   0.247   8.771 -0.3958  0.4641 -0.0314
 3634SOL    HW122538   2.089   0.266   8.838 -0.6523 -0.1798 -0.0981
 3634SOL    HW222539   2.113   0.172   8.729 -1.7512  1.1981 -0.0505
 3635SOL     OW22540   4.521   0.747   2.994 -0.3656 -0.0461  0.1858
 3635SOL    HW122541   4.473   0.764   2.913 -0.5045  2.8117  0.8720
 3635SOL    HW222542   4.448   0.751   3.056  0.0255  0.1489  0.6421
 3636SOL     OW22543   4.463   4.302   4.417  0.4774 -0.9683  0.7682
 3636SOL    HW122544   4.374   4.314   4.385 -0.0919 -1.1595  2.2768
 3636SOL    HW222545   4.495   4.251   4.343  0.8031  0.8041 -0.3132
 3637SOL     OW22546   2.113   0.275   2.923  0.1351  0.0262 -0.0936
 3637SOL    HW122547   2.097   0.338   2.993 -0.1922  1.7203 -1.7064
 3637SOL    HW222548   2.026   0.238   2.911 -0.9250  1.6183  2.7319
 3638SOL     OW22549   3.382   0.830  14.797 -0.0938  0.0061  0.1975
 3638SOL    HW122550   3.392   0.806  14.889  1.4260  5.0488  1.3906
 3638SOL    HW222551   3.292   0.802  14.784  0.3724 -1.4391  0.0942
 3639SOL     OW22552   0.573   3.422   4.514  0.2416 -0.3040  0.1429
 3639SOL    HW122553   0.650   3.419   4.570  0.3278 -0.4034  0.0174
 3639SOL    HW222554   0.506   3.453   4.575  1.3659  0.6059  0.9101
 3640SOL     OW22555   0.877   4.171   1.869 -0.2431 -0.1604 -0.2790
 3640SOL    HW122556   0.802   4.137   1.919  0.7147  0.7299  1.7885
 3640SOL    HW222557   0.864   4.137   1.781  1.3846  0.1018 -0.6132
 3641SOL     OW22558   1.098   0.228  13.802 -0.2555  0.0907 -0.3816
 3641SOL    HW122559   1.112   0.182  13.885  2.3674  1.1450 -0.2595
 3641SOL    HW222560   1.118   0.316  13.832 -0.6265 -0.0334  0.2356
 3642SOL     OW22561   3.007   0.755   9.805 -0.0293  0.0813  0.7428
 3642SOL    HW122562   3.052   0.835   9.833  0.8968 -0.4590  0.7991
 3642SOL    HW222563   2.966   0.790   9.726  0.2947 -1.1131  0.0529
 3643SOL     OW22564   4.701   2.955   7.450 -0.1516  0.1263 -0.0362
 3643SOL    HW122565   4.625   2.952   7.392  0.2902 -0.7658 -0.5559
 3643SOL    HW222566   0.005   2.871   7.438 -1.5187 -0.6324  0.3178
 3644SOL     OW22567   2.985   1.568   8.357 -0.1090  0.2560  0.5112
 3644SOL    HW122568   3.002   1.481   8.320 -1.1610  0.3253 -0.1223
 3644SOL    HW222569   3.047   1.629   8.318 -0.1938  0.0396  0.0446
 3645SOL     OW22570   1.813   3.033   5.162  0.1772  0.3288  0.2486
 3645SOL    HW122571   1.834   2.943   5.137 -0.1670 -0.2791  2.1327
 3645SOL    HW222572   1.866   3.091   5.108  1.2613  0.6222  1.6111
 3646SOL     OW22573   1.385   1.105   2.530  0.3807 -0.0821  0.1470
 3646SOL    HW122574   1.453   1.047   2.565  2.5367  0.9497 -2.3720
 3646SOL    HW222575   1.350   1.150   2.607  1.8991  0.6474  0.3932
 3647SOL     OW22576   3.875   2.685  10.081 -0.0358  0.2870 -0.3833
 3647SOL    HW122577   3.890   2.780  10.082 -1.0200  0.4602 -1.4152
 3647SOL    HW222578   3.950   2.648  10.035 -2.3426 -1.9150 -2.4098
 3648SOL     OW22579   3.582   3.640   6.167 -0.0822 -0.4321  0.5335
 3648SOL    HW122580   3.639   3.711   6.194 -2.5141  1.3893  0.8737
 3648SOL    HW222581   3.587   3.647   6.072 -1.6670  0.5065  0.5211
 3649SOL     OW22582   4.738   2.038   2.545  0.3762  0.0174 -0.1918
 3649SOL    HW122583   0.010   2.099   2.618  0.1942  2.8161 -2.5190
 3649SOL    HW222584   0.054   1.968   2.580 -2.7524 -2.7431 -0.7669
 3650SOL     OW22585   4.376   3.954   5.226  0.0592 -0.4919  0.6873
 3650SOL    HW122586   4.310   3.887   5.211 -0.1312 -1.0932  4.3277
 3650SOL    HW222587   4.446   3.894   5.250  2.1741  0.6370 -2.6217
 3651SOL     OW22588   0.290   3.655   7.448  0.5256 -0.1452  0.2862
 3651SOL    HW122589   0.348   3.640   7.374 -2.0660 -1.7121 -1.3988
 3651SOL    HW222590   0.240   3.574   7.454  1.7559 -0.9322 -0.0189
 3652SOL     OW22591   0.423   1.953   3.338 -0.0798  0.2128 -0.3936
 3652SOL    HW122592   0.478   2.030   3.321 -1.2700  1.2710  0.5777
 3652SOL    HW222593   0.422   1.920   3.248  1.3046  0.2340 -0.4044
 3653SOL     OW22594   1.047   3.032  16.881 -0.2409  0.3201  0.6848
 3653SOL    HW122595   1.009   3.090  16.816 -0.4788  0.0501  0.5848
 3653SOL    HW222596   1.008   3.055  16.965  2.1974  2.1059  1.3406
 3654SOL     OW22597   2.246   0.659   0.558  0.4283  0.4156 -0.2871
 3654SOL    HW122598   2.157   0.626   0.571  1.4885 -1.4071  2.2599
 3654SOL    HW222599   2.295   0.577   0.549  1.5927  0.9621  1.0378
 3655SOL     OW22600   0.556   4.083   5.208 -0.4278  0.1347  0.2961
 3655SOL    HW122601   0.641   4.120   5.184 -0.6796  1.6098  1.7166
 3655SOL    HW222602   0.520   4.157   5.257 -0.6501  1.6212 -2.1138
 3656SOL     OW22603   3.572   3.208   1.357 -0.1795 -0.1697 -0.3535
 3656SOL    HW122604   3.577   3.142   1.287  0.7187  0.4277 -0.8541
 3656SOL    HW222605   3.631   3.264   1.306 -0.4446  1.5795  1.2527
 3657SOL     OW22606   0.356   0.525   6.726 -0.0117  0.0899  0.3312
 3657SOL    HW122607   0.387   0.457   6.786 -0.1185 -1.0965 -0.9696
 3657SOL    HW222608   0.353   0.598   6.788  0.9758  2.6044 -2.5719
 3658SOL     OW22609   3.052   3.916   4.315 -0.0483 -0.2940 -0.2834
 3658SOL    HW122610   2.994   3.901   4.240  0.8182 -1.1807 -0.7713
 3658SOL    HW222611   3.068   4.011   4.311  2.2450 -0.7063 -0.8492
 3659SOL     OW22612   0.480   0.682   2.460  0.0285 -0.2652  0.2661
 3659SOL    HW122613   0.470   0.729   2.377  0.0751  1.7797  1.4179
 3659SOL    HW222614   0.411   0.616   2.457  0.6503 -0.9479  1.0910
 3660SOL     OW22615   0.029   2.727   7.840  0.3081 -0.5419 -0.8295
 3660SOL    HW122616   0.108   2.781   7.848  0.4561 -0.7840 -0.6717
 3660SOL    HW222617   0.026   2.681   7.924 -3.3000 -0.3530 -0.8583
 3661SOL     OW22618   3.542   3.906   3.341  0.2975 -0.0240  0.0321
 3661SOL    HW122619   3.491   3.919   3.261 -0.1640 -1.3325  0.1091
 3661SOL    HW222620   3.564   3.813   3.335  0.3484 -0.0784  1.1357
 3662SOL     OW22621   1.447   0.797   4.636 -0.7663 -0.3891  0.4085
 3662SOL    HW122622   1.437   0.888   4.665  0.2765 -0.1132 -0.0942
 3662SOL    HW222623   1.426   0.739   4.709  0.7422 -1.4216  0.0026
 3663SOL     OW22624   0.009   1.945   6.913  0.1878  0.0109 -0.2746
 3663SOL    HW122625   0.026   1.881   6.982 -0.4003 -0.5705 -0.6542
 3663SOL    HW222626   4.681   1.999   6.953  0.4026  0.3171 -0.3306
 3664SOL     OW22627   1.356   2.903   9.667 -0.4931  0.5747 -0.1125
 3664SOL    HW122628   1.415   2.976   9.650  0.5977 -0.4278 -0.6241
 3664SOL    HW222629   1.386   2.835   9.607  1.8440  0.1792  1.4877
 3665SOL     OW22630   2.810   2.821   8.088 -0.1273 -1.1050  0.0299
 3665SOL    HW122631   2.842   2.886   8.025 -1.2057  0.1685  0.7961
 3665SOL    HW222632   2.715   2.814   8.077 -0.3027  0.9135  0.3270
 3666SOL     OW22633   0.306   1.402   4.213  0.3771  0.2043 -0.1525
 3666SOL    HW122634   0.250   1.390   4.137 -2.2660  2.0209  1.4783
 3666SOL    HW222635   0.301   1.317   4.256 -0.3925 -0.9095 -2.4523
 3667SOL     OW22636   2.523   4.355   7.728 -0.5186 -0.7424  0.0809
 3667SOL    HW122637   2.557   4.352   7.817  0.9925 -0.3677 -0.4920
 3667SOL    HW222638   2.436   4.314   7.734 -1.0860  0.1902 -1.6628
 3668SOL     OW22639   0.636   0.778   9.899  0.2396 -0.4585  0.5813
 3668SOL    HW122640   0.578   0.727   9.955  0.0170  0.2630  1.0009
 3668SOL    HW222641   0.577   0.784   9.824 -0.2881  0.1246  1.0497
 3669SOL     OW22642   2.195   3.686  10.400  0.1949  0.5001 -0.0145
 3669SOL    HW122643   2.284   3.710  10.427  0.0526 -0.5574  1.3926
 3669SOL    HW222644   2.201   3.590  10.402 -0.1233  0.5112  1.3375
 3670SOL     OW22645   2.364   2.591   7.199 -0.6588 -0.1917  0.0667
 3670SOL    HW122646   2.405   2.607   7.284  1.4365  1.9220 -1.3656
 3670SOL    HW222647   2.421   2.632   7.135  1.1002 -0.5069  1.4413
 3671SOL     OW22648   1.485   3.554   8.549 -0.7780 -0.5191  0.4259
 3671SOL    HW122649   1.417   3.539   8.615  0.2238 -2.9726  0.9207
 3671SOL    HW222650   1.438   3.545   8.466  0.0974  2.4501 -0.3905
 3672SOL     OW22651   4.211   0.955   1.488  0.5481 -0.2506 -0.6751
 3672SOL    HW122652   4.246   1.037   1.452 -1.2540  0.6259 -0.4146
 3672SOL    HW222653   4.175   0.907   1.414 -0.9827  0.4740 -0.3983
 3673SOL     OW22654   1.958   0.089   8.367  0.3663 -0.0597 -0.1852
 3673SOL    HW122655   1.905   0.155   8.322 -1.4498 -1.4412 -0.0785
 3673SOL    HW222656   1.900   0.075   8.442  1.1056 -0.2361  0.3513
 3674SOL     OW22657   4.560   1.264   2.909  0.1966  0.7096  0.3423
 3674SOL    HW122658   4.519   1.179   2.928  0.1829  0.8660  1.0235
 3674SOL    HW222659   4.497   1.308   2.852  0.1913  0.6244  0.2824
 3675SOL     OW22660   1.659   2.530   9.635 -0.7883  0.1204 -0.0754
 3675SOL    HW122661   1.648   2.520   9.540 -1.4335 -2.0425  0.2309
 3675SOL    HW222662   1.639   2.623   9.644 -2.3709 -0.1518 -0.6923
 3676SOL     OW22663   2.273   4.454   2.088  0.3683  0.2500 -0.3149
 3676SOL    HW122664   2.276   4.401   2.168 -1.1992  2.1760  1.0340
 3676SOL    HW222665   2.180   4.455   2.067  0.1426 -1.8700  0.6816
 3677SOL     OW22666   0.669   2.620   8.182 -0.1986  0.4062 -0.1155
 3677SOL    HW122667   0.612   2.692   8.211 -1.2956  0.4435 -2.3475
 3677SOL    HW222668   0.684   2.568   8.260  0.8490 -1.1940 -1.4004
 3678SOL     OW22669   2.176   1.581   0.277 -0.0666  0.5937  0.4892
 3678SOL    HW122670   2.245   1.635   0.316 -0.4575  0.5981  1.1809
 3678SOL    HW222671   2.168   1.516   0.346 -3.4336 -0.4780 -0.9130
 3679SOL     OW22672   1.463   0.316   9.026  0.0777  0.3043  0.0328
 3679SOL    HW122673   1.408   0.317   8.948 -1.0012 -0.8780  0.8002
 3679SOL    HW222674   1.465   0.410   9.047 -0.1240 -0.0153  1.4607
 3680SOL     OW22675   0.798   2.100  12.688 -0.3515  0.1023  0.7897
 3680SOL    HW122676   0.864   2.143  12.634 -0.9484  0.0477  0.0247
 3680SOL    HW222677   0.782   2.172  12.749 -0.1266 -1.1624  2.3479
 3681SOL     OW22678   0.519   4.243  14.890  0.8186  0.7142 -0.5187
 3681SOL    HW122679   0.512   4.271  14.798  0.4117 -0.3692 -0.8228
 3681SOL    HW222680   0.614   4.235  14.898  0.9627  3.2551  0.4457
 3682SOL     OW22681   2.520   0.782   2.327  0.2374 -0.9351 -0.0258
 3682SOL    HW122682   2.522   0.697   2.284  2.1977 -1.5256  1.2059
 3682SOL    HW222683   2.592   0.767   2.389 -1.2219 -1.0135  1.6730
 3683SOL     OW22684   4.644   3.597   5.849 -0.5494 -0.2855 -0.5153
 3683SOL    HW122685   4.554   3.614   5.819 -1.1059 -1.8234  0.2561
 3683SOL    HW222686   4.655   3.682   5.890  2.1918  0.1523 -2.1733
 3684SOL     OW22687   3.464   4.376  10.669 -0.4684 -0.6477 -0.1233
 3684SOL    HW122688   3.441   4.287  10.641 -1.3820 -0.4196 -0.1261
 3684SOL    HW222689   3.535   4.352  10.728 -0.3338  1.0207  0.3676
 3685SOL     OW22690   2.846   2.256   1.214 -0.1138 -0.0736  0.5678
 3685SOL    HW122691   2.887   2.221   1.292 -2.3348  0.8738  2.1693
 3685SOL    HW222692   2.820   2.175   1.171  2.8258 -0.3890 -0.6472
 3686SOL     OW22693   4.587   3.791   5.322  0.3327  0.0620 -0.2062
 3686SOL    HW122694   4.670   3.750   5.346  0.1680  0.6327  1.3245
 3686SOL    HW222695   4.561   3.834   5.403  1.8494 -0.4632  0.5566
 3687SOL     OW22696   2.508   1.408   3.217 -0.9224 -0.0776  0.5372
 3687SOL    HW122697   2.459   1.368   3.145 -1.1359 -2.6827  2.1199
 3687SOL    HW222698   2.595   1.375   3.192  0.1133  2.5225  0.7512
 3688SOL     OW22699   2.127   3.964  11.905 -0.2669 -0.4846  0.0867
 3688SOL    HW122700   2.158   4.047  11.940  0.6229 -0.2253 -1.3444
 3688SOL    HW222701   2.039   3.952  11.939 -1.3450 -0.6961 -2.7593
 3689SOL     OW22702   2.061   3.838   7.333  0.6049  0.7851 -0.0586
 3689SOL    HW122703   2.096   3.896   7.400 -1.4274 -0.6117  2.2093
 3689SOL    HW222704   2.086   3.879   7.250 -0.1415  2.8425  0.7594
 3690SOL     OW22705   0.033   3.585   8.268  0.0652  0.2760  0.2065
 3690SOL    HW122706   0.027   3.513   8.331 -0.4502 -0.6170 -0.8700
 3690SOL    HW222707   0.080   3.543   8.196 -2.5390  0.2459 -1.4636
 3691SOL     OW22708   0.451   2.013   5.903 -0.3830  0.1314 -0.1411
 3691SOL    HW122709   0.475   2.068   5.829  0.4174 -1.9246 -1.4080
 3691SOL    HW222710   0.519   1.946   5.908  0.5229  1.0412 -0.3751
 3692SOL     OW22711   2.492   3.465   6.784 -0.3318 -0.1216  0.2988
 3692SOL    HW122712   2.429   3.528   6.748 -0.8363 -0.5420  0.4368
 3692SOL    HW222713   2.430   3.409   6.832  0.8393 -0.6075  1.2329
 3693SOL     OW22714   3.080   4.319   9.023 -0.4539  0.1422  0.3975
 3693SOL    HW122715   2.992   4.318   9.059 -0.0519  0.8465  1.3880
 3693SOL    HW222716   3.119   4.361   9.100  0.4583 -0.9365  0.5304
 3694SOL     OW22717   3.897   0.407   9.859 -0.2460  0.3992 -0.1973
 3694SOL    HW122718   3.828   0.410   9.925  0.5231  1.8945  0.5277
 3694SOL    HW222719   3.950   0.347   9.911  0.8998  0.7859 -0.9061
 3695SOL     OW22720   1.996   1.141   7.819  0.5054 -0.1669 -0.1063
 3695SOL    HW122721   1.947   1.139   7.901 -0.2955  2.4117 -0.5309
 3695SOL    HW222722   2.042   1.057   7.824 -0.2987 -0.5605  0.5335
 3696SOL     OW22723   0.023   0.561  17.124 -0.4546 -0.6579  1.0388
 3696SOL    HW122724   0.003   0.605  17.207 -3.0814  0.6716 -0.2915
 3696SOL    HW222725   4.699   0.490  17.125  1.1017 -2.0294  1.4260
 3697SOL     OW22726   3.819   0.821   2.355  1.0431  0.2882 -0.1529
 3697SOL    HW122727   3.867   0.790   2.279 -1.7523 -0.3392 -1.6627
 3697SOL    HW222728   3.833   0.747   2.415 -0.3690 -1.1761 -1.6363
 3698SOL     OW22729   1.276   0.019   9.772 -0.1837  0.4405 -0.3374
 3698SOL    HW122730   1.330   0.009   9.851  0.9823  1.0873 -1.0629
 3698SOL    HW222731   1.327   4.699   9.717  1.3115  1.3665  0.0554
 3699SOL     OW22732   2.727   4.542   6.012  0.0751  0.4581 -0.3713
 3699SOL    HW122733   2.685   4.524   6.096 -0.3736  0.4346 -0.5941
 3699SOL    HW222734   2.816   4.556   6.042 -0.3715  1.5884  0.4500
 3700SOL     OW22735   1.963   4.445   2.341  0.0981 -0.0873  0.3571
 3700SOL    HW122736   1.919   4.519   2.384 -2.2861 -0.8537 -0.7935
 3700SOL    HW222737   1.894   4.430   2.277 -0.6883 -1.0805  1.4278
 3701SOL     OW22738   2.393   3.366   9.022 -0.5546 -0.0647 -0.0041
 3701SOL    HW122739   2.473   3.385   9.070  0.5691 -0.1496 -1.8283
 3701SOL    HW222740   2.387   3.450   8.975  0.6920  0.1438  0.2244
 3702SOL     OW22741   1.717   1.613   4.167 -0.1815 -0.0904 -0.3668
 3702SOL    HW122742   1.676   1.683   4.118 -0.9280 -0.4054 -0.1951
 3702SOL    HW222743   1.663   1.594   4.244 -1.0191 -3.1282 -1.6711
 3703SOL     OW22744   0.046   2.600   4.967 -0.4840 -0.6311  0.4981
 3703SOL    HW122745   4.732   2.670   5.004  0.2423 -0.3487  1.0032
 3703SOL    HW222746   0.132   2.641   4.980  0.6138 -2.2539 -1.6068
 3704SOL     OW22747   1.607   0.524   9.347  0.0862 -0.2972 -0.1001
 3704SOL    HW122748   1.550   0.585   9.393 -2.3880 -1.7250 -1.2798
 3704SOL    HW222749   1.691   0.562   9.373  0.3345 -1.5557  0.8916
 3705SOL     OW22750   3.764   4.473   7.629 -0.0689 -0.2082  0.0374
 3705SOL    HW122751   3.759   4.412   7.702  1.0223  1.2848  1.3383
 3705SOL    HW222752   3.857   4.494   7.625 -0.3152  0.3517 -2.5063
 3706SOL     OW22753   1.409   2.814  14.210 -0.4509  0.0881 -0.3941
 3706SOL    HW122754   1.426   2.741  14.150 -0.9369  0.3452 -0.8462
 3706SOL    HW222755   1.486   2.859  14.176 -0.3100 -1.0593 -1.5907
 3707SOL     OW22756   2.338   0.319   5.722  0.2574  0.0673 -0.1723
 3707SOL    HW122757   2.409   0.365   5.678  1.3081 -1.1696  0.2360
 3707SOL    HW222758   2.382   0.299   5.805  2.6140  2.5070 -0.8191
 3708SOL     OW22759   1.687   1.483   7.354  0.3694 -0.2062  0.0275
 3708SOL    HW122760   1.766   1.516   7.396  0.6324  0.0174 -0.6464
 3708SOL    HW222761   1.641   1.565   7.334  2.8528  1.8117  2.7533
 3709SOL     OW22762   0.759   1.817  16.168 -0.4479 -0.7204 -0.1206
 3709SOL    HW122763   0.791   1.839  16.255 -2.5385  0.4274  0.3624
 3709SOL    HW222764   0.676   1.771  16.181  0.2733 -1.1734  2.7772
 3710SOL     OW22765   2.909   2.188  10.914  0.3621 -0.6784  0.3110
 3710SOL    HW122766   2.941   2.270  10.876  0.3876 -1.0100 -0.3941
 3710SOL    HW222767   2.994   2.148  10.894 -0.2260 -1.1075 -1.2893
 3711SOL     OW22768   3.583   0.084   9.650 -0.4698  0.4519  0.1119
 3711SOL    HW122769   3.527   0.049   9.580  1.3136  0.3205 -1.2356
 3711SOL    HW222770   3.623   0.162   9.611  0.7905 -1.0767 -1.6209
 3712SOL     OW22771   2.169   3.192   7.625  0.4981  0.2288 -0.5880
 3712SOL    HW122772   2.189   3.106   7.661 -2.9050 -0.5333 -0.5606
 3712SOL    HW222773   2.095   3.222   7.677 -0.7951 -1.8207 -1.2633
 3713SOL     OW22774   4.074   2.490   4.695  0.6829  0.3206  0.7647
 3713SOL    HW122775   4.092   2.409   4.648 -0.1251 -0.6116  2.0883
 3713SOL    HW222776   3.978   2.491   4.690  0.6172  0.0291  1.9172
 3714SOL     OW22777   3.340   0.688  12.856  0.2767 -0.2202  0.1542
 3714SOL    HW122778   3.360   0.595  12.863 -0.7131 -0.4865 -0.4542
 3714SOL    HW222779   3.414   0.719  12.909  0.1035  0.2000  0.1553
 3715SOL     OW22780   3.453   1.382   8.072 -0.1937  0.6513  0.8558
 3715SOL    HW122781   3.446   1.365   8.166  0.7706  0.3527  0.8748
 3715SOL    HW222782   3.548   1.393   8.070 -0.0014 -0.6724  2.6637
 3716SOL     OW22783   4.197   2.541  13.780  0.2516 -0.0122 -0.3661
 3716SOL    HW122784   4.284   2.569  13.752  1.5844 -2.9342  0.8084
 3716SOL    HW222785   4.179   2.576  13.868  2.9246  1.2919 -0.3210
 3717SOL     OW22786   2.409   1.337   2.709  0.2110 -0.2710 -0.1133
 3717SOL    HW122787   2.336   1.400   2.710 -2.0050 -2.8677 -0.1330
 3717SOL    HW222788   2.476   1.380   2.655 -0.4967 -3.1013 -3.2436
 3718SOL     OW22789   0.544   2.657  10.095  0.4050  0.1554  0.1853
 3718SOL    HW122790   0.485   2.582  10.104  1.2995 -0.7577 -1.7083
 3718SOL    HW222791   0.607   2.641  10.166 -0.1214  1.0841  0.8745
 3719SOL     OW22792   2.258   1.362  12.895 -0.0783  0.1370 -0.3633
 3719SOL    HW122793   2.329   1.320  12.847 -1.0525 -2.7453  0.7089
 3719SOL    HW222794   2.313   1.424  12.943  0.6464  0.0185 -1.0398
 3720SOL     OW22795   2.533   1.436   6.191  1.0117  0.1463  0.0944
 3720SOL    HW122796   2.619   1.398   6.208  1.1675  0.4747  0.0415
 3720SOL    HW222797   2.528   1.527   6.220  0.7712  0.7967 -1.9871
 3721SOL     OW22798   3.962   1.963   3.559 -0.2417 -0.5923 -0.5938
 3721SOL    HW122799   4.043   1.969   3.509 -0.5434  0.3484 -0.9663
 3721SOL    HW222800   3.969   2.031   3.626 -0.9822  1.6999 -2.8695
 3722SOL     OW22801   2.750   0.943  15.416 -0.8207  0.2591  0.0182
 3722SOL    HW122802   2.816   0.885  15.379 -1.7251 -0.2970 -0.7164
 3722SOL    HW222803   2.812   0.998  15.465 -0.2606  0.1194 -0.5477
 3723SOL     OW22804   2.687   0.060   6.386  0.3887  0.3993 -0.2359
 3723SOL    HW122805   2.719   4.714   6.357  1.4521  0.2836  1.3391
 3723SOL    HW222806   2.670   0.045   6.479  0.4678 -0.6164 -0.3893
 3724SOL     OW22807   4.366   1.543  15.264  0.2448 -0.4144  0.2518
 3724SOL    HW122808   4.364   1.638  15.270  1.4160 -0.4148  0.4959
 3724SOL    HW222809   4.280   1.509  15.238 -0.0984  1.0354 -0.4542
 3725SOL     OW22810   0.118   0.792  13.248 -0.4001 -0.0195  0.0253
 3725SOL    HW122811   0.201   0.830  13.274 -0.4867  1.6378 -2.0874
 3725SOL    HW222812   0.108   0.815  13.156  2.0177 -0.5056 -0.3474
 3726SOL     OW22813   1.067   4.630   8.200  0.4844  0.8040 -0.3885
 3726SOL    HW122814   1.077   4.623   8.105 -0.3347 -0.0356 -0.4086
 3726SOL    HW222815   1.138   4.693   8.213  0.8067  0.4177 -0.2834
 3727SOL     OW22816   3.291   2.718   4.682 -0.1951  0.6435  0.0433
 3727SOL    HW122817   3.257   2.797   4.724  0.4888  0.6192  0.6442
 3727SOL    HW222818   3.341   2.756   4.610  0.4091 -0.9020 -0.3611
 3728SOL     OW22819   1.706   1.360   7.101  0.2500 -0.0509  0.3295
 3728SOL    HW122820   1.625   1.404   7.077 -0.2514 -1.5674 -0.7553
 3728SOL    HW222821   1.725   1.402   7.185  0.3858  0.0819  0.2317
 3729SOL     OW22822   2.020   4.309   7.196  0.6053  0.2168 -0.3560
 3729SOL    HW122823   2.107   4.325   7.233  0.3542 -1.9952  1.1734
 3729SOL    HW222824   2.013   4.358   7.115 -1.0757 -0.1280 -0.4294
 3730SOL     OW22825   2.272   2.455   6.152  0.9407 -0.2006 -0.3684
 3730SOL    HW122826   2.253   2.489   6.239 -0.5709 -0.7426 -0.4803
 3730SOL    HW222827   2.335   2.385   6.169 -0.0135 -1.7225 -3.0865
 3731SOL     OW22828   2.284   0.343  17.317  0.4923  0.2559 -0.0942
 3731SOL    HW122829   2.208   0.378  17.271  0.7287 -0.9477 -1.4176
 3731SOL    HW222830   2.246   0.343  17.405  1.8240  0.3932  0.4772
 3732SOL     OW22831   2.688   1.403  16.796 -0.6358  0.1924 -0.4887
 3732SOL    HW122832   2.758   1.464  16.819  0.0164 -0.5790 -0.4304
 3732SOL    HW222833   2.725   1.326  16.753  0.9940  0.5398  0.3276
 3733SOL     OW22834   4.229   3.806   4.642 -0.0360  0.1421 -0.2371
 3733SOL    HW122835   4.224   3.886   4.589  0.0116  1.2474  1.4116
 3733SOL    HW222836   4.155   3.814   4.702  0.7844 -1.7277  1.0266
 3734SOL     OW22837   0.469   2.566   2.104  0.2217 -0.3629 -0.2789
 3734SOL    HW122838   0.555   2.540   2.139 -0.2393  0.7338  1.6858
 3734SOL    HW222839   0.416   2.556   2.182  0.9593 -0.5592  0.1999
 3735SOL     OW22840   3.288   4.083  10.573  0.5399  0.3742  0.1083
 3735SOL    HW122841   3.258   3.992  10.577 -1.5903  1.2282  3.2154
 3735SOL    HW222842   3.233   4.126  10.638 -1.0345  0.5421 -1.3561
 3736SOL     OW22843   1.193   1.231   6.676  0.1918  0.2673  0.0545
 3736SOL    HW122844   1.282   1.251   6.648 -0.9090  3.0787 -1.3886
 3736SOL    HW222845   1.208   1.169   6.747  0.1210 -1.2556 -1.2392
 3737SOL     OW22846   3.116   1.874  14.892  0.1638 -0.2149 -0.4660
 3737SOL    HW122847   3.130   1.784  14.861  3.9998  0.3590 -0.4098
 3737SOL    HW222848   3.186   1.879  14.957  1.6642 -0.4463 -2.0560
 3738SOL     OW22849   2.858   1.617   8.773 -0.1168  0.5080 -0.5830
 3738SOL    HW122850   2.846   1.550   8.705 -0.5543  0.6514 -0.6428
 3738SOL    HW222851   2.769   1.652   8.777  0.4666  2.1060 -1.3841
 3739SOL     OW22852   1.632   1.594   3.057 -0.0595  0.7916 -0.2366
 3739SOL    HW122853   1.581   1.513   3.051 -0.4265  0.9491  0.6994
 3739SOL    HW222854   1.650   1.634   2.972  0.2105 -0.9974 -1.0280
 3740SOL     OW22855   1.261   4.509   5.019 -0.5605 -0.0381  0.2190
 3740SOL    HW122856   1.298   4.555   4.943  1.4787  1.1246  1.9229
 3740SOL    HW222857   1.340   4.513   5.073 -0.4919 -0.7539  0.1698
 3741SOL     OW22858   0.545   1.960   8.966 -0.5132 -0.2712 -0.0621
 3741SOL    HW122859   0.516   1.933   8.879 -0.7942 -1.9790  0.5677
 3741SOL    HW222860   0.615   2.021   8.944  1.7086 -0.8075  5.5207
 3742SOL     OW22861   1.657   0.090   0.774  0.2365  0.0990  0.8215
 3742SOL    HW122862   1.742   0.047   0.768  1.0075  1.7666 -0.3540
 3742SOL    HW222863   1.677   0.148   0.700  0.1873 -0.6746  0.2072
 3743SOL     OW22864   0.010   3.277   3.435  0.1039  0.0859 -0.2843
 3743SOL    HW122865   0.061   3.344   3.391  0.6296  0.0333  0.2449
 3743SOL    HW222866   0.074   3.239   3.495 -0.4952 -1.0371 -0.3603
 3744SOL     OW22867   1.596   4.208  16.619 -0.0401  0.1521 -0.1144
 3744SOL    HW122868   1.604   4.302  16.600 -0.5827  0.5723  1.7097
 3744SOL    HW222869   1.504   4.185  16.629  0.2125  0.4795  2.9660
 3745SOL     OW22870   1.163   3.941   1.755 -0.2165  0.1094  0.0822
 3745SOL    HW122871   1.227   3.967   1.821 -1.3437 -2.2502  2.1026
 3745SOL    HW222872   1.123   3.868   1.803  0.5195  1.4439  2.7375
 3746SOL     OW22873   4.249   2.613   6.594 -0.2304 -0.2379  0.0599
 3746SOL    HW122874   4.318   2.603   6.528  2.1115 -0.8939  2.6024
 3746SOL    HW222875   4.278   2.693   6.638  0.0352  0.9115 -2.2036
 3747SOL     OW22876   4.268   4.017   4.888  0.2061 -0.1716 -1.4684
 3747SOL    HW122877   4.361   3.995   4.886  0.1244 -0.5885 -0.8300
 3747SOL    HW222878   4.278   4.110   4.905  0.0317 -0.3829 -0.1722
 3748SOL     OW22879   1.923   1.778   5.465  0.2167 -0.1477 -0.2656
 3748SOL    HW122880   1.891   1.801   5.378 -0.5554 -0.1244  0.0287
 3748SOL    HW222881   1.982   1.852   5.476 -0.8948  0.5712  0.8279
 3749SOL     OW22882   3.750   1.227   9.726 -0.0292  0.2157 -0.5317
 3749SOL    HW122883   3.734   1.312   9.686  1.1507  1.0511  0.7892
 3749SOL    HW222884   3.728   1.241   9.818 -1.8033 -0.7397 -0.7977
 3750SOL     OW22885   0.013   1.485   8.610  0.5313 -0.0366  0.3601
 3750SOL    HW122886   4.693   1.529   8.670 -1.1043  0.5888 -1.7590
 3750SOL    HW222887   0.088   1.544   8.610  0.6664 -0.2042  1.5374
 3751SOL     OW22888   2.502   2.025   7.391  0.3670  0.3191  0.0623
 3751SOL    HW122889   2.483   2.023   7.297  0.1747  0.5458  0.0985
 3751SOL    HW222890   2.559   2.102   7.387  0.0900  0.4159 -2.0153
 3752SOL     OW22891   0.078   2.776   6.264 -0.3134  0.0018 -0.2996
 3752SOL    HW122892   0.122   2.723   6.198 -0.4772  0.5224 -0.8317
 3752SOL    HW222893   0.152   2.792   6.323 -1.5319  1.2804  0.8952
 3753SOL     OW22894   3.626   3.849   3.822  0.0983  0.1937 -0.2744
 3753SOL    HW122895   3.632   3.753   3.829  0.6891  0.3799  1.8021
 3753SOL    HW222896   3.570   3.856   3.744  0.1166 -0.0955 -0.3146
 3754SOL     OW22897   2.855   0.977  10.894  0.1130 -0.0869  0.1151
 3754SOL    HW122898   2.883   0.961  10.803 -0.0274 -0.5195  0.1517
 3754SOL    HW222899   2.788   1.042  10.870 -0.9569 -0.7788  1.2981
 3755SOL     OW22900   4.720   3.437  17.046  0.7731  0.5885  0.4218
 3755SOL    HW122901   4.641   3.414  17.094 -0.1155  0.4187 -1.1336
 3755SOL    HW222902   4.690   3.469  16.961  0.0171  0.0399  0.4901
 3756SOL     OW22903   2.035   4.367   4.850  0.0424 -0.6399 -0.3592
 3756SOL    HW122904   2.095   4.441   4.854  0.1571 -0.9913  4.6703
 3756SOL    HW222905   1.981   4.386   4.773  0.4715 -0.7774 -0.6975
 3757SOL     OW22906   1.591   3.901   4.491  0.2673 -0.0294  0.1867
 3757SOL    HW122907   1.585   3.877   4.584  0.4512 -0.6553  0.0385
 3757SOL    HW222908   1.599   3.995   4.506 -2.0894 -0.4646  4.1886
 3758SOL     OW22909   3.209   1.945  14.405 -0.1745 -0.3810  0.0699
 3758SOL    HW122910   3.285   2.002  14.402 -0.4537 -0.1987 -3.0295
 3758SOL    HW222911   3.258   1.878  14.454  0.0161  0.2033  0.6805
 3759SOL     OW22912   2.588   3.496  16.175  0.2645  0.4838  0.1660
 3759SOL    HW122913   2.540   3.458  16.249 -0.8983  2.2248  0.3057
 3759SOL    HW222914   2.607   3.422  16.117  0.4410 -0.6223  1.6140
 3760SOL     OW22915   3.972   2.127   2.137 -0.0558  0.3367 -0.0572
 3760SOL    HW122916   3.878   2.125   2.152 -0.4403  0.9713 -2.3866
 3760SOL    HW222917   3.989   2.150   2.045  0.9861 -1.4057 -0.2972
 3761SOL     OW22918   2.592   3.471  10.367  0.5439 -0.4517  0.2584
 3761SOL    HW122919   2.533   3.479  10.441 -1.6591  0.0031 -1.5541
 3761SOL    HW222920   2.619   3.563  10.369 -0.4180 -0.1660 -0.0073
 3762SOL     OW22921   1.579   3.971   8.209 -0.5707 -0.4701 -0.3414
 3762SOL    HW122922   1.493   3.975   8.251 -0.8678  0.1167 -1.0035
 3762SOL    HW222923   1.584   3.880   8.179 -1.1962 -0.1314 -1.4504
 3763SOL     OW22924   2.107   1.971   4.063 -0.3936 -0.5691  0.4186
 3763SOL    HW122925   2.170   1.942   3.998 -1.4755 -0.0973 -0.8452
 3763SOL    HW222926   2.062   1.891   4.088 -0.7088 -0.9899 -1.5308
 3764SOL     OW22927   4.305   4.689  14.846  0.4418  0.7058  0.4053
 3764SOL    HW122928   4.306   4.684  14.751 -1.4847 -1.7516  0.5221
 3764SOL    HW222929   4.294   4.597  14.871  1.4305  0.1686 -1.1169
 3765SOL     OW22930   1.971   2.098   0.786 -0.2240 -0.2121 -0.5661
 3765SOL    HW122931   1.952   2.170   0.726  0.5017 -1.0948 -1.8471
 3765SOL    HW222932   1.893   2.110   0.840 -0.6848  3.2372 -2.0071
 3766SOL     OW22933   3.091   2.806  15.338  0.4884  0.2073 -0.3794
 3766SOL    HW122934   3.169   2.808  15.283  0.3803 -2.7214 -0.6664
 3766SOL    HW222935   3.032   2.870  15.298  1.3686  1.8390  0.9470
 3767SOL     OW22936   0.389   3.833   3.217  0.3987 -0.1548 -0.2855
 3767SOL    HW122937   0.349   3.794   3.139  0.0654 -0.9244  0.2731
 3767SOL    HW222938   0.428   3.915   3.186 -1.4231  0.9315  0.2737
 3768SOL     OW22939   2.187   0.997   5.888 -0.1530 -0.0767  0.0132
 3768SOL    HW122940   2.170   1.011   5.981  1.5023  1.3035  0.1142
 3768SOL    HW222941   2.170   0.905   5.870  1.1728 -0.9892  3.4658
 3769SOL     OW22942   3.678   4.702   5.676  0.1981  0.4079  0.5841
 3769SOL    HW122943   3.771   4.709   5.696  0.6872  0.0395 -1.4942
 3769SOL    HW222944   3.677   4.626   5.617 -1.8546 -0.1828  1.3738
 3770SOL     OW22945   3.242   3.305  17.672  0.8112 -0.3359 -0.1084
 3770SOL    HW122946   3.244   3.330  17.580 -1.5529  1.4009  0.3353
 3770SOL    HW222947   3.190   3.380  17.701  0.0758 -0.6270 -0.6759
 3771SOL     OW22948   1.459   0.834   9.872  0.4332 -0.4901  0.2704
 3771SOL    HW122949   1.390   0.788   9.824 -2.5626  3.5697  0.6430
 3771SOL    HW222950   1.463   0.785   9.954 -0.1674  0.3394  0.7996
 3772SOL     OW22951   0.639   1.868  16.883  0.0025 -0.2402 -0.2074
 3772SOL    HW122952   0.627   1.776  16.862 -3.5918  0.1630  0.1827
 3772SOL    HW222953   0.558   1.882  16.932 -0.1574 -0.5824 -0.3749
 3773SOL     OW22954   0.839   1.067   8.775 -0.4065 -0.2225  0.1883
 3773SOL    HW122955   0.878   0.992   8.728  2.2378  0.6258  0.9932
 3773SOL    HW222956   0.762   1.018   8.804 -0.1011 -1.0509 -0.4048
 3774SOL     OW22957   2.774   2.103   7.257 -0.7418  0.1311 -0.7251
 3774SOL    HW122958   2.835   2.103   7.184  2.0402 -0.9375  1.5800
 3774SOL    HW222959   2.708   2.156   7.212  0.2131  0.3596 -1.8631
 3775SOL     OW22960   4.615   1.143   0.635 -0.5435  0.6038  0.6958
 3775SOL    HW122961   4.682   1.130   0.568 -0.3794 -0.4248  1.0633
 3775SOL    HW222962   4.567   1.061   0.622  0.0186  0.1324  1.5862
 3776SOL     OW22963   0.610   3.830   2.023 -0.1204  0.7785  0.4075
 3776SOL    HW122964   0.620   3.737   2.003 -0.6270  0.9948 -0.8141
 3776SOL    HW222965   0.613   3.827   2.119  1.7152 -2.3029  0.2595
 3777SOL     OW22966   3.702   1.945   1.709  0.0201 -0.7595 -0.4291
 3777SOL    HW122967   3.790   1.926   1.741  1.2341  1.3461 -2.5341
 3777SOL    HW222968   3.711   2.017   1.647  1.6681 -0.0710  0.6237
 3778SOL     OW22969   1.609   4.702   1.991  0.0030 -0.6004 -0.3299
 3778SOL    HW122970   1.558   4.683   2.070  0.0651  0.7577  0.0382
 3778SOL    HW222971   1.695   4.720   2.030 -1.0919  1.5592  1.0844
 3779SOL     OW22972   0.766   2.298   7.986  0.2204 -0.4541 -0.1189
 3779SOL    HW122973   0.780   2.266   8.076  0.1322  0.2299  0.1364
 3779SOL    HW222974   0.798   2.388   7.991 -3.3815  0.7190  1.2753
 3780SOL     OW22975   1.990   2.266  13.559  0.0751  0.5262  0.1909
 3780SOL    HW122976   2.065   2.212  13.584 -0.5187 -0.9935 -1.3321
 3780SOL    HW222977   1.939   2.205  13.506 -0.6826  1.0468  0.3255
 3781SOL     OW22978   2.046   2.730   0.552 -0.1123  0.2600 -0.2064
 3781SOL    HW122979   2.068   2.816   0.517 -0.6299  0.3451 -0.3238
 3781SOL    HW222980   2.117   2.677   0.516  0.5458  0.6754  0.4802
 3782SOL     OW22981   0.785   4.353   2.532 -0.5493 -0.1202 -0.1106
 3782SOL    HW122982   0.752   4.414   2.597  1.4704  0.5985  0.2200
 3782SOL    HW222983   0.846   4.394   2.470  1.2822 -2.0315  0.4150
 3783SOL     OW22984   1.270   0.128  14.271  0.4553  0.2028 -0.1154
 3783SOL    HW122985   1.334   0.179  14.321 -0.0417 -0.8145  1.5160
 3783SOL    HW222986   1.250   0.055  14.329  0.7449 -0.5493 -0.9597
 3784SOL     OW22987   3.194   4.108   6.373  0.2183  0.0958  0.2773
 3784SOL    HW122988   3.108   4.069   6.357 -0.1892  1.1329 -0.0259
 3784SOL    HW222989   3.207   4.164   6.297 -2.4069 -0.3731 -0.5162
 3785SOL     OW22990   3.223   0.283  16.079 -0.3593  0.0260 -0.0165
 3785SOL    HW122991   3.215   0.193  16.109  0.8715 -0.9398 -2.6010
 3785SOL    HW222992   3.316   0.295  16.100 -0.4546 -1.9760  1.4739
 3786SOL     OW22993   3.033   3.135  16.483 -0.3730  0.4158  0.3254
 3786SOL    HW122994   3.019   3.091  16.399  0.8566  1.1311 -0.2595
 3786SOL    HW222995   3.129   3.128  16.481 -0.4489  0.0206 -2.3772
 3787SOL     OW22996   1.138   1.029  11.977 -0.1503  0.1230  0.2707
 3787SOL    HW122997   1.134   1.062  11.887 -1.6461 -0.3821  0.1389
 3787SOL    HW222998   1.230   1.048  11.992  0.3551 -1.1573 -1.2280
 3788SOL     OW22999   1.293   1.868  16.846  0.1687  0.1513  0.2894
 3788SOL    HW123000   1.243   1.871  16.764  2.1902 -1.7743 -1.0414
 3788SOL    HW223001   1.219   1.844  16.902 -1.6368  1.5979 -1.4889
 3789SOL     OW23002   0.302   1.503  16.423 -0.1698  0.7435 -0.4043
 3789SOL    HW123003   0.318   1.556  16.344 -0.9698 -0.2193 -1.2186
 3789SOL    HW223004   0.322   1.416  16.388 -0.2177  1.9534 -3.4475
 3790SOL     OW23005   3.831   0.392   0.988  0.3815  0.1579 -0.2627
 3790SOL    HW123006   3.767   0.396   1.058  0.5525  0.8245 -0.1438
 3790SOL    HW223007   3.883   0.471   1.002 -2.4586  2.1358 -0.9462
 3791SOL     OW23008   3.813   2.784  10.740 -0.1776 -0.7550  0.2140
 3791SOL    HW123009   3.861   2.864  10.718 -1.0082 -1.1259 -2.9299
 3791SOL    HW223010   3.794   2.796  10.833 -2.1664 -2.3633  0.0052
 3792SOL     OW23011   0.987   2.391   8.388  1.0291 -0.5019 -0.3134
 3792SOL    HW123012   1.055   2.358   8.447  0.6661 -0.5933  0.0546
 3792SOL    HW223013   1.021   2.369   8.301 -2.6885  1.5593 -2.2961
 3793SOL     OW23014   2.700   4.327  16.199 -0.3088  0.2898  0.0421
 3793SOL    HW123015   2.657   4.326  16.285 -1.4381 -0.0617 -0.5322
 3793SOL    HW223016   2.635   4.362  16.138 -1.6897 -2.2786  0.0627
 3794SOL     OW23017   3.909   4.677  11.091  0.0973 -0.8658 -0.2071
 3794SOL    HW123018   3.943   0.003  11.152  0.2303 -1.2473  0.1319
 3794SOL    HW223019   3.836   4.721  11.048  1.5451 -0.0635 -1.8544
 3795SOL     OW23020   4.389   0.238   7.014  0.6137 -0.3819  0.2225
 3795SOL    HW123021   4.382   0.179   7.089  1.1136  1.0594  1.4147
 3795SOL    HW223022   4.377   0.182   6.938 -1.6703 -0.9956  1.0406
 3796SOL     OW23023   1.318   1.801   4.738 -0.3518  0.3567  0.3478
 3796SOL    HW123024   1.224   1.790   4.750 -0.1572 -1.3151  0.2759
 3796SOL    HW223025   1.331   1.844   4.823  1.5157  0.6398 -0.0822
 3797SOL     OW23026   0.809   2.598   3.970  0.2502  0.0306 -0.5188
 3797SOL    HW123027   0.809   2.555   3.884 -0.4742  0.2756 -0.6333
 3797SOL    HW223028   0.898   2.570   3.992  0.3105  0.5755 -0.0830
 3798SOL     OW23029   4.337   2.891   6.342 -0.6531 -0.2589  0.0212
 3798SOL    HW123030   4.333   2.822   6.276 -0.2814 -1.2488  1.0373
 3798SOL    HW223031   4.286   2.964   6.306  0.2347  0.4715  0.2442
 3799SOL     OW23032   4.698   2.273   7.250  0.4518  0.2958 -0.3350
 3799SOL    HW123033   4.664   2.301   7.335 -1.5400 -0.4614 -0.8695
 3799SOL    HW223034   0.017   2.198   7.262 -2.3159 -1.7958  0.0877
 3800SOL     OW23035   1.339   1.329   4.288 -0.3459 -0.3077 -0.1194
 3800SOL    HW123036   1.307   1.295   4.372  0.8312 -1.5890 -0.1811
 3800SOL    HW223037   1.308   1.260   4.229 -2.1431 -1.0313  1.6543
 3801SOL     OW23038   1.317   4.393   5.837 -0.0244 -0.0740 -0.2044
 3801SOL    HW123039   1.286   4.444   5.911  0.7444 -0.4966  0.4061
 3801SOL    HW223040   1.411   4.398   5.854 -0.1912  1.6101  0.2253
 3802SOL     OW23041   2.436   2.092   9.099  0.1766 -0.3112 -0.2701
 3802SOL    HW123042   2.502   2.070   9.033  0.5326  1.1880 -0.4205
 3802SOL    HW223043   2.393   2.168   9.061 -0.8053 -0.5456  0.3764
 3803SOL     OW23044   2.548   0.149   9.208 -0.6311  0.1008  0.5792
 3803SOL    HW123045   2.573   0.139   9.300 -1.2992 -0.5616  0.6870
 3803SOL    HW223046   2.468   0.098   9.208  0.4477 -1.5873 -1.5765
 3804SOL     OW23047   3.415   1.549   9.860  0.0407  0.5895  0.2311
 3804SOL    HW123048   3.350   1.573   9.925 -0.7220 -0.9987  0.0657
 3804SOL    HW223049   3.420   1.622   9.798  0.0354  0.4375  0.0513
 3805SOL     OW23050   1.150   1.835   3.053 -0.0754  0.8476 -0.2570
 3805SOL    HW123051   1.245   1.851   3.060 -0.3160  2.1543  0.1686
 3805SOL    HW223052   1.138   1.869   2.965 -0.2440 -0.7901 -0.8603
 3806SOL     OW23053   2.006   0.910   4.647 -0.4505 -0.5898  0.1459
 3806SOL    HW123054   2.000   0.815   4.652  2.9317 -0.7985  0.1388
 3806SOL    HW223055   2.036   0.923   4.557 -0.2374 -0.5709  0.2198
 3807SOL     OW23056   2.527   2.280   4.618  0.3929  0.1296  0.2525
 3807SOL    HW123057   2.515   2.363   4.571 -0.0724  2.0508  3.7383
 3807SOL    HW223058   2.504   2.308   4.707 -0.4730  0.2278  0.0053
 3808SOL     OW23059   4.119   4.016   4.116  0.4608  0.1785 -0.1303
 3808SOL    HW123060   4.110   3.927   4.082 -0.0738  0.3019 -0.3220
 3808SOL    HW223061   4.131   4.018   4.211  1.6611 -2.1385 -0.2451
 3809SOL     OW23062   0.546   3.672   9.506  0.3267  0.1606 -0.4942
 3809SOL    HW123063   0.587   3.588   9.528  0.5730  0.4064 -0.0102
 3809SOL    HW223064   0.580   3.686   9.418 -1.1708  0.5070 -1.0102
 3810SOL     OW23065   3.180   1.132   1.026 -0.2521  0.3882 -0.1200
 3810SOL    HW123066   3.110   1.110   0.965  0.3813 -0.4355 -0.5571
 3810SOL    HW223067   3.212   1.217   0.995  0.2451  0.6409  1.0961
 3811SOL     OW23068   1.834   0.464   7.186  0.6381 -0.2307 -0.5679
 3811SOL    HW123069   1.786   0.544   7.165  2.0842  0.1529 -2.4200
 3811SOL    HW223070   1.926   0.483   7.165  0.7531  2.1993  2.1973
 3812SOL     OW23071   3.616   0.294   2.688 -0.3027 -0.3903 -0.8345
 3812SOL    HW123072   3.655   0.208   2.699 -0.1542 -0.0780  1.0782
 3812SOL    HW223073   3.638   0.314   2.597  0.9849 -0.9034 -0.6270
 3813SOL     OW23074   3.455   1.400   8.362 -0.4529  0.0263  0.1753
 3813SOL    HW123075   3.407   1.376   8.441 -2.5719  0.4401 -0.9581
 3813SOL    HW223076   3.518   1.463   8.396  0.6884 -0.2339 -1.4372
 3814SOL     OW23077   4.498   0.143   4.664  0.7660 -0.3107  0.2763
 3814SOL    HW123078   4.426   0.205   4.659  2.2969  1.1795 -3.1909
 3814SOL    HW223079   4.526   0.136   4.573 -0.1695 -2.5969  0.1480
 3815SOL     OW23080   0.850   4.171  16.050 -0.1778  0.0685 -0.2241
 3815SOL    HW123081   0.905   4.117  15.992  1.7467  0.6239  1.0904
 3815SOL    HW223082   0.910   4.238  16.082 -0.6424 -0.0725  0.9371
 3816SOL     OW23083   3.781   2.560   1.181  0.2456  0.0205 -0.1458
 3816SOL    HW123084   3.786   2.487   1.120  1.3458 -0.2177  0.2253
 3816SOL    HW223085   3.822   2.627   1.125 -0.8678  0.4033 -0.5014
 3817SOL     OW23086   4.733   2.761  15.431  0.0936 -0.2475  0.2010
 3817SOL    HW123087   0.042   2.681  15.414  0.4597 -0.5035  2.3804
 3817SOL    HW223088   4.642   2.735  15.417 -0.3761  0.4193  1.9053
 3818SOL     OW23089   0.224   2.772  11.810  0.0409 -0.3223 -0.1226
 3818SOL    HW123090   0.212   2.683  11.842  0.7638  0.2099  1.6398
 3818SOL    HW223091   0.224   2.828  11.888 -0.4069  0.1354 -0.4540
 3819SOL     OW23092   0.620   0.326   8.122 -0.0044 -0.1758 -0.1219
 3819SOL    HW123093   0.644   0.397   8.063 -1.3298 -0.9663 -1.5927
 3819SOL    HW223094   0.634   0.248   8.069  0.9142  1.4059 -2.1945
 3820SOL     OW23095   3.580   0.796   9.460  0.4695  0.2722  0.1002
 3820SOL    HW123096   3.485   0.790   9.452  0.4636 -0.4718  0.6698
 3820SOL    HW223097   3.575   0.880   9.506  1.6395  0.5422 -0.2754
 3821SOL     OW23098   3.834   1.082   3.113  0.0704 -0.1952 -0.3880
 3821SOL    HW123099   3.790   1.106   3.031 -0.1736  0.5660 -0.0323
 3821SOL    HW223100   3.921   1.055   3.085  1.7638  2.7184  1.9792
 3822SOL     OW23101   2.756   1.990  10.975  0.6670 -0.3839 -0.1088
 3822SOL    HW123102   2.808   2.065  10.946  0.2993 -0.8327 -1.8693
 3822SOL    HW223103   2.685   2.031  11.023  0.3209  0.6092 -1.4761
 3823SOL     OW23104   3.015   4.258   5.879  0.1171 -0.0714 -0.5797
 3823SOL    HW123105   3.052   4.179   5.840 -0.4028 -0.7058  0.2107
 3823SOL    HW223106   2.921   4.240   5.872 -0.1905  0.4647  2.3203
 3824SOL     OW23107   3.641   0.854  15.144  0.4260 -0.1122  1.2975
 3824SOL    HW123108   3.711   0.837  15.207  0.8226  1.0997  1.1819
 3824SOL    HW223109   3.650   0.949  15.141 -0.2727 -0.1273 -1.3445
 3825SOL     OW23110   1.107   2.205   6.771  1.0141 -0.1640 -0.4593
 3825SOL    HW123111   1.116   2.200   6.676 -2.4068 -0.3086 -0.7773
 3825SOL    HW223112   1.048   2.280   6.776  0.2341 -0.9810  3.2948
 3826SOL     OW23113   0.404   3.559   6.850  0.3270 -0.3863 -0.3914
 3826SOL    HW123114   0.415   3.641   6.803 -2.0664  0.3605  0.3829
 3826SOL    HW223115   0.322   3.573   6.897 -0.2728  1.0256 -1.8504
 3827SOL     OW23116   0.419   3.374   7.115  0.1162 -0.0719 -0.2576
 3827SOL    HW123117   0.468   3.292   7.103 -1.6660 -1.3360  1.0786
 3827SOL    HW223118   0.425   3.423   7.033  0.0573 -1.0234 -0.8311
 3828SOL     OW23119   2.708   1.258   3.792 -0.1802  0.6444 -0.3060
 3828SOL    HW123120   2.713   1.174   3.838 -2.1392  0.8891  0.3432
 3828SOL    HW223121   2.621   1.283   3.822 -0.1618 -1.4620  1.4943
 3829SOL     OW23122   3.803   3.318   5.820  0.0491 -0.2526  0.4875
 3829SOL    HW123123   3.894   3.345   5.803 -0.0353  0.8827  1.7967
 3829SOL    HW223124   3.794   3.243   5.762  0.2033  0.5227 -0.5452
 3830SOL     OW23125   3.564   0.762   1.693  0.3129 -0.3132  0.1219
 3830SOL    HW123126   3.611   0.839   1.662 -2.1126  1.5965  1.1674
 3830SOL    HW223127   3.586   0.699   1.624  1.5872  0.2270  0.0486
 3831SOL     OW23128   3.015   0.560   2.527 -0.4776  0.1511  0.2681
 3831SOL    HW123129   2.992   0.633   2.585  0.3059  1.0649 -0.5785
 3831SOL    HW223130   2.932   0.514   2.515 -1.3578  1.6168  0.6928
 3832SOL     OW23131   0.513   4.149   7.699 -0.4510  0.1102  0.6971
 3832SOL    HW123132   0.419   4.133   7.698 -0.7335  1.9109 -1.7572
 3832SOL    HW223133   0.524   4.233   7.654 -2.2710  0.1712  0.3676
 3833SOL     OW23134   1.780   2.676   2.569  0.1545  0.6388  0.5895
 3833SOL    HW123135   1.873   2.657   2.572  0.1026 -0.3240 -3.6595
 3833SOL    HW223136   1.757   2.689   2.661  0.7572  1.6910  0.5832
 3834SOL     OW23137   0.921   3.608   2.384 -0.7424 -0.1502  0.0330
 3834SOL    HW123138   0.995   3.623   2.325 -1.5619  1.7230 -0.5166
 3834SOL    HW223139   0.927   3.513   2.397 -1.2046  0.1121  2.1409
 3835SOL     OW23140   0.811   3.393  15.889  0.5530 -0.5630 -0.8030
 3835SOL    HW123141   0.833   3.331  15.958  0.1483  0.3790  0.1845
 3835SOL    HW223142   0.750   3.350  15.830 -1.1104  0.7828 -0.0595
 3836SOL     OW23143   2.537   3.351   3.665 -0.4791  0.4486  0.3536
 3836SOL    HW123144   2.459   3.406   3.666  0.6437  2.0909 -2.2478
 3836SOL    HW223145   2.491   3.269   3.645  0.0309  0.4934 -1.0294
 3837SOL     OW23146   0.794   0.950  16.432 -0.3073 -0.1881  0.3016
 3837SOL    HW123147   0.849   0.945  16.354  0.6290 -1.4812  1.0514
 3837SOL    HW223148   0.844   0.886  16.483  2.1405 -0.1169 -2.0335
 3838SOL     OW23149   2.718   0.350   3.973  0.0221 -0.0172  0.0044
 3838SOL    HW123150   2.703   0.439   3.943  1.0654  0.4007  0.6980
 3838SOL    HW223151   2.786   0.330   3.908 -0.1713  0.3027 -0.2933
 3839SOL     OW23152   1.274   2.359   6.049  0.1016  0.1156  0.4009
 3839SOL    HW123153   1.218   2.319   5.983  0.1051  0.2572  0.3109
 3839SOL    HW223154   1.315   2.430   5.998 -0.3045 -0.6027 -0.9351
 3840SOL     OW23155   3.638   1.685   4.579 -0.3862 -0.3501 -0.2185
 3840SOL    HW123156   3.614   1.772   4.610  0.6011  0.1852 -0.9747
 3840SOL    HW223157   3.664   1.704   4.489 -0.7251 -1.2589 -0.5145
 3841SOL     OW23158   4.391   0.251   2.670  0.4813 -0.3580 -0.2765
 3841SOL    HW123159   4.329   0.236   2.597 -1.0222  1.2144  0.6847
 3841SOL    HW223160   4.465   0.199   2.638  1.7299  0.3887  1.4174
 3842SOL     OW23161   1.035   3.548   8.971 -0.2005 -0.1999  0.1431
 3842SOL    HW123162   1.038   3.593   9.056 -0.3121  1.9268 -0.9579
 3842SOL    HW223163   1.111   3.492   8.983  0.9192  0.8993 -1.7638
 3843SOL     OW23164   3.826   3.880  10.903 -0.2263  0.3566 -0.0436
 3843SOL    HW123165   3.826   3.798  10.853 -1.5285  1.4033 -1.7347
 3843SOL    HW223166   3.855   3.847  10.989 -1.4784 -1.8637 -0.4767
 3844SOL     OW23167   1.622   0.550   5.035  0.1369  0.2709  0.5951
 3844SOL    HW123168   1.654   0.502   5.111  1.7034  0.8252  0.2788
 3844SOL    HW223169   1.661   0.506   4.959 -0.4856  1.7722 -0.5968
 3845SOL     OW23170   0.919   0.330   8.880  0.1011 -0.3897  0.2180
 3845SOL    HW123171   0.925   0.372   8.794  0.5416  0.8886  0.8688
 3845SOL    HW223172   1.005   0.358   8.914 -1.0037  0.5194  2.2287
 3846SOL     OW23173   2.844   4.330   4.477 -0.0231  0.0477  0.0944
 3846SOL    HW123174   2.793   4.358   4.552 -1.4248 -0.4646 -0.6628
 3846SOL    HW223175   2.773   4.299   4.421 -0.2300 -0.8055  0.8341
 3847SOL     OW23176   2.104   0.665   0.032  0.0167  0.1322  0.0709
 3847SOL    HW123177   2.034   0.605   0.006  0.3390 -0.8223  1.4146
 3847SOL    HW223178   2.184   0.634  17.744  0.4013 -2.1812  2.3956
 3848SOL     OW23179   0.772   0.685  16.792  0.1041  0.9669  0.4523
 3848SOL    HW123180   0.701   0.745  16.767  1.2211  1.8256 -0.6198
 3848SOL    HW223181   0.734   0.612  16.842  4.9160 -1.3639  0.7163
 3849SOL     OW23182   2.717   1.497   7.819 -0.1774  0.1342 -0.1269
 3849SOL    HW123183   2.702   1.582   7.778  1.2832  0.4652  0.0125
 3849SOL    HW223184   2.648   1.491   7.885  1.1881  0.7153  1.3506
 3850SOL     OW23185   3.441   2.529   8.735  0.2243  0.0103 -0.1503
 3850SOL    HW123186   3.480   2.450   8.697  1.0333  1.5224 -2.4901
 3850SOL    HW223187   3.389   2.568   8.664 -1.2444 -0.4471  0.6667
 3851SOL     OW23188   0.456   1.813  11.022 -0.1593 -0.0317 -0.2056
 3851SOL    HW123189   0.442   1.771  11.107 -1.0742  0.6288 -0.0387
 3851SOL    HW223190   0.372   1.811  10.978  0.6259  3.5097 -1.8151
 3852SOL     OW23191   3.815   0.064   2.799 -0.1602  0.2624  0.0966
 3852SOL    HW123192   3.874   0.115   2.743 -0.9444 -1.1318 -2.0408
 3852SOL    HW223193   3.879   0.021   2.855 -0.3439  2.0994  1.7098
 3853SOL     OW23194   0.565   4.328   2.372  0.2300  0.1873  0.2465
 3853SOL    HW123195   0.567   4.234   2.355 -1.6599  0.0564  0.7411
 3853SOL    HW223196   0.641   4.328   2.429  1.9707  0.3399 -2.0934
 3854SOL     OW23197   0.682   0.742   2.113  0.2269  0.3231  1.0839
 3854SOL    HW123198   0.748   0.787   2.062 -0.0939 -1.6206 -1.0241
 3854SOL    HW223199   0.678   0.673   2.048 -2.5366  0.6069  0.9262
 3855SOL     OW23200   3.373   1.323   6.767  0.0015  0.0974  0.0531
 3855SOL    HW123201   3.400   1.365   6.848  0.2763  0.8331 -0.4222
 3855SOL    HW223202   3.290   1.364   6.743 -1.7227 -2.9061  0.7577
 3856SOL     OW23203   1.598   0.119  14.564 -0.3307 -0.4349  0.1704
 3856SOL    HW123204   1.556   0.182  14.506 -1.0839 -1.7313 -0.6808
 3856SOL    HW223205   1.553   0.046  14.521 -1.7106  0.3145  0.3453
 3857SOL     OW23206   4.235   0.611   9.261  0.3020  0.3834 -0.5349
 3857SOL    HW123207   4.236   0.625   9.166  1.3037 -0.3716 -0.6338
 3857SOL    HW223208   4.145   0.641   9.276 -0.0242 -0.8952  0.1076
 3858SOL     OW23209   1.842   4.613   7.180  0.3181  0.1236  0.0778
 3858SOL    HW123210   1.855   4.567   7.097  3.2482  1.7851 -0.4027
 3858SOL    HW223211   1.758   4.656   7.165 -0.5533 -1.6839 -0.2040
 3859SOL     OW23212   0.114   0.891   6.852 -0.3629 -0.3060 -0.2476
 3859SOL    HW123213   0.209   0.874   6.851 -0.7935 -2.6203 -3.3477
 3859SOL    HW223214   0.090   0.798   6.853 -0.2702 -0.3380 -1.0226
 3860SOL     OW23215   3.274   0.659   1.652  1.0418 -0.5256  0.3140
 3860SOL    HW123216   3.319   0.712   1.586 -1.1314 -0.3923 -1.0746
 3860SOL    HW223217   3.264   0.718   1.727  0.3974  0.9370 -0.9020
 3861SOL     OW23218   4.428   2.902   8.052  0.0953 -0.5058  0.2573
 3861SOL    HW123219   4.483   2.980   8.045  1.5088 -1.3348  2.2976
 3861SOL    HW223220   4.377   2.909   7.971 -0.8986  0.8098  0.9997
 3862SOL     OW23221   0.557   2.124   7.862 -0.1774 -0.1501 -0.0796
 3862SOL    HW123222   0.637   2.175   7.878 -0.2961  0.1592 -0.4771
 3862SOL    HW223223   0.576   2.074   7.782  1.0723  0.7398 -0.3429
 3863SOL     OW23224   2.033   4.615  12.886  0.6874  0.1527  0.6027
 3863SOL    HW123225   2.087   4.583  12.957  0.7191 -0.9241  0.0970
 3863SOL    HW223226   1.955   4.565  12.909  0.1526  0.7911  0.1807
 3864SOL     OW23227   3.407   1.837   2.856 -0.7668  0.0534 -0.0005
 3864SOL    HW123228   3.342   1.837   2.926  1.0271  1.3665  1.6848
 3864SOL    HW223229   3.484   1.834   2.914  1.1373  3.6997 -2.3298
 3865SOL     OW23230   0.366   0.762   6.927 -0.2339  0.3891  0.3365
 3865SOL    HW123231   0.395   0.821   6.997 -1.3261  2.1853 -0.7143
 3865SOL    HW223232   0.350   0.683   6.978 -0.8588  1.5074  1.8607
 3866SOL     OW23233   4.045   2.447  13.542 -0.2730  0.2798  0.0565
 3866SOL    HW123234   4.079   2.358  13.539  0.0188  0.4098 -0.4445
 3866SOL    HW223235   4.096   2.481  13.616 -0.6635  0.1463  0.3876
 3867SOL     OW23236   2.933   0.895   4.658 -1.3549  0.1941 -0.3396
 3867SOL    HW123237   2.898   0.809   4.639 -1.1567 -0.1560  0.8437
 3867SOL    HW223238   2.958   0.891   4.751 -0.7659  0.9262 -0.4615
 3868SOL     OW23239   0.230   1.202  14.875 -0.6400 -0.2328  0.1711
 3868SOL    HW123240   0.288   1.134  14.841  0.7028  0.6322  0.7099
 3868SOL    HW223241   0.199   1.175  14.961 -0.5855  0.7777  0.5067
 3869SOL     OW23242   3.300   3.749  14.713  0.2529 -0.4978 -0.1182
 3869SOL    HW123243   3.275   3.656  14.714 -1.1928 -0.0946  1.1781
 3869SOL    HW223244   3.389   3.725  14.739  0.0291 -1.3378 -0.1094
 3870SOL     OW23245   3.012   1.593   2.722  0.0932 -0.0159 -0.2566
 3870SOL    HW123246   3.048   1.586   2.633  0.7793  0.2714 -0.0074
 3870SOL    HW223247   2.924   1.562   2.703 -0.3481  0.6179  0.7521
 3871SOL     OW23248   4.201   0.217   3.117 -0.2034 -0.3269 -0.4504
 3871SOL    HW123249   4.253   0.266   3.054  1.4595 -0.7766  0.5732
 3871SOL    HW223250   4.269   0.211   3.185 -0.0865  2.1465 -0.3721
 3872SOL     OW23251   1.401   3.720   9.068 -0.1124 -0.6974 -0.0411
 3872SOL    HW123252   1.345   3.701   8.993 -0.3836  1.0592 -0.2944
 3872SOL    HW223253   1.399   3.815   9.058  0.8052 -0.6732  0.0246
 3873SOL     OW23254   1.112   0.740   9.135 -0.2586 -0.1723 -0.2290
 3873SOL    HW123255   1.025   0.778   9.127 -0.2339 -0.0087  0.2383
 3873SOL    HW223256   1.095   0.692   9.216  0.1708  1.4483  0.8191
 3874SOL     OW23257   2.754   4.618   8.344 -0.4508 -0.1642 -0.7756
 3874SOL    HW123258   2.753   4.697   8.398 -2.4315  0.7762 -2.2070
 3874SOL    HW223259   2.846   4.595   8.334 -0.2976  0.4571 -0.7994
 3875SOL     OW23260   4.193   3.478   7.745  0.1270 -0.1715 -0.4133
 3875SOL    HW123261   4.247   3.549   7.780 -0.6430  0.3580 -0.2849
 3875SOL    HW223262   4.128   3.524   7.691 -1.8056 -0.6826  1.4565
 3876SOL     OW23263   4.042   0.236   5.009  0.4829  0.4012 -0.2218
 3876SOL    HW123264   4.128   0.233   4.966 -0.1865  0.8693 -1.5832
 3876SOL    HW223265   4.020   0.324   4.981 -0.5909  0.8165  1.9306
 3877SOL     OW23266   4.549   1.625   8.729  0.3963  0.0147  0.3146
 3877SOL    HW123267   4.491   1.691   8.693  0.6003 -0.6186 -1.1748
 3877SOL    HW223268   4.494   1.547   8.738  0.8101 -0.2998  0.1436
 3878SOL     OW23269   1.582   2.683   3.007 -0.4306  0.3232 -0.5705
 3878SOL    HW123270   1.502   2.723   3.041 -0.4636  0.0137 -0.2872
 3878SOL    HW223271   1.602   2.616   3.072  1.0713  0.0581 -1.2942
 3879SOL     OW23272   1.177   3.416   4.053  0.1536  0.9347  0.3817
 3879SOL    HW123273   1.266   3.382   4.060  0.1944  1.1409  0.9438
 3879SOL    HW223274   1.184   3.498   4.004  0.1144  0.2161 -0.8167
 3880SOL     OW23275   2.591   3.018  12.749 -0.2475 -0.0355 -0.3927
 3880SOL    HW123276   2.536   2.940  12.736 -1.8698  0.8450  1.1366
 3880SOL    HW223277   2.554   3.091  12.700  1.2308 -1.6656 -3.9499
 3881SOL     OW23278   3.062   1.466  12.035 -0.0932 -0.0161 -0.0773
 3881SOL    HW123279   3.050   1.409  11.959  1.2582  0.2105 -0.4751
 3881SOL    HW223280   3.135   1.520  12.004  1.8626 -0.6673  3.2867
 3882SOL     OW23281   1.590   2.501   3.225  0.0623 -0.8292 -0.1596
 3882SOL    HW123282   1.647   2.546   3.287 -0.1670  1.4520 -1.6332
 3882SOL    HW223283   1.651   2.430   3.204  0.2724  0.2201 -2.9568
 3883SOL     OW23284   3.940   1.983  13.429 -0.0339 -0.1349  0.3706
 3883SOL    HW123285   3.904   1.896  13.413 -0.5456 -0.1713  1.7027
 3883SOL    HW223286   3.870   2.047  13.417  0.6761  0.4363 -0.7637
 3884SOL     OW23287   1.178   1.127   6.338  0.5220  0.1171  0.1919
 3884SOL    HW123288   1.108   1.063   6.323  1.3509 -0.8949  0.6287
 3884SOL    HW223289   1.185   1.125   6.434 -0.4635  1.2121  0.2843
 3885SOL     OW23290   1.179   4.391   0.181 -0.0830 -0.1072  0.0059
 3885SOL    HW123291   1.232   4.466   0.154  0.1573  0.0598  0.9557
 3885SOL    HW223292   1.180   4.329   0.108  1.6661 -1.8460  1.4916
 3886SOL     OW23293   1.125   2.753   6.422 -0.4111  0.0993  0.7739
 3886SOL    HW123294   1.164   2.697   6.354  1.4365  1.2821  0.8438
 3886SOL    HW223295   1.207   2.776   6.467 -0.2414 -0.8592  0.9528
 3887SOL     OW23296   2.626   1.358   1.192  1.0360 -0.6362  0.0833
 3887SOL    HW123297   2.656   1.290   1.133 -1.2976 -2.0977  0.5808
 3887SOL    HW223298   2.706   1.411   1.197 -1.4986  3.0275  2.2036
 3888SOL     OW23299   3.263   2.076   0.475  0.8140  0.1221 -0.3839
 3888SOL    HW123300   3.274   2.089   0.569 -0.2218 -1.8223 -0.0107
 3888SOL    HW223301   3.339   2.116   0.432  1.4893  0.3942  1.0687
 3889SOL     OW23302   2.347   0.407   8.762 -0.0865 -0.2123  0.4894
 3889SOL    HW123303   2.339   0.434   8.853  1.8927  0.3602  0.5086
 3889SOL    HW223304   2.275   0.344   8.758  1.0698 -1.5461  0.4892
 3890SOL     OW23305   2.493   1.940   0.348 -0.1555 -0.5348  0.4688
 3890SOL    HW123306   2.476   2.013   0.289  1.4880 -0.6807 -0.1882
 3890SOL    HW223307   2.580   1.911   0.319  0.3840  1.7177 -0.1982
 3891SOL     OW23308   0.382   3.942   4.743 -0.1719 -0.2258  0.1045
 3891SOL    HW123309   0.443   4.013   4.721 -3.4275  2.5581  0.0689
 3891SOL    HW223310   0.364   3.958   4.835  0.4351 -0.0915  0.2053
 3892SOL     OW23311   2.064   0.534  12.691 -0.5020  0.0836 -0.3588
 3892SOL    HW123312   2.080   0.511  12.782  1.7646 -2.5945 -1.4301
 3892SOL    HW223313   1.993   0.598  12.690  0.3233  0.9699 -1.6587
 3893SOL     OW23314   2.934   2.215   7.033 -0.0230  0.0731  0.4940
 3893SOL    HW123315   2.992   2.250   7.101 -0.3386 -1.6341  1.6225
 3893SOL    HW223316   2.980   2.241   6.953 -0.2051  3.5498  1.4881
 3894SOL     OW23317   2.014   1.170   9.433  0.4667  0.3287  0.4040
 3894SOL    HW123318   1.954   1.105   9.468 -0.5924  0.4162 -1.2402
 3894SOL    HW223319   2.068   1.196   9.508  1.7680  0.3842 -0.5558
 3895SOL     OW23320   2.725   1.882   9.117  0.4190  0.0754 -0.3505
 3895SOL    HW123321   2.754   1.971   9.098 -1.2775  0.8124  0.4264
 3895SOL    HW223322   2.789   1.823   9.077 -0.6323 -2.6271  1.9109
 3896SOL     OW23323   4.164   1.485   5.734  0.1192  0.1417  0.2759
 3896SOL    HW123324   4.226   1.414   5.719 -0.2638  0.2894 -1.9617
 3896SOL    HW223325   4.140   1.497   5.643 -0.3131 -0.7140  0.2838
 3897SOL     OW23326   3.712   1.431   3.840  0.1862  0.6723 -0.4377
 3897SOL    HW123327   3.695   1.466   3.753 -0.5257  2.3104  0.3624
 3897SOL    HW223328   3.778   1.495   3.866  0.9581 -0.0812 -0.5300
 3898SOL     OW23329   3.010   1.171  10.311  0.4883 -0.2607 -0.0648
 3898SOL    HW123330   3.074   1.230  10.351 -1.3794  1.3790  0.4691
 3898SOL    HW223331   3.060   1.113  10.254  0.7696  2.4381 -2.5625
 3899SOL     OW23332   4.663   3.021  17.079 -0.4865 -0.5098 -0.1030
 3899SOL    HW123333   4.615   3.011  16.997 -0.3883 -1.0135 -0.0998
 3899SOL    HW223334   4.599   2.972  17.131 -0.8585  0.1320  0.0534
 3900SOL     OW23335   2.347   3.005   3.074 -0.0143 -0.4884  0.4674
 3900SOL    HW123336   2.300   2.970   3.150 -1.3365  1.2138  0.4204
 3900SOL    HW223337   2.430   3.025   3.118  1.3931  1.1433 -2.9399
 3901SOL     OW23338   0.587   3.359   6.019 -0.3127  0.0327  0.0656
 3901SOL    HW123339   0.597   3.407   5.937 -2.2017  0.0769 -0.1425
 3901SOL    HW223340   0.570   3.268   5.995 -1.3669  0.3053 -0.2293
 3902SOL     OW23341   3.582   2.320   3.915 -0.2473  0.0624 -0.5735
 3902SOL    HW123342   3.503   2.289   3.958  0.4397 -1.9626 -0.8035
 3902SOL    HW223343   3.615   2.394   3.967  0.8920  0.5609 -1.9890
 3903SOL     OW23344   0.747   1.955   8.409 -0.7456  0.4800 -0.1349
 3903SOL    HW123345   0.788   1.997   8.333 -2.2863  2.0128 -0.1495
 3903SOL    HW223346   0.817   1.969   8.472 -1.6657 -1.1757  1.2389
 3904SOL     OW23347   4.600   1.144   4.768 -0.7815 -0.3738  0.0234
 3904SOL    HW123348   4.598   1.075   4.702 -1.9120  0.1396 -0.4632
 3904SOL    HW223349   4.559   1.097   4.841  0.9581 -1.1764  0.4905
 3905SOL     OW23350   1.067   1.988   6.529  0.0811  0.9601 -0.1664
 3905SOL    HW123351   1.013   1.987   6.608 -0.6315  1.9860 -0.6375
 3905SOL    HW223352   1.003   2.019   6.464  0.9800 -2.0490 -2.4890
 3906SOL     OW23353   0.757   4.482   9.525 -0.7403  0.2211  0.1668
 3906SOL    HW123354   0.739   4.458   9.616  2.4579 -1.2608  0.4147
 3906SOL    HW223355   0.685   4.427   9.491 -0.4254 -0.0574 -0.0454
 3907SOL     OW23356   3.468   2.168   4.901  0.2460  0.2541  0.5747
 3907SOL    HW123357   3.482   2.133   4.989 -0.1435 -1.4932 -0.0456
 3907SOL    HW223358   3.376   2.190   4.895 -0.1085 -1.4493 -0.3307
 3908SOL     OW23359   1.806   0.732   7.228 -0.1643  0.4366 -0.2985
 3908SOL    HW123360   1.881   0.786   7.202 -0.4665  0.6962 -0.6322
 3908SOL    HW223361   1.731   0.790   7.216 -1.6771 -1.3709  0.5067
 3909SOL     OW23362   1.414   4.457   1.597 -0.4666 -0.5354 -0.4449
 3909SOL    HW123363   1.410   4.486   1.688 -0.5052 -0.7909 -0.3654
 3909SOL    HW223364   1.335   4.494   1.557  0.3821  2.4980  0.6635
 3910SOL     OW23365   0.729   2.629   4.241  0.2017  0.2030 -0.4542
 3910SOL    HW123366   0.675   2.551   4.252  1.2976 -0.1006  2.9445
 3910SOL    HW223367   0.743   2.616   4.147  1.4389 -0.1330 -0.2244
 3911SOL     OW23368   0.129   4.516   3.736  0.1182 -0.1564  0.1925
 3911SOL    HW123369   0.172   4.457   3.799  2.3496  0.9104 -0.3104
 3911SOL    HW223370   0.183   4.505   3.657  0.5942  0.9591  0.3688
 3912SOL     OW23371   4.612   4.022   3.923  0.3171  0.3688  0.1745
 3912SOL    HW123372   4.666   3.969   3.865  0.9031  0.7352  0.3869
 3912SOL    HW223373   4.593   4.100   3.871  0.6325 -0.6655 -1.4695
 3913SOL     OW23374   1.247   2.930   5.994  0.0969  0.2945  0.1170
 3913SOL    HW123375   1.158   2.925   6.030 -0.4873 -0.6587 -1.4647
 3913SOL    HW223376   1.293   2.891   6.068  1.8331 -0.3585 -1.3099
 3914SOL     OW23377   1.675   0.778  14.604  0.1917  0.2057 -0.5771
 3914SOL    HW123378   1.676   0.683  14.593 -1.5065 -0.2416  2.9594
 3914SOL    HW223379   1.620   0.791  14.681  2.1659 -0.4511  0.9602
 3915SOL     OW23380   4.100   2.164   3.667  0.0747 -0.3835  0.5579
 3915SOL    HW123381   4.035   2.233   3.660 -0.6333 -1.4065 -2.8859
 3915SOL    HW223382   4.139   2.182   3.753 -1.1472 -2.1140  1.4922
 3916SOL     OW23383   4.166   2.855   7.035  0.3810 -0.1189  0.3010
 3916SOL    HW123384   4.088   2.822   7.080 -0.0411 -0.9455 -1.0421
 3916SOL    HW223385   4.130   2.905   6.962 -1.1695 -0.1805  1.0145
 3917SOL     OW23386   3.732   3.096   8.295  0.2111 -0.1310  0.8863
 3917SOL    HW123387   3.750   3.167   8.234  0.2035 -1.9176 -1.2235
 3917SOL    HW223388   3.751   3.017   8.245 -1.9762 -0.3025  0.2943
 3918SOL     OW23389   0.461   3.964   7.471  0.0477  0.3574  0.2054
 3918SOL    HW123390   0.379   3.936   7.512 -0.8483 -0.7498 -2.3390
 3918SOL    HW223391   0.515   3.980   7.548  0.4294  2.5476 -0.5108
 3919SOL     OW23392   0.024   0.252  14.007 -0.0455 -0.0679  0.3005
 3919SOL    HW123393   0.041   0.339  13.970 -0.1903 -0.5070 -0.7853
 3919SOL    HW223394   0.105   0.207  13.986  1.3908  3.0528 -0.8689
 3920SOL     OW23395   2.471   4.422   5.645  0.5607  0.2027  0.3575
 3920SOL    HW123396   2.540   4.480   5.679 -0.4388 -0.4433  3.5059
 3920SOL    HW223397   2.510   4.337   5.665  0.5633 -0.1982 -1.3484
 3921SOL     OW23398   0.135   1.174  16.683 -0.0704 -0.3124 -0.4486
 3921SOL    HW123399   0.155   1.114  16.754 -1.0082  0.9291  0.8723
 3921SOL    HW223400   0.054   1.213  16.718 -0.1585 -0.4371 -0.5147
 3922SOL     OW23401   2.816   4.518   5.208 -0.7039  0.3749 -0.1006
 3922SOL    HW123402   2.825   4.530   5.303 -0.6190  0.2709 -0.0951
 3922SOL    HW223403   2.802   4.424   5.198 -3.7500  0.8143  0.0553
 3923SOL     OW23404   3.998   4.698   4.978 -0.2054 -0.1886  0.5316
 3923SOL    HW123405   4.010   0.048   5.010  0.8544 -0.6548  1.4330
 3923SOL    HW223406   3.911   4.698   4.938 -0.2587  3.3772  0.6230
 3924SOL     OW23407   4.154   2.147   0.864 -0.1331  1.0269 -0.0755
 3924SOL    HW123408   4.214   2.093   0.915 -0.6167  1.8714  1.4119
 3924SOL    HW223409   4.124   2.208   0.932  1.5497  2.7558 -0.8946
 3925SOL     OW23410   2.775   3.025  16.557 -0.7058 -0.5950 -0.5526
 3925SOL    HW123411   2.842   3.093  16.547 -2.9085  1.4571 -1.5538
 3925SOL    HW223412   2.707   3.069  16.505  0.2026  1.8960  0.3417
 3926SOL     OW23413   1.363   2.565   8.724  0.6176  0.2889  0.6740
 3926SOL    HW123414   1.333   2.655   8.733 -0.2948 -0.1640  2.0776
 3926SOL    HW223415   1.459   2.576   8.721  0.4990  1.1964 -0.0115
 3927SOL     OW23416   3.065   0.192   2.766 -0.2375  0.0585  0.2251
 3927SOL    HW123417   3.127   0.253   2.725 -0.9003 -0.4530 -1.5503
 3927SOL    HW223418   3.091   0.196   2.858 -1.6396  1.1774  0.5678
 3928SOL     OW23419   2.694   0.609   3.167  0.1006  0.2976 -0.2138
 3928SOL    HW123420   2.747   0.683   3.195 -0.6897 -0.1790  2.5113
 3928SOL    HW223421   2.725   0.588   3.079 -0.3792 -3.3473  0.5004
 3929SOL     OW23422   2.074   3.175   7.991 -0.0609  0.0389  0.1045
 3929SOL    HW123423   1.996   3.212   8.031 -0.6427 -0.8423 -0.2235
 3929SOL    HW223424   2.116   3.254   7.954  1.8846 -1.5371 -1.0637
 3930SOL     OW23425   1.049   3.610   7.952  0.2034 -0.3136 -0.0230
 3930SOL    HW123426   1.077   3.694   7.914 -1.5138 -0.5205 -1.7593
 3930SOL    HW223427   0.963   3.599   7.911 -0.7366 -0.0731  1.9002
 3931SOL     OW23428   3.745   0.712  13.179 -0.4999 -0.0218  0.4288
 3931SOL    HW123429   3.719   0.776  13.244  1.5367  2.4608 -1.1902
 3931SOL    HW223430   3.840   0.707  13.186 -0.4806 -1.7557 -0.9568
 3932SOL     OW23431   0.877   4.636  10.743  0.5140  0.4130  0.0952
 3932SOL    HW123432   0.827   4.559  10.714 -0.5880  0.7393  1.1616
 3932SOL    HW223433   0.925   4.605  10.820 -0.8719  1.2889  1.2951
 3933SOL     OW23434   1.072   3.177   3.453 -0.2641  0.2237 -0.2487
 3933SOL    HW123435   1.006   3.186   3.521 -1.3990  1.7578 -1.5703
 3933SOL    HW223436   1.126   3.253   3.474 -0.1360 -0.0584  0.4528
 3934SOL     OW23437   2.767   4.198   7.061  0.4510 -0.4660 -0.3580
 3934SOL    HW123438   2.840   4.196   7.122  0.7255 -0.2167 -0.6766
 3934SOL    HW223439   2.696   4.204   7.126  1.2685 -0.3872  0.5311
 3935SOL     OW23440   3.801   3.029   2.651 -0.1645  0.2403  0.0007
 3935SOL    HW123441   3.819   3.122   2.652  0.0271  0.1979  0.3095
 3935SOL    HW223442   3.862   3.000   2.718  0.8013  0.1473 -0.9188
 3936SOL     OW23443   4.625   3.408   3.682 -0.4550 -0.1057 -0.5967
 3936SOL    HW123444   4.684   3.478   3.656 -0.1275  0.9496  3.0420
 3936SOL    HW223445   4.666   3.329   3.647  0.9693  0.3119  0.1557
 3937SOL     OW23446   0.906   0.101  10.208  0.2198 -0.1225  0.2396
 3937SOL    HW123447   0.904   0.144  10.122  0.7006  1.0072  0.7934
 3937SOL    HW223448   0.897   0.182  10.258  1.3030 -1.6328  2.8598
 3938SOL     OW23449   1.513   1.342   8.637  0.1202 -0.4337  0.5815
 3938SOL    HW123450   1.579   1.312   8.700  0.0345 -1.6640  0.0820
 3938SOL    HW223451   1.445   1.369   8.698 -2.8173  1.0967 -3.4288
 3939SOL     OW23452   3.571   1.747  17.606 -0.1421 -0.4949 -0.1740
 3939SOL    HW123453   3.550   1.786  17.691  0.8658  0.5069 -0.3806
 3939SOL    HW223454   3.494   1.755  17.550  0.3118  1.2187 -0.5692
 3940SOL     OW23455   1.871   3.018   2.453 -0.1852 -0.2734 -0.1087
 3940SOL    HW123456   1.920   3.099   2.467  2.9479 -1.6162 -3.5915
 3940SOL    HW223457   1.835   3.001   2.541  0.7062  0.4394  0.3931
 3941SOL     OW23458   3.710   0.568   9.507  0.0762  0.1831  0.1628
 3941SOL    HW123459   3.749   0.610   9.584  0.2956  0.0274  0.1345
 3941SOL    HW223460   3.646   0.634   9.479 -0.1783 -1.2577 -2.6421
 3942SOL     OW23461   2.303   0.905   8.955 -0.1310  0.5175  0.2443
 3942SOL    HW123462   2.340   0.987   8.988 -0.8803  0.1411  2.0158
 3942SOL    HW223463   2.249   0.927   8.880  1.6053  1.1987 -0.8088
 3943SOL     OW23464   1.729   3.979   6.013  0.4385  0.3282 -0.2257
 3943SOL    HW123465   1.757   3.913   5.949 -0.4132 -0.5987  0.3527
 3943SOL    HW223466   1.661   4.025   5.965  0.3832 -1.1806 -1.5903
 3944SOL     OW23467   2.064   0.640   4.671 -0.4210  0.8574 -0.0816
 3944SOL    HW123468   2.015   0.575   4.621 -0.6536 -0.2380  1.6034
 3944SOL    HW223469   2.100   0.595   4.747  0.0945 -2.3412 -2.2247
 3945SOL     OW23470   0.224   2.531   3.664 -0.1215 -0.3583 -0.2345
 3945SOL    HW123471   0.275   2.612   3.672  1.1548 -1.1939  0.1274
 3945SOL    HW223472   0.216   2.530   3.569  0.5215  2.5541 -0.3146
 3946SOL     OW23473   4.327   0.575   7.521  0.3055  0.2674  0.1561
 3946SOL    HW123474   4.338   0.657   7.569 -2.3826  0.1584  0.9310
 3946SOL    HW223475   4.271   0.531   7.585  0.6284  0.7935  0.8010
 3947SOL     OW23476   4.433   2.618   3.104  0.0141  0.5167  0.5012
 3947SOL    HW123477   4.499   2.630   3.036 -1.7972  1.0635 -1.1605
 3947SOL    HW223478   4.483   2.666   3.171  1.3188 -0.7926  0.4683
 3948SOL     OW23479   2.253   1.714   3.532 -0.4395  1.3675  0.0470
 3948SOL    HW123480   2.289   1.689   3.617 -0.9544 -0.9098 -0.4035
 3948SOL    HW223481   2.283   1.649   3.468 -2.0183 -0.5683  1.2862
 3949SOL     OW23482   0.149   1.004   9.041 -0.2824  0.1940 -0.1139
 3949SOL    HW123483   0.138   1.003   8.946 -0.3090  1.1175 -0.1231
 3949SOL    HW223484   0.193   0.922   9.060 -0.8938  0.5269  2.7224
 3950SOL     OW23485   1.674   3.962   3.053 -0.2658 -0.3329  0.2250
 3950SOL    HW123486   1.676   3.926   3.141  0.5096  1.8322  1.0916
 3950SOL    HW223487   1.705   4.051   3.067 -0.1875  0.0516 -2.3800
 3951SOL     OW23488   3.866   4.320   2.111  0.6029 -0.7014 -0.0225
 3951SOL    HW123489   3.776   4.300   2.139  0.4948  0.6135  0.5884
 3951SOL    HW223490   3.917   4.350   2.186 -2.9748  3.5526  0.7192
 3952SOL     OW23491   1.559   4.706  13.963 -0.1701  0.8187  0.1208
 3952SOL    HW123492   1.574   0.056  13.991 -0.4181  1.2762 -1.2328
 3952SOL    HW223493   1.596   4.653  14.034 -2.6027 -0.6223  0.3301
 3953SOL     OW23494   4.429   4.160  11.166  0.6180 -0.2925  0.4027
 3953SOL    HW123495   4.420   4.114  11.083  1.8367 -3.0576  1.7836
 3953SOL    HW223496   4.425   4.085  11.226 -0.4474 -0.2887  0.3401
 3954SOL     OW23497   2.249   0.917   6.545  0.5332  0.2522  0.3476
 3954SOL    HW123498   2.262   1.003   6.505  2.0934  0.6158  1.6272
 3954SOL    HW223499   2.300   0.912   6.626 -0.3393 -0.3655  0.8641
 3955SOL     OW23500   2.245   4.298   7.867 -0.2186 -0.6180  0.1830
 3955SOL    HW123501   2.268   4.263   7.953  0.8359 -0.9547 -0.2386
 3955SOL    HW223502   2.155   4.326   7.886 -0.0640 -0.7845  1.1679
 3956SOL     OW23503   2.836   4.329   9.896 -0.2496 -0.7919 -0.4410
 3956SOL    HW123504   2.925   4.320   9.862  0.0127 -1.4491  0.4352
 3956SOL    HW223505   2.803   4.253   9.849  1.4004 -1.2670 -0.8154
 3957SOL     OW23506   0.950   4.030   9.799 -0.6272  0.4001 -0.1877
 3957SOL    HW123507   0.984   3.946   9.767  1.1778 -0.0821  2.9568
 3957SOL    HW223508   1.005   4.089   9.747 -0.5038  1.2318  0.8889
 3958SOL     OW23509   3.726   2.154  10.106 -0.0853 -0.1305  0.5915
 3958SOL    HW123510   3.671   2.155  10.184  0.2890  1.0079  0.8335
 3958SOL    HW223511   3.782   2.229  10.124 -0.0874 -0.0874  0.4218
 3959SOL     OW23512   0.060   2.890  14.590 -0.4990 -0.3848 -0.4025
 3959SOL    HW123513   0.117   2.846  14.653 -0.7566  0.9181  0.7313
 3959SOL    HW223514   4.719   2.895  14.640  0.8504 -1.1152  1.8547
 3960SOL     OW23515   1.474   4.151   6.872 -0.3088  0.2154 -0.0815
 3960SOL    HW123516   1.559   4.158   6.915  0.1803 -3.0513 -0.4997
 3960SOL    HW223517   1.493   4.203   6.794 -1.7699  1.7311  0.5619
 3961SOL     OW23518   0.559   1.693   6.460 -0.3410  0.1311 -0.2918
 3961SOL    HW123519   0.478   1.700   6.512  0.2313  0.5804  0.5423
 3961SOL    HW223520   0.617   1.683   6.536  1.1727  0.1142 -1.4576
 3962SOL     OW23521   0.545   4.000  13.130 -0.0508  0.3386  0.0037
 3962SOL    HW123522   0.468   4.008  13.187 -0.5023 -0.1194 -0.5432
 3962SOL    HW223523   0.555   3.906  13.144 -0.7223  0.2392 -0.2101
 3963SOL     OW23524   1.747   3.668   1.966 -0.5639 -0.2736 -0.3146
 3963SOL    HW123525   1.784   3.584   1.941 -1.2386 -0.1578 -1.6803
 3963SOL    HW223526   1.711   3.694   1.881 -1.5147  0.1134  0.1978
 3964SOL     OW23527   1.027   0.227   9.325  0.2623 -0.5750 -0.0219
 3964SOL    HW123528   1.089   0.296   9.346  0.0029  0.0142 -1.1700
 3964SOL    HW223529   0.960   0.275   9.276  0.0287 -1.0102 -0.1318
 3965SOL     OW23530   1.935   1.712  11.870  0.6392  0.8316  0.4025
 3965SOL    HW123531   1.912   1.622  11.895  0.5549  0.6632 -0.2830
 3965SOL    HW223532   1.987   1.722  11.950 -2.0422 -0.6753  2.3572
 3966SOL     OW23533   0.758   4.678   7.001 -0.2422  0.4423 -0.1722
 3966SOL    HW123534   0.705   4.654   7.077  1.2122  1.9026  1.3047
 3966SOL    HW223535   0.718   4.625   6.932  0.3438 -0.4049  0.1454
 3967SOL     OW23536   3.869   2.537   2.832  0.2727  0.3657 -0.2534
 3967SOL    HW123537   3.805   2.489   2.780 -1.2939  0.9196  1.1570
 3967SOL    HW223538   3.805   2.551   2.902  2.0441  1.6451  1.1354
 3968SOL     OW23539   3.724   4.241  17.034 -0.3126 -0.0405  0.3734
 3968SOL    HW123540   3.691   4.284  17.113  0.5737  0.2586  0.5821
 3968SOL    HW223541   3.645   4.192  17.009 -0.0800 -0.0019 -0.4267
 3969SOL     OW23542   0.314   1.862   2.446  0.0699 -0.3545 -0.1475
 3969SOL    HW123543   0.239   1.824   2.490  0.7115  1.4938  2.5498
 3969SOL    HW223544   0.268   1.905   2.374  1.1339  1.5041  0.2541
 3970SOL     OW23545   2.453   4.112   3.223 -0.0191  0.3738  0.0296
 3970SOL    HW123546   2.433   4.052   3.152 -1.2559 -0.7032  1.3074
 3970SOL    HW223547   2.494   4.187   3.179 -1.2412 -0.7145 -2.9685
 3971SOL     OW23548   0.368   1.386   7.257  0.2027  0.4282 -0.3703
 3971SOL    HW123549   0.363   1.481   7.253  0.7228  0.5718  2.7383
 3971SOL    HW223550   0.330   1.360   7.173 -0.1682  0.3230 -0.1696
 3972SOL     OW23551   0.210   1.884   2.084 -0.3419 -0.5899  0.0880
 3972SOL    HW123552   0.122   1.882   2.046 -0.5318 -2.8547  0.6596
 3972SOL    HW223553   0.239   1.795   2.067  0.4495  0.1385 -2.2702
 3973SOL     OW23554   1.999   4.346   2.972 -0.1501 -0.1224 -0.4525
 3973SOL    HW123555   2.094   4.334   2.973 -0.4953 -3.1660 -2.8470
 3973SOL    HW223556   1.988   4.382   2.884 -2.4535  3.9421  1.5148
 3974SOL     OW23557   2.714   2.963   6.774 -0.0685  1.0187 -0.6832
 3974SOL    HW123558   2.679   2.994   6.858 -1.5612 -0.1384 -0.8709
 3974SOL    HW223559   2.748   3.041   6.732 -0.6614  0.9068 -1.3743
 3975SOL     OW23560   3.120   1.032  10.098  0.0498  0.0526 -0.5202
 3975SOL    HW123561   3.181   1.050  10.026  1.5117  0.5133  0.8577
 3975SOL    HW223562   3.090   0.942  10.085 -1.2459  0.2497  1.2381
 3976SOL     OW23563   2.810   1.338   2.077 -0.3085 -0.3786  0.6641
 3976SOL    HW123564   2.826   1.363   1.986  0.9357 -0.5410  0.8384
 3976SOL    HW223565   2.901   1.311   2.092 -0.2268 -0.1726  0.5510
 3977SOL     OW23566   0.700   4.227  13.056  0.3955  0.2512  0.2811
 3977SOL    HW123567   0.632   4.160  13.056  1.0850 -0.4445  0.7113
 3977SOL    HW223568   0.711   4.243  12.962  0.0688  0.1956  0.2314
 3978SOL     OW23569   1.741   4.075   6.932  0.2986  0.0270  0.3787
 3978SOL    HW123570   1.739   3.979   6.933  1.4025 -0.0043 -0.5602
 3978SOL    HW223571   1.832   4.086   6.907  0.2429 -0.8819 -0.2497
 3979SOL     OW23572   0.563   2.176   2.421 -0.1348  0.1718  0.0052
 3979SOL    HW123573   0.479   2.221   2.425 -0.3094  0.1182 -2.8644
 3979SOL    HW223574   0.554   2.107   2.486 -0.2079 -0.5054 -0.7191
 3980SOL     OW23575   0.821   1.595  14.042 -0.3032 -0.4893 -0.6090
 3980SOL    HW123576   0.801   1.681  14.004 -1.7480 -0.9558 -0.9061
 3980SOL    HW223577   0.751   1.590  14.107  0.9698  2.1031  0.9538
 3981SOL     OW23578   2.822   2.274   4.453 -0.4370  0.5701 -0.5652
 3981SOL    HW123579   2.846   2.333   4.526 -0.0205 -0.3324  0.0266
 3981SOL    HW223580   2.887   2.305   4.391 -0.8450 -0.3819 -1.4538
 3982SOL     OW23581   1.545   1.563   7.017 -0.1735  0.2074 -0.7791
 3982SOL    HW123582   1.491   1.641   7.025 -2.6959 -1.5763 -0.6829
 3982SOL    HW223583   1.609   1.588   6.950 -0.8438  1.9359 -0.7605
 3983SOL     OW23584   3.609   3.473   8.493  0.0687 -0.3651  0.7403
 3983SOL    HW123585   3.587   3.382   8.475 -0.5995  0.4841 -2.8022
 3983SOL    HW223586   3.549   3.497   8.563 -1.4638 -3.5409  0.4979
 3984SOL     OW23587   3.402   0.285   8.548  0.7271  0.1505  0.1046
 3984SOL    HW123588   3.347   0.284   8.626  0.7664  3.7575  0.1885
 3984SOL    HW223589   3.480   0.238   8.579 -0.1133  0.3180  2.4915
 3985SOL     OW23590   1.115   1.533   6.164 -0.2498  0.3772 -0.1026
 3985SOL    HW123591   1.051   1.468   6.190 -0.6350  1.9163  2.8200
 3985SOL    HW223592   1.099   1.601   6.230 -0.1249  0.3492 -0.0437
 3986SOL     OW23593   3.200   3.921   7.787 -0.0791 -0.2574  0.3471
 3986SOL    HW123594   3.185   3.856   7.718  1.3700  1.3479 -1.4788
 3986SOL    HW223595   3.268   3.973   7.744 -0.5564  0.0927  0.0240
 3987SOL     OW23596   3.196   1.535   2.520  0.7429  0.3123 -0.1737
 3987SOL    HW123597   3.142   1.502   2.449  1.3518  2.3484 -1.6084
 3987SOL    HW223598   3.251   1.595   2.468  1.7670  1.4628  2.2280
 3988SOL     OW23599   1.617   1.620   8.188  0.0177 -0.6022  0.6401
 3988SOL    HW123600   1.565   1.691   8.226 -0.7449 -0.4833 -0.6392
 3988SOL    HW223601   1.604   1.558   8.260  1.1415 -0.9986  0.5064
 3989SOL     OW23602   0.961   1.991   1.327 -0.3260  0.0603  0.0658
 3989SOL    HW123603   0.899   2.063   1.334  2.8052  2.7561  0.3410
 3989SOL    HW223604   0.964   1.960   1.418 -0.3382  0.5710  0.2365
 3990SOL     OW23605   1.804   0.824   8.125 -0.0289 -0.2315 -0.0088
 3990SOL    HW123606   1.747   0.775   8.184 -0.0589 -0.5741 -0.3192
 3990SOL    HW223607   1.819   0.758   8.057  0.7840 -0.1043  0.0441
 3991SOL     OW23608   4.189   2.012   8.235  0.9594  0.3123  0.2840
 3991SOL    HW123609   4.161   2.011   8.143 -0.9475  0.9102  0.8703
 3991SOL    HW223610   4.129   2.069   8.283 -1.2368 -1.6384 -0.1812
 3992SOL     OW23611   0.653   1.397  16.554  0.3704 -0.0958  0.0733
 3992SOL    HW123612   0.725   1.377  16.494  0.2748  1.5136 -0.5683
 3992SOL    HW223613   0.590   1.333  16.522  0.0195 -0.7815  2.1178
 3993SOL     OW23614   2.044   4.730   1.680 -0.2168 -0.0711  0.2845
 3993SOL    HW123615   1.994   4.726   1.761 -1.7387 -0.8327 -0.6945
 3993SOL    HW223616   2.041   4.643   1.639  0.6521  0.3271 -0.6070
 3994SOL     OW23617   0.179   3.291   4.947 -0.1360  0.5337  0.1268
 3994SOL    HW123618   0.169   3.201   4.975 -1.8801  0.6227 -0.1626
 3994SOL    HW223619   0.116   3.323   5.011 -1.7284 -0.9192 -0.7070
 3995SOL     OW23620   1.593   0.891   7.165 -0.4302 -0.5270 -0.0554
 3995SOL    HW123621   1.602   0.984   7.141  1.7697 -1.0701 -1.3376
 3995SOL    HW223622   1.502   0.881   7.137  0.0421 -1.0605 -1.4253
 3996SOL     OW23623   2.961   1.061   6.555  0.3381  0.0002  0.3487
 3996SOL    HW123624   2.879   1.106   6.575 -0.3202 -0.5381 -1.1537
 3996SOL    HW223625   2.995   1.044   6.643  0.6661 -1.6598 -0.0940
 3997SOL     OW23626   1.804   0.702   8.727 -0.1555  0.5577  0.0748
 3997SOL    HW123627   1.887   0.654   8.728 -0.3157  0.3234  2.4301
 3997SOL    HW223628   1.744   0.632   8.701  1.3009  0.1019 -2.0507
 3998SOL     OW23629   0.120   4.523   5.632  0.0890 -0.0250 -0.3011
 3998SOL    HW123630   0.160   4.599   5.590 -0.9512  1.5399  1.5610
 3998SOL    HW223631   0.045   4.516   5.572 -0.5775 -1.8337  0.7430
 3999SOL     OW23632   2.284   0.583   8.206 -0.0363  0.0416 -0.8014
 3999SOL    HW123633   2.212   0.639   8.177  2.3611  3.9133  0.8280
 3999SOL    HW223634   2.352   0.640   8.242 -1.1869  1.1740 -0.4328
 4000SOL     OW23635   2.015   1.192  12.915  0.8584  0.1244  0.0410
 4000SOL    HW123636   2.096   1.242  12.927  2.4020 -2.3225 -0.0349
 4000SOL    HW223637   2.046   1.102  12.931  1.5851  0.4926  0.7213
 4001SOL     OW23638   0.670   0.272   2.066  0.2239  0.1690  0.2711
 4001SOL    HW123639   0.736   0.212   2.100 -0.4281 -0.6491  0.0830
 4001SOL    HW223640   0.605   0.278   2.136 -1.8864 -1.3984 -1.5842
 4002SOL     OW23641   1.835   1.114  13.194  0.1711 -0.1164  0.3399
 4002SOL    HW123642   1.905   1.166  13.233 -1.5829  1.1621  1.7810
 4002SOL    HW223643   1.887   1.035  13.178  1.3159  0.7817 -0.4531
 4003SOL     OW23644   4.640   1.090   3.889  0.1893 -0.1798  0.0881
 4003SOL    HW123645   4.627   1.049   3.974 -0.7948 -0.1935 -0.0644
 4003SOL    HW223646   4.576   1.162   3.888 -0.1144 -0.4321  2.2418
 4004SOL     OW23647   0.481   4.532  11.347 -0.3328 -0.6202 -0.5157
 4004SOL    HW123648   0.572   4.525  11.376 -0.2041 -1.2939 -1.0631
 4004SOL    HW223649   0.464   4.438  11.340  0.2771 -0.7013 -1.0248
 4005SOL     OW23650   3.829   0.540  14.301 -0.2806 -0.2530  0.0317
 4005SOL    HW123651   3.896   0.569  14.238 -1.0745  0.5850 -0.4252
 4005SOL    HW223652   3.886   0.493  14.362  0.5076  1.9824  1.0571
 4006SOL     OW23653   1.807   2.960   1.964 -0.3377 -0.0108 -0.7059
 4006SOL    HW123654   1.764   2.907   2.032  1.0617 -1.6983 -1.1349
 4006SOL    HW223655   1.765   2.929   1.884 -2.2215  0.3461  0.1520
 4007SOL     OW23656   4.642   1.062   4.325  0.4083 -0.0559 -0.0505
 4007SOL    HW123657   4.621   1.148   4.289 -2.2186  0.0158  1.6567
 4007SOL    HW223658   4.595   1.014   4.257 -1.1004  1.0781  0.1862
 4008SOL     OW23659   2.116   1.668   6.629 -0.4219 -0.0322 -0.3692
 4008SOL    HW123660   2.075   1.709   6.553  0.0708 -1.8813 -1.6297
 4008SOL    HW223661   2.196   1.721   6.631  0.0346 -0.6946 -0.9750
 4009SOL     OW23662   2.539   2.137  14.146 -0.0927  0.6616  0.3183
 4009SOL    HW123663   2.455   2.149  14.191 -0.4755  0.1363 -0.2598
 4009SOL    HW223664   2.560   2.229  14.131  0.6378  0.8910  2.7227
 4010SOL     OW23665   2.281   4.232   5.428 -0.0458 -0.2390 -0.1215
 4010SOL    HW123666   2.216   4.287   5.471 -0.2869  0.3047 -1.1861
 4010SOL    HW223667   2.303   4.182   5.507  0.3697 -0.2255 -0.2310
 4011SOL     OW23668   3.186   3.744   8.863  0.1588  0.5396  0.3803
 4011SOL    HW123669   3.112   3.786   8.906 -1.2941 -1.3517 -0.2692
 4011SOL    HW223670   3.252   3.729   8.931  1.5663  0.9557 -0.8858
 4012SOL     OW23671   3.950   1.985   7.786 -0.1744  0.1969 -0.3661
 4012SOL    HW123672   3.870   1.934   7.800 -0.6199  1.3026  1.1602
 4012SOL    HW223673   4.016   1.926   7.823 -0.4607 -0.2509 -0.5753
 4013SOL     OW23674   4.293   4.270  11.810  0.0248 -0.0802  0.4046
 4013SOL    HW123675   4.371   4.259  11.866  1.1243  1.5022 -0.8163
 4013SOL    HW223676   4.309   4.205  11.742  1.3222  0.4624  0.1763
 4014SOL     OW23677   4.376   0.910  12.514  0.1022 -0.1111  1.0193
 4014SOL    HW123678   4.458   0.887  12.470 -1.1304  0.5236 -1.5862
 4014SOL    HW223679   4.335   0.946  12.436  2.5438  0.0554 -0.1987
 4015SOL     OW23680   3.279   0.876   9.891  0.3682 -0.0058  0.3427
 4015SOL    HW123681   3.291   0.942   9.823  0.1724 -0.1526  0.1681
 4015SOL    HW223682   3.367   0.840   9.897 -1.1820 -3.9604 -0.7114
 4016SOL     OW23683   2.339   1.741   0.419 -0.1463  0.1546  0.2146
 4016SOL    HW123684   2.413   1.683   0.436 -0.6292  0.0231  1.8797
 4016SOL    HW223685   2.383   1.805   0.362  1.2940  0.4468  1.6535
 4017SOL     OW23686   4.110   0.663  10.217  0.1165  0.5211  0.0163
 4017SOL    HW123687   4.031   0.677  10.166 -0.6208  0.6893  1.2007
 4017SOL    HW223688   4.174   0.640  10.150 -0.1145  1.0423 -0.3843
 4018SOL     OW23689   0.469   3.060  15.368 -0.1578 -0.1044 -0.1656
 4018SOL    HW123690   0.476   2.971  15.402 -1.3606 -0.1250  0.0311
 4018SOL    HW223691   0.557   3.084  15.397 -0.7384 -0.1772  1.6457
 4019SOL     OW23692   1.214   4.239   9.041  0.0993  0.3463 -0.0456
 4019SOL    HW123693   1.206   4.318   9.095 -2.6141  1.2322 -1.7684
 4019SOL    HW223694   1.288   4.259   8.983  0.9510  0.8863  1.2208
 4020SOL     OW23695   2.947   0.418  17.063  0.0366 -0.2241  0.1568
 4020SOL    HW123696   2.885   0.426  17.135  2.7834  3.0249  2.1727
 4020SOL    HW223697   2.909   0.478  16.999  0.5082  0.2209  0.2930
 4021SOL     OW23698   1.376   0.872  14.017 -0.3889 -0.1686 -0.0246
 4021SOL    HW123699   1.283   0.893  14.019 -0.9461 -2.5839  0.0080
 4021SOL    HW223700   1.429   0.942  13.978  1.0392 -1.0974  0.2377
 4022SOL     OW23701   4.132   4.383   5.575  0.7762 -0.3158 -0.3021
 4022SOL    HW123702   4.038   4.372   5.587  0.7647 -1.3731 -1.3508
 4022SOL    HW223703   4.165   4.294   5.590  2.0238  0.1165 -0.4854
 4023SOL     OW23704   0.401   1.945   0.009 -0.2383  0.2964 -0.3296
 4023SOL    HW123705   0.318   1.936   0.056 -0.4886  2.1272 -0.4170
 4023SOL    HW223706   0.467   1.928   0.077  0.2724  1.1075 -0.6195
 4024SOL     OW23707   3.457   1.334  10.437 -0.1963 -0.2105 -0.2443
 4024SOL    HW123708   3.429   1.375  10.355 -2.9118 -1.3947  0.0973
 4024SOL    HW223709   3.438   1.402  10.502 -1.7551 -0.2302 -0.6656
 4025SOL     OW23710   1.285   0.677  10.072  0.0806 -0.3340 -0.0068
 4025SOL    HW123711   1.228   0.751  10.050  0.3766 -0.9513 -2.8467
 4025SOL    HW223712   1.281   0.695  10.166  2.0470 -2.6614  0.5062
 4026SOL     OW23713   1.776   1.373  16.712 -0.0390 -0.5339  0.3004
 4026SOL    HW123714   1.737   1.353  16.627  1.7661 -2.6040 -0.0389
 4026SOL    HW223715   1.783   1.469  16.710  1.5692 -0.6369  0.9116
 4027SOL     OW23716   3.480   1.252   3.690  0.4327  0.1592 -0.1962
 4027SOL    HW123717   3.518   1.241   3.602  3.0718 -0.9121  1.0919
 4027SOL    HW223718   3.547   1.209   3.744 -0.6375 -1.6577 -0.3111
 4028SOL     OW23719   1.537   1.661   5.466  0.5991 -0.0364 -0.1185
 4028SOL    HW123720   1.611   1.637   5.522  0.2994 -1.8020 -0.4929
 4028SOL    HW223721   1.520   1.584   5.413 -0.4112 -0.7107  1.1969
 4029SOL     OW23722   2.481   4.074  11.599  0.3927  0.8479 -0.2620
 4029SOL    HW123723   2.403   4.055  11.651 -0.4878 -0.8210 -2.1879
 4029SOL    HW223724   2.455   4.037  11.515  0.3083  1.6998 -0.6043
 4030SOL     OW23725   2.652   2.644   1.257  0.2029  0.0774 -0.2407
 4030SOL    HW123726   2.648   2.692   1.175 -0.8131 -1.5302 -1.1460
 4030SOL    HW223727   2.740   2.668   1.285  0.6085 -2.3722  0.6248
 4031SOL     OW23728   1.705   1.080   7.722  0.4827  0.0942 -0.2461
 4031SOL    HW123729   1.774   1.015   7.717  0.8040  0.4542 -0.4681
 4031SOL    HW223730   1.716   1.108   7.813 -1.1243 -2.1793  0.6327
 4032SOL     OW23731   0.535   4.082  13.988  0.0032  0.6095  0.0158
 4032SOL    HW123732   0.459   4.057  14.040 -0.9281 -0.0775 -1.6927
 4032SOL    HW223733   0.582   3.999  13.994 -0.6280  0.1978 -0.8226
 4033SOL     OW23734   3.490   4.577   3.020  0.0199  0.1179  0.4357
 4033SOL    HW123735   3.581   4.598   3.042 -0.3241  0.8329  1.1554
 4033SOL    HW223736   3.442   4.649   3.061 -2.9861 -0.2395 -2.4723
 4034SOL     OW23737   1.153   2.173   5.574  0.2300  0.3849 -0.1613
 4034SOL    HW123738   1.109   2.193   5.492  3.6002 -1.2166 -2.3497
 4034SOL    HW223739   1.160   2.078   5.570 -2.7511  0.1316  0.7463
 4035SOL     OW23740   3.100   1.293   5.905  0.6738  0.5932 -0.6257
 4035SOL    HW123741   3.084   1.217   5.961 -1.4087  1.4346 -0.0929
 4035SOL    HW223742   3.056   1.363   5.953 -1.5984  0.4187 -2.4744
 4036SOL     OW23743   0.846   3.676   5.419  0.2418 -0.3308 -0.1299
 4036SOL    HW123744   0.823   3.596   5.371  2.0526 -1.5771  1.0556
 4036SOL    HW223745   0.855   3.639   5.507 -2.9716 -0.5260  0.1110
 4037SOL     OW23746   0.302   4.460   6.668 -0.4212  1.1329  0.6536
 4037SOL    HW123747   0.308   4.494   6.757 -0.2434 -2.1114  1.8951
 4037SOL    HW223748   0.262   4.535   6.625 -1.3752 -0.7402 -1.7930
 4038SOL     OW23749   3.253   3.568   4.910  0.3625 -0.0051  0.0264
 4038SOL    HW123750   3.257   3.651   4.862  0.4877  0.0987  0.2148
 4038SOL    HW223751   3.333   3.517   4.894 -0.4315 -0.8939 -1.0634
 4039SOL     OW23752   4.503   4.226  10.690 -0.0451  0.2018  0.3671
 4039SOL    HW123753   4.542   4.139  10.684  0.1650  0.4038 -1.0693
 4039SOL    HW223754   4.411   4.203  10.707 -0.5970  1.9043 -0.2407
 4040SOL     OW23755   3.875   2.029   9.194 -0.6066  0.6885  0.2351
 4040SOL    HW123756   3.920   1.944   9.184  0.0681  1.1520 -0.7469
 4040SOL    HW223757   3.932   2.084   9.248 -1.1564  1.2835  0.2029
 4041SOL     OW23758   0.073   4.567  13.880  0.1029 -0.5783  0.2642
 4041SOL    HW123759   0.106   4.479  13.860 -0.9820 -1.3671  2.0558
 4041SOL    HW223760   0.043   4.594  13.793  0.7340  1.0465  0.5413
 4042SOL     OW23761   3.901   4.182   5.209  0.3079  0.2272  0.1169
 4042SOL    HW123762   3.935   4.120   5.146  0.4191 -1.4670  1.8431
 4042SOL    HW223763   3.928   4.154   5.297 -0.0204  0.8437  0.4182
 4043SOL     OW23764   1.150   0.905  10.007  0.1330 -0.8890  0.0489
 4043SOL    HW123765   1.071   0.918   9.955  0.4483 -1.3170 -0.5309
 4043SOL    HW223766   1.178   0.995  10.026 -1.4665 -0.7956  2.0003
 4044SOL     OW23767   1.264   1.922   2.231 -0.3597  0.4419  0.0489
 4044SOL    HW123768   1.255   1.984   2.304  2.1583  1.2533 -0.3237
 4044SOL    HW223769   1.305   1.842   2.263  0.7723  1.8487  2.1228
 4045SOL     OW23770   2.417   1.450   4.482 -0.2630 -0.5486 -0.1176
 4045SOL    HW123771   2.446   1.437   4.392 -0.8216  0.6804 -0.4743
 4045SOL    HW223772   2.455   1.374   4.526 -0.2320  0.9384  2.4144
 4046SOL     OW23773   3.307   3.784   2.363  0.1691 -0.0449 -0.0481
 4046SOL    HW123774   3.242   3.837   2.317  0.4907  0.8913  0.5767
 4046SOL    HW223775   3.336   3.735   2.286 -2.0622 -0.5514 -0.5659
 4047SOL     OW23776   1.492   2.727  15.144 -0.0097  0.1466  0.2492
 4047SOL    HW123777   1.512   2.821  15.152  2.4512 -0.2763 -0.7428
 4047SOL    HW223778   1.546   2.689  15.213  0.9813  0.7079 -0.2053
 4048SOL     OW23779   0.517   3.832   8.408  0.2190  0.3022  0.7576
 4048SOL    HW123780   0.602   3.875   8.395 -0.3106  0.8091 -1.0193
 4048SOL    HW223781   0.472   3.909   8.443 -0.4373  0.5149 -0.5641
 4049SOL     OW23782   4.122   2.243   4.593 -0.3605 -0.3398  0.6426
 4049SOL    HW123783   4.075   2.165   4.622  0.5950  0.4254  4.2515
 4049SOL    HW223784   4.108   2.248   4.498 -0.1907 -2.2046  0.5184
 4050SOL     OW23785   0.672   4.559   2.230  0.2673 -0.0902  0.0349
 4050SOL    HW123786   0.605   4.627   2.234  1.3431  0.7865  2.9009
 4050SOL    HW223787   0.627   4.488   2.277 -2.7104  1.1283 -0.9944
 4051SOL     OW23788   2.997   3.764   9.890 -0.0436  0.4203 -0.2595
 4051SOL    HW123789   3.081   3.808   9.908  0.9739 -1.2349 -0.9142
 4051SOL    HW223790   2.958   3.783   9.975 -2.0073 -0.7126 -0.9196
 4052SOL     OW23791   1.612   1.741  12.050 -0.2982 -0.0295 -0.0321
 4052SOL    HW123792   1.695   1.745  12.098 -0.2878  1.8454 -0.2050
 4052SOL    HW223793   1.551   1.767  12.119 -1.4236 -0.4866 -0.8706
 4053SOL     OW23794   3.258   4.053   1.366 -0.7884  0.2754  0.2249
 4053SOL    HW123795   3.353   4.062   1.364 -1.0108  2.1111 -1.1757
 4053SOL    HW223796   3.235   4.018   1.280  0.9504  0.1212 -0.1782
 4054SOL     OW23797   0.032   0.566   1.788  0.3502  0.3112  0.7871
 4054SOL    HW123798   0.039   0.653   1.748  0.4546 -0.3954 -0.7121
 4054SOL    HW223799   0.118   0.530   1.766 -1.2371 -0.9879 -3.3197
 4055SOL     OW23800   4.357   1.351  16.259 -0.1827 -0.3003  0.4491
 4055SOL    HW123801   4.406   1.425  16.224  0.0300 -0.9906 -0.7249
 4055SOL    HW223802   4.289   1.395  16.309 -0.5987 -1.0871  0.5729
 4056SOL     OW23803   0.635   0.529   6.628 -0.6682 -0.3576  0.1514
 4056SOL    HW123804   0.599   0.440   6.622 -0.0921 -0.5142 -1.1051
 4056SOL    HW223805   0.715   0.525   6.575  0.3573 -1.3590  1.7428
 4057SOL     OW23806   1.493   1.956  13.157 -0.4794 -0.4303  0.1662
 4057SOL    HW123807   1.426   1.891  13.178 -1.1592  0.8160  1.8449
 4057SOL    HW223808   1.537   1.962  13.241  0.9575 -2.9993 -0.4006
 4058SOL     OW23809   2.840   1.641   2.489  0.0664  0.2340  0.6800
 4058SOL    HW123810   2.768   1.647   2.426  0.7200 -0.4875 -0.1323
 4058SOL    HW223811   2.893   1.567   2.458  1.6803  0.4386  2.9819
 4059SOL     OW23812   0.137   3.388   7.751 -0.3495 -0.2303 -0.5689
 4059SOL    HW123813   0.076   3.338   7.806 -0.1551 -0.1097 -0.2442
 4059SOL    HW223814   0.138   3.478   7.785 -0.4622  0.7781 -3.2804
 4060SOL     OW23815   1.683   3.531  17.749  0.1438 -0.0731  0.2264
 4060SOL    HW123816   1.634   3.585   0.057 -1.1787 -0.1222 -0.7400
 4060SOL    HW223817   1.676   3.591  17.675 -0.6682 -0.4977 -0.0446
 4061SOL     OW23818   4.617   2.135   1.088 -0.0439 -0.4162 -0.0534
 4061SOL    HW123819   4.622   2.073   1.160 -0.0316 -0.3674 -0.0119
 4061SOL    HW223820   4.589   2.076   1.018 -1.0050 -0.7903  0.6496
 4062SOL     OW23821   2.052   2.139   5.135  0.0519 -0.6103 -0.9257
 4062SOL    HW123822   1.977   2.130   5.194  0.4931 -2.1992 -0.6070
 4062SOL    HW223823   2.017   2.146   5.046 -0.7208  1.2650 -0.4725
 4063SOL     OW23824   3.036   0.368   7.848  0.3250 -0.5494 -0.3549
 4063SOL    HW123825   3.067   0.288   7.805 -1.2552 -1.9741  1.1754
 4063SOL    HW223826   3.034   0.425   7.770  0.0420  1.0968  0.8424
 4064SOL     OW23827   3.083   4.502   7.486  0.3757  0.1481  0.1683
 4064SOL    HW123828   3.101   4.554   7.564  0.4801  0.6324 -0.1737
 4064SOL    HW223829   2.994   4.468   7.498  0.6221 -0.8056 -0.7038
 4065SOL     OW23830   0.627   2.134   7.253  0.0738  0.5911  0.0289
 4065SOL    HW123831   0.579   2.210   7.284 -1.7262 -0.3506 -0.4677
 4065SOL    HW223832   0.555   2.099   7.202  0.4701  0.6197 -0.5522
 4066SOL     OW23833   4.678   4.263   1.521 -0.3759 -0.4593  0.4728
 4066SOL    HW123834   4.591   4.271   1.561 -0.2339  1.2789  0.4519
 4066SOL    HW223835   4.676   4.350   1.482  1.3712 -0.1852  1.0185
 4067SOL     OW23836   1.361   0.015   4.334  0.0068 -0.0514  0.1163
 4067SOL    HW123837   1.318   0.006   4.419 -0.4430  0.3931 -0.0704
 4067SOL    HW223838   1.290   0.049   4.280  1.9096  0.9723 -1.7304
 4068SOL     OW23839   4.388   2.285   7.640 -0.3303  0.2607  1.1128
 4068SOL    HW123840   4.298   2.254   7.647 -0.6701  1.1011  0.3475
 4068SOL    HW223841   4.383   2.327   7.726  1.6758 -0.7056  1.7078
 4069SOL     OW23842   1.992   1.959   4.871 -0.4318 -0.0493  0.4194
 4069SOL    HW123843   1.925   2.022   4.845 -0.8167 -0.5091  0.2883
 4069SOL    HW223844   2.051   1.975   4.797 -0.7888  1.2378  0.4166
 4070SOL     OW23845   1.659   2.096  15.123 -0.1454  0.1414 -0.8059
 4070SOL    HW123846   1.596   2.074  15.054 -0.5542  0.1740 -0.4396
 4070SOL    HW223847   1.661   2.021  15.182 -1.0942 -0.0809 -1.0589
 4071SOL     OW23848   2.566   1.894  17.703  0.4747 -0.1631 -0.2250
 4071SOL    HW123849   2.472   1.876  17.711  0.4497  0.2645  0.4144
 4071SOL    HW223850   2.556   1.963  17.638  0.2039 -0.5027 -0.5443
 4072SOL     OW23851   4.203   4.017   4.401  0.7286 -0.4964 -0.0665
 4072SOL    HW123852   4.111   4.039   4.418  0.6008 -0.7936 -0.3941
 4072SOL    HW223853   4.234   4.057   4.483  1.1944  0.9057 -0.9212
 4073SOL     OW23854   0.812   4.716   5.395  0.0685  0.2981  0.5071
 4073SOL    HW123855   0.811   0.065   5.359  1.9973 -0.1736 -0.7064
 4073SOL    HW223856   0.766   4.730   5.478  0.5798 -2.0354  1.1599
 4074SOL     OW23857   1.340   0.018   2.700 -0.4639 -0.2304  0.2469
 4074SOL    HW123858   1.249   0.036   2.724 -0.4030 -1.2390  1.2806
 4074SOL    HW223859   1.328   0.008   2.606 -1.1037  1.7168  0.1264
 4075SOL     OW23860   3.724   1.224   7.362  0.3647 -0.3440 -0.0283
 4075SOL    HW123861   3.749   1.307   7.323  1.9591 -0.5099  0.6233
 4075SOL    HW223862   3.648   1.248   7.416  1.2959  0.2174  1.0286
 4076SOL     OW23863   0.535   0.640   1.036  0.4871 -0.1450 -0.0418
 4076SOL    HW123864   0.630   0.648   1.040  0.3588  1.3947 -0.3556
 4076SOL    HW223865   0.538   0.659   0.942 -1.6183  0.4543  0.0168
 4077SOL     OW23866   2.942   0.008   1.283 -0.1585  0.1896 -0.1254
 4077SOL    HW123867   2.848   0.007   1.302 -0.3242 -0.4177 -0.9958
 4077SOL    HW223868   2.977   0.019   1.372 -2.6500  0.6827  0.7834
 4078SOL     OW23869   1.339   3.012   1.256  0.3876 -0.1011 -0.0496
 4078SOL    HW123870   1.312   3.037   1.344 -0.2213 -2.2953  0.4060
 4078SOL    HW223871   1.416   3.067   1.243  0.0682  0.2636 -0.4089
 4079SOL     OW23872   2.689   3.274  11.660  0.3990  0.5748 -0.3010
 4079SOL    HW123873   2.643   3.190  11.665  1.4983 -0.1703 -2.6999
 4079SOL    HW223874   2.707   3.282  11.754  0.1083  1.6989 -0.3384
 4080SOL     OW23875   1.495   4.584   5.153  0.0328  0.1314  0.8242
 4080SOL    HW123876   1.565   4.521   5.139 -1.1034 -0.7054 -1.1056
 4080SOL    HW223877   1.516   4.611   5.242 -4.0217 -0.7150  2.0453
 4081SOL     OW23878   2.965   3.088   5.085 -0.0603 -0.0388 -0.1730
 4081SOL    HW123879   3.050   3.123   5.056  0.1438  0.6151  1.2366
 4081SOL    HW223880   2.912   3.162   5.056 -1.4289 -1.7979 -2.1889
 4082SOL     OW23881   1.789   3.978   8.397  0.3934 -0.1055 -0.4830
 4082SOL    HW123882   1.706   4.011   8.364  0.9775  0.0333 -1.8264
 4082SOL    HW223883   1.811   4.040   8.467  0.0036  0.3324 -0.7541
 4083SOL     OW23884   2.754   3.630   7.355  0.1754  0.1587 -0.3923
 4083SOL    HW123885   2.818   3.633   7.285  0.2009  2.3785 -0.2802
 4083SOL    HW223886   2.696   3.703   7.333 -1.1647 -0.4382  1.0557
 4084SOL     OW23887   0.160   1.008   0.986 -0.6680 -0.4564 -0.1654
 4084SOL    HW123888   0.233   1.069   0.996 -0.9333 -0.2396  0.4176
 4084SOL    HW223889   0.212   0.961   0.921  0.1364  2.5466 -1.7232
 4085SOL     OW23890   3.051   1.398  16.854  0.6163  0.1572  0.2771
 4085SOL    HW123891   3.138   1.363  16.873  0.3518  0.0179  1.2057
 4085SOL    HW223892   2.992   1.351  16.913  2.6308  0.2543  2.3401
 4086SOL     OW23893   1.482   1.002   4.035 -0.5259  0.2418  0.6683
 4086SOL    HW123894   1.389   1.021   4.046 -0.0134  1.9384  2.1193
 4086SOL    HW223895   1.473   0.907   4.042  2.4661 -0.2482 -1.9869
 4087SOL     OW23896   4.133   3.750  11.981  0.0734 -0.0711  0.6568
 4087SOL    HW123897   4.090   3.799  12.051  0.4858 -0.9360  1.5103
 4087SOL    HW223898   4.164   3.677  12.035  0.8730  0.8708  1.4785
 4088SOL     OW23899   0.565   0.066   7.963 -0.5091 -0.2479 -0.6538
 4088SOL    HW123900   0.552   4.716   7.993  1.3339 -0.0656  0.6178
 4088SOL    HW223901   0.633   0.060   7.896 -0.2881  1.1703 -0.5537
 4089SOL     OW23902   3.526   2.778   6.395  0.5541 -0.1836  0.0307
 4089SOL    HW123903   3.586   2.708   6.368 -0.5858 -0.7921 -0.9123
 4089SOL    HW223904   3.491   2.738   6.475 -0.1792 -1.4052 -0.9121
 4090SOL     OW23905   3.049   4.049   1.521 -0.5734  0.1579 -0.0905
 4090SOL    HW123906   3.138   4.041   1.485 -0.4470 -2.1709  0.7624
 4090SOL    HW223907   3.067   4.027   1.613 -1.5397 -1.2242 -0.2423
 4091SOL     OW23908   0.176   3.628   6.549 -0.1901 -0.2087 -0.2132
 4091SOL    HW123909   0.091   3.587   6.532 -0.4953 -0.0905  1.0355
 4091SOL    HW223910   0.163   3.718   6.579  3.3285 -0.2990  1.5880
 4092SOL     OW23911   2.358   3.992   6.681  0.3219 -0.8106  0.1875
 4092SOL    HW123912   2.398   3.937   6.748  0.8286 -2.9229 -1.8169
 4092SOL    HW223913   2.338   4.065   6.738  1.6062 -0.4180  0.1182
 4093SOL     OW23914   1.401   3.762   7.476 -0.2658  0.1341 -0.2260
 4093SOL    HW123915   1.405   3.667   7.470 -1.7916  0.2251 -2.7024
 4093SOL    HW223916   1.489   3.779   7.510  0.5548 -0.0115 -2.2622
 4094SOL     OW23917   2.886   1.004   1.085 -0.2439  0.5486  0.2136
 4094SOL    HW123918   2.854   1.090   1.056 -0.5482  0.6467  0.8379
 4094SOL    HW223919   2.800   0.961   1.083 -1.0652  2.2411 -1.2300
 4095SOL     OW23920   3.453   0.504   8.851 -0.1441 -0.0691  0.0355
 4095SOL    HW123921   3.518   0.448   8.893 -0.0938  0.3042  0.4523
 4095SOL    HW223922   3.381   0.442   8.860 -0.5668  0.2633 -1.0158
 4096SOL     OW23923   1.627   4.172   2.309 -0.4206 -0.0250 -0.3175
 4096SOL    HW123924   1.636   4.256   2.263  2.3310  1.7736  3.4313
 4096SOL    HW223925   1.540   4.171   2.350 -0.7905  1.4911 -1.0533
 4097SOL     OW23926   3.432   2.668  16.175 -0.1417 -0.4418  0.4960
 4097SOL    HW123927   3.407   2.734  16.239  0.7592  0.6479 -0.2768
 4097SOL    HW223928   3.400   2.709  16.094 -2.0708  0.2542  1.6089
 4098SOL     OW23929   4.294   2.234   7.017  0.7494  0.1244 -0.6058
 4098SOL    HW123930   4.269   2.324   7.038  1.2327 -0.4545  2.3291
 4098SOL    HW223931   4.208   2.193   7.026 -0.0569  2.0843  0.6639
 4099SOL     OW23932   1.804   4.659   2.438  0.8860  0.2743 -0.2829
 4099SOL    HW123933   1.838   4.734   2.389 -4.4311  2.2412 -0.8962
 4099SOL    HW223934   1.810   4.700   2.524 -1.0262  0.6885 -0.3517
 4100SOL     OW23935   4.302   0.210   4.910 -0.4405  0.1391  0.2916
 4100SOL    HW123936   4.280   0.176   4.823  3.0115  1.1530 -1.0062
 4100SOL    HW223937   4.350   0.290   4.891  1.1287 -0.3948  2.0796
 4101SOL     OW23938   3.556   3.797  15.413  0.3017 -0.7570  0.3628
 4101SOL    HW123939   3.569   3.885  15.449 -2.1513  0.0159 -0.6523
 4101SOL    HW223940   3.563   3.823  15.321  0.5575  1.1366  0.9294
 4102SOL     OW23941   0.326   3.024   3.963 -0.3093  0.7241  0.3611
 4102SOL    HW123942   0.235   3.005   3.940 -0.5175  3.0231 -0.6785
 4102SOL    HW223943   0.381   2.993   3.892 -3.6852 -3.9040 -0.1806
 4103SOL     OW23944   4.247   4.379   7.738 -0.2673  0.6109  0.6109
 4103SOL    HW123945   4.230   4.285   7.747  4.1435 -0.2373  0.0375
 4103SOL    HW223946   4.279   4.405   7.824 -0.6459  1.3988  0.5166
 4104SOL     OW23947   4.447   2.538   5.057  0.7575 -0.5033 -0.4025
 4104SOL    HW123948   4.414   2.519   4.969 -1.8745 -2.6462  1.0387
 4104SOL    HW223949   4.509   2.608   5.038 -1.8807  0.9863 -3.6714
 4105SOL     OW23950   3.956   2.953   3.125 -0.9491 -0.1965 -0.7882
 4105SOL    HW123951   3.872   2.914   3.149 -0.5880 -0.4757 -0.0018
 4105SOL    HW223952   4.012   2.929   3.199  0.0095 -1.1134 -1.8262
 4106SOL     OW23953   2.632   0.472   6.608  0.3960  0.0174 -0.2782
 4106SOL    HW123954   2.570   0.481   6.679  0.9400  0.3110  0.1578
 4106SOL    HW223955   2.606   0.547   6.554  0.8243 -1.2239 -2.2156
 4107SOL     OW23956   3.214   4.129   6.658 -0.3664 -0.7694 -0.6555
 4107SOL    HW123957   3.199   4.139   6.564  2.2533  2.2205 -0.7486
 4107SOL    HW223958   3.129   4.099   6.691 -1.1418  0.7693 -1.2602
 4108SOL     OW23959   2.288   1.848   3.853 -0.4454 -0.4648  0.3285
 4108SOL    HW123960   2.347   1.893   3.792  0.1552  0.2081  1.4058
 4108SOL    HW223961   2.305   1.756   3.833  1.5013  0.0004 -0.1743
 4109SOL     OW23962   1.190   1.253   2.069 -0.1300  0.2337  0.0118
 4109SOL    HW123963   1.235   1.232   1.986  1.8399  1.1166  0.8486
 4109SOL    HW223964   1.132   1.182   2.095 -1.4863  0.5583 -2.1171
 4110SOL     OW23965   1.137   3.960   3.573  0.4048 -0.2152  0.0836
 4110SOL    HW123966   1.047   3.938   3.552  0.2557 -0.7589  1.2961
 4110SOL    HW223967   1.158   4.009   3.494 -0.6138 -1.6045 -1.0555
 4111SOL     OW23968   1.735   0.836   5.305 -0.5398  0.2005  0.0150
 4111SOL    HW123969   1.662   0.799   5.354 -0.6949  0.3804 -0.0822
 4111SOL    HW223970   1.815   0.792   5.334 -0.9771  0.3077  1.3900
 4112SOL     OW23971   3.713   0.872   1.009 -0.4507  0.2736 -0.0727
 4112SOL    HW123972   3.650   0.821   1.060  0.7772  1.2334  2.4103
 4112SOL    HW223973   3.727   0.948   1.066  0.7918  1.8630 -2.4716
 4113SOL     OW23974   3.442   4.506   3.356  0.0844 -0.0389  0.1726
 4113SOL    HW123975   3.478   4.594   3.342  1.3228 -0.5155  0.3788
 4113SOL    HW223976   3.523   4.455   3.358  0.2109  0.0170 -2.6040
 4114SOL     OW23977   0.258   1.861   3.750  0.1879 -0.3312  0.5327
 4114SOL    HW123978   0.253   1.947   3.707  0.0566  0.4105  2.0277
 4114SOL    HW223979   0.315   1.875   3.825  0.9684  0.4007 -0.1874
 4115SOL     OW23980   1.023   1.966   5.844 -0.3774 -0.4155  1.1189
 4115SOL    HW123981   1.101   1.913   5.860 -0.8211 -1.0795  1.1182
 4115SOL    HW223982   0.984   1.911   5.776  0.4811  0.5636 -0.1586
 4116SOL     OW23983   3.506   4.217   4.595  0.1061  0.4991  0.5171
 4116SOL    HW123984   3.460   4.216   4.679 -1.2441  1.3635 -0.2295
 4116SOL    HW223985   3.479   4.138   4.549 -3.4739  0.4137  2.8095
 4117SOL     OW23986   3.387   3.977   6.884  0.1850 -0.3500 -0.0599
 4117SOL    HW123987   3.454   4.044   6.877 -0.1570 -0.1510 -1.3939
 4117SOL    HW223988   3.360   3.992   6.975 -0.5780  0.6566 -0.4596
 4118SOL     OW23989   1.788   0.524   2.378 -0.2689  0.0042  0.0196
 4118SOL    HW123990   1.837   0.591   2.331  0.7116 -0.4039  0.4618
 4118SOL    HW223991   1.850   0.461   2.415  0.1098  0.4283  0.1016
 4119SOL     OW23992   0.979   4.001   2.110 -0.8908  0.3494  0.2091
 4119SOL    HW123993   1.008   4.017   2.020  2.8138  1.2583  1.5626
 4119SOL    HW223994   0.940   3.914   2.108  1.9089 -0.8619 -2.0512
 4120SOL     OW23995   0.012   4.311   3.843 -0.2170  0.0778 -0.2192
 4120SOL    HW123996   4.663   4.314   3.807 -0.5130 -0.7516  0.4277
 4120SOL    HW223997   0.001   4.360   3.924  0.4807  0.0675 -0.1197
 4121SOL     OW23998   0.989   0.319  11.173 -0.1445 -0.4724 -0.3632
 4121SOL    HW123999   1.029   0.292  11.091 -0.3554 -2.3551  0.1599
 4121SOL    HW224000   0.935   0.241  11.183  0.1613 -0.5058  0.9826
 4122SOL     OW24001   0.931   0.662   3.140 -0.4606  0.3539 -0.3498
 4122SOL    HW124002   0.982   0.706   3.207 -1.5816  0.3840  0.4790
 4122SOL    HW224003   0.846   0.660   3.184  1.4342  1.2720  3.3471
 4123SOL     OW24004   4.102   0.995   7.730 -0.2561  0.1379 -0.9546
 4123SOL    HW124005   4.141   0.984   7.643 -0.3309 -0.7103 -0.8781
 4123SOL    HW224006   4.057   0.912   7.748 -1.6508  0.8746 -1.0699
 4124SOL     OW24007   3.810   3.128   6.718 -0.4641 -0.4251  0.5518
 4124SOL    HW124008   3.719   3.099   6.724 -0.0479 -1.6146  1.0436
 4124SOL    HW224009   3.803   3.223   6.708 -0.7571 -0.5508 -0.5003
 4125SOL     OW24010   2.730   2.122   5.426  0.5501 -0.3202  0.1544
 4125SOL    HW124011   2.799   2.059   5.449  1.2214  1.0056  1.7462
 4125SOL    HW224012   2.652   2.070   5.442  0.1704  0.3057  0.3109
 4126SOL     OW24013   1.326   3.447  16.959 -0.0682 -0.0920  0.2360
 4126SOL    HW124014   1.284   3.389  17.022  0.3393  0.8476  1.3743
 4126SOL    HW224015   1.338   3.392  16.882  1.6703  2.6770 -1.4769
 4127SOL     OW24016   1.764   1.645   5.626  0.2454 -0.2582  0.2760
 4127SOL    HW124017   1.786   1.647   5.719  1.0635  2.8781 -0.0042
 4127SOL    HW224018   1.834   1.693   5.582  0.5443 -1.7941 -0.9470
 4128SOL     OW24019   2.388   2.882   4.122  0.1171  0.3528 -0.4766
 4128SOL    HW124020   2.354   2.938   4.052  1.1587  3.1065  1.2266
 4128SOL    HW224021   2.450   2.831   4.070  0.0940  0.0013 -0.1555
 4129SOL     OW24022   3.665   0.184   6.385  0.8811  0.2062 -0.2080
 4129SOL    HW124023   3.671   0.176   6.481 -3.2404  0.0397  0.0054
 4129SOL    HW224024   3.650   0.094   6.355 -1.7513  0.2075  1.0941
 4130SOL     OW24025   2.470   0.517   7.744 -0.9355  0.1285 -0.2732
 4130SOL    HW124026   2.460   0.604   7.781 -1.9407  0.0799 -0.4548
 4130SOL    HW224027   2.424   0.455   7.802 -0.5234  0.4186  0.3729
 4131SOL     OW24028   1.990   3.397   3.792  0.0361 -0.3445  0.2149
 4131SOL    HW124029   2.069   3.417   3.741  1.4375 -1.5893  1.8635
 4131SOL    HW224030   2.027   3.351   3.868  2.6753 -0.6033 -1.1934
 4132SOL     OW24031   0.309   1.248   8.929  0.7144  0.1284  0.2036
 4132SOL    HW124032   0.326   1.159   8.961  1.1110  0.7665  1.7612
 4132SOL    HW224033   0.328   1.307   9.002  2.4734 -0.1550 -0.0283
 4133SOL     OW24034   1.585   0.680   5.554  0.1845 -0.9691  0.9277
 4133SOL    HW124035   1.522   0.738   5.596 -0.2828  0.7646 -2.1662
 4133SOL    HW224036   1.526   0.612   5.521 -0.3989  0.5773 -1.2548
 4134SOL     OW24037   2.119   1.329   9.714 -0.3251 -0.3687 -0.5822
 4134SOL    HW124038   2.047   1.295   9.767 -2.9025  1.3775 -2.9525
 4134SOL    HW224039   2.115   1.424   9.723  1.3015 -0.3221 -0.2894
 4135SOL     OW24040   0.283   2.814  13.166  0.2437  0.7269  0.4444
 4135SOL    HW124041   0.231   2.835  13.244  0.4050 -1.4861  1.1547
 4135SOL    HW224042   0.330   2.896  13.158 -0.9018  1.4753  1.2411
 4136SOL     OW24043   1.729   4.285   3.379 -0.0381  0.2260 -0.1667
 4136SOL    HW124044   1.721   4.380   3.378 -3.7054 -0.0588 -0.1935
 4136SOL    HW224045   1.813   4.273   3.335  0.8360  2.2053  0.9773
 4137SOL     OW24046   4.646   1.111   2.393  0.0614  0.1001 -0.4673
 4137SOL    HW124047   4.738   1.082   2.395 -0.2013 -0.6021  1.6675
 4137SOL    HW224048   4.631   1.105   2.487 -0.1265 -0.1067 -0.5114
 4138SOL     OW24049   3.512   3.856   5.332  0.3642 -1.0487 -0.6643
 4138SOL    HW124050   3.570   3.924   5.367 -0.8405 -0.3694  0.0170
 4138SOL    HW224051   3.553   3.781   5.375  0.8209 -0.1626  0.4822
 4139SOL     OW24052   0.192   3.601   4.055 -0.1138  0.5032 -0.5612
 4139SOL    HW124053   0.161   3.521   4.097  1.2009  0.3839  0.1748
 4139SOL    HW224054   0.270   3.622   4.105  0.0845 -1.0101 -0.2395
 4140SOL     OW24055   1.094   4.273   5.705  0.3338 -0.2367  0.3286
 4140SOL    HW124056   1.047   4.287   5.788 -0.8826  0.1875 -0.4307
 4140SOL    HW224057   1.184   4.293   5.732 -0.0363  3.6827 -1.3303
 4141SOL     OW24058   0.382   2.908   2.642  0.4126 -0.2295  0.5158
 4141SOL    HW124059   0.298   2.911   2.597  0.2845  0.5162  0.8229
 4141SOL    HW224060   0.380   2.816   2.669 -0.8468 -1.0156 -2.2353
 4142SOL     OW24061   3.147   4.219  11.614  0.0673 -0.4534  0.0005
 4142SOL    HW124062   3.222   4.259  11.570 -0.3777  1.3973  0.9120
 4142SOL    HW224063   3.106   4.171  11.541  1.2328  2.1426 -2.3636
 4143SOL     OW24064   3.538   4.303   6.186 -0.4034  0.2741 -0.2152
 4143SOL    HW124065   3.574   4.248   6.255  2.6990  1.3230 -1.0289
 4143SOL    HW224066   3.517   4.240   6.117  1.0561 -0.4147 -0.0268
 4144SOL     OW24067   0.051   1.627   3.229  0.1133  0.7481  0.2214
 4144SOL    HW124068   4.729   1.700   3.231 -0.8584  0.0157 -2.8309
 4144SOL    HW224069   0.118   1.651   3.292  0.9545  2.9121 -1.5339
 4145SOL     OW24070   3.249   2.467   2.537  0.3487  0.1019  0.7817
 4145SOL    HW124071   3.218   2.437   2.622  2.2402 -1.0411  1.0758
 4145SOL    HW224072   3.184   2.537   2.527  0.7809  0.3721 -0.1523
 4146SOL     OW24073   1.992   4.612  14.067 -0.1040 -0.4258 -0.1828
 4146SOL    HW124074   1.951   4.525  14.066 -1.9182  0.4325  0.1795
 4146SOL    HW224075   1.929   4.669  14.023  1.8713  1.5661 -0.4586
 4147SOL     OW24076   3.805   0.807   8.018 -0.8804 -0.3680  0.6103
 4147SOL    HW124077   3.725   0.856   8.005 -0.7029 -0.7176 -1.7431
 4147SOL    HW224078   3.821   0.813   8.112 -1.2135 -1.8275  0.7668
 4148SOL     OW24079   0.657   0.105   2.879 -0.2283 -0.9059 -0.7033
 4148SOL    HW124080   0.593   0.093   2.948  1.1290 -0.7511  0.5922
 4148SOL    HW224081   0.681   0.196   2.896 -2.1351 -0.4926 -0.2569
 4149SOL     OW24082   0.083   1.926   0.598  0.2394  0.1499  0.2329
 4149SOL    HW124083   0.097   1.831   0.596 -1.4938 -0.0837 -0.2146
 4149SOL    HW224084   0.147   1.952   0.531  0.5271  0.4527  0.6226
 4150SOL     OW24085   1.437   3.932   1.486 -0.3211 -0.4362  0.3030
 4150SOL    HW124086   1.472   4.021   1.494 -0.5299 -0.1980 -1.5089
 4150SOL    HW224087   1.344   3.929   1.506 -0.5650 -0.4621 -0.8945
 4151SOL     OW24088   1.527   1.373   2.075 -0.4293  0.2794 -0.1573
 4151SOL    HW124089   1.434   1.365   2.054 -0.4196  1.1491 -0.5631
 4151SOL    HW224090   1.529   1.342   2.165  3.5332  0.4169 -0.1999
 4152SOL     OW24091   1.817   4.615   9.360 -0.7983 -0.1177 -0.0621
 4152SOL    HW124092   1.742   4.665   9.328 -1.3042 -0.3637  0.7418
 4152SOL    HW224093   1.868   4.681   9.405  0.8191 -1.8365  0.6407
 4153SOL     OW24094   2.924   4.432   6.532  0.1054  0.7541 -0.3848
 4153SOL    HW124095   3.001   4.410   6.584  0.9045  0.4035 -1.7282
 4153SOL    HW224096   2.946   4.476   6.450  0.3990 -0.8499 -1.1651
 4154SOL     OW24097   4.269   1.244   8.982  0.9458 -0.4989 -0.0129
 4154SOL    HW124098   4.178   1.244   8.953  0.1352 -2.3359  2.5147
 4154SOL    HW224099   4.273   1.149   8.983 -1.8952 -0.6293 -1.5991
 4155SOL     OW24100   1.762   1.917   9.768 -0.1852  0.3319 -0.0462
 4155SOL    HW124101   1.784   1.993   9.714 -0.9262  0.2404 -0.4825
 4155SOL    HW224102   1.841   1.902   9.819 -2.2397 -2.0188  2.4290
 4156SOL     OW24103   4.190   1.604   8.013 -0.3619 -0.3620 -0.2017
 4156SOL    HW124104   4.226   1.518   8.034  1.8035  0.8711  1.0971
 4156SOL    HW224105   4.250   1.658   8.064 -2.1279  1.1397  0.2846
 4157SOL     OW24106   3.565   1.427   2.408 -0.1300  0.4086  0.5758
 4157SOL    HW124107   3.508   1.350   2.398 -1.2564  1.0468  2.1271
 4157SOL    HW224108   3.566   1.429   2.504 -0.2037  0.6313  0.5720
 4158SOL     OW24109   1.469   2.973  13.890 -0.3977  0.5881  0.2712
 4158SOL    HW124110   1.429   2.928  13.965  0.9460  0.0609  0.6788
 4158SOL    HW224111   1.554   2.931  13.875 -0.4930 -0.4880  2.6847
 4159SOL     OW24112   1.642   1.057   4.495  0.1986  0.1745  0.0011
 4159SOL    HW124113   1.606   0.974   4.464 -0.6892  0.4905  0.1821
 4159SOL    HW224114   1.594   1.055   4.577 -0.2517 -0.8267 -0.2929
 4160SOL     OW24115   4.403   1.019   7.891 -0.1630 -0.2210 -0.5321
 4160SOL    HW124116   4.361   1.035   7.975  0.7361  1.4195 -0.3957
 4160SOL    HW224117   4.494   1.005   7.917 -0.1319  0.5757 -0.2103
 4161SOL     OW24118   1.665   0.498   8.881 -0.1748 -0.5026  0.0701
 4161SOL    HW124119   1.737   0.451   8.922  0.9847  1.3094  0.0974
 4161SOL    HW224120   1.627   0.545   8.955  2.4098  3.3919 -1.0523
 4162SOL     OW24121   0.910   1.007   3.396 -0.0784 -0.2403  0.4167
 4162SOL    HW124122   0.949   1.047   3.319 -1.5429  0.9216  0.2783
 4162SOL    HW224123   0.883   1.087   3.440 -1.1265 -0.8237  0.8347
 4163SOL     OW24124   1.963   0.046   8.978  0.1165  0.3351  0.7764
 4163SOL    HW124125   1.957   4.694   9.007  1.2992 -0.2743 -0.8715
 4163SOL    HW224126   1.965   0.034   8.883 -2.3644 -0.5384  0.8368
 4164SOL     OW24127   2.784   3.987   8.333 -0.4914 -0.1096 -0.9143
 4164SOL    HW124128   2.796   3.974   8.427  5.0575  0.7183 -1.4843
 4164SOL    HW224129   2.867   3.960   8.293 -2.0381 -2.7126 -2.3776
 4165SOL     OW24130   2.766   4.341   1.145  0.1187  0.7725 -0.1655
 4165SOL    HW124131   2.736   4.426   1.113  2.0997  1.3646 -0.4798
 4165SOL    HW224132   2.798   4.366   1.232  0.8957 -1.3324  0.1528
 4166SOL     OW24133   4.418   0.290   5.744  0.2832  0.2221 -0.1651
 4166SOL    HW124134   4.373   0.308   5.826 -0.0025 -2.6953  0.3170
 4166SOL    HW224135   4.342   0.275   5.687 -0.5553  1.9459  0.4883
 4167SOL     OW24136   2.009   2.375   5.395 -0.1134  0.5955  0.2346
 4167SOL    HW124137   1.974   2.303   5.447  0.6303  1.0740  1.3974
 4167SOL    HW224138   2.104   2.361   5.398 -0.4365 -2.0557 -2.0407
 4168SOL     OW24139   2.921   2.129   9.045 -0.5113  0.0707  0.2295
 4168SOL    HW124140   2.970   2.095   8.970  0.6839  1.2845  0.4614
 4168SOL    HW224141   2.975   2.095   9.116  3.4521  2.8177 -1.4265
 4169SOL     OW24142   4.134   1.564   5.456  0.2955 -0.2655  0.2553
 4169SOL    HW124143   4.210   1.619   5.440  0.0892 -0.1852 -0.4588
 4169SOL    HW224144   4.123   1.523   5.370 -1.2680 -0.6729  0.6553
 4170SOL     OW24145   4.737   3.990   9.870 -0.2803 -0.5396 -1.0082
 4170SOL    HW124146   0.072   4.045   9.894  0.3870 -1.2352 -1.4953
 4170SOL    HW224147   0.038   3.914   9.829  1.0058 -1.1305  1.3795
 4171SOL     OW24148   0.839   4.258   4.144  0.2319 -0.0651 -0.1895
 4171SOL    HW124149   0.834   4.222   4.056 -1.2778  1.3176 -0.6812
 4171SOL    HW224150   0.747   4.253   4.169  0.3417 -0.9038  0.0334
 4172SOL     OW24151   2.468   0.732  15.984  0.5666  0.3549 -0.3259
 4172SOL    HW124152   2.538   0.668  15.997 -0.1256  0.0686  1.9652
 4172SOL    HW224153   2.397   0.668  15.971  0.3658  0.2251  1.3940
 4173SOL     OW24154   0.815   0.668   1.038 -0.6342 -0.1404  0.0699
 4173SOL    HW124155   0.852   0.641   0.954  0.1466 -2.1688  1.0682
 4173SOL    HW224156   0.882   0.726   1.074 -0.4425 -1.3524  1.7179
 4174SOL     OW24157   2.151   1.481  13.158 -0.1423 -0.3113  0.4242
 4174SOL    HW124158   2.243   1.488  13.183  0.2013  2.1298 -1.5564
 4174SOL    HW224159   2.169   1.457  13.067 -0.7113 -2.6980  0.9200
 4175SOL     OW24160   0.431   0.116  16.993  0.8050  0.8543 -0.1727
 4175SOL    HW124161   0.368   0.148  16.929 -0.2888  1.6900  1.3033
 4175SOL    HW224162   0.380   0.142  17.070  0.9644 -0.4269  0.3685
 4176SOL     OW24163   0.861   1.979   9.820 -0.1529  0.6118  0.3813
 4176SOL    HW124164   0.789   2.036   9.847 -0.9434 -0.4312  0.4497
 4176SOL    HW224165   0.829   1.933   9.743  1.2302 -0.7491  0.6179
 4177SOL     OW24166   0.714   1.667   8.714 -0.0179  0.0994 -0.2923
 4177SOL    HW124167   0.753   1.699   8.633  3.5946 -1.7927  0.7111
 4177SOL    HW224168   0.774   1.700   8.781  1.1936 -2.9651  0.1410
 4178SOL     OW24169   3.236   3.052   6.310 -0.4218 -0.3823 -0.4776
 4178SOL    HW124170   3.168   3.003   6.355  0.2262 -0.0761  0.8411
 4178SOL    HW224171   3.235   3.130   6.364  0.1315  0.4097 -1.6097
 4179SOL     OW24172   2.726   3.601   2.055 -0.5328  0.7860  0.1467
 4179SOL    HW124173   2.635   3.624   2.035 -0.5544  1.6257  1.2164
 4179SOL    HW224174   2.767   3.655   1.988 -0.0681  0.6061  0.2819
 4180SOL     OW24175   2.178   0.261   7.136  0.1574  0.1176 -0.8201
 4180SOL    HW124176   2.186   0.232   7.045 -0.4221 -4.5927  0.6056
 4180SOL    HW224177   2.266   0.248   7.172  0.7317  2.0860 -1.4994
 4181SOL     OW24178   4.481   3.106   3.050 -0.5156  0.1745  0.1473
 4181SOL    HW124179   4.480   3.047   2.975 -0.3788  1.0603 -0.5488
 4181SOL    HW224180   4.435   3.065   3.123 -1.3402 -0.3484 -0.6781
 4182SOL     OW24181   3.851   1.368   6.444  0.0171 -0.2601 -0.3255
 4182SOL    HW124182   3.889   1.416   6.371 -1.3317 -0.1197 -0.9256
 4182SOL    HW224183   3.782   1.423   6.481 -0.1734 -0.2765 -0.6592
 4183SOL     OW24184   3.070   2.327  14.222 -0.3452  0.0565  0.5183
 4183SOL    HW124185   3.028   2.243  14.238  0.2014 -0.4077 -0.4833
 4183SOL    HW224186   3.160   2.306  14.245  0.0995 -0.0072 -1.2626
 4184SOL     OW24187   0.074   1.346   4.559 -0.1024  0.0379 -0.2043
 4184SOL    HW124188   4.737   1.379   4.605 -0.2259 -0.9941  0.3388
 4184SOL    HW224189   0.063   1.385   4.473 -1.7495 -0.9628 -0.4459
 4185SOL     OW24190   4.688   2.339   4.642  0.0749  0.2815 -0.3653
 4185SOL    HW124191   4.693   2.246   4.617 -0.1699  0.4883 -1.1842
 4185SOL    HW224192   4.594   2.349   4.626  0.2736  1.8989 -0.4741
 4186SOL     OW24193   1.475   3.726   3.431  0.5731  0.3994  0.0152
 4186SOL    HW124194   1.385   3.737   3.402 -0.1863 -1.3625  1.7302
 4186SOL    HW224195   1.504   3.646   3.387  0.3193  0.8590 -0.9921
 4187SOL     OW24196   2.269   3.215   6.017 -0.0552  0.0579 -0.6137
 4187SOL    HW124197   2.266   3.205   6.113 -3.4248 -1.3069 -0.8642
 4187SOL    HW224198   2.175   3.201   6.005 -0.1066  0.6254 -0.8891
 4188SOL     OW24199   0.184   2.977   9.196  0.1340  0.6764 -0.2718
 4188SOL    HW124200   0.188   3.072   9.187 -1.1378  0.5145 -2.6270
 4188SOL    HW224201   0.142   2.958   9.112 -0.5956  0.8445  0.0523
 4189SOL     OW24202   2.133   0.534   7.194 -0.0211 -0.0040  0.7714
 4189SOL    HW124203   2.132   0.571   7.106 -1.0307  0.5711  1.0234
 4189SOL    HW224204   2.157   0.444   7.173 -1.2874  0.5095 -2.8631
 4190SOL     OW24205   3.017   2.869   3.707 -0.0129 -0.1280  0.6131
 4190SOL    HW124206   2.923   2.879   3.716  0.0795  1.5289 -0.3026
 4190SOL    HW224207   3.018   2.779   3.673  1.0204 -0.1943  0.8044
 4191SOL     OW24208   0.393   1.592  14.074 -0.1443 -0.2174  0.2058
 4191SOL    HW124209   0.406   1.575  13.980  1.7610 -2.0213  0.8031
 4191SOL    HW224210   0.402   1.502  14.105  1.2102  0.0190  0.5116
 4192SOL     OW24211   4.215   4.153   5.724 -0.3347 -0.0615 -0.2788
 4192SOL    HW124212   4.211   4.064   5.690 -4.5256  0.6083 -1.5373
 4192SOL    HW224213   4.202   4.126   5.815 -0.2885 -1.6615 -0.7484
 4193SOL     OW24214   0.184   4.458  11.341 -0.1394  0.3834  0.1485
 4193SOL    HW124215   0.260   4.506  11.308  1.0982 -1.5342  0.1975
 4193SOL    HW224216   0.121   4.527  11.325 -1.3368 -0.7557 -0.0559
 4194SOL     OW24217   3.306   1.813   3.820 -0.0895 -0.0674 -0.4789
 4194SOL    HW124218   3.227   1.809   3.874 -0.8700  3.3797 -1.3436
 4194SOL    HW224219   3.282   1.745   3.757  1.9820 -1.6650  0.4776
 4195SOL     OW24220   1.774   1.725   8.407  0.0255 -0.1951 -0.4000
 4195SOL    HW124221   1.699   1.757   8.457  0.0830 -1.5249  0.5506
 4195SOL    HW224222   1.733   1.708   8.322  2.4946 -1.0913 -1.4096
 4196SOL     OW24223   4.701   0.313  11.118  1.0078 -0.1089 -0.3506
 4196SOL    HW124224   4.650   0.241  11.155  0.3385  1.3179  1.4858
 4196SOL    HW224225   4.648   0.390  11.140  1.4247 -0.5572  2.2393
 4197SOL     OW24226   0.949   2.158  14.073 -0.2134  0.4453  0.5823
 4197SOL    HW124227   0.990   2.190  14.153  1.3992  2.0643 -0.8923
 4197SOL    HW224228   0.912   2.079  14.112 -0.0458  0.3232  0.4962
 4198SOL     OW24229   3.825   1.593   9.309  0.2712  0.2680  0.0516
 4198SOL    HW124230   3.751   1.534   9.301  1.0640 -0.6317 -0.7328
 4198SOL    HW224231   3.900   1.537   9.290  0.2084  1.2238 -3.0647
 4199SOL     OW24232   4.181   0.695  11.321 -0.7183  0.3039 -0.7491
 4199SOL    HW124233   4.239   0.742  11.382  0.5700  0.0822 -1.7991
 4199SOL    HW224234   4.224   0.710  11.237  1.9456  0.2641  0.5920
 4200SOL     OW24235   2.482   0.479   3.022 -1.0011  0.6793  0.3088
 4200SOL    HW124236   2.550   0.504   3.084 -0.6146  0.9671 -0.2231
 4200SOL    HW224237   2.420   0.552   3.019  0.8476  2.2326 -0.1978
 4201SOL     OW24238   4.266   0.200  15.629  0.0828 -0.8790  0.2681
 4201SOL    HW124239   4.207   0.215  15.703  1.1183 -1.4737  1.2113
 4201SOL    HW224240   4.297   0.111  15.645 -1.2472 -1.5997 -1.2649
 4202SOL     OW24241   1.193   0.840  15.034  0.2146  0.4899  0.6058
 4202SOL    HW124242   1.173   0.769  15.095 -0.9038  0.5862  0.3458
 4202SOL    HW224243   1.125   0.817  14.970 -0.3487  1.5579  0.8258
 4203SOL     OW24244   2.680   1.167  10.769 -0.2855  0.0552  0.1863
 4203SOL    HW124245   2.601   1.194  10.722 -1.3795 -0.5042  1.7364
 4203SOL    HW224246   2.686   1.228  10.843 -1.0604  0.3555  0.0039
 4204SOL     OW24247   1.836   2.428   8.089 -0.2190 -0.0529  0.0772
 4204SOL    HW124248   1.755   2.390   8.123 -0.2136 -1.3034 -1.3009
 4204SOL    HW224249   1.900   2.385   8.146 -0.3187  1.3768  1.2556
 4205SOL     OW24250   3.615   0.759  15.777  0.3806 -0.2696 -0.1485
 4205SOL    HW124251   3.683   0.827  15.785 -1.7973  2.0909 -1.6276
 4205SOL    HW224252   3.658   0.709  15.708  1.1794  2.4385 -1.6264
 4206SOL     OW24253   0.324   3.146  14.009 -0.4076 -0.4798 -0.2445
 4206SOL    HW124254   0.367   3.170  13.927  1.1184 -2.3414 -0.0011
 4206SOL    HW224255   0.387   3.179  14.074  0.2936 -0.2988 -1.0197
 4207SOL     OW24256   2.208   0.830   5.324 -0.0621 -0.4202 -0.0128
 4207SOL    HW124257   2.216   0.925   5.316 -1.1585 -0.6569 -3.7067
 4207SOL    HW224258   2.240   0.823   5.414  0.5945 -1.9536 -0.3507
 4208SOL     OW24259   1.392   3.135   2.806 -0.2797 -0.6204  0.6344
 4208SOL    HW124260   1.367   3.188   2.730  1.8278 -0.2576  0.1984
 4208SOL    HW224261   1.440   3.204   2.850 -1.2696  0.9192 -0.6742
 4209SOL     OW24262   1.812   1.278   8.268 -0.3544 -0.0056  0.6624
 4209SOL    HW124263   1.733   1.332   8.278 -0.1645  0.9521 -2.8029
 4209SOL    HW224264   1.784   1.196   8.308  1.2641 -1.1181 -0.4867
 4210SOL     OW24265   4.734   4.561   6.433 -0.3009 -0.2130 -0.0851
 4210SOL    HW124266   0.058   4.500   6.396 -0.6312 -1.3890  1.2511
 4210SOL    HW224267   0.043   4.587   6.512  0.6211 -2.2183  0.0123
 4211SOL     OW24268   0.699   1.989  15.014 -1.0404 -0.1021  0.4863
 4211SOL    HW124269   0.779   2.043  15.007  0.2665 -2.4838 -3.2292
 4211SOL    HW224270   0.709   1.907  15.062 -0.2044 -0.5735 -0.4987
 4212SOL     OW24271   2.165   3.371   4.730  0.4979  0.1131  0.0745
 4212SOL    HW124272   2.214   3.322   4.796  0.4840  0.7546  0.5593
 4212SOL    HW224273   2.121   3.298   4.685  0.8090 -0.2619  0.3770
 4213SOL     OW24274   2.009   4.727   8.709 -0.2379  0.3809 -0.5513
 4213SOL    HW124275   2.028   4.633   8.710 -1.4361  0.1420  0.3932
 4213SOL    HW224276   1.941   4.731   8.643 -1.4577 -0.5148  0.6552
 4214SOL     OW24277   2.722   3.353   1.938 -0.0072 -0.3502  0.5073
 4214SOL    HW124278   2.814   3.361   1.964  0.1358 -1.0616  0.2124
 4214SOL    HW224279   2.695   3.438   1.973  3.2417  0.8392  0.1105
 4215SOL     OW24280   1.631   2.801   5.336 -0.1337 -0.1689 -0.0556
 4215SOL    HW124281   1.698   2.870   5.332 -0.3192 -0.0883 -1.7254
 4215SOL    HW224282   1.656   2.738   5.267  0.1331 -2.8151  2.4381
 4216SOL     OW24283   3.840   2.346   7.178  0.5793  0.9243  0.4016
 4216SOL    HW124284   3.791   2.409   7.125  0.6598  1.0311  0.4544
 4216SOL    HW224285   3.867   2.402   7.251 -0.9321 -2.1183  3.2886
 4217SOL     OW24286   4.596   3.075   7.662 -0.4263  0.1621  0.4236
 4217SOL    HW124287   4.648   3.048   7.586 -1.9502 -1.9743  0.1360
 4217SOL    HW224288   4.581   2.988   7.699 -1.5326  0.5953  0.9765
 4218SOL     OW24289   1.624   3.037   3.610 -0.2877 -0.8439 -0.1509
 4218SOL    HW124290   1.573   3.046   3.530 -1.7939 -1.1928  0.7667
 4218SOL    HW224291   1.633   2.943   3.623  0.0146 -1.0673 -1.9663
 4219SOL     OW24292   1.922   1.606   2.329  0.1086 -0.3830  0.6592
 4219SOL    HW124293   1.979   1.538   2.365  0.0686 -1.4914 -1.3462
 4219SOL    HW224294   1.923   1.581   2.237  1.4210  1.0853  0.2622
 4220SOL     OW24295   4.037   3.625   7.070  0.5641 -0.5521 -0.2115
 4220SOL    HW124296   4.122   3.629   7.114  0.7398 -0.3156 -0.5821
 4220SOL    HW224297   4.046   3.536   7.037  2.1040 -0.1468 -0.8621
 4221SOL     OW24298   3.391   3.824   5.659 -0.7069  0.1232 -0.1214
 4221SOL    HW124299   3.363   3.851   5.571  1.2396  0.1494 -0.7248
 4221SOL    HW224300   3.313   3.848   5.708 -1.0953 -0.3996 -0.4833
 4222SOL     OW24301   2.893   2.955   3.127  0.4114 -0.0771  0.7722
 4222SOL    HW124302   2.923   3.000   3.048 -1.1975  1.5521  1.0785
 4222SOL    HW224303   2.952   2.880   3.120  1.7249  1.2097 -1.6681
 4223SOL     OW24304   4.517   0.750   3.480  0.2414 -0.1510 -0.3435
 4223SOL    HW124305   4.515   0.801   3.561  0.4345 -1.3786  0.4330
 4223SOL    HW224306   4.462   0.800   3.419 -0.2841 -0.0926  0.1769
 4224SOL     OW24307   3.409   3.195   6.934  0.5740  0.0514  0.3771
 4224SOL    HW124308   3.375   3.139   6.865  0.0081  1.6936 -0.6751
 4224SOL    HW224309   3.473   3.250   6.888  0.7849 -0.1478  0.4306
 4225SOL     OW24310   0.551   1.514   0.488 -0.9084 -0.2126 -0.0344
 4225SOL    HW124311   0.612   1.443   0.504  0.2487  1.1792  1.6339
 4225SOL    HW224312   0.558   1.582   0.555  1.2808  0.5354 -1.0381
 4226SOL     OW24313   3.429   1.767  14.832 -0.0685 -0.2372 -0.0605
 4226SOL    HW124314   3.346   1.720  14.820 -0.5481  0.7389 -0.5825
 4226SOL    HW224315   3.418   1.832  14.901 -1.5618  1.1293 -1.5914
 4227SOL     OW24316   1.499   1.589   9.236  0.3516  0.1719 -0.6519
 4227SOL    HW124317   1.412   1.627   9.248  0.1612 -0.5849  0.3938
 4227SOL    HW224318   1.539   1.637   9.164 -2.9407  0.4089 -2.3224
 4228SOL     OW24319   4.072   1.747  15.308 -0.5829  0.1475  0.3877
 4228SOL    HW124320   4.072   1.673  15.247 -0.2704  2.4855 -2.4311
 4228SOL    HW224321   4.012   1.811  15.270 -0.9466 -0.2445  0.3006
 4229SOL     OW24322   3.640   1.719  13.218 -0.8823  0.2428 -0.5296
 4229SOL    HW124323   3.563   1.711  13.274 -0.7196  0.3206 -0.2898
 4229SOL    HW224324   3.626   1.680  13.132 -1.0770  0.0415 -0.4041
 4230SOL     OW24325   0.415   0.724   1.288  0.0330 -0.2876 -0.8637
 4230SOL    HW124326   0.504   0.723   1.324  0.0122  0.3728 -0.7904
 4230SOL    HW224327   0.435   0.689   1.201 -0.2204 -2.5863 -0.0125
 4231SOL     OW24328   1.983   3.204   5.018 -0.1444 -0.0137 -0.0361
 4231SOL    HW124329   1.944   3.161   4.941 -0.9632  2.3417 -0.9508
 4231SOL    HW224330   1.968   3.296   4.996  1.4089 -0.4926 -3.1164
 4232SOL     OW24331   1.096   0.699   5.480 -0.0734 -0.1181  0.1054
 4232SOL    HW124332   1.174   0.656   5.446 -0.1035  0.6123 -0.8731
 4232SOL    HW224333   1.037   0.688   5.406 -0.1360  1.0217 -0.0072
 4233SOL     OW24334   2.812   2.224   5.184 -0.0727  0.5429  0.0431
 4233SOL    HW124335   2.753   2.211   5.258 -2.2647 -0.0874 -1.7961
 4233SOL    HW224336   2.763   2.173   5.119 -0.1556 -0.6678  1.0596
 4234SOL     OW24337   4.466   3.665   6.102  0.1764  0.1174  0.6458
 4234SOL    HW124338   4.510   3.621   6.175  0.8983 -0.9869 -0.4776
 4234SOL    HW224339   4.483   3.612   6.025  0.0217  0.1259  0.6069
 4235SOL     OW24340   0.857   2.710   2.303  0.3107  1.0770 -0.0562
 4235SOL    HW124341   0.899   2.790   2.273  1.2399  0.6140  0.0168
 4235SOL    HW224342   0.788   2.738   2.363 -0.5863  0.3958 -0.7652
 4236SOL     OW24343   3.382   1.272   9.812 -0.4252 -0.4228  0.1615
 4236SOL    HW124344   3.296   1.255   9.850 -0.0858 -1.3718  0.5242
 4236SOL    HW224345   3.380   1.367   9.820 -1.2593 -0.3129 -1.2628
 4237SOL     OW24346   1.807   1.355   2.184 -1.0388  0.2230  0.4563
 4237SOL    HW124347   1.784   1.447   2.174 -3.2437 -0.4548 -0.5023
 4237SOL    HW224348   1.724   1.311   2.167 -1.0488 -0.0720  1.2696
 4238SOL     OW24349   3.010   2.520  16.095 -0.6038  0.5345 -0.0511
 4238SOL    HW124350   2.923   2.499  16.063 -0.0027 -0.9096 -0.7430
 4238SOL    HW224351   3.061   2.452  16.051 -1.0154  0.6415 -0.6925
 4239SOL     OW24352   0.570   3.488  12.537 -0.1885 -0.3984  0.0330
 4239SOL    HW124353   0.483   3.483  12.576 -0.4200  0.2129 -0.4155
 4239SOL    HW224354   0.567   3.570  12.488  0.6626 -0.7341 -0.5913
 4240SOL     OW24355   1.814   2.219   5.773  0.5669  0.0595 -0.9610
 4240SOL    HW124356   1.809   2.303   5.727  0.0460  1.6896  2.0815
 4240SOL    HW224357   1.756   2.226   5.849 -1.3913  0.7272 -2.5283
 4241SOL     OW24358   1.367   2.469   4.599 -0.3927 -0.1047  0.1688
 4241SOL    HW124359   1.356   2.555   4.640  1.5259 -1.4778  3.5350
 4241SOL    HW224360   1.314   2.410   4.651 -3.6608  1.9086 -0.9069
 4242SOL     OW24361   0.535   3.752   6.105 -0.5073 -0.1189 -0.1290
 4242SOL    HW124362   0.548   3.846   6.117  1.1026 -0.2042 -1.2808
 4242SOL    HW224363   0.485   3.732   6.185  0.6390 -0.3872  0.5259
 4243SOL     OW24364   1.721   1.407   6.650 -0.2104 -0.9529 -0.5343
 4243SOL    HW124365   1.726   1.331   6.708  0.1585 -0.7152 -0.2538
 4243SOL    HW224366   1.749   1.477   6.709 -1.1281 -3.3447  2.7400
 4244SOL     OW24367   3.952   4.402   7.974  0.0619  0.1358  0.6878
 4244SOL    HW124368   4.036   4.432   7.939  0.3885  0.2636  1.5910
 4244SOL    HW224369   3.905   4.479   8.005  0.9783  1.7158 -1.8711
 4245SOL     OW24370   1.442   1.220  15.398  0.0255  0.3120  0.1199
 4245SOL    HW124371   1.477   1.284  15.336 -1.4601  0.7066 -0.3117
 4245SOL    HW224372   1.367   1.187  15.349 -0.7550  1.8301  0.2867
 4246SOL     OW24373   1.147   1.296   9.574 -0.1457  0.5407  0.4544
 4246SOL    HW124374   1.148   1.381   9.619  1.1730  0.8615 -0.1800
 4246SOL    HW224375   1.241   1.277   9.567 -0.1197  1.3878 -1.3131
 4247SOL     OW24376   0.501   2.436   4.571 -0.0811  0.0291 -0.0757
 4247SOL    HW124377   0.529   2.470   4.657  1.0123 -1.1536  0.0293
 4247SOL    HW224378   0.436   2.503   4.547  1.4260  2.4013  2.3235
 4248SOL     OW24379   0.687   3.330   7.410 -0.4817  0.1524  0.6825
 4248SOL    HW124380   0.722   3.395   7.349 -2.1999  0.4901  0.0506
 4248SOL    HW224381   0.746   3.255   7.397  0.1307  0.7753 -0.1762
 4249SOL     OW24382   1.911   0.262   6.249 -0.0980 -0.3509 -0.1065
 4249SOL    HW124383   1.995   0.288   6.211  0.0726  1.1070  1.2790
 4249SOL    HW224384   1.931   0.239   6.340  1.9892  0.0936 -0.4438
 4250SOL     OW24385   0.303   0.714  16.245  0.0487 -0.3387 -0.6453
 4250SOL    HW124386   0.240   0.673  16.186 -0.3502  1.0992 -1.2413
 4250SOL    HW224387   0.362   0.740  16.175 -0.2082 -0.6263 -0.9667
 4251SOL     OW24388   4.142   3.637  17.357  0.6530  0.3122 -0.0151
 4251SOL    HW124389   4.069   3.596  17.403  0.4451  0.9533  0.2267
 4251SOL    HW224390   4.095   3.674  17.282 -0.0474  0.2323  0.3929
 4252SOL     OW24391   4.087   3.780  11.388 -0.1697 -0.3705 -0.6812
 4252SOL    HW124392   4.171   3.742  11.416  0.3278  1.1585 -0.1018
 4252SOL    HW224393   4.075   3.865  11.430  0.5311 -1.3744  1.5565
 4253SOL     OW24394   0.809   4.522  11.760 -0.0954 -0.8405 -0.2128
 4253SOL    HW124395   0.809   4.614  11.733  1.4616 -0.3285  1.5021
 4253SOL    HW224396   0.900   4.492  11.751  0.6553  0.7458  1.9532
 4254SOL     OW24397   2.221   0.893  10.216 -0.3416 -0.3499 -0.0549
 4254SOL    HW124398   2.139   0.891  10.167 -0.7037  1.1604  0.4785
 4254SOL    HW224399   2.196   0.883  10.307 -0.8376 -3.3529 -0.5397
 4255SOL     OW24400   3.465   0.779   3.338 -0.6940 -0.5859 -0.3621
 4255SOL    HW124401   3.400   0.849   3.340  0.2348  0.2944 -2.1619
 4255SOL    HW224402   3.446   0.726   3.261 -1.1604 -1.2425  0.1913
 4256SOL     OW24403   2.241   0.034   3.007  0.0895 -0.1022 -0.4648
 4256SOL    HW124404   2.189   0.005   3.082  0.5091  0.1286 -0.0855
 4256SOL    HW224405   2.198   0.114   2.978 -0.1388  1.5131  4.4710
 4257SOL     OW24406   3.016   2.664   7.835  0.2565 -0.0107  0.3178
 4257SOL    HW124407   3.031   2.751   7.872 -0.5784 -0.0280  0.6923
 4257SOL    HW224408   3.102   2.630   7.809 -1.0457 -0.8880 -2.8180
 4258SOL     OW24409   3.625   1.125  10.552  0.4459  0.4057 -0.4926
 4258SOL    HW124410   3.677   1.050  10.522  3.5777  1.5718  1.9818
 4258SOL    HW224411   3.559   1.152  10.488 -0.8400 -0.2710  0.5521
 4259SOL     OW24412   2.849   2.129   8.720 -0.3028 -0.1944 -0.5818
 4259SOL    HW124413   2.932   2.086   8.740 -0.4449  0.7048  1.9737
 4259SOL    HW224414   2.832   2.095   8.632 -1.7204  1.3027 -0.8808
 4260SOL     OW24415   1.181   0.467   8.041 -0.0141 -0.4402  0.6520
 4260SOL    HW124416   1.160   0.519   7.963 -1.0969 -0.8360  0.6759
 4260SOL    HW224417   1.212   0.541   8.093  0.6922  0.6867 -1.3861
 4261SOL     OW24418   0.070   0.777   8.397 -0.0356  0.6474 -0.3828
 4261SOL    HW124419   0.130   0.714   8.358  0.1378  0.8905 -0.5086
 4261SOL    HW224420   0.104   0.779   8.487  1.4592 -1.1269 -0.9138
 4262SOL     OW24421   3.184   1.400  10.250  0.4234 -0.4872  0.0923
 4262SOL    HW124422   3.234   1.481  10.238  1.0725 -1.6451 -5.2424
 4262SOL    HW224423   3.128   1.428  10.322  0.2139 -0.4698 -0.0777
 4263SOL     OW24424   3.521   2.616   3.551  0.1448  0.4106 -0.0182
 4263SOL    HW124425   3.490   2.541   3.601  1.5262 -0.9229 -1.1169
 4263SOL    HW224426   3.435   2.654   3.533 -0.2744  0.4570  2.1741
 4264SOL     OW24427   1.254   1.285   4.529  0.1928 -0.8510  0.3645
 4264SOL    HW124428   1.301   1.228   4.590  0.9604 -0.4000  0.1872
 4264SOL    HW224429   1.238   1.362   4.584  2.1783 -0.5952  0.5842
 4265SOL     OW24430   3.433   2.182   2.328 -0.8473  0.6242  0.2870
 4265SOL    HW124431   3.457   2.090   2.338 -2.0136  0.6176  3.0688
 4265SOL    HW224432   3.348   2.185   2.372 -1.3316 -1.2309 -0.5446
 4266SOL     OW24433   3.358   2.221   7.424  0.3593 -0.0024  0.0811
 4266SOL    HW124434   3.338   2.315   7.422  2.1350  0.4284  2.5007
 4266SOL    HW224435   3.441   2.223   7.473  0.1027 -1.9278  0.5978
 4267SOL     OW24436   0.847   0.090   7.244 -0.5406 -0.3950  0.6189
 4267SOL    HW124437   0.787   0.157   7.276  1.8920  1.7343  0.7111
 4267SOL    HW224438   0.889   0.143   7.176  0.6182 -0.1089  1.5658
 4268SOL     OW24439   0.328   1.262   1.900  0.2599  0.4506 -0.7268
 4268SOL    HW124440   0.343   1.353   1.878  0.9880  0.3576 -0.6188
 4268SOL    HW224441   0.403   1.220   1.857  0.0835  0.6324 -1.2008
 4269SOL     OW24442   3.538   3.794  16.855 -0.0136  0.1355 -0.0357
 4269SOL    HW124443   3.522   3.754  16.769 -1.2502 -1.5422  0.9618
 4269SOL    HW224444   3.557   3.720  16.914  0.3179  0.7121  0.5741
 4270SOL     OW24445   1.900   3.124   3.543  0.6195 -0.1394  0.4633
 4270SOL    HW124446   1.829   3.114   3.480  0.4903 -2.1607  0.9147
 4270SOL    HW224447   1.858   3.153   3.623  1.4047  1.8765  0.1320
 4271SOL     OW24448   3.283   2.108   6.930 -0.0831  1.0274 -0.5734
 4271SOL    HW124449   3.320   2.141   7.012 -0.0285 -0.5778  0.0526
 4271SOL    HW224450   3.275   2.186   6.875 -2.1061 -0.3735 -2.2744
 4272SOL     OW24451   3.749   0.363   2.449 -0.3748  0.1499  0.1026
 4272SOL    HW124452   3.736   0.390   2.358 -3.3510  0.2056  0.5235
 4272SOL    HW224453   3.765   0.269   2.440  2.0020  0.7362 -1.6165
 4273SOL     OW24454   0.265   4.007   6.283 -1.1872  0.0880 -0.3879
 4273SOL    HW124455   0.191   4.061   6.312 -0.3139 -0.1921  2.3148
 4273SOL    HW224456   0.288   3.967   6.367 -1.1200  0.4950 -0.2108
 4274SOL     OW24457   2.577   0.756   0.474 -0.2852 -0.1070  0.4721
 4274SOL    HW124458   2.628   0.676   0.461  0.8891  1.0488 -1.9005
 4274SOL    HW224459   2.500   0.729   0.423  1.0602 -1.2074 -0.9796
 4275SOL     OW24460   0.462   1.566   0.041  0.2968  0.7160  0.5152
 4275SOL    HW124461   0.392   1.509   0.073  1.4735 -2.2574 -2.1378
 4275SOL    HW224462   0.481   1.622   0.116 -2.6425  3.0017 -0.4324
 4276SOL     OW24463   0.356   3.778  12.031  0.1460 -0.6780 -0.1496
 4276SOL    HW124464   0.325   3.847  12.089 -1.7625 -0.9878 -0.8020
 4276SOL    HW224465   0.420   3.729  12.083  2.2240 -0.2084 -2.2740
 4277SOL     OW24466   3.722   1.321  16.205 -0.5568 -0.1571  0.0922
 4277SOL    HW124467   3.636   1.293  16.236  0.8025 -4.0228  0.3712
 4277SOL    HW224468   3.748   1.265  16.131 -1.8726  0.9576 -1.2158
 4278SOL     OW24469   3.722   2.766  12.612  0.2786 -0.1559 -0.0774
 4278SOL    HW124470   3.803   2.802  12.650 -2.6206  3.4060  2.7552
 4278SOL    HW224471   3.724   2.677  12.646 -1.9039 -0.7349 -1.4878
 4279SOL     OW24472   0.254   2.209   1.323  0.5358 -0.5954 -0.3764
 4279SOL    HW124473   0.205   2.180   1.400 -1.6874 -1.1017 -1.9894
 4279SOL    HW224474   0.190   2.252   1.266  2.1217  2.9166  0.4734
 4280SOL     OW24475   4.231   2.123   2.588  0.2758 -0.4641  0.1288
 4280SOL    HW124476   4.224   2.047   2.532 -1.3852 -0.6593  0.6155
 4280SOL    HW224477   4.140   2.147   2.607  0.4144 -0.7765  1.2015
 4281SOL     OW24478   1.322   2.366  15.847  0.2232  0.1922  0.3557
 4281SOL    HW124479   1.374   2.307  15.792 -0.0884  1.2188 -1.0496
 4281SOL    HW224480   1.237   2.350  15.807 -1.0230 -0.7089  3.4276
 4282SOL     OW24481   1.485   4.686  17.654  0.1846 -0.4953  0.7955
 4282SOL    HW124482   1.566   4.735  17.667 -0.5171  0.7266  0.6165
 4282SOL    HW224483   1.501   4.643  17.571 -1.3642 -2.1978  1.3851
 4283SOL     OW24484   4.521   2.896   2.030  0.2974 -0.7754  0.1099
 4283SOL    HW124485   4.483   2.917   2.116 -1.3734  1.1114 -1.1119
 4283SOL    HW224486   4.449   2.912   1.970 -0.3212  2.3893  1.7191
 4284SOL     OW24487   2.656   2.166   9.377 -0.5118 -0.4936 -0.0856
 4284SOL    HW124488   2.675   2.101   9.444  0.3239 -0.5229 -0.3590
 4284SOL    HW224489   2.564   2.150   9.354 -0.9090  0.5437  0.7730
 4285SOL     OW24490   1.649   1.025  15.446 -0.1250 -0.3494  0.5719
 4285SOL    HW124491   1.598   1.106  15.445  0.4311 -0.0010  0.1859
 4285SOL    HW224492   1.737   1.062  15.440 -0.8843  1.0942 -1.9855
 4286SOL     OW24493   2.104   1.276   4.728  1.0191 -0.0682 -0.1747
 4286SOL    HW124494   2.125   1.274   4.821  0.4254 -2.6591 -0.0924
 4286SOL    HW224495   2.101   1.371   4.716 -0.5341  0.0641  1.3126
 4287SOL     OW24496   0.506   1.819   8.464  0.2049 -0.1425 -0.7370
 4287SOL    HW124497   0.439   1.884   8.444 -0.5087 -0.4114  0.7215
 4287SOL    HW224498   0.591   1.857   8.442  0.0137  0.1061 -1.0295
 4288SOL     OW24499   3.418   1.392   3.074  0.0461 -0.0959 -0.7290
 4288SOL    HW124500   3.348   1.338   3.112 -2.1833  2.8176 -0.6217
 4288SOL    HW224501   3.364   1.437   3.008 -0.8115 -0.3245 -0.1812
 4289SOL     OW24502   0.100   0.012   8.443  0.7582 -0.1204 -0.8042
 4289SOL    HW124503   0.102   0.092   8.391  2.4939 -0.0715 -0.6518
 4289SOL    HW224504   0.026   0.018   8.504  1.8180 -1.4713  0.6226
 4290SOL     OW24505   3.021   0.745  12.498 -0.0892  0.3907 -0.2841
 4290SOL    HW124506   3.070   0.785  12.570  1.5782  1.9465 -2.2628
 4290SOL    HW224507   2.993   0.817  12.441  0.6704 -0.4667 -1.7435
 4291SOL     OW24508   1.223   3.168   7.139 -0.9245  0.3019 -0.2334
 4291SOL    HW124509   1.281   3.215   7.199 -0.8393 -1.3076  0.9335
 4291SOL    HW224510   1.144   3.169   7.192 -1.2587  0.8800 -0.7357
 4292SOL     OW24511   0.288   4.549   0.514  0.9108  0.1209 -0.7426
 4292SOL    HW124512   0.315   4.511   0.430  0.0972 -2.4573  0.1686
 4292SOL    HW224513   0.205   4.591   0.494  2.4187  2.2079 -2.6043
 4293SOL     OW24514   2.006   3.878   6.127  0.1570 -0.3702  0.3825
 4293SOL    HW124515   1.922   3.926   6.125  1.0458  1.1860  0.0371
 4293SOL    HW224516   1.995   3.822   6.203 -0.8256 -0.1628  0.4002
 4294SOL     OW24517   0.295   3.774  16.346 -0.1536  0.0415 -0.4802
 4294SOL    HW124518   0.362   3.819  16.295  1.3863 -0.9253  0.6998
 4294SOL    HW224519   0.341   3.728  16.416 -0.4919  0.8036  0.2375
 4295SOL     OW24520   1.168   1.938   9.765  0.5069  0.4306  0.6902
 4295SOL    HW124521   1.129   1.940   9.853  0.1228  1.6379  0.4959
 4295SOL    HW224522   1.212   2.023   9.765  3.2366 -0.9739 -1.4617
 4296SOL     OW24523   1.882   0.413   5.841  0.2204  0.0109 -0.2742
 4296SOL    HW124524   1.850   0.396   5.752  2.1937 -1.8472 -0.6360
 4296SOL    HW224525   1.859   0.505   5.856 -1.5449 -0.3502 -0.7748
 4297SOL     OW24526   2.335   4.121   0.719  0.4141 -0.1757  0.0786
 4297SOL    HW124527   2.424   4.114   0.753  0.9365 -1.7550 -1.6307
 4297SOL    HW224528   2.330   4.201   0.666 -0.7710  0.6421  1.3978
 4298SOL     OW24529   0.380   3.624   9.739  0.5561  0.6151 -0.0629
 4298SOL    HW124530   0.409   3.537   9.765  0.5081  0.2323 -1.2961
 4298SOL    HW224531   0.453   3.636   9.679  1.3565  1.8922  1.1529
 4299SOL     OW24532   0.801   1.432   6.597 -0.4254  0.2267  0.1253
 4299SOL    HW124533   0.797   1.341   6.569  0.2743 -0.2046  1.4305
 4299SOL    HW224534   0.881   1.456   6.550  0.4858  0.6619  1.9033
 4300SOL     OW24535   2.926   3.563   9.073  0.4435  0.0163  0.7080
 4300SOL    HW124536   2.975   3.646   9.071 -0.5633  0.5700 -0.7835
 4300SOL    HW224537   2.844   3.584   9.118  0.4252  1.0094  0.2146
 4301SOL     OW24538   0.337   2.456   6.534 -0.1684 -0.0790 -0.0585
 4301SOL    HW124539   0.294   2.397   6.596 -0.6728  0.0054 -0.3336
 4301SOL    HW224540   0.300   2.539   6.561 -0.8163 -0.8716  1.4610
 4302SOL     OW24541   1.778   0.384   3.917 -0.0017 -0.5429  0.0007
 4302SOL    HW124542   1.817   0.314   3.865  2.5418 -0.1005  1.3245
 4302SOL    HW224543   1.850   0.385   3.980 -0.5856  0.8114  0.6630
 4303SOL     OW24544   0.104   2.166  16.782 -0.1599 -0.0590  0.5142
 4303SOL    HW124545   0.171   2.097  16.773  0.1549  0.5425 -1.6858
 4303SOL    HW224546   0.086   2.189  16.691 -1.9409 -0.1320  0.8610
 4304SOL     OW24547   3.678   2.302   2.328 -0.2105 -0.1265 -0.0153
 4304SOL    HW124548   3.732   2.252   2.388  0.2853  0.4234 -0.0000
 4304SOL    HW224549   3.589   2.267   2.337  0.6190 -2.1962 -0.0200
 4305SOL     OW24550   0.635   3.862   5.397 -0.0933  0.0448  0.4987
 4305SOL    HW124551   0.618   3.894   5.308  2.2422 -2.4915 -0.8779
 4305SOL    HW224552   0.727   3.836   5.398  0.6304  2.5936  0.0540
 4306SOL     OW24553   0.713   2.201   5.819  0.2335  0.4362  0.2463
 4306SOL    HW124554   0.764   2.223   5.741  2.8422  0.0624  1.8587
 4306SOL    HW224555   0.772   2.168   5.886  0.8664  0.4627 -0.2939
 4307SOL     OW24556   4.723   1.298   1.539  0.3608  0.4161  0.0994
 4307SOL    HW124557   4.690   1.224   1.590 -0.5091 -0.3050 -1.5157
 4307SOL    HW224558   0.015   1.364   1.601 -0.1398  1.4732 -0.7726
 4308SOL     OW24559   1.800   2.691   0.333 -0.2303 -0.2832 -0.6981
 4308SOL    HW124560   1.865   2.754   0.364 -1.7326  1.1411 -0.4400
 4308SOL    HW224561   1.731   2.698   0.399  0.2032 -1.3231 -0.1317
 4309SOL     OW24562   4.421   2.844   8.848  0.3025 -0.1967 -0.3411
 4309SOL    HW124563   4.365   2.769   8.828  0.5049  0.0581 -1.8205
 4309SOL    HW224564   4.506   2.801   8.857  0.1288 -0.0226  2.1838
 4310SOL     OW24565   3.914   4.646   2.538  0.1424 -0.3385  0.2533
 4310SOL    HW124566   4.009   4.656   2.544 -0.0870  0.2374  2.8488
 4310SOL    HW224567   3.909   4.556   2.506 -0.2029 -0.6703  1.2166
 4311SOL     OW24568   2.812   1.170  12.336  0.0356  0.0759 -0.4009
 4311SOL    HW124569   2.833   1.224  12.260  2.7468 -1.5724 -0.8412
 4311SOL    HW224570   2.723   1.141  12.317 -0.9158  1.7933  1.3620
 4312SOL     OW24571   1.626   0.716   8.317 -0.2032 -0.8206 -0.0176
 4312SOL    HW124572   1.561   0.700   8.384  0.8429  0.5684  1.3224
 4312SOL    HW224573   1.673   0.633   8.328 -0.2414 -0.3866  3.4111
 4313SOL     OW24574   1.424   2.996   7.909  0.5743  0.2286  0.0214
 4313SOL    HW124575   1.354   2.941   7.943 -0.1595  1.0926 -0.0849
 4313SOL    HW224576   1.429   2.949   7.826  1.1373 -1.8262  1.2375
 4314SOL     OW24577   2.475   4.255  10.239 -0.4716 -0.0592  0.2577
 4314SOL    HW124578   2.498   4.232  10.149  0.2726 -2.5816  1.0913
 4314SOL    HW224579   2.480   4.351  10.239 -0.6791 -0.0591 -3.4452
 4315SOL     OW24580   0.756   3.142  14.086 -0.0576 -0.1738  0.0078
 4315SOL    HW124581   0.703   3.173  14.012 -0.8633 -1.5158  0.0257
 4315SOL    HW224582   0.693   3.159  14.155 -0.7623 -0.6176 -0.5249
 4316SOL     OW24583   0.030   1.016   1.401 -0.5480  0.0166 -0.6187
 4316SOL    HW124584   0.123   1.011   1.421 -1.0306 -2.4699  0.9573
 4316SOL    HW224585   4.737   1.081   1.465  2.1142  1.2490 -0.5338
 4317SOL     OW24586   2.113   0.349   6.114 -0.8827  0.2042 -0.1149
 4317SOL    HW124587   2.098   0.429   6.063  0.3332  1.6796  1.8486
 4317SOL    HW224588   2.172   0.376   6.185 -0.1874  0.7288 -0.8832
 4318SOL     OW24589   2.414   4.637   4.749 -0.4564  0.1152  0.0142
 4318SOL    HW124590   2.473   4.587   4.806  0.6811  1.1172 -0.2817
 4318SOL    HW224591   2.459   4.645   4.665  0.6336  0.6583  0.6448
 4319SOL     OW24592   4.237   1.747   7.788 -0.3064 -0.1809  0.2925
 4319SOL    HW124593   4.255   1.834   7.822 -2.4280 -0.3369  1.7712
 4319SOL    HW224594   4.211   1.702   7.868  1.1128 -3.1044 -0.8678
 4320SOL     OW24595   2.817   1.111  16.681  0.7391  0.2533 -0.2737
 4320SOL    HW124596   2.883   1.155  16.734  1.4463  0.7051 -1.5306
 4320SOL    HW224597   2.764   1.080  16.754 -2.2150  2.6950 -1.4032
 4321SOL     OW24598   1.203   0.394  10.718  0.1356  0.0513  0.2213
 4321SOL    HW124599   1.256   0.444  10.655  0.3973 -2.4142 -1.4925
 4321SOL    HW224600   1.256   0.424  10.792  3.3974 -1.6307 -1.4548
 4322SOL     OW24601   4.185   1.741   3.880 -0.4470  0.4553  0.1189
 4322SOL    HW124602   4.276   1.719   3.896 -1.0056 -1.4635  0.6364
 4322SOL    HW224603   4.175   1.808   3.948  2.3542  1.0606 -0.0661
 4323SOL     OW24604   1.977   4.257  11.852 -0.3278  0.0571  0.4468
 4323SOL    HW124605   1.981   4.209  11.935 -0.2024 -0.0004  0.4067
 4323SOL    HW224606   2.031   4.210  11.789 -1.9198  1.9351 -2.3145
 4324SOL     OW24607   3.372   1.786   3.406 -0.1271  0.5758 -0.2910
 4324SOL    HW124608   3.390   1.853   3.472 -1.3253 -0.3273  0.9703
 4324SOL    HW224609   3.313   1.836   3.350  0.1251  1.1178 -0.0786
 4325SOL     OW24610   2.230   4.716   8.386 -0.1299  0.1762  0.0956
 4325SOL    HW124611   2.296   0.045   8.388  0.0012  0.0835 -1.3043
 4325SOL    HW224612   2.151   0.031   8.386 -2.3542 -3.0297  0.2583
 4326SOL     OW24613   3.538   2.380  11.908 -0.0711  0.3892  0.2314
 4326SOL    HW124614   3.470   2.375  11.975 -0.6048 -0.1996 -0.3525
 4326SOL    HW224615   3.481   2.396  11.832  1.0553 -0.2104 -0.7500
 4327SOL     OW24616   1.569   2.312   4.015 -0.9200  0.5940 -0.1430
 4327SOL    HW124617   1.626   2.385   3.991  2.7301 -2.2763 -0.2709
 4327SOL    HW224618   1.629   2.248   4.054 -1.3825  0.2794  0.0494
 4328SOL     OW24619   2.434   4.387  17.332 -0.3305 -0.1183 -0.2596
 4328SOL    HW124620   2.476   4.387  17.246  1.8008  1.9424  0.7839
 4328SOL    HW224621   2.373   4.460  17.324  0.7587  0.6133 -1.8824
 4329SOL     OW24622   3.373   3.150  15.088  0.4730 -0.3324  0.3734
 4329SOL    HW124623   3.386   3.198  15.006  2.0452  3.2522  2.7309
 4329SOL    HW224624   3.336   3.218  15.144 -1.1986 -1.1226  0.2271
 4330SOL     OW24625   0.597   4.282   1.647 -0.6387  0.2981  0.7514
 4330SOL    HW124626   0.507   4.277   1.613 -0.3288  1.6649 -0.3072
 4330SOL    HW224627   0.624   4.362   1.602  1.4449  0.4987  2.3817
 4331SOL     OW24628   3.645   1.427   9.198 -0.0328 -0.5065  0.2103
 4331SOL    HW124629   3.631   1.333   9.196  1.4412 -0.7047 -0.4841
 4331SOL    HW224630   3.676   1.441   9.109 -0.1378  1.4638  0.4793
 4332SOL     OW24631   1.944   1.278   5.373  0.3128  0.1856 -0.7204
 4332SOL    HW124632   1.973   1.320   5.454 -0.7044 -3.2415  1.4733
 4332SOL    HW224633   1.851   1.276   5.395 -0.0098  2.6557 -1.9705
 4333SOL     OW24634   4.634   0.839   1.245  0.2562 -0.1248 -0.3529
 4333SOL    HW124635   4.713   0.792   1.218  0.6206  1.3251 -1.8044
 4333SOL    HW224636   4.672   0.899   1.309  0.7907  3.6673 -4.2162
 4334SOL     OW24637   0.155   1.035   2.339 -0.4863 -0.0898 -0.2758
 4334SOL    HW124638   0.190   1.050   2.251  1.2975 -1.6882  0.1519
 4334SOL    HW224639   0.232   0.992   2.377 -0.1355  0.6092 -0.1894
 4335SOL     OW24640   4.183   1.988   9.005 -0.2903 -0.2845  0.2356
 4335SOL    HW124641   4.162   1.901   8.972 -0.0701 -0.0493 -0.5065
 4335SOL    HW224642   4.141   2.037   8.935 -0.1718 -0.6868 -0.1161
 4336SOL     OW24643   0.275   4.472  17.489  0.0403  0.1584  0.0543
 4336SOL    HW124644   0.367   4.455  17.506  0.5112  2.2429 -0.3228
 4336SOL    HW224645   0.273   4.475  17.393 -1.4753 -0.7185  0.0623
 4337SOL     OW24646   2.440   3.532   2.016  0.1758  0.4128 -0.5895
 4337SOL    HW124647   2.376   3.485   1.964  0.1089  2.5855 -2.4609
 4337SOL    HW224648   2.480   3.449   2.042  1.3729  1.6145  1.4611
 4338SOL     OW24649   3.642   0.292  12.895 -0.1308  0.3145 -0.6733
 4338SOL    HW124650   3.656   0.235  12.818 -0.5240  0.6404 -0.9868
 4338SOL    HW224651   3.692   0.361  12.852 -0.0269  1.7008  1.7195
 4339SOL     OW24652   3.158   0.835   6.730 -0.3182 -0.4431  0.1369
 4339SOL    HW124653   3.219   0.894   6.775 -0.7921  0.3874 -0.2934
 4339SOL    HW224654   3.074   0.860   6.769 -0.6532 -1.7485  0.2309
 4340SOL     OW24655   0.861   3.053   7.130  0.7212 -0.2140 -0.0060
 4340SOL    HW124656   0.818   3.126   7.085 -0.3135  0.4322  2.0274
 4340SOL    HW224657   0.923   3.105   7.182  0.8670  1.4428 -1.8202
 4341SOL     OW24658   4.608   0.447   5.043  0.1142 -0.2676 -0.0541
 4341SOL    HW124659   4.625   0.541   5.038  0.7503 -0.2879  1.6959
 4341SOL    HW224660   4.529   0.432   4.992  0.5367 -0.9129 -0.5173
 4342SOL     OW24661   4.213   4.558   6.877 -0.4773  0.1443  0.0557
 4342SOL    HW124662   4.132   4.542   6.829 -0.8412  2.7237 -0.2089
 4342SOL    HW224663   4.282   4.563   6.812  0.4887  1.4751  1.1859
 4343SOL     OW24664   0.265   1.243   3.059  0.2360 -0.0520 -0.3214
 4343SOL    HW124665   0.329   1.187   3.104  0.6234  1.5818  1.1862
 4343SOL    HW224666   0.269   1.313   3.125 -0.1579 -0.7988  0.5013
 4344SOL     OW24667   0.539   4.336   9.437 -0.1428 -0.0969  0.4203
 4344SOL    HW124668   0.448   4.342   9.409  0.0268  0.1421 -0.0898
 4344SOL    HW224669   0.544   4.246   9.405  0.5822 -0.0822  0.4809
 4345SOL     OW24670   0.861   1.711   4.396  0.7750  0.2245  0.0306
 4345SOL    HW124671   0.793   1.724   4.462  0.4451 -0.3822 -0.1879
 4345SOL    HW224672   0.805   1.736   4.323  0.9576  0.4369 -0.0349
 4346SOL     OW24673   1.343   4.068   3.963 -0.3561 -0.2790 -0.1668
 4346SOL    HW124674   1.345   4.015   3.883 -1.5033 -0.1610 -0.2641
 4346SOL    HW224675   1.277   4.133   3.940  0.8010 -0.1442 -3.0574
 4347SOL     OW24676   3.501   4.300   7.923 -0.2727  0.4982  0.1445
 4347SOL    HW124677   3.555   4.222   7.925 -0.3214  0.4429 -0.9745
 4347SOL    HW224678   3.528   4.345   8.004 -1.0067  2.4437 -0.6800
 4348SOL     OW24679   3.423   2.770  17.324  0.0682 -0.3894  0.1824
 4348SOL    HW124680   3.498   2.737  17.373  0.7729 -0.0220 -0.6567
 4348SOL    HW224681   3.421   2.712  17.248  0.8565 -0.5755  0.3076
 4349SOL     OW24682   4.305   1.088   4.800 -0.5077  0.0700 -0.3012
 4349SOL    HW124683   4.315   0.996   4.775  2.3565  0.4297 -0.4860
 4349SOL    HW224684   4.342   1.088   4.888  0.8232 -0.9666 -0.8723
 4350SOL     OW24685   1.617   1.602   3.570 -0.5558  0.8365  0.0925
 4350SOL    HW124686   1.631   1.697   3.570  1.1716  0.5948 -0.8602
 4350SOL    HW224687   1.630   1.582   3.663  1.5836 -0.1521 -0.4123
 4351SOL     OW24688   1.301   0.423   8.377  0.7297 -0.3686  0.9144
 4351SOL    HW124689   1.265   0.498   8.330 -1.2686 -2.3433 -0.7453
 4351SOL    HW224690   1.316   0.364   8.303  1.4900  2.7616 -1.3850
 4352SOL     OW24691   4.588   3.585   8.075 -0.2798 -0.1848 -0.2612
 4352SOL    HW124692   4.649   3.569   8.147 -0.8510  2.0386  0.7268
 4352SOL    HW224693   4.582   3.681   8.082  2.0608 -0.1203  0.7068
 4353SOL     OW24694   4.385   0.345   4.450 -0.2225  0.4772 -0.2929
 4353SOL    HW124695   4.313   0.299   4.493  1.3574 -0.7616  1.0275
 4353SOL    HW224696   4.364   0.320   4.360  0.3941 -2.2778  0.3332
 4354SOL     OW24697   4.106   2.024   6.736 -0.1940 -0.4041 -0.1419
 4354SOL    HW124698   4.175   2.090   6.722 -1.0277  0.0047 -2.3954
 4354SOL    HW224699   4.062   2.040   6.652 -0.1060 -0.0728 -0.1257
 4355SOL     OW24700   1.526   2.392   2.279 -0.6177 -0.1816 -0.5024
 4355SOL    HW124701   1.603   2.436   2.242  1.0283 -1.2785  1.6555
 4355SOL    HW224702   1.569   2.307   2.292 -0.7381 -0.2901 -0.8066
 4356SOL     OW24703   3.962   1.373   1.890 -0.1169 -0.0736 -0.5298
 4356SOL    HW124704   3.908   1.308   1.846 -3.0016  2.8205 -1.2133
 4356SOL    HW224705   3.928   1.371   1.980  0.2060 -3.0007 -0.4901
 4357SOL     OW24706   0.152   4.081   1.262 -0.2762 -0.5608 -0.1486
 4357SOL    HW124707   0.096   4.087   1.339 -0.7926  0.0780 -0.5746
 4357SOL    HW224708   0.183   4.171   1.271 -1.0578 -0.2449 -0.6062
 4358SOL     OW24709   3.131   0.535   5.515  0.0565  0.1783 -0.2730
 4358SOL    HW124710   3.067   0.602   5.535 -0.7457 -0.4414 -0.7507
 4358SOL    HW224711   3.146   0.504   5.604 -1.7287 -0.3199 -0.1399
 4359SOL     OW24712   3.554   1.272   0.444 -0.5441  0.2068  0.1197
 4359SOL    HW124713   3.467   1.267   0.406 -0.2004  0.8498 -0.7600
 4359SOL    HW224714   3.541   1.203   0.509 -0.5199 -0.3333 -0.4494
 4360SOL     OW24715   0.830   3.593   4.662  0.6333  0.2980 -0.5976
 4360SOL    HW124716   0.865   3.531   4.598 -0.8114  0.4340 -1.5322
 4360SOL    HW224717   0.830   3.674   4.611 -1.5277 -1.0362 -2.6832
 4361SOL     OW24718   4.649   4.664   5.874 -0.2206 -0.5292  0.3140
 4361SOL    HW124719   4.722   4.684   5.816 -0.3731 -0.2083  0.2289
 4361SOL    HW224720   4.648   0.001   5.932 -0.4780  0.2946 -0.7675
 4362SOL     OW24721   2.238   4.603   8.935 -0.2165  0.3581  0.7656
 4362SOL    HW124722   2.308   4.549   8.972  0.8306 -0.8667 -2.9494
 4362SOL    HW224723   2.248   4.681   8.990  1.2713  1.0027 -0.4160
 4363SOL     OW24724   0.632   3.903   9.609  0.3542 -0.2166  0.1640
 4363SOL    HW124725   0.583   3.827   9.579  1.1914 -1.0081  0.8192
 4363SOL    HW224726   0.588   3.922   9.691  2.4811  0.3752  1.1847
 4364SOL     OW24727   2.357   1.511   3.673  0.3391 -0.6446 -0.1483
 4364SOL    HW124728   2.382   1.428   3.715  2.3511 -0.0785 -0.2246
 4364SOL    HW224729   2.325   1.488   3.586  0.5397  0.3015 -0.4690
 4365SOL     OW24730   2.607   0.956   4.695  0.5219  0.3514 -0.0181
 4365SOL    HW124731   2.617   0.936   4.602 -0.0728 -1.8269  0.3690
 4365SOL    HW224732   2.540   0.889   4.707 -0.8083  1.5144 -0.9780
 4366SOL     OW24733   3.466   1.718  13.419  0.0088 -0.1339  0.1381
 4366SOL    HW124734   3.388   1.715  13.473  0.2038  3.3001  0.6192
 4366SOL    HW224735   3.528   1.766  13.474  0.5228 -1.5365  0.7563
 4367SOL     OW24736   4.300   2.128   8.598  0.0444  0.2670  0.4199
 4367SOL    HW124737   4.286   2.173   8.515 -1.9689 -1.2792 -0.0883
 4367SOL    HW224738   4.228   2.067   8.614 -1.3827  1.9574  0.4131
 4368SOL     OW24739   0.512   4.692   0.617 -0.0948  0.2946  0.0613
 4368SOL    HW124740   0.588   4.637   0.599  0.0870  0.2994  0.7959
 4368SOL    HW224741   0.445   4.632   0.585 -0.0082  0.5478 -0.5906
 4369SOL     OW24742   0.704   4.022   8.516  0.2409 -0.6661 -0.1241
 4369SOL    HW124743   0.739   3.974   8.441  0.9748 -0.5777  0.1628
 4369SOL    HW224744   0.754   4.103   8.506  0.0575 -0.4613  0.5738
 4370SOL     OW24745   3.935   2.803  13.306  0.4291 -0.1579 -0.1630
 4370SOL    HW124746   3.975   2.870  13.362  1.6674 -1.4555  0.5041
 4370SOL    HW224747   3.869   2.855  13.261  1.2811 -0.1681 -1.4201
 4371SOL     OW24748   3.701   2.497   6.732  0.2698  0.0517  0.3630
 4371SOL    HW124749   3.712   2.584   6.694  1.8398  0.0524  0.8370
 4371SOL    HW224750   3.775   2.443   6.705 -0.7315 -0.8805 -0.5720
 4372SOL     OW24751   3.368   0.547  10.155 -0.4733 -0.3444 -0.2100
 4372SOL    HW124752   3.364   0.469  10.211 -2.2305 -1.1769 -1.5282
 4372SOL    HW224753   3.280   0.582  10.145 -0.3293 -0.3936 -1.6798
 4373SOL     OW24754   3.123   0.187   4.533 -0.5636  0.2738  0.0342
 4373SOL    HW124755   3.115   0.110   4.477 -1.6704  0.5120 -0.1347
 4373SOL    HW224756   3.186   0.154   4.598  2.0050  1.9006 -1.6394
 4374SOL     OW24757   0.593   0.947  14.962 -0.2296 -0.0565 -0.2535
 4374SOL    HW124758   0.653   0.913  15.029  0.0965  0.2655 -0.3862
 4374SOL    HW224759   0.625   0.901  14.885 -2.5391 -1.6186 -0.2958
 4375SOL     OW24760   2.228   1.543   7.288 -0.4152  0.1490 -0.1568
 4375SOL    HW124761   2.310   1.593   7.287  0.2884 -1.0264 -1.1233
 4375SOL    HW224762   2.243   1.498   7.372  2.4229  3.2167  1.0043
 4376SOL     OW24763   2.017   1.183   6.635  0.2043  0.0580 -0.3335
 4376SOL    HW124764   2.069   1.109   6.666  0.3482 -0.3842 -1.6366
 4376SOL    HW224765   1.933   1.182   6.683  0.4323  0.3344  0.0732
 4377SOL     OW24766   3.768   0.283  15.315 -0.1496  0.4173 -0.2950
 4377SOL    HW124767   3.828   0.253  15.383  0.4809  1.5124 -0.3692
 4377SOL    HW224768   3.693   0.224  15.327  0.4513  0.0349  1.5117
 4378SOL     OW24769   2.530   1.102  17.121 -0.4099 -0.1394 -0.0485
 4378SOL    HW124770   2.530   1.186  17.075  1.4973  0.1198  0.4309
 4378SOL    HW224771   2.620   1.083  17.145 -1.2575 -4.0542  0.0312
 4379SOL     OW24772   3.237   3.175   1.174 -0.3585 -0.3856 -0.0982
 4379SOL    HW124773   3.224   3.086   1.207 -0.0682 -1.2113 -2.2462
 4379SOL    HW224774   3.287   3.159   1.094  0.6288  0.3711  0.3645
 4380SOL     OW24775   2.569   1.958   7.709 -0.2064 -0.3296  0.1543
 4380SOL    HW124776   2.646   2.015   7.704 -0.6960  0.2200 -0.9340
 4380SOL    HW224777   2.551   1.964   7.616 -0.9604  1.8539  0.4551
 4381SOL     OW24778   4.261   2.863   4.043 -0.1602  0.4465 -0.1010
 4381SOL    HW124779   4.339   2.910   4.073  0.5991 -0.7326 -0.2075
 4381SOL    HW224780   4.213   2.928   3.992 -3.1554 -1.5466  0.1820
 4382SOL     OW24781   1.973   4.554   6.725 -0.0222  0.3125  0.2786
 4382SOL    HW124782   1.959   4.460   6.730  0.9182  0.3012  2.8051
 4382SOL    HW224783   1.942   4.581   6.638  1.0389 -3.0781 -1.1431
 4383SOL     OW24784   3.896   4.659   3.447  0.3220  0.1178  0.8420
 4383SOL    HW124785   3.989   4.679   3.435  0.0832 -0.5869 -2.2715
 4383SOL    HW224786   3.866   4.733   3.500  0.8931  1.0506 -0.1266
 4384SOL     OW24787   2.865   2.353   5.999 -0.7156 -0.1807 -0.0663
 4384SOL    HW124788   2.896   2.275   5.952 -1.0917 -0.0883 -0.4670
 4384SOL    HW224789   2.773   2.330   5.990 -0.4981 -1.7440  1.6252
 4385SOL     OW24790   3.052   1.678   5.783 -0.6728 -0.0055 -0.2911
 4385SOL    HW124791   3.135   1.679   5.735 -0.7346 -2.2422 -0.4300
 4385SOL    HW224792   3.016   1.601   5.740 -1.6034 -0.5536  1.5071
 4386SOL     OW24793   1.299   0.488   1.565 -0.2787 -0.0839 -0.1940
 4386SOL    HW124794   1.300   0.538   1.646  1.4378 -0.7783  0.2315
 4386SOL    HW224795   1.326   0.549   1.497 -2.0929  1.6393  0.6379
 4387SOL     OW24796   1.883   3.276   8.172  0.4166  0.2057  0.4327
 4387SOL    HW124797   1.842   3.218   8.238  1.1867 -0.0425  0.6909
 4387SOL    HW224798   1.938   3.338   8.220  0.1413  1.5233 -0.9639
 4388SOL     OW24799   3.913   1.554   4.065 -0.0394 -0.1320 -0.1388
 4388SOL    HW124800   3.820   1.543   4.087  0.3704  1.1064  2.1640
 4388SOL    HW224801   3.939   1.597   4.147  1.1442  1.1452 -1.1705
 4389SOL     OW24802   4.552   0.513  17.395  0.1545 -0.4656 -0.1786
 4389SOL    HW124803   4.588   0.587  17.346  1.3185 -0.1744  1.1279
 4389SOL    HW224804   4.583   0.537  17.482  1.3804  0.4507 -0.8872
 4390SOL     OW24805   4.157   1.546   6.509  0.2965  0.0801  0.2624
 4390SOL    HW124806   4.247   1.514   6.503  1.0544  2.1380  0.5548
 4390SOL    HW224807   4.120   1.479   6.567  2.0208 -0.9074  0.2072
 4391SOL     OW24808   3.219   2.931   2.531  0.1833 -0.1438  0.1914
 4391SOL    HW124809   3.151   2.896   2.588  0.7755 -2.0530 -0.2554
 4391SOL    HW224810   3.288   2.878   2.571  0.1195 -0.7770 -0.5395
 4392SOL     OW24811   0.883   3.712   6.261 -0.2297 -0.6115  0.5515
 4392SOL    HW124812   0.874   3.619   6.239  1.3382 -0.9492  1.3528
 4392SOL    HW224813   0.865   3.717   6.355  0.0899  0.6950  0.5434
 4393SOL     OW24814   1.357   3.026   3.181  0.1626 -0.7554 -0.2442
 4393SOL    HW124815   1.439   3.038   3.229 -0.8255  0.4776  1.1591
 4393SOL    HW224816   1.345   3.112   3.140 -0.1263 -0.1473  1.0807
 4394SOL     OW24817   1.005   1.060   4.168  0.0381 -0.9847  0.4619
 4394SOL    HW124818   1.004   1.129   4.235 -0.0661  0.6340 -1.2327
 4394SOL    HW224819   0.982   0.981   4.217 -0.9444 -0.7771  0.3402
 4395SOL     OW24820   3.751   2.005   0.013 -0.0411 -0.1635  0.3944
 4395SOL    HW124821   3.747   2.088   0.060 -1.7464  0.7755 -1.4746
 4395SOL    HW224822   3.662   1.974   0.028 -1.0433  1.7865 -1.6891
 4396SOL     OW24823   0.410   3.934   9.180 -0.1466  0.0525  0.6672
 4396SOL    HW124824   0.368   3.850   9.198  1.2328 -0.8455 -0.3341
 4396SOL    HW224825   0.447   3.920   9.093 -0.2787 -0.4023  0.6871
 4397SOL     OW24826   0.514   3.022   9.414 -0.3482  0.4690  0.1950
 4397SOL    HW124827   0.471   2.944   9.378 -0.0291 -0.4155  1.7213
 4397SOL    HW224828   0.450   3.088   9.389 -0.8636 -0.5479 -1.1903
 4398SOL     OW24829   2.443   1.270   0.379  0.0236  0.0563 -0.9123
 4398SOL    HW124830   2.361   1.283   0.426 -0.4733  0.9580 -2.0319
 4398SOL    HW224831   2.422   1.290   0.287 -1.1275  1.2876 -0.3877
 4399SOL     OW24832   2.746   2.696  10.968 -0.2831  0.9084 -0.6879
 4399SOL    HW124833   2.753   2.657  11.055  0.1892 -1.2403 -1.6990
 4399SOL    HW224834   2.651   2.700  10.965 -0.4561 -2.3369  0.9127
 4400SOL     OW24835   3.418   1.449   1.398  0.3616  0.0961 -0.7336
 4400SOL    HW124836   3.412   1.361   1.436  1.2232  0.9595  1.3766
 4400SOL    HW224837   3.333   1.478   1.431 -0.8173 -4.5583  0.3607
 4401SOL     OW24838   2.085   1.048  11.678  0.4398 -0.2604 -0.4078
 4401SOL    HW124839   2.036   1.080  11.754  1.8506 -0.1719  0.4560
 4401SOL    HW224840   2.117   0.969  11.721  0.8856 -0.4907 -1.1604
 4402SOL     OW24841   4.431   1.758  17.278 -0.0430  0.1476 -0.3632
 4402SOL    HW124842   4.369   1.729  17.344  1.4480 -1.2737  0.4301
 4402SOL    HW224843   4.435   1.854  17.279 -1.2350  0.1896  0.0760
 4403SOL     OW24844   2.677   2.505   6.327 -0.0079  0.0880 -0.4478
 4403SOL    HW124845   2.743   2.452   6.372 -1.0340 -0.6116  0.2144
 4403SOL    HW224846   2.618   2.521   6.401  0.1082  1.7659 -0.7039
 4404SOL     OW24847   0.942   4.361   2.034 -0.2257 -0.4734  0.1747
 4404SOL    HW124848   0.898   4.306   1.969 -0.4343 -0.3361  0.1978
 4404SOL    HW224849   0.898   4.442   2.009 -1.1261 -0.8229  0.6524
 4405SOL     OW24850   0.169   1.592   4.817  0.3195  0.0132 -0.1138
 4405SOL    HW124851   0.165   1.517   4.877  0.2841  1.0289  1.1374
 4405SOL    HW224852   0.101   1.650   4.851  0.0172 -1.8469  2.4916
 4406SOL     OW24853   3.367   1.034   9.673 -0.0785  0.3868  0.3482
 4406SOL    HW124854   3.453   0.992   9.670  1.1446  3.1084 -2.6833
 4406SOL    HW224855   3.392   1.115   9.719 -1.4840  0.0947  1.5916
 4407SOL     OW24856   3.230   0.867   0.227  0.1561  0.0576 -0.3215
 4407SOL    HW124857   3.147   0.854   0.272  0.1088  0.4571 -0.2920
 4407SOL    HW224858   3.289   0.811   0.277 -0.3387  0.4486  0.6870
 4408SOL     OW24859   1.524   3.721   6.111 -0.1858 -0.2108  0.4605
 4408SOL    HW124860   1.511   3.735   6.017 -1.0434 -1.0340  0.4591
 4408SOL    HW224861   1.503   3.810   6.139 -1.9828 -0.5453  0.2079
 4409SOL     OW24862   1.349   3.911   3.200  0.6481 -0.2851 -0.2404
 4409SOL    HW124863   1.295   3.861   3.261  0.2641  0.3297 -0.0701
 4409SOL    HW224864   1.402   3.847   3.152  1.1889  0.1453 -0.2238
 4410SOL     OW24865   4.116   3.074   1.501  0.1733  0.6503 -0.1691
 4410SOL    HW124866   4.199   3.035   1.474  0.2771 -0.3138  1.5628
 4410SOL    HW224867   4.060   3.002   1.530  2.7069 -1.2373  0.0035
 4411SOL     OW24868   3.990   0.719   3.241  0.2558  0.7160 -0.2271
 4411SOL    HW124869   4.055   0.739   3.308  3.6335 -1.5120 -2.8118
 4411SOL    HW224870   4.034   0.647   3.196 -0.3602 -0.7570  1.5653
 4412SOL     OW24871   1.756   4.137  14.123 -0.0654 -0.3459  0.1093
 4412SOL    HW124872   1.725   4.048  14.139  1.9239 -0.7501  1.7022
 4412SOL    HW224873   1.761   4.173  14.211  0.2546 -0.3319  0.0850
 4413SOL     OW24874   1.401   1.051   3.469  0.0952  0.0160 -0.1673
 4413SOL    HW124875   1.328   1.040   3.530 -0.5087  2.9979 -0.3230
 4413SOL    HW224876   1.468   0.989   3.496  1.3909  0.6455 -1.9193
 4414SOL     OW24877   0.589   4.728   4.311 -0.3965 -0.4174  0.2060
 4414SOL    HW124878   0.626   0.009   4.225 -0.8461  0.8822  0.3327
 4414SOL    HW224879   0.613   0.070   4.353  0.0168 -0.7627  0.6340
 4415SOL     OW24880   1.081   2.501  10.022  0.5202  0.2885  0.1790
 4415SOL    HW124881   0.995   2.523   9.986  0.5818  1.3944  0.7045
 4415SOL    HW224882   1.137   2.570   9.986 -1.4225  0.9429 -1.5950
 4416SOL     OW24883   4.185   2.368   4.184  0.0502  0.1179 -0.1069
 4416SOL    HW124884   4.266   2.413   4.158 -1.0738  0.9754 -2.1000
 4416SOL    HW224885   4.137   2.445   4.214  1.8288  1.5361 -0.8615
 4417SOL     OW24886   4.240   4.546   2.654 -0.2085 -0.2937  0.0827
 4417SOL    HW124887   4.333   4.565   2.644  0.2674 -1.7129  1.8129
 4417SOL    HW224888   4.229   4.510   2.566  0.7340  1.9801 -0.9479
 4418SOL     OW24889   1.235   3.304   9.507 -0.1766  0.4308 -0.3147
 4418SOL    HW124890   1.196   3.385   9.474  0.6369  1.1440  0.4595
 4418SOL    HW224891   1.169   3.235   9.497 -1.2980  1.1032  2.2260
 4419SOL     OW24892   3.341   4.723   5.965 -0.2002  0.1147  0.2957
 4419SOL    HW124893   3.285   4.663   5.915  1.0098 -0.1624 -0.7226
 4419SOL    HW224894   3.391   4.665   6.022 -1.8280 -0.3108  1.2953
 4420SOL     OW24895   0.940   1.995  12.059 -0.4075 -0.0769  0.4429
 4420SOL    HW124896   0.872   1.933  12.085 -2.1159  0.6969 -2.1574
 4420SOL    HW224897   0.892   2.047  11.995  1.0399  1.6047  0.7341
 4421SOL     OW24898   1.027   1.754   6.306  0.1041  0.0430  0.3460
 4421SOL    HW124899   1.070   1.801   6.377  0.2851 -0.5173  0.6091
 4421SOL    HW224900   0.934   1.774   6.322 -0.5282 -2.6010 -0.1166
 4422SOL     OW24901   4.043   0.425   1.814  0.3361 -0.6254 -0.2399
 4422SOL    HW124902   4.062   0.344   1.767 -0.4832 -0.8504 -0.1736
 4422SOL    HW224903   4.071   0.416   1.905 -0.9159  1.8002  0.3653
 4423SOL     OW24904   1.124   2.442   2.020 -0.7956 -0.0267  0.1803
 4423SOL    HW124905   1.217   2.422   2.011 -0.8443  0.4224 -1.3859
 4423SOL    HW224906   1.125   2.451   2.115 -0.1629  0.2896  0.1437
 4424SOL     OW24907   0.497   1.595   5.376 -0.2072 -0.5068 -0.2618
 4424SOL    HW124908   0.426   1.643   5.420  0.5969 -0.3801  0.8903
 4424SOL    HW224909   0.471   1.507   5.405 -0.0308 -0.9159 -1.3646
 4425SOL     OW24910   1.007   4.295  13.541 -0.5311 -0.1124 -0.0670
 4425SOL    HW124911   0.920   4.257  13.533  0.6631 -2.4899 -1.8554
 4425SOL    HW224912   1.012   4.296  13.636 -1.5403  0.2982 -0.0109
 4426SOL     OW24913   1.713   0.833   5.037  0.2485 -0.0130 -0.5957
 4426SOL    HW124914   1.758   0.834   5.121  2.3403 -0.0653 -1.7259
 4426SOL    HW224915   1.671   0.747   5.037 -2.3256  1.2489  0.9466
 4427SOL     OW24916   3.577   0.510  13.213  0.0486  0.6122 -0.1930
 4427SOL    HW124917   3.501   0.567  13.224  0.1008  0.3457  1.5549
 4427SOL    HW224918   3.655   0.565  13.211 -0.0451  0.7805  0.7958
 4428SOL     OW24919   1.491   0.320  10.603 -0.5216  0.3888  0.3565
 4428SOL    HW124920   1.488   0.247  10.540  2.1684  0.4195  0.1726
 4428SOL    HW224921   1.469   0.393  10.545 -2.2533  0.2087  0.7887
 4429SOL     OW24922   3.745   4.042   9.144 -0.3722  0.1158  0.2576
 4429SOL    HW124923   3.831   4.017   9.178 -0.7094  2.0437  2.5166
 4429SOL    HW224924   3.773   4.036   9.053 -1.6140 -0.0709 -0.1031
 4430SOL     OW24925   3.841   4.004   3.751  0.3533 -0.7897 -0.4259
 4430SOL    HW124926   3.787   4.074   3.713 -1.8884 -1.9855  0.5616
 4430SOL    HW224927   3.777   3.945   3.791  0.8774  0.0825  1.6563
 4431SOL     OW24928   2.491   3.268   2.122  0.1089  0.3372 -0.5459
 4431SOL    HW124929   2.531   3.220   2.194  0.2640  0.2308 -0.7025
 4431SOL    HW224930   2.421   3.311   2.171 -0.8036 -1.2464 -0.4895
 4432SOL     OW24931   0.098   2.052   4.605  0.0100  0.3616  0.0528
 4432SOL    HW124932   0.090   2.064   4.700 -1.4954 -2.2321  0.2559
 4432SOL    HW224933   0.166   1.986   4.590 -2.9308 -2.7160  0.1577
 4433SOL     OW24934   1.820   1.349   4.183 -0.1630 -0.2884  0.1526
 4433SOL    HW124935   1.794   1.441   4.179  0.6634 -0.1209 -1.6320
 4433SOL    HW224936   1.843   1.339   4.275  0.6590  1.3439  0.1257
 4434SOL     OW24937   2.971   0.546   4.090  0.8478  0.0016 -0.1679
 4434SOL    HW124938   2.892   0.494   4.109  1.1975 -1.0374 -1.5677
 4434SOL    HW224939   3.022   0.523   4.168  1.0215  0.2287 -0.2162
 4435SOL     OW24940   2.928   3.966  13.851  0.1289  0.1055  0.5168
 4435SOL    HW124941   2.865   4.018  13.801  0.7723 -0.7867 -1.2100
 4435SOL    HW224942   2.892   3.879  13.836  0.0559  0.3048 -0.4655
 4436SOL     OW24943   2.011   3.820   3.141  0.1418 -0.0900  0.2467
 4436SOL    HW124944   2.091   3.824   3.192 -0.1880  1.3910  0.6533
 4436SOL    HW224945   1.997   3.913   3.122  1.1682  0.0452  0.1628
 4437SOL     OW24946   1.215   0.438   6.242 -0.2988  0.6187  0.1243
 4437SOL    HW124947   1.180   0.360   6.284  0.9561  1.5267  2.8919
 4437SOL    HW224948   1.200   0.430   6.148  0.5303 -1.4540  0.1677
 4438SOL     OW24949   0.427   3.359   4.070 -0.5341 -0.0196 -0.4214
 4438SOL    HW124950   0.459   3.438   4.027  0.5946 -1.0193 -1.4224
 4438SOL    HW224951   0.442   3.368   4.164  1.5686 -1.6031 -0.6138
 4439SOL     OW24952   3.477   1.587  16.223  0.1361 -0.2376  0.4533
 4439SOL    HW124953   3.505   1.575  16.133 -1.4824 -1.4143  0.0874
 4439SOL    HW224954   3.488   1.501  16.265 -0.1132 -0.4186  0.1506
 4440SOL     OW24955   3.362   0.939  13.646 -0.6620  0.7032  0.2921
 4440SOL    HW124956   3.275   0.924  13.609  0.2559  0.1885 -1.6511
 4440SOL    HW224957   3.386   0.849  13.665 -1.6693  0.8297  2.1034
 4441SOL     OW24958   1.074   4.691  11.177 -0.0037 -0.0792  0.3519
 4441SOL    HW124959   1.147   4.694  11.238  0.3342  0.2692 -0.0690
 4441SOL    HW224960   1.090   0.024  11.117 -1.3813 -0.9429 -1.0549
 4442SOL     OW24961   3.518   0.458  14.828 -0.7187 -0.1591 -0.3493
 4442SOL    HW124962   3.518   0.459  14.923  0.8664 -0.8662 -0.3374
 4442SOL    HW224963   3.552   0.369  14.822  0.0050  0.2183 -2.1073
 4443SOL     OW24964   1.489   2.094   7.402  0.2489 -0.5524  0.0719
 4443SOL    HW124965   1.433   2.037   7.351 -2.1417 -0.2263  2.3314
 4443SOL    HW224966   1.575   2.076   7.365  0.3725 -0.2278  0.1993
 4444SOL     OW24967   4.136   1.037  11.850  0.1546 -0.5068 -0.1324
 4444SOL    HW124968   4.173   1.059  11.935  0.4240 -0.6200 -0.2202
 4444SOL    HW224969   4.179   1.087  11.780 -0.4825  2.0760  1.3347
 4445SOL     OW24970   3.509   2.990   6.211 -0.4945 -0.3212  0.8633
 4445SOL    HW124971   3.534   2.924   6.276 -1.0558 -1.8301 -0.4346
 4445SOL    HW224972   3.442   3.032   6.265 -1.2496 -0.3456 -0.0580
 4446SOL     OW24973   3.713   3.515   2.863  0.1385  0.3434  0.2745
 4446SOL    HW124974   3.797   3.526   2.907  0.4216 -0.4154 -0.0776
 4446SOL    HW224975   3.721   3.585   2.798  1.1851  1.0965  1.2145
 4447SOL     OW24976   2.792   3.202   9.083  1.0717 -0.4183  0.3987
 4447SOL    HW124977   2.884   3.192   9.060  0.6234 -3.5435 -0.0832
 4447SOL    HW224978   2.766   3.255   9.007  1.9717 -1.3536 -0.5602
 4448SOL     OW24979   0.612   2.483  11.211  0.3709  0.3488 -0.4696
 4448SOL    HW124980   0.544   2.428  11.172 -2.2050 -0.4104  5.0760
 4448SOL    HW224981   0.542   2.547  11.224  0.0783 -0.1890  0.5780
 4449SOL     OW24982   1.557   0.799   4.381  0.6346  0.1193 -0.0254
 4449SOL    HW124983   1.493   0.792   4.453  1.3020 -0.6147  0.4964
 4449SOL    HW224984   1.552   0.706   4.360  1.8476  0.5712 -2.2856
 4450SOL     OW24985   0.105   1.189  15.115 -0.3014 -0.1099 -0.3183
 4450SOL    HW124986   0.055   1.271  15.117 -1.2441 -0.6845 -0.1843
 4450SOL    HW224987   0.091   1.155  15.203 -3.6666  0.2212 -0.7180
 4451SOL     OW24988   4.013   3.760  10.223  0.1363 -0.0233 -0.4761
 4451SOL    HW124989   4.014   3.821  10.296 -1.7527  2.9495 -2.9026
 4451SOL    HW224990   4.090   3.799  10.183  0.9945 -2.7485 -1.4738
 4452SOL     OW24991   1.643   1.888   2.009  0.3532  0.1101  0.7855
 4452SOL    HW124992   1.724   1.871   1.960  0.5913  0.9559  0.8835
 4452SOL    HW224993   1.584   1.814   1.993  0.3985  0.4204 -0.8075
 4453SOL     OW24994   2.518   3.945   6.016 -0.2288 -0.2167 -0.3830
 4453SOL    HW124995   2.498   4.029   5.975 -1.1994  1.4935  3.5900
 4453SOL    HW224996   2.429   3.912   6.033 -0.8360  1.4631 -0.3001
 4454SOL     OW24997   2.795   0.211   3.336  0.0665  0.1526 -0.1813
 4454SOL    HW124998   2.790   0.257   3.253  2.0788 -0.3904 -0.6121
 4454SOL    HW224999   2.703   0.193   3.354  0.6091 -1.6553  0.8249
 4455SOL     OW25000   4.421   2.898   0.116  0.2662  0.2506  0.2048
 4455SOL    HW125001   4.490   2.843   0.078 -0.5456  1.1946 -2.6230
 4455SOL    HW225002   4.465   2.983   0.110 -0.6911  0.7708  0.6309
 4456SOL     OW25003   4.591   3.833  16.009 -0.3207 -0.1050  0.3279
 4456SOL    HW125004   4.660   3.772  15.983 -0.6075 -0.6139  0.7733
 4456SOL    HW225005   4.639   3.881  16.076 -0.7717  0.0279  0.5560
 4457SOL     OW25006   3.188   3.383   6.308  0.0782 -0.1511  0.0314
 4457SOL    HW125007   3.212   3.470   6.276 -0.9567 -0.1335 -0.6893
 4457SOL    HW225008   3.105   3.407   6.348 -0.2902 -2.5883  0.7525
 4458SOL     OW25009   4.690   0.062   4.100  0.1691 -0.5304  0.7622
 4458SOL    HW125010   4.654   0.078   4.013 -0.3497 -1.2049  0.8572
 4458SOL    HW225011   4.693   4.706   4.105 -1.0883 -0.5495  1.2552
 4459SOL     OW25012   3.390   3.353   5.533 -0.3846 -0.3292 -0.1066
 4459SOL    HW125013   3.398   3.410   5.457 -0.2823 -0.4956 -0.2197
 4459SOL    HW225014   3.371   3.416   5.603  3.7379  0.3527  0.4360
 4460SOL     OW25015   0.683   2.519   8.474 -0.5176 -0.4609  0.1679
 4460SOL    HW125016   0.693   2.437   8.521  0.9391  0.6043  1.7013
 4460SOL    HW225017   0.658   2.581   8.542  0.0154 -0.1332  0.0633
 4461SOL     OW25018   0.426   0.310   6.929  0.2007  0.0947 -0.1801
 4461SOL    HW125019   0.436   0.297   7.024  0.9867  1.3533 -0.0908
 4461SOL    HW225020   0.502   0.261   6.897  1.2407 -0.5223  3.2246
 4462SOL     OW25021   1.361   3.693   0.962  0.5262 -0.3084 -0.0249
 4462SOL    HW125022   1.341   3.616   0.909  0.2197  0.5007 -1.0709
 4462SOL    HW225023   1.330   3.766   0.910  0.1159  0.5119  1.3783
 4463SOL     OW25024   3.628   0.378  14.269 -0.4554 -0.1642  0.0828
 4463SOL    HW125025   3.691   0.449  14.282  2.1888 -1.7854 -4.0273
 4463SOL    HW225026   3.683   0.308  14.234 -0.1332 -1.0156  2.3128
 4464SOL     OW25027   1.548   3.590  15.907  0.3658 -0.3660 -0.5615
 4464SOL    HW125028   1.606   3.666  15.904 -0.4254  0.3217  1.7882
 4464SOL    HW225029   1.613   3.530  15.944 -0.5045 -0.7818  0.2855
 4465SOL     OW25030   2.802   3.503   4.372 -0.0205 -0.1059 -0.0667
 4465SOL    HW125031   2.736   3.475   4.436  2.1978 -0.9486  1.8618
 4465SOL    HW225032   2.835   3.425   4.328  0.7277  0.8484 -1.1699
 4466SOL     OW25033   0.211   1.721  16.629 -0.3527  0.5657  0.3772
 4466SOL    HW125034   0.276   1.779  16.588 -1.5792  0.6096 -1.4950
 4466SOL    HW225035   0.248   1.639  16.595 -0.2109  1.2033 -1.0007
 4467SOL     OW25036   3.360   2.447  13.569 -0.4820 -0.0074  0.0520
 4467SOL    HW125037   3.406   2.530  13.558  0.6630 -0.5151  1.0430
 4467SOL    HW225038   3.280   2.465  13.619 -2.5050 -2.2820 -2.3545
 4468SOL     OW25039   0.781   4.582   5.768 -0.8606 -0.2442 -0.0306
 4468SOL    HW125040   0.810   4.649   5.831  0.0020 -0.6919  0.0480
 4468SOL    HW225041   0.724   4.643   5.722 -0.7491 -0.5027 -0.5094
 4469SOL     OW25042   4.377   3.583   4.504 -0.2542 -0.1312  0.2545
 4469SOL    HW125043   4.380   3.629   4.420  2.9288  2.5588  1.8615
 4469SOL    HW225044   4.336   3.647   4.562 -0.8744 -0.6521  0.4024
 4470SOL     OW25045   3.399   0.505  10.831 -0.2420  1.2147  0.2196
 4470SOL    HW125046   3.448   0.447  10.773 -1.7126  0.3009 -0.1050
 4470SOL    HW225047   3.437   0.587  10.798  0.4986  1.6457  2.1502
 4471SOL     OW25048   0.338   0.866  12.703 -0.2586  0.2382  0.4538
 4471SOL    HW125049   0.354   0.808  12.777 -0.0028 -0.5220 -0.2030
 4471SOL    HW225050   0.344   0.951  12.747 -1.2474  1.2401 -1.3140
 4472SOL     OW25051   3.319   2.011   0.191  0.8652  0.4479  0.0451
 4472SOL    HW125052   3.280   2.005   0.279  2.7929 -1.4837  0.7929
 4472SOL    HW225053   3.327   2.105   0.178  0.5102  0.1203 -2.5067
 4473SOL     OW25054   0.080   4.306   5.363 -0.3311  0.1227 -0.4514
 4473SOL    HW125055   0.027   4.279   5.289  0.2078 -1.0481 -0.4029
 4473SOL    HW225056   0.013   4.356   5.410 -0.7826 -0.6297 -0.2961
 4474SOL     OW25057   3.120   4.396   5.501  0.1360 -0.9415 -0.1461
 4474SOL    HW125058   3.126   4.372   5.408 -2.7808  3.7919 -1.5673
 4474SOL    HW225059   3.183   4.345   5.551  0.8790  2.1858  2.1342
 4475SOL     OW25060   3.006   4.173   3.353 -0.1295 -0.0929  0.2037
 4475SOL    HW125061   3.071   4.241   3.335  1.6653 -1.5738  1.1634
 4475SOL    HW225062   2.993   4.188   3.447  0.3150  0.9192  0.1092
 4476SOL     OW25063   3.883   0.515  12.251 -0.3706  0.3078  0.2913
 4476SOL    HW125064   3.957   0.465  12.287  0.2484  0.8252 -0.2422
 4476SOL    HW225065   3.877   0.598  12.298  1.5702  1.7516 -1.9919
 4477SOL     OW25066   1.475   2.856   0.746 -0.4780 -0.2046  0.3814
 4477SOL    HW125067   1.501   2.819   0.831 -1.9684 -3.7073 -0.6793
 4477SOL    HW225068   1.461   2.947   0.774 -0.3611 -0.5394  1.5413
 4478SOL     OW25069   3.890   2.377   4.393 -0.7667  0.0235  0.3075
 4478SOL    HW125070   3.922   2.449   4.337 -1.0272  1.6090  2.1903
 4478SOL    HW225071   3.905   2.410   4.481  0.8729  1.3344 -0.4492
 4479SOL     OW25072   3.026   2.055  14.702  0.4786  0.4669  0.1961
 4479SOL    HW125073   2.975   1.994  14.648  0.7131  0.6055 -0.1774
 4479SOL    HW225074   3.036   2.002  14.781  0.5666 -0.6972 -0.5838
 4480SOL     OW25075   4.132   2.503   6.285  0.7249  0.3673 -0.1697
 4480SOL    HW125076   4.187   2.433   6.321  1.1990  0.3677 -0.9016
 4480SOL    HW225077   4.195   2.541   6.223  0.1970  3.2802  1.0900
 4481SOL     OW25078   2.892   4.064   5.718  0.0245 -0.0711  0.0320
 4481SOL    HW125079   2.887   3.973   5.746 -2.7851 -0.4760 -1.8388
 4481SOL    HW225080   2.937   4.050   5.635 -1.6365 -0.2652 -0.8343
 4482SOL     OW25081   2.716   1.511   7.284  0.3706  0.2256 -0.1701
 4482SOL    HW125082   2.690   1.589   7.235 -0.3285  0.8303  1.1416
 4482SOL    HW225083   2.652   1.517   7.355 -0.7058  1.4445 -1.2282
 4483SOL     OW25084   0.510   0.284   6.287  0.9252 -0.3742 -0.6212
 4483SOL    HW125085   0.524   0.277   6.192 -0.3050 -1.1021 -0.7439
 4483SOL    HW225086   0.485   0.376   6.292  2.6743  0.1550 -1.5876
 4484SOL     OW25087   2.136   2.402   4.430 -0.1739 -0.0094  0.0553
 4484SOL    HW125088   2.230   2.409   4.409 -0.1192 -0.8809  0.0394
 4484SOL    HW225089   2.143   2.362   4.517 -2.2415 -0.3312  0.0606
 4485SOL     OW25090   1.377   2.936   1.968  0.1755 -0.2354  0.3500
 4485SOL    HW125091   1.445   3.003   1.973  0.0565  0.0172 -1.4720
 4485SOL    HW225092   1.302   2.968   2.018 -1.2761  1.1688 -2.7903
 4486SOL     OW25093   2.006   3.047   9.976 -0.4211 -0.2369 -0.5349
 4486SOL    HW125094   2.050   3.050  10.061  0.8521 -0.4945 -1.1846
 4486SOL    HW225095   1.924   3.031  10.022 -0.5211  0.2309 -0.5463
 4487SOL     OW25096   3.564   0.678   5.054 -0.5730 -0.2645  0.1265
 4487SOL    HW125097   3.602   0.619   5.119 -1.6219 -0.8698  0.1939
 4487SOL    HW225098   3.619   0.755   5.041 -2.5244  0.9089 -1.1913
 4488SOL     OW25099   0.466   2.148   4.504 -0.3747 -1.2901 -0.1393
 4488SOL    HW125100   0.467   2.233   4.548  2.0397 -1.4584  0.1279
 4488SOL    HW225101   0.421   2.087   4.562  1.6763 -1.6697  1.0071
 4489SOL     OW25102   4.472   2.057   6.501  0.4975  0.2810 -0.2841
 4489SOL    HW125103   4.445   2.090   6.587  0.4024 -2.3939  0.7120
 4489SOL    HW225104   4.518   1.977   6.525  0.9716  0.9003  0.8717
 4490SOL     OW25105   2.431   4.633   1.899  1.0393 -0.2752 -0.1908
 4490SOL    HW125106   2.481   4.675   1.969  1.3064 -2.8856  1.1680
 4490SOL    HW225107   2.393   4.555   1.939 -1.0994  1.4701  1.2317
 4491SOL     OW25108   3.925   1.352   7.611  0.1138 -0.0161 -0.1915
 4491SOL    HW125109   3.939   1.419   7.544 -0.3433 -0.5042 -0.7737
 4491SOL    HW225110   3.977   1.386   7.684  0.0906 -2.4058  0.9634
 4492SOL     OW25111   0.385   2.615   4.901 -0.0296  0.1511  0.3120
 4492SOL    HW125112   0.382   2.702   4.862  0.7109 -0.6719 -1.5671
 4492SOL    HW225113   0.455   2.566   4.859  0.0459  1.4955 -1.1273
 4493SOL     OW25114   4.060   1.207   3.820  0.2784  0.2447 -0.5612
 4493SOL    HW125115   4.094   1.270   3.884 -0.7889 -0.6767  0.9293
 4493SOL    HW225116   4.044   1.261   3.743  0.2075  0.4592 -0.3962
 4494SOL     OW25117   2.070   4.368   7.495 -0.0183 -0.0044  0.1657
 4494SOL    HW125118   2.124   4.430   7.543  1.4473  0.5868 -2.2551
 4494SOL    HW225119   2.125   4.354   7.418  0.6268 -1.2687  0.8765
 4495SOL     OW25120   1.809   2.393   3.482 -0.0913 -0.4161  0.2691
 4495SOL    HW125121   1.715   2.410   3.489 -0.3002 -1.3007 -0.2920
 4495SOL    HW225122   1.807   2.371   3.388 -1.3629  1.6916 -0.1829
 4496SOL     OW25123   1.806   2.280  17.118  0.0079  0.1531 -0.0096
 4496SOL    HW125124   1.825   2.363  17.163  0.4973 -0.7361  1.4184
 4496SOL    HW225125   1.763   2.324  17.045 -2.2950  1.8750  2.3751
 4497SOL     OW25126   2.806   1.440  17.151 -0.1633 -0.4654 -0.4920
 4497SOL    HW125127   2.858   1.506  17.105 -2.4706  1.4473 -0.3856
 4497SOL    HW225128   2.858   1.443  17.230  0.6750  3.3011 -1.1560
 4498SOL     OW25129   3.811   3.643   2.014  1.0032  0.2095 -0.0195
 4498SOL    HW125130   3.867   3.666   1.940  0.0316 -2.6857 -1.6517
 4498SOL    HW225131   3.840   3.701   2.085  1.0265 -2.1189  1.8767
 4499SOL     OW25132   0.955   2.989   2.255 -0.1721  0.4856  0.0412
 4499SOL    HW125133   1.047   3.005   2.236 -0.4333 -0.2322 -1.8825
 4499SOL    HW225134   0.943   3.028   2.341 -0.9652  2.7424 -1.1174
 4500SOL     OW25135   0.404   0.716   3.500  0.0012 -0.3450 -0.0817
 4500SOL    HW125136   0.464   0.784   3.468  0.9864 -1.6720 -1.1060
 4500SOL    HW225137   0.318   0.744   3.470  0.8724  2.5645  0.0890
 4501SOL     OW25138   2.813   1.629   3.646  0.0949 -0.2067  0.2174
 4501SOL    HW125139   2.788   1.652   3.735 -0.2366 -1.4445  0.4461
 4501SOL    HW225140   2.851   1.541   3.655 -0.3875 -0.4845 -0.4854
 4502SOL     OW25141   1.000   0.205   7.047  0.1459 -1.0796  0.4414
 4502SOL    HW125142   1.068   0.199   7.114  3.3313  0.2223 -2.6460
 4502SOL    HW225143   1.029   0.131   6.993  0.7068 -1.0992  0.7724
 4503SOL     OW25144   2.755   0.769   4.308 -0.4304 -0.2910 -0.4640
 4503SOL    HW125145   2.665   0.786   4.339  0.0692  3.0390 -0.8680
 4503SOL    HW225146   2.789   0.722   4.385 -0.1186 -1.5233 -1.3568
 4504SOL     OW25147   0.643   3.335  14.594  0.3543  0.0868 -0.1536
 4504SOL    HW125148   0.571   3.326  14.533 -0.0568  0.0252  0.3420
 4504SOL    HW225149   0.593   3.334  14.676 -0.9251  0.0206 -0.9430
 4505SOL     OW25150   1.507   3.020  16.670 -0.0922 -0.3236 -0.5426
 4505SOL    HW125151   1.488   3.016  16.764  1.0285 -2.8568 -0.4310
 4505SOL    HW225152   1.422   3.053  16.639  1.1268 -0.3943 -3.8947
 4506SOL     OW25153   2.127   2.444   4.150  0.1366 -0.1827 -0.0673
 4506SOL    HW125154   2.097   2.389   4.078  1.4539 -1.0863  0.0753
 4506SOL    HW225155   2.088   2.386   4.215 -1.7207 -0.5278 -1.5001
 4507SOL     OW25156   4.626   1.785   8.971  0.4101 -0.3024 -0.0987
 4507SOL    HW125157   4.611   1.728   8.896 -1.6814  0.4115 -0.2212
 4507SOL    HW225158   4.570   1.861   8.958  0.0563 -0.7664 -1.3059
 4508SOL     OW25159   0.737   2.337  14.026  0.1651  0.3860  0.4519
 4508SOL    HW125160   0.808   2.277  14.048  1.3918  1.3882 -0.7614
 4508SOL    HW225161   0.776   2.419  14.056 -1.9056  1.1529  1.0094
 4509SOL     OW25162   4.654   3.668  11.318 -0.2880 -0.2642  0.1620
 4509SOL    HW125163   4.717   3.657  11.247 -0.9361 -1.2483 -0.2530
 4509SOL    HW225164   4.700   3.736  11.366 -2.1090  0.7096  0.5541
 4510SOL     OW25165   1.117   4.545   2.671 -0.2295  0.1769  0.7931
 4510SOL    HW125166   1.175   4.486   2.623 -1.6458  0.2963 -1.0590
 4510SOL    HW225167   1.131   4.626   2.623 -0.0872 -0.4756 -0.2587
 4511SOL     OW25168   1.776   1.466   7.812  0.1557  0.2720 -0.2191
 4511SOL    HW125169   1.818   1.532   7.757 -0.5709  2.8841  2.3565
 4511SOL    HW225170   1.794   1.491   7.903 -0.3340 -3.1800  0.8348
 4512SOL     OW25171   4.144   1.824   5.546  0.0074 -0.2371 -0.2160
 4512SOL    HW125172   4.052   1.798   5.555 -0.6901  2.8187  1.3078
 4512SOL    HW225173   4.150   1.847   5.453 -0.1413 -1.2858 -0.4881
 4513SOL     OW25174   4.289   3.531   8.405 -0.5754  0.4073  0.2475
 4513SOL    HW125175   4.271   3.466   8.473  0.2231 -3.0317 -2.8932
 4513SOL    HW225176   4.368   3.572   8.441  0.1916 -0.4628 -0.4574
 4514SOL     OW25177   0.618   4.425   5.931  0.5561  0.5593  0.6520
 4514SOL    HW125178   0.699   4.440   5.883 -0.6573  0.3646 -1.4595
 4514SOL    HW225179   0.636   4.338   5.965  0.1230 -0.6480 -2.1953
 4515SOL     OW25180   2.381   2.270   2.368 -0.2572  0.5403  0.5383
 4515SOL    HW125181   2.435   2.233   2.438 -0.8890  0.8492  1.1914
 4515SOL    HW225182   2.376   2.202   2.301  2.7484 -1.8230  2.6849
 4516SOL     OW25183   4.385   1.734   5.625 -0.0973  0.5692  0.2320
 4516SOL    HW125184   4.326   1.689   5.685 -0.1943 -0.8765 -0.9298
 4516SOL    HW225185   4.316   1.780   5.578  0.3180 -0.4129 -1.3781
 4517SOL     OW25186   2.021   3.802   5.056 -0.2263  0.5829  0.5199
 4517SOL    HW125187   2.012   3.800   4.961 -0.4528  1.2762  0.5242
 4517SOL    HW225188   2.111   3.769   5.067  0.3909  1.6554 -1.4832
 4518SOL     OW25189   0.376   4.726   3.362 -0.0070 -0.1116 -0.1794
 4518SOL    HW125190   0.432   0.005   3.437  0.8830 -1.0840 -0.5979
 4518SOL    HW225191   0.358   4.633   3.378  0.9888 -0.4682 -1.1297
 4519SOL     OW25192   3.228   1.354  11.763  0.0752  0.0364  0.0688
 4519SOL    HW125193   3.134   1.345  11.775  0.0604 -3.9626 -2.8586
 4519SOL    HW225194   3.231   1.449  11.771 -2.5348  0.2056 -1.0753
 4520SOL     OW25195   2.416   3.898   0.390 -0.1832  1.2243 -0.2519
 4520SOL    HW125196   2.421   3.947   0.308 -1.5559  2.7201  0.5729
 4520SOL    HW225197   2.347   3.835   0.370  0.1258  1.4914 -2.1306
 4521SOL     OW25198   0.854   3.865   4.801  0.2579  0.2799 -0.9454
 4521SOL    HW125199   0.836   3.772   4.784  1.0532 -0.7365  3.7530
 4521SOL    HW225200   0.789   3.888   4.866  0.4314 -1.6144 -0.0909
 4522SOL     OW25201   2.140   1.334   3.229 -0.4606 -0.2034  0.2400
 4522SOL    HW125202   2.151   1.420   3.189 -0.3380  0.5486  1.8806
 4522SOL    HW225203   2.201   1.281   3.179 -1.0476  1.3166 -2.0841
 4523SOL     OW25204   2.125   3.844   6.804 -0.4164 -0.2201  0.2647
 4523SOL    HW125205   2.131   3.767   6.748 -0.7016 -0.5821  0.7351
 4523SOL    HW225206   2.194   3.840   6.870  0.6598  0.0110 -0.8449
 4524SOL     OW25207   4.207   1.136   2.101 -0.3058 -1.1179  0.3786
 4524SOL    HW125208   4.269   1.113   2.170  1.5846  1.6993 -0.3715
 4524SOL    HW225209   4.240   1.080   2.031  2.3316 -0.8930  1.4745
 4525SOL     OW25210   3.111   0.270  10.873  0.0339 -0.0070  0.0540
 4525SOL    HW125211   3.190   0.219  10.892  0.6408  0.8529 -0.1388
 4525SOL    HW225212   3.051   0.201  10.846 -0.7338  1.2889 -1.5228
 4526SOL     OW25213   4.083   2.074  13.069 -0.0371 -0.3336  0.3468
 4526SOL    HW125214   4.152   2.098  13.007 -0.1742 -0.6366  0.0752
 4526SOL    HW225215   4.006   2.069  13.013  1.3953 -2.4727 -1.4128
 4527SOL     OW25216   3.997   1.600  11.126 -0.6477 -0.3052  0.4101
 4527SOL    HW125217   4.071   1.625  11.181 -0.7373  0.6385  0.0985
 4527SOL    HW225218   4.021   1.644  11.044  1.6821  0.2397  1.4015
 4528SOL     OW25219   1.329   4.709   6.962  0.4248 -0.1263 -0.0801
 4528SOL    HW125220   1.380   4.690   6.884 -0.5141 -3.4223  0.1302
 4528SOL    HW225221   1.279   0.049   6.940 -0.8742 -1.2161 -1.0357
 4529SOL     OW25222   4.571   1.484   7.629 -0.2129 -0.1935 -0.8075
 4529SOL    HW125223   4.480   1.457   7.637  0.4593 -2.4111 -0.5985
 4529SOL    HW225224   4.601   1.422   7.696  0.4702  2.4434  1.3324
 4530SOL     OW25225   1.892   1.975   6.281  0.0866 -0.0622 -0.2526
 4530SOL    HW125226   1.863   1.915   6.349 -2.8907 -1.5619 -2.8660
 4530SOL    HW225227   1.845   2.052   6.313  0.5680  0.2397 -0.2794
 4531SOL     OW25228   1.080   0.264  17.454  0.5284 -0.3721  0.0045
 4531SOL    HW125229   0.995   0.221  17.466  1.0527 -1.0237  1.3856
 4531SOL    HW225230   1.070   0.345  17.504  2.4804 -0.1008 -0.0285
 4532SOL     OW25231   1.296   4.377   2.557 -0.1042  0.6900 -0.2158
 4532SOL    HW125232   1.304   4.396   2.464  0.2084 -2.7721 -0.8963
 4532SOL    HW225233   1.299   4.282   2.552 -1.9365  0.7734 -2.6581
 4533SOL     OW25234   2.867   3.014  13.599  0.5239 -0.1136 -0.1073
 4533SOL    HW125235   2.918   3.010  13.680  0.4801 -1.1230 -0.1338
 4533SOL    HW225236   2.799   2.953  13.628 -1.2230  1.7754 -0.2443
 4534SOL     OW25237   4.073   2.305   4.970  0.2258 -0.5570 -0.2635
 4534SOL    HW125238   4.024   2.301   5.052  1.1921 -3.2587  0.1854
 4534SOL    HW225239   4.055   2.395   4.942  1.2475 -0.4066 -0.4453
 4535SOL     OW25240   4.285   4.136   6.191  0.0810  0.4710 -0.0069
 4535SOL    HW125241   4.349   4.173   6.130 -1.0236  2.7064  0.1812
 4535SOL    HW225242   4.340   4.110   6.266  0.9550 -1.8592 -1.4620
 4536SOL     OW25243   2.558   2.513   9.477 -0.3413 -0.8917 -0.1001
 4536SOL    HW125244   2.533   2.434   9.524 -1.9845  0.6692  1.6387
 4536SOL    HW225245   2.574   2.578   9.545  1.2170 -0.3695 -0.9654
 4537SOL     OW25246   0.285   1.697   3.394  0.2434  0.2986 -0.0999
 4537SOL    HW125247   0.370   1.740   3.396 -0.4708  1.6319  1.5974
 4537SOL    HW225248   0.221   1.756   3.434  0.0513  0.5891 -0.8591
 4538SOL     OW25249   4.642   2.748   7.154  0.6162  0.1439  0.2522
 4538SOL    HW125250   4.644   2.699   7.072  1.6212 -0.8449  0.8714
 4538SOL    HW225251   4.549   2.760   7.175  0.5530 -1.3935  0.8808
 4539SOL     OW25252   4.228   4.184   8.055 -0.3469 -0.2276  0.1878
 4539SOL    HW125253   4.205   4.116   7.991  1.1451  0.1428 -0.7519
 4539SOL    HW225254   4.179   4.148   8.128  0.0339  0.9220  1.0202
 4540SOL     OW25255   4.120   4.234  11.519 -0.5972 -0.1268  0.0064
 4540SOL    HW125256   4.114   4.326  11.546 -4.6169 -0.9712  1.9870
 4540SOL    HW225257   4.201   4.193  11.548  1.3973  2.7986 -1.4273
 4541SOL     OW25258   4.330   3.062   3.718  0.1382 -0.4926  0.2807
 4541SOL    HW125259   4.296   3.080   3.806 -0.1998 -0.1014  0.0702
 4541SOL    HW225260   4.310   3.148   3.681  2.4500 -1.2567 -2.7384
 4542SOL     OW25261   3.033   1.548  14.576 -0.0785 -0.7630  0.1828
 4542SOL    HW125262   3.071   1.560  14.489  1.0699 -1.4304  0.6000
 4542SOL    HW225263   2.953   1.502  14.551 -1.1867  2.2143 -1.7843
 4543SOL     OW25264   2.442   4.715   7.460 -0.0487  0.2040 -0.0700
 4543SOL    HW125265   2.414   4.656   7.390 -1.5994  0.0409  0.6890
 4543SOL    HW225266   2.365   0.023   7.490  0.5641  1.6549 -0.8278
 4544SOL     OW25267   0.554   4.277   6.824 -0.6558 -0.7750  0.4483
 4544SOL    HW125268   0.643   4.246   6.813 -0.8113 -0.7145 -0.9787
 4544SOL    HW225269   0.518   4.242   6.906  2.9847  0.4353  2.5512
 4545SOL     OW25270   3.039   0.283   4.245  0.0992  0.3810 -0.5671
 4545SOL    HW125271   3.056   0.199   4.288  0.6358  0.8799  0.2055
 4545SOL    HW225272   3.120   0.300   4.197  0.3517  0.6957 -0.0322
 4546SOL     OW25273   1.156   1.581   5.694 -0.2756  0.0997  0.6157
 4546SOL    HW125274   1.176   1.498   5.651 -1.0537 -1.0362  2.4424
 4546SOL    HW225275   1.180   1.557   5.784  3.7534 -1.8168 -0.9826
 4547SOL     OW25276   1.647   2.697   7.135 -0.2001  0.5337  0.2491
 4547SOL    HW125277   1.581   2.762   7.108  0.3828  0.9294 -0.2270
 4547SOL    HW225278   1.627   2.629   7.071  2.1665 -0.7289  0.8930
 4548SOL     OW25279   0.642   3.976  17.687 -0.4852  0.0753 -0.3906
 4548SOL    HW125280   0.599   3.999   0.013 -0.3776 -0.3640 -0.2099
 4548SOL    HW225281   0.591   4.024  17.621  0.7392 -0.0929 -1.4817
 4549SOL     OW25282   2.364   1.810   2.516  0.4788  0.4375 -0.1336
 4549SOL    HW125283   2.378   1.873   2.586 -0.2872 -1.1342  1.4232
 4549SOL    HW225284   2.298   1.755   2.558  1.1097  0.7538  1.2668
 4550SOL     OW25285   4.088   1.193   7.901 -0.3620  0.2403 -0.0612
 4550SOL    HW125286   4.104   1.122   7.840  2.8080  2.1912 -1.5010
 4550SOL    HW225287   4.111   1.262   7.839  1.1069  0.6024  0.8687
 4551SOL     OW25288   3.890   0.622   2.511  0.1349  0.1396  0.5459
 4551SOL    HW125289   3.981   0.597   2.492  0.4299  0.7467  1.1441
 4551SOL    HW225290   3.830   0.549   2.524 -0.8128  0.8620  0.1927
 4552SOL     OW25291   2.942   1.037   8.020 -0.2509  0.6350 -0.3695
 4552SOL    HW125292   2.880   1.101   8.054 -1.5271  0.1537 -1.7960
 4552SOL    HW225293   3.002   1.093   7.970 -0.9513  1.0955 -0.6943
 4553SOL     OW25294   4.076   3.009   6.490 -0.3838  0.1986 -0.0397
 4553SOL    HW125295   4.132   3.082   6.515 -1.0632  0.3585  1.0058
 4553SOL    HW225296   4.100   3.017   6.397 -1.1236  0.0550 -0.2437
 4554SOL     OW25297   1.777   2.425  16.620  0.1342  0.3778 -0.3637
 4554SOL    HW125298   1.828   2.454  16.545  3.1127 -2.6274  0.4878
 4554SOL    HW225299   1.771   2.335  16.588  2.5042  1.5731 -4.1646
 4555SOL     OW25300   1.614   1.771  14.066  0.0428  0.4078  0.3470
 4555SOL    HW125301   1.669   1.693  14.065 -0.9018 -0.2740  3.0556
 4555SOL    HW225302   1.629   1.794  14.158  1.3676 -1.5159  0.6120
 4556SOL     OW25303   0.797   3.739   2.591 -0.4063 -0.7555  0.0259
 4556SOL    HW125304   0.849   3.687   2.653 -0.7453 -1.6378 -0.4305
 4556SOL    HW225305   0.844   3.726   2.508 -0.4708  2.0874 -0.4442
 4557SOL     OW25306   1.872   3.810   4.604 -0.2679  0.5951 -0.0815
 4557SOL    HW125307   1.790   3.834   4.561 -1.4116 -0.2784  1.6563
 4557SOL    HW225308   1.926   3.777   4.532  2.1794  1.2159  1.4618
 4558SOL     OW25309   4.694   2.952   3.292  0.0552 -0.2795 -0.1036
 4558SOL    HW125310   0.043   2.957   3.328  0.5644 -2.8267 -0.9497
 4558SOL    HW225311   4.693   3.021   3.226 -2.4566  0.4207  0.6856
 4559SOL     OW25312   4.539   2.811   7.742 -0.1093 -0.4335 -0.3690
 4559SOL    HW125313   4.508   2.743   7.682  0.3212  0.4046 -1.5311
 4559SOL    HW225314   4.627   2.786   7.771  0.4674  1.7271 -0.2951
 4560SOL     OW25315   0.647   3.569   8.233 -1.1472 -0.0327  0.0400
 4560SOL    HW125316   0.707   3.549   8.305  0.2088 -0.4330 -1.1883
 4560SOL    HW225317   0.653   3.664   8.242 -0.5488 -0.1426  0.8046
 4561SOL     OW25318   0.956   4.565   3.935 -0.6935  0.4986  0.0018
 4561SOL    HW125319   1.037   4.544   3.980 -0.5724  1.8003  0.3808
 4561SOL    HW225320   0.893   4.562   4.007 -1.0390 -0.1697 -0.3271
 4562SOL     OW25321   0.399   2.334   3.251  0.0120 -0.4646  0.3204
 4562SOL    HW125322   0.487   2.334   3.290 -0.2104 -0.0791  0.8264
 4562SOL    HW225323   0.390   2.245   3.216  4.1559 -0.7025 -0.1340
 4563SOL     OW25324   0.621   3.031   2.654  0.7559 -0.2020 -0.5137
 4563SOL    HW125325   0.619   3.015   2.748  0.2208  0.6390 -0.3835
 4563SOL    HW225326   0.534   2.995   2.637 -0.1948  2.1388 -0.5687
 4564SOL     OW25327   0.646   1.759   1.389 -0.2958  0.0045  0.2280
 4564SOL    HW125328   0.725   1.780   1.340 -1.0033  0.4251 -0.7223
 4564SOL    HW225329   0.660   1.826   1.456  0.2361 -1.1014  1.2316
 4565SOL     OW25330   4.082   0.294   8.314 -0.5167  0.2662 -0.3659
 4565SOL    HW125331   4.073   0.199   8.320  0.0302  0.3316  1.4244
 4565SOL    HW225332   4.169   0.305   8.351 -1.0730 -0.3997  1.1193
 4566SOL     OW25333   2.661   3.810   0.353  0.7885  0.2299 -0.1674
 4566SOL    HW125334   2.576   3.850   0.373  1.3791  0.3501  2.1213
 4566SOL    HW225335   2.659   3.810   0.257  0.5951  1.6724 -0.1600
 4567SOL     OW25336   0.961   3.447   1.537 -0.3994  0.1500  0.1778
 4567SOL    HW125337   1.005   3.496   1.468 -1.5811 -0.4748 -1.0337
 4567SOL    HW225338   0.975   3.356   1.514 -0.5455 -0.1536  1.2790
 4568SOL     OW25339   0.905   2.551   3.480  0.0475 -0.0964  0.8044
 4568SOL    HW125340   0.987   2.570   3.435  0.3795 -0.2642  1.3478
 4568SOL    HW225341   0.881   2.461   3.455  3.0435 -0.9292  0.9958
 4569SOL     OW25342   4.488   2.667  15.357  0.4649  0.4359  0.4459
 4569SOL    HW125343   4.448   2.597  15.305 -2.1343  1.4927  1.0624
 4569SOL    HW225344   4.406   2.701  15.391 -0.1013  1.5072 -1.9640
 4570SOL     OW25345   1.476   1.282   2.317 -0.5363 -0.4513 -0.6406
 4570SOL    HW125346   1.499   1.335   2.393 -0.4051 -0.2282 -0.8365
 4570SOL    HW225347   1.432   1.213   2.367 -0.9132  1.1174  1.1483
 4571SOL     OW25348   2.590   1.354  17.051 -0.2412  0.6173 -0.0509
 4571SOL    HW125349   2.679   1.363  17.084 -0.3056  1.6443 -0.1555
 4571SOL    HW225350   2.605   1.349  16.956  0.9537 -2.5272  0.2893
 4572SOL     OW25351   1.359   3.299   5.258  0.6627 -0.3863 -0.2968
 4572SOL    HW125352   1.354   3.345   5.174 -1.5022 -0.0083  0.0280
 4572SOL    HW225353   1.350   3.210   5.224  1.3375 -0.4519 -0.2891
 4573SOL     OW25354   2.548   0.049  17.737 -0.0930  0.3315 -0.1790
 4573SOL    HW125355   2.628   0.008   0.014  0.3409  1.4653  0.2018
 4573SOL    HW225356   2.561   0.026  17.645  2.5166 -0.4550  0.3803
 4574SOL     OW25357   0.509   1.053   8.054 -0.8054  0.7033 -0.8101
 4574SOL    HW125358   0.588   1.007   8.027 -1.2111  0.4526 -1.5638
 4574SOL    HW225359   0.450   1.044   7.979  0.3008  0.5158 -1.6480
 4575SOL     OW25360   3.070   1.944   3.228  0.6165 -0.4207 -0.5077
 4575SOL    HW125361   3.025   2.012   3.178  3.2725  3.7886  2.8625
 4575SOL    HW225362   3.004   1.942   3.298  1.0545  0.4191 -0.0701
 4576SOL     OW25363   2.745   0.480   8.102  0.7603 -0.1605  0.2630
 4576SOL    HW125364   2.796   0.514   8.029 -1.9820  0.6381 -1.3109
 4576SOL    HW225365   2.693   0.558   8.119  1.7271  0.7105 -0.7992
 4577SOL     OW25366   2.805   1.248   0.050 -0.3451  0.8260  0.0158
 4577SOL    HW125367   2.759   1.255  17.722  0.4887  0.8629 -0.4452
 4577SOL    HW225368   2.739   1.204   0.104 -0.6649  0.1861 -0.8877
 4578SOL     OW25369   4.340   3.056  11.654  0.5300 -0.2509  0.4551
 4578SOL    HW125370   4.361   3.143  11.621 -2.1045 -0.3819 -1.5724
 4578SOL    HW225371   4.372   3.071  11.743  0.9440  1.2610  0.0418
 4579SOL     OW25372   3.262   0.229  10.555 -0.0990 -0.0303  0.3814
 4579SOL    HW125373   3.232   0.309  10.597  0.9186  0.3312  0.4139
 4579SOL    HW225374   3.306   0.173  10.619 -2.0885 -1.5882  0.4051
 4580SOL     OW25375   1.258   4.591   7.934 -0.4648  0.0341 -0.5683
 4580SOL    HW125376   1.315   4.640   7.874  0.8981 -0.2324  0.5227
 4580SOL    HW225377   1.311   4.511   7.937 -0.7938 -0.1587  0.1105
 4581SOL     OW25378   3.496   2.882   8.582 -0.1959 -0.1006 -0.3217
 4581SOL    HW125379   3.487   2.922   8.496 -1.2734 -3.1305 -1.6410
 4581SOL    HW225380   3.513   2.956   8.640  2.0469 -2.3830  1.9185
 4582SOL     OW25381   2.543   1.768  15.104 -0.3564 -0.5559 -0.6154
 4582SOL    HW125382   2.456   1.764  15.063 -0.3482 -0.6820 -0.6190
 4582SOL    HW225383   2.569   1.855  15.073 -0.9999  0.1305  0.7574
 4583SOL     OW25384   2.961   2.029   4.515  0.0571  0.7105 -0.2161
 4583SOL    HW125385   2.949   1.990   4.428  1.9240  0.9129 -0.5516
 4583SOL    HW225386   2.922   2.116   4.507  1.5789  1.4900  1.0022
 4584SOL     OW25387   2.709   4.184   0.525  0.9355 -0.0129  0.3287
 4584SOL    HW125388   2.680   4.275   0.527  2.9883  0.6734 -0.7701
 4584SOL    HW225389   2.700   4.175   0.430 -1.2729  2.4372  0.2923
 4585SOL     OW25390   1.209   3.531   8.506  0.3372 -0.1748 -0.3058
 4585SOL    HW125391   1.202   3.436   8.513  0.4122 -0.3409 -2.4387
 4585SOL    HW225392   1.132   3.560   8.555  0.6112 -1.4376  0.8463
 4586SOL     OW25393   3.006   0.999  12.381 -0.2600 -0.3227  0.4064
 4586SOL    HW125394   3.078   1.035  12.330  0.3101 -2.0283  0.0156
 4586SOL    HW225395   2.936   1.064  12.374  0.9339  0.7154 -1.7986
 4587SOL     OW25396   2.687   1.788   1.130 -0.0253 -0.3089 -0.0073
 4587SOL    HW125397   2.778   1.782   1.100 -0.6441 -0.6980 -1.8323
 4587SOL    HW225398   2.656   1.729   1.061 -0.5321 -1.5222  1.2618
 4588SOL     OW25399   1.974   1.181  14.335  0.2970  0.0102 -0.4178
 4588SOL    HW125400   1.884   1.150  14.330  0.4890 -0.7192  0.6536
 4588SOL    HW225401   1.964   1.275  14.347  1.5739  0.2462 -1.1493
 4589SOL     OW25402   3.641   3.469   8.903 -0.1440  0.0932  0.3231
 4589SOL    HW125403   3.574   3.401   8.896  0.4231 -0.2579 -1.7118
 4589SOL    HW225404   3.593   3.549   8.925  0.9283  0.4761  1.2510
 4590SOL     OW25405   2.480   1.445   7.023 -0.4189  0.3626 -0.0549
 4590SOL    HW125406   2.422   1.370   7.014 -2.3827  1.6735  1.9286
 4590SOL    HW225407   2.465   1.486   6.937 -0.7847 -0.1150 -0.2179
 4591SOL     OW25408   0.142   4.136   1.702 -0.0043 -0.0347  0.2452
 4591SOL    HW125409   0.059   4.171   1.669 -0.1342 -2.5115 -1.9421
 4591SOL    HW225410   0.106   4.049   1.720 -1.3425  0.3165 -0.6574
 4592SOL     OW25411   3.059   3.579   5.858  0.0404 -0.1049 -0.8199
 4592SOL    HW125412   3.025   3.498   5.896 -1.4891  2.0555  2.4255
 4592SOL    HW225413   3.154   3.573   5.865  0.2208  2.0953 -1.4389
 4593SOL     OW25414   2.675   3.088  13.240 -0.0256 -0.4279  0.2441
 4593SOL    HW125415   2.721   3.159  13.285  0.1619  0.5758 -1.5328
 4593SOL    HW225416   2.653   3.127  13.155 -1.3384 -0.6099  0.4982
 4594SOL     OW25417   0.910   1.992   8.632 -0.3697  0.2746  0.1039
 4594SOL    HW125418   0.964   1.918   8.659  0.5696  0.9163 -0.0232
 4594SOL    HW225419   0.973   2.064   8.625  1.8524 -1.7061 -0.1995
 4595SOL     OW25420   4.013   1.770   1.904  0.0064  1.1641  0.2018
 4595SOL    HW125421   3.928   1.760   1.946  2.1341 -1.6871  3.8346
 4595SOL    HW225422   3.986   1.836   1.840 -1.6296  0.1185 -0.1955
 4596SOL     OW25423   4.381   2.909   2.265 -0.2714  0.1203  0.0064
 4596SOL    HW125424   4.307   2.929   2.322  1.2003  2.2400  1.1593
 4596SOL    HW225425   4.381   2.814   2.254  3.9976  0.2597 -1.1069
 4597SOL     OW25426   0.355   0.874  13.518 -0.3878  0.3441  0.1696
 4597SOL    HW125427   0.371   0.909  13.431 -2.2664  1.1206  0.1411
 4597SOL    HW225428   0.286   0.937  13.540  0.0928  1.4672 -1.5504
 4598SOL     OW25429   4.646   2.163   5.491  0.3057  0.1643 -0.1297
 4598SOL    HW125430   4.603   2.079   5.505 -0.8913  0.6344 -0.9310
 4598SOL    HW225431   4.618   2.217   5.565 -0.2882  0.3400 -0.4790
 4599SOL     OW25432   3.342   2.540   4.888 -0.0708 -0.0833 -0.3891
 4599SOL    HW125433   3.247   2.548   4.888 -0.0044  0.6577 -1.3908
 4599SOL    HW225434   3.370   2.620   4.844 -0.8933  1.0603  1.1390
 4600SOL     OW25435   1.939   1.687  12.432 -0.4279  0.3044  0.0622
 4600SOL    HW125436   2.004   1.751  12.462 -3.0589  2.2406  1.6101
 4600SOL    HW225437   1.898   1.652  12.511 -0.2482 -0.5133 -0.2088
 4601SOL     OW25438   1.385   2.721  16.018  0.6538 -0.0610 -0.0450
 4601SOL    HW125439   1.291   2.700  16.018  0.3900  1.1806 -1.9333
 4601SOL    HW225440   1.390   2.761  16.105 -0.3518  0.4635 -0.2225
 4602SOL     OW25441   0.752   2.819   6.045  0.2290  0.9245  0.4715
 4602SOL    HW125442   0.771   2.876   5.971  0.5290  0.2905  0.0598
 4602SOL    HW225443   0.657   2.820   6.031  0.1758  0.0655  0.7686
 4603SOL     OW25444   0.851   0.513   3.954 -0.3329 -0.2035 -0.1574
 4603SOL    HW125445   0.849   0.582   4.021  0.3797 -0.7671  0.4384
 4603SOL    HW225446   0.918   0.548   3.896 -0.5632  0.4357 -0.0435
 4604SOL     OW25447   2.290   0.265   2.409 -0.5475  0.1331 -0.4860
 4604SOL    HW125448   2.260   0.242   2.497  2.4363  0.8341  0.7201
 4604SOL    HW225449   2.317   0.182   2.370 -1.3112  0.2670 -1.3026
 4605SOL     OW25450   1.488   2.790   1.016  0.1807  0.6787 -0.0153
 4605SOL    HW125451   1.407   2.832   1.046 -0.2394  0.8794 -1.4308
 4605SOL    HW225452   1.476   2.699   1.042  3.0405 -0.1316 -1.5086
 4606SOL     OW25453   0.189   0.313   4.847 -0.6310  0.5723  0.4967
 4606SOL    HW125454   0.193   0.356   4.761  1.8615  4.4542  2.5846
 4606SOL    HW225455   0.130   0.238   4.835 -1.2398  1.2202 -0.6315
 4607SOL     OW25456   2.517   3.410  13.376 -0.0351 -0.0615 -0.2602
 4607SOL    HW125457   2.519   3.474  13.446  0.1102  1.9016 -2.0588
 4607SOL    HW225458   2.606   3.378  13.387 -0.6137 -1.5767  0.0255
 4608SOL     OW25459   4.672   1.743  13.031 -0.3407 -0.2187  0.0819
 4608SOL    HW125460   4.703   1.831  13.010  1.9109 -1.3962 -1.4396
 4608SOL    HW225461   4.604   1.762  13.096  1.0579  0.7566  1.2377
 4609SOL     OW25462   0.988   4.522   9.280  0.5619 -0.0080  0.4062
 4609SOL    HW125463   0.896   4.501   9.293  0.3438 -0.0266 -1.0969
 4609SOL    HW225464   0.976   4.602   9.229  0.4490  0.2239  0.7962
 4610SOL     OW25465   2.528   3.281   2.850 -0.0631  0.2111 -0.0472
 4610SOL    HW125466   2.552   3.265   2.941 -0.6830  1.9630  0.4183
 4610SOL    HW225467   2.502   3.373   2.851  2.9083  1.0796 -2.7391
 4611SOL     OW25468   3.595   1.420   2.680 -0.3870 -0.4006 -0.2907
 4611SOL    HW125469   3.674   1.437   2.730 -0.5305 -0.2183 -0.1227
 4611SOL    HW225470   3.523   1.421   2.743 -1.3643  0.2155 -1.4032
 4612SOL     OW25471   0.666   0.751   6.768 -0.7727 -0.1776 -0.2239
 4612SOL    HW125472   0.634   0.831   6.726 -1.2412 -0.0576  0.3612
 4612SOL    HW225473   0.642   0.677   6.712  1.7401 -0.7107 -0.5948
 4613SOL     OW25474   1.491   0.768   8.085  0.2435  0.0606  0.0375
 4613SOL    HW125475   1.485   0.849   8.033 -0.3914  0.5807  0.9221
 4613SOL    HW225476   1.525   0.798   8.169  1.1031  1.2771 -0.7366
 4614SOL     OW25477   3.657   3.672   5.468  0.5865  0.0161 -0.4824
 4614SOL    HW125478   3.682   3.752   5.514  1.1502 -0.2602 -0.3098
 4614SOL    HW225479   3.723   3.667   5.398  2.7189 -0.4574  1.5531
 4615SOL     OW25480   0.370   3.622   3.587  0.4253 -0.1919  0.5780
 4615SOL    HW125481   0.315   3.675   3.529  2.7494  0.5295 -0.9873
 4615SOL    HW225482   0.408   3.696   3.636  0.0262  1.1977 -1.1921
 4616SOL     OW25483   3.532   0.928  10.121 -0.1859  0.2540  0.2460
 4616SOL    HW125484   3.456   0.984  10.134  1.0616  2.2169 -0.9233
 4616SOL    HW225485   3.585   0.959  10.194 -1.2678  1.4367  0.5196
 4617SOL     OW25486   3.223   4.108   4.638  0.6693 -0.2300 -0.0420
 4617SOL    HW125487   3.167   4.171   4.591  1.4604 -0.9275 -1.9415
 4617SOL    HW225488   3.266   4.075   4.559 -0.8038 -0.2242 -0.8523
 4618SOL     OW25489   2.581   4.159   4.259  0.0324  0.0736 -0.2250
 4618SOL    HW125490   2.491   4.145   4.289  0.6529 -1.1644  1.0857
 4618SOL    HW225491   2.603   4.250   4.277  1.1299 -0.0680 -0.8407
 4619SOL     OW25492   1.162   4.277   8.512 -0.0600  0.0091 -0.3994
 4619SOL    HW125493   1.125   4.362   8.535 -0.5235 -0.3802  0.2645
 4619SOL    HW225494   1.238   4.271   8.569 -2.6106  0.0984  2.9931
 4620SOL     OW25495   1.989   1.557   3.657 -0.7906  0.7702 -0.2169
 4620SOL    HW125496   1.951   1.475   3.690  0.6686 -0.5157 -1.7401
 4620SOL    HW225497   2.010   1.591   3.744 -1.1359 -0.6823  0.4401
 4621SOL     OW25498   2.731   1.285   7.640 -0.2208 -0.1164 -0.4637
 4621SOL    HW125499   2.754   1.353   7.703 -2.0233  1.3305 -1.3856
 4621SOL    HW225500   2.636   1.290   7.646 -0.1086  0.9816  0.3348
 4622SOL     OW25501   1.117   2.122   7.573 -0.1592 -0.5879 -0.3260
 4622SOL    HW125502   1.133   2.063   7.499  0.6466  0.9165 -1.3402
 4622SOL    HW225503   1.035   2.166   7.553 -0.0701 -0.3279 -0.1138
 4623SOL     OW25504   3.195   1.795   5.250  0.1327 -0.2148  0.0021
 4623SOL    HW125505   3.141   1.736   5.303 -2.1881  1.0659 -0.9739
 4623SOL    HW225506   3.141   1.824   5.177  1.8721  2.1553 -0.3306
 4624SOL     OW25507   3.313   3.511   5.782 -0.1492 -0.1680  0.3835
 4624SOL    HW125508   3.365   3.566   5.724  2.2904 -1.7570  1.0958
 4624SOL    HW225509   3.373   3.489   5.852  1.8857 -0.3158 -1.4224
 4625SOL     OW25510   3.571   3.402   6.818 -0.4190  0.0974  0.0320
 4625SOL    HW125511   3.661   3.434   6.823 -0.1999 -0.2224 -2.0458
 4625SOL    HW225512   3.542   3.458   6.746  0.0822 -1.1543 -1.1421
 4626SOL     OW25513   0.294   1.991   9.466 -0.1092 -0.5702  0.4510
 4626SOL    HW125514   0.359   1.946   9.412 -0.2608  1.9774 -1.8189
 4626SOL    HW225515   0.257   2.055   9.405  3.5439  2.1542  1.1148
 4627SOL     OW25516   0.739   0.905   7.933 -0.1435  0.9202  0.4199
 4627SOL    HW125517   0.755   0.820   7.892  1.7704  0.6140  1.8139
 4627SOL    HW225518   0.794   0.954   7.872  0.2563  2.3163  1.9009
 4628SOL     OW25519   1.955   1.091  13.995  0.5070  0.2468 -0.0303
 4628SOL    HW125520   1.902   1.029  13.945  0.1907  0.6717 -0.2206
 4628SOL    HW225521   1.976   1.038  14.071  1.4613 -0.3487 -0.7132
 4629SOL     OW25522   3.696   2.829   7.841 -0.2674  0.5870 -0.0268
 4629SOL    HW125523   3.660   2.895   7.781 -0.3064  0.5725 -0.0188
 4629SOL    HW225524   3.785   2.833   7.806 -0.4790  0.4590 -0.5807
 4630SOL     OW25525   3.448   1.428   7.007  0.1663 -0.3496  0.3700
 4630SOL    HW125526   3.407   1.358   7.057 -1.1005 -0.1156 -0.3316
 4630SOL    HW225527   3.393   1.499   7.038 -1.9571 -1.5722 -0.5832
 4631SOL     OW25528   0.524   1.529   1.471 -0.7356  0.3360 -0.0956
 4631SOL    HW125529   0.528   1.519   1.566  1.7076  0.8872 -0.1478
 4631SOL    HW225530   0.583   1.604   1.458 -0.1068 -0.4769 -1.9612
 4632SOL     OW25531   3.871   1.030   0.300  0.4826 -0.3862 -0.2198
 4632SOL    HW125532   3.873   1.103   0.238 -0.4455 -1.0102 -0.9808
 4632SOL    HW225533   3.777   1.031   0.316  0.2391  1.1758 -1.7129
 4633SOL     OW25534   3.591   2.939  11.498  0.7166 -0.0126  0.3355
 4633SOL    HW125535   3.521   3.004  11.496  2.7381  2.1696  1.8393
 4633SOL    HW225536   3.534   2.872  11.459  0.0187  0.3286  0.7638
 4634SOL     OW25537   4.323   1.104   3.427  0.4152  0.0358  0.5766
 4634SOL    HW125538   4.398   1.160   3.446 -0.1705 -0.3644  4.0270
 4634SOL    HW225539   4.260   1.129   3.494  0.6727  1.2599  0.3601
 4635SOL     OW25540   2.419   4.196   8.726  0.1339  0.3378 -0.1592
 4635SOL    HW125541   2.470   4.135   8.779 -0.6575 -0.4755 -0.3235
 4635SOL    HW225542   2.490   4.218   8.665  1.6082  0.4621  1.6058
 4636SOL     OW25543   0.539   2.424  17.508 -0.7340 -0.1890  0.1692
 4636SOL    HW125544   0.450   2.388  17.514 -1.1077  0.4841 -1.2061
 4636SOL    HW225545   0.569   2.352  17.452 -2.9556 -0.2812 -0.9333
 4637SOL     OW25546   2.054   4.697   5.579  0.7531 -0.6436 -0.5609
 4637SOL    HW125547   2.070   0.049   5.602 -1.6893 -0.5791  0.8900
 4637SOL    HW225548   2.065   4.660   5.666  0.0192 -0.7622 -0.5160
 4638SOL     OW25549   3.254   1.215   2.948 -0.1844 -0.5494 -0.0196
 4638SOL    HW125550   3.256   1.280   2.877 -0.3736  1.0673  1.4607
 4638SOL    HW225551   3.174   1.242   2.992  0.2743  0.0156  0.4670
 4639SOL     OW25552   4.024   4.162   3.904 -0.4165 -0.0573 -0.3462
 4639SOL    HW125553   3.993   4.089   3.850 -2.0288  0.4705 -0.1392
 4639SOL    HW225554   4.051   4.117   3.985 -0.9129  0.4165  0.0855
 4640SOL     OW25555   2.702   0.256  14.869  0.1739 -0.1373  0.3469
 4640SOL    HW125556   2.748   0.186  14.915  2.0668  0.5818 -0.4907
 4640SOL    HW225557   2.674   0.295  14.951  2.7469  0.0985  1.0751
 4641SOL     OW25558   3.553   4.091  10.607 -0.3068  0.9495  0.0301
 4641SOL    HW125559   3.457   4.093  10.606 -0.3595 -2.0781  0.0178
 4641SOL    HW225560   3.572   4.014  10.553 -0.9268  0.8904 -0.1066
 4642SOL     OW25561   2.807   0.455   2.241 -0.3332 -0.0370  0.2080
 4642SOL    HW125562   2.885   0.432   2.191 -0.2574 -0.3338  0.4597
 4642SOL    HW225563   2.745   0.441   2.169 -1.8188  1.1895  1.2442
 4643SOL     OW25564   4.713   0.927   5.198  0.2374 -0.2388  0.1642
 4643SOL    HW125565   4.652   0.920   5.271 -0.9552 -1.3983 -0.9355
 4643SOL    HW225566   0.027   1.002   5.224  0.6506  1.5403 -5.5863
 4644SOL     OW25567   1.347   0.840   1.136  0.2071  0.2622  0.0040
 4644SOL    HW125568   1.257   0.811   1.121  0.2171  0.2141  0.0362
 4644SOL    HW225569   1.335   0.872   1.225 -2.7247 -1.8309  0.3708
 4645SOL     OW25570   2.292   0.666  17.540  0.2612  0.7313  0.0673
 4645SOL    HW125571   2.383   0.673  17.570 -0.0062  1.6819  0.6398
 4645SOL    HW225572   2.279   0.750  17.497 -2.1642 -0.1907 -0.9762
 4646SOL     OW25573   3.357   3.840   7.303  0.3454 -0.3844  0.3493
 4646SOL    HW125574   3.444   3.808   7.278  1.1707  1.3383  1.0082
 4646SOL    HW225575   3.300   3.786   7.249  0.8783 -2.3027  1.6859
 4647SOL     OW25576   1.692   0.134   4.750  0.2805  0.0898 -0.2797
 4647SOL    HW125577   1.755   0.069   4.780 -0.6625  0.1891  1.8849
 4647SOL    HW225578   1.678   0.108   4.659  0.3067  0.7360 -0.4655
 4648SOL     OW25579   3.324   0.077  10.816  0.0192 -0.0149 -0.0170
 4648SOL    HW125580   3.275   4.735  10.824  0.3236 -0.1249  0.7532
 4648SOL    HW225581   3.409   0.034  10.829  0.1567  0.6018  1.0741
 4649SOL     OW25582   4.346   0.899  15.128 -0.7212 -0.2956  0.1988
 4649SOL    HW125583   4.383   0.814  15.105 -0.1385  0.5028 -1.8546
 4649SOL    HW225584   4.268   0.897  15.073  0.0629  0.3528 -0.9512
 4650SOL     OW25585   2.410   3.883   5.598  0.3495 -0.1302  0.4629
 4650SOL    HW125586   2.345   3.822   5.565 -0.0433  0.7819 -0.4187
 4650SOL    HW225587   2.477   3.817   5.617 -1.1509 -0.8842  3.1989
 4651SOL     OW25588   1.900   3.433  10.812  0.4281  0.5354 -0.1340
 4651SOL    HW125589   1.929   3.348  10.778 -1.9072 -0.6401  0.8135
 4651SOL    HW225590   1.962   3.491  10.767  0.6051  1.9896  1.9752
 4652SOL     OW25591   2.326   0.703  16.617 -0.1816 -0.1859 -0.4023
 4652SOL    HW125592   2.269   0.778  16.634 -1.2845 -0.9687 -0.7247
 4652SOL    HW225593   2.293   0.659  16.539  2.3128 -1.6352 -0.6307
 4653SOL     OW25594   2.642   1.932  15.604  0.4681  0.1094 -0.4878
 4653SOL    HW125595   2.615   1.886  15.525 -1.9567  1.5949 -0.4945
 4653SOL    HW225596   2.574   1.902  15.664 -0.8865  2.7687 -0.6969
 4654SOL     OW25597   1.977   2.893   8.330 -0.0183 -0.0284 -0.4805
 4654SOL    HW125598   1.927   2.973   8.345  0.4451 -0.3101  2.4804
 4654SOL    HW225599   1.967   2.884   8.235  2.8995 -0.0134 -0.7926
 4655SOL     OW25600   2.064   2.880   7.340  0.3559 -0.0426  0.0432
 4655SOL    HW125601   2.041   2.789   7.322 -0.6093  0.3932 -0.9492
 4655SOL    HW225602   2.065   2.879   7.435  0.7490  0.3620  0.0473
 4656SOL     OW25603   4.537   3.255   4.838 -0.0679 -0.0352 -0.1110
 4656SOL    HW125604   4.576   3.310   4.906 -3.3262  0.2858  1.5127
 4656SOL    HW225605   4.550   3.296   4.753  0.7453 -0.8367 -0.3744
 4657SOL     OW25606   0.692   1.902  14.611  0.1103  0.3285  0.1335
 4657SOL    HW125607   0.749   1.959  14.558  0.3395  1.0685  1.1666
 4657SOL    HW225608   0.615   1.959  14.604 -0.1637 -0.0229  0.3311
 4658SOL     OW25609   1.528   2.641  13.999 -0.5293 -0.1923  0.5341
 4658SOL    HW125610   1.508   2.551  13.972 -1.5997 -0.5317  2.4863
 4658SOL    HW225611   1.578   2.613  14.076 -0.2028 -1.5318 -0.1581
 4659SOL     OW25612   1.814   4.270   8.805 -0.0045 -0.1245  0.1240
 4659SOL    HW125613   1.864   4.285   8.885 -1.7297  3.8208  0.4358
 4659SOL    HW225614   1.779   4.357   8.784 -0.2065  0.0840  1.3601
 4660SOL     OW25615   2.923   3.104   0.669 -0.5879  0.4736 -0.2844
 4660SOL    HW125616   2.878   3.020   0.662  0.6870 -0.1958 -0.3738
 4660SOL    HW225617   2.852   3.160   0.636 -0.8308 -0.4961 -1.4132
 4661SOL     OW25618   1.311   0.775   3.165 -0.3293 -0.3574 -0.0507
 4661SOL    HW125619   1.232   0.753   3.216 -0.2944 -2.2033 -0.7770
 4661SOL    HW225620   1.304   0.869   3.179 -0.2418 -0.1514 -1.4387
 4662SOL     OW25621   0.198   4.716   6.596 -0.3244 -0.8133  0.0965
 4662SOL    HW125622   0.238   0.055   6.634 -0.6793 -0.9941  0.8302
 4662SOL    HW225623   0.208   0.006   6.505  0.5267  0.1549  0.5064
 4663SOL     OW25624   0.050   2.524   8.141  0.3609  0.3148  0.1745
 4663SOL    HW125625   0.104   2.495   8.068  0.9371 -1.0030  1.1218
 4663SOL    HW225626   0.067   2.619   8.136 -0.4410  0.5885  2.4737
 4664SOL     OW25627   0.317   4.308   8.152  0.0768  0.1795 -0.1555
 4664SOL    HW125628   0.410   4.287   8.146  0.7726  3.0267  0.7382
 4664SOL    HW225629   0.281   4.240   8.096 -2.9109 -1.4022  3.6637
 4665SOL     OW25630   3.291   2.221   5.747 -0.3025 -0.0147 -0.1806
 4665SOL    HW125631   3.252   2.306   5.728 -1.4550 -0.6311 -0.6211
 4665SOL    HW225632   3.383   2.238   5.729 -0.7792  2.9837  0.2068
 4666SOL     OW25633   1.655   1.099   5.677 -0.3299 -0.4142 -0.2114
 4666SOL    HW125634   1.639   1.013   5.716  1.3645 -1.7370 -2.4962
 4666SOL    HW225635   1.720   1.133   5.738  1.3318  1.1537 -2.8832
 4667SOL     OW25636   4.646   0.368   5.955  0.6826 -0.1838  0.2653
 4667SOL    HW125637   4.627   0.289   6.006 -0.5323  0.1665  0.3543
 4667SOL    HW225638   4.556   0.396   5.937  0.5748  0.1373  1.3080
 4668SOL     OW25639   2.253   2.484   4.892 -0.0829  0.2957  0.2205
 4668SOL    HW125640   2.226   2.469   4.983 -1.3592 -0.2562 -0.2560
 4668SOL    HW225641   2.345   2.458   4.893 -0.1444  0.0648 -1.2921
 4669SOL     OW25642   1.314   4.718   4.635 -0.3194  0.4875 -0.5748
 4669SOL    HW125643   1.370   4.661   4.687 -1.5378 -0.2497 -0.0593
 4669SOL    HW225644   1.240   0.008   4.688  0.4995  0.4485  0.5922
 4670SOL     OW25645   4.376   4.443  10.439 -0.4139  0.2635 -0.4337
 4670SOL    HW125646   4.454   4.388  10.431  0.3322  1.0798  1.2541
 4670SOL    HW225647   4.315   4.376  10.408  2.0872 -0.7414 -3.1951
 4671SOL     OW25648   4.598   2.241  16.303  0.0828 -0.2058 -0.1342
 4671SOL    HW125649   4.575   2.194  16.383 -0.4295 -0.0221 -0.1755
 4671SOL    HW225650   4.576   2.331  16.326  1.4192 -1.1520  4.7182
 4672SOL     OW25651   3.355   2.640   7.291 -0.3434  0.4730 -0.3264
 4672SOL    HW125652   3.375   2.553   7.255  0.8061  0.6632 -0.1744
 4672SOL    HW225653   3.420   2.690   7.240 -0.1707  0.8880  0.2984
 4673SOL     OW25654   1.363   4.609   1.863 -0.2140  0.1796 -0.0339
 4673SOL    HW125655   1.335   4.554   1.937  0.4042 -1.1222 -0.7702
 4673SOL    HW225656   1.442   4.649   1.898  1.3296 -2.2695 -0.7161
 4674SOL     OW25657   1.690   0.096  14.180 -0.3525 -0.0938  0.4969
 4674SOL    HW125658   1.754   0.155  14.140 -0.6503 -0.6686 -0.8242
 4674SOL    HW225659   1.729   0.009  14.174  0.0118  0.0774  0.3649
 4675SOL     OW25660   2.196   1.421   2.535  0.2258 -0.3844 -0.4660
 4675SOL    HW125661   2.111   1.427   2.578 -0.7193 -2.3185 -2.0734
 4675SOL    HW225662   2.212   1.327   2.543 -1.0556 -0.3634  2.3163
 4676SOL     OW25663   1.006   0.108   7.471 -0.0304  0.5677  0.0738
 4676SOL    HW125664   0.948   0.119   7.396 -0.3566 -1.5322  0.0123
 4676SOL    HW225665   0.961   0.040   7.520  0.1426  1.3707  1.3568
 4677SOL     OW25666   1.234   1.182   2.788 -0.3007 -0.0737  0.4566
 4677SOL    HW125667   1.246   1.276   2.803 -1.1787  0.3314 -1.3800
 4677SOL    HW225668   1.314   1.143   2.825  0.0631  0.8689  0.6519
 4678SOL     OW25669   4.525   0.971   4.104  0.2002 -0.1071  0.7974
 4678SOL    HW125670   4.436   0.995   4.129 -0.2945 -2.2192  1.0635
 4678SOL    HW225671   4.525   0.903   4.036 -0.7679  0.4392  0.2488
 4679SOL     OW25672   4.600   0.020   2.228 -0.2628  0.7637  0.0656
 4679SOL    HW125673   4.693   0.018   2.253 -0.4765 -0.3660  0.7721
 4679SOL    HW225674   4.585   4.679   2.178  0.3651 -0.6097  2.0738
 4680SOL     OW25675   1.178   0.170   7.243  0.0285 -0.7561  0.0755
 4680SOL    HW125676   1.257   0.222   7.261 -0.1596  0.0712 -1.4247
 4680SOL    HW225677   1.163   0.124   7.325 -0.1237 -0.8798 -0.0222
 4681SOL     OW25678   1.154   4.386  10.441 -0.1593 -0.4254 -0.3764
 4681SOL    HW125679   1.169   4.472  10.403 -1.0488 -0.9258 -1.8757
 4681SOL    HW225680   1.195   4.334  10.372 -0.7240 -1.8000  0.3202
 4682SOL     OW25681   3.465   1.701   6.612  0.1958 -0.1440 -0.0220
 4682SOL    HW125682   3.387   1.754   6.597 -0.7181 -2.0177 -1.9146
 4682SOL    HW225683   3.472   1.729   6.703 -0.8890  1.4165 -0.4211
 4683SOL     OW25684   1.974   2.180   2.957 -0.1927  0.1365 -0.2078
 4683SOL    HW125685   1.961   2.189   2.862 -0.0740  1.8075 -0.0655
 4683SOL    HW225686   2.031   2.255   2.975  2.3632 -1.6297 -0.9715
 4684SOL     OW25687   0.764   0.320  10.594 -0.1729  0.1262 -0.3010
 4684SOL    HW125688   0.743   0.412  10.609  0.0547  0.5622 -2.7031
 4684SOL    HW225689   0.708   0.312  10.517  1.0914 -1.1184 -1.0919
 4685SOL     OW25690   1.793   2.682  10.205 -0.9176 -0.0759 -0.2864
 4685SOL    HW125691   1.750   2.707  10.287  0.3308  1.8622 -0.2210
 4685SOL    HW225692   1.782   2.756  10.145  4.0732 -0.3413 -1.5128
 4686SOL     OW25693   2.951   3.276   7.749  0.1824  0.1986 -0.4533
 4686SOL    HW125694   2.996   3.348   7.794 -0.0024  1.4136 -2.1805
 4686SOL    HW225695   2.872   3.311   7.707 -1.1963 -1.3124  0.8912
 4687SOL     OW25696   0.358   4.151  12.833  0.5887  0.3320 -0.2613
 4687SOL    HW125697   0.430   4.214  12.840  0.2088  0.7393 -0.0242
 4687SOL    HW225698   0.395   4.065  12.852  0.1187  0.3274  0.6235
 4688SOL     OW25699   3.436   1.716   0.912 -0.1735 -0.0722  0.4430
 4688SOL    HW125700   3.342   1.723   0.897 -0.4614 -1.9677  1.3565
 4688SOL    HW225701   3.435   1.709   1.007 -2.1436  0.5917  0.4631
 4689SOL     OW25702   3.243   3.304   2.344 -0.1048  0.3747 -0.0880
 4689SOL    HW125703   3.271   3.242   2.276 -0.8990 -0.1099  0.0186
 4689SOL    HW225704   3.290   3.382   2.316  1.3969 -1.1343 -1.7018
 4690SOL     OW25705   2.135   0.293  12.879  0.1441 -0.2773 -0.0888
 4690SOL    HW125706   2.060   0.283  12.937  0.5468 -0.3636  0.4101
 4690SOL    HW225707   2.133   0.210  12.831 -0.8666 -0.5110  0.3568
 4691SOL     OW25708   1.933   0.361   4.571  0.7973 -0.3822  0.2584
 4691SOL    HW125709   1.922   0.339   4.478  1.1850  0.9320 -0.0927
 4691SOL    HW225710   1.936   0.275   4.614 -3.0150 -0.5394  0.2258
 4692SOL     OW25711   0.192   1.735   8.508  0.6704  1.0046  0.3270
 4692SOL    HW125712   0.244   1.814   8.490  1.1179  1.5531  4.1092
 4692SOL    HW225713   0.160   1.749   8.597 -0.1364 -1.3640  0.4306
 4693SOL     OW25714   4.354   0.972   6.051  0.6074  0.3074  0.1127
 4693SOL    HW125715   4.323   0.916   6.123  0.3995  0.7548  0.3723
 4693SOL    HW225716   4.267   1.006   6.030  0.6155  0.0474 -0.3506
 4694SOL     OW25717   2.253   2.124   4.342  0.3154 -0.3760 -0.1211
 4694SOL    HW125718   2.297   2.102   4.260 -0.2501 -1.3717 -0.1580
 4694SOL    HW225719   2.294   2.207   4.368 -1.7047  0.2382  1.0973
 4695SOL     OW25720   0.612   2.342  10.554 -0.2115  0.0421 -0.4203
 4695SOL    HW125721   0.581   2.376  10.639  0.3239  0.6243 -0.4583
 4695SOL    HW225722   0.569   2.257  10.554  1.2915 -0.7278  1.3038
 4696SOL     OW25723   4.302   0.540   3.535  0.8516 -0.1192  0.3330
 4696SOL    HW125724   4.297   0.508   3.625 -1.0827 -0.8598 -0.0383
 4696SOL    HW225725   4.388   0.582   3.544  1.6488 -1.6526 -0.1144
 4697SOL     OW25726   1.013   3.388   1.795 -0.2059 -0.2871  0.1727
 4697SOL    HW125727   0.995   3.419   1.707 -3.6922 -1.4299  0.4989
 4697SOL    HW225728   0.935   3.337   1.816 -1.5897  1.0479 -1.8219
 4698SOL     OW25729   1.516   3.449   6.159 -0.5253 -0.3944  0.2793
 4698SOL    HW125730   1.482   3.437   6.247  0.4012 -0.5722  0.6150
 4698SOL    HW225731   1.501   3.543   6.145 -1.0477 -0.4947  0.1717
 4699SOL     OW25732   3.890   3.561  10.113  0.1468 -0.2028  0.6142
 4699SOL    HW125733   3.926   3.638  10.158 -0.7471 -0.0415  1.0627
 4699SOL    HW225734   3.839   3.530  10.188  1.9003 -0.6170  1.6464
 4700SOL     OW25735   3.924   3.986  10.415 -0.3086  0.5963 -0.3506
 4700SOL    HW125736   3.971   4.018  10.492 -0.4735  0.7739 -0.3223
 4700SOL    HW225737   3.858   4.054  10.400 -1.1416 -0.0201  0.5084
 4701SOL     OW25738   4.072   3.192   2.527 -0.0143  0.1768 -0.4855
 4701SOL    HW125739   4.083   3.219   2.619 -0.6758  1.5686 -0.8288
 4701SOL    HW225740   4.039   3.268   2.480  1.1760  1.8943  1.4610
 4702SOL     OW25741   2.246   1.536   2.281  0.6302  0.3521 -0.1505
 4702SOL    HW125742   2.213   1.502   2.363  1.0905 -1.1134 -0.5726
 4702SOL    HW225743   2.308   1.464   2.269 -0.1560 -0.3642  0.0891
 4703SOL     OW25744   0.041   2.254  10.936 -0.3170 -0.0276 -0.6993
 4703SOL    HW125745   0.099   2.181  10.956 -1.7868 -1.0548 -0.1672
 4703SOL    HW225746   0.033   2.284  11.026  1.7554 -1.0997 -0.1604
 4704SOL     OW25747   0.757   3.145   9.263  0.0073  0.0730 -0.1643
 4704SOL    HW125748   0.776   3.234   9.232  2.0737 -0.9434 -1.8047
 4704SOL    HW225749   0.662   3.133   9.271  0.3017 -1.7182  0.4747
 4705SOL     OW25750   4.094   2.074  14.221  0.6670  0.3875 -0.0029
 4705SOL    HW125751   4.001   2.092  14.205  0.4287  1.2424  2.3181
 4705SOL    HW225752   4.099   2.141  14.289  1.4221 -1.9132  2.2348
 4706SOL     OW25753   4.069   2.213   6.146  0.8103  0.4360  0.4260
 4706SOL    HW125754   4.105   2.278   6.086  0.7405  1.3992  1.4496
 4706SOL    HW225755   4.141   2.171   6.193  0.4568 -2.9046 -2.0110
 4707SOL     OW25756   3.750   0.964   1.972 -0.1858 -0.0430 -0.1704
 4707SOL    HW125757   3.828   0.990   2.020 -0.1426 -1.5476  0.5805
 4707SOL    HW225758   3.740   0.872   1.998 -1.6137 -0.0922 -0.8631
 4708SOL     OW25759   4.338   2.421   9.078  0.4342 -0.0628  0.1394
 4708SOL    HW125760   4.342   2.472   9.158 -0.1204  0.1695  0.0206
 4708SOL    HW225761   4.283   2.351   9.114  1.2800 -1.0014 -0.3985
 4709SOL     OW25762   0.170   3.313  16.695 -0.3016  0.1637  0.5095
 4709SOL    HW125763   0.212   3.313  16.609 -1.4492 -0.4651 -0.0560
 4709SOL    HW225764   0.244   3.285  16.748  1.6888  0.5422 -2.0893
 4710SOL     OW25765   3.899   4.085   6.240 -0.5104 -0.1870 -0.1711
 4710SOL    HW125766   3.959   4.121   6.306  0.5384 -0.0084 -1.2320
 4710SOL    HW225767   3.819   4.113   6.285  1.3059  0.0494  2.9025
 4711SOL     OW25768   0.385   4.497  13.633  0.2394  0.7580 -0.0833
 4711SOL    HW125769   0.463   4.486  13.579  0.9792 -0.7888  1.3028
 4711SOL    HW225770   0.400   4.579  13.681  0.2882 -0.2020  1.5404
 4712SOL     OW25771   0.883   2.001   9.330  0.4452  0.0342 -0.2546
 4712SOL    HW125772   0.865   2.095   9.332 -0.9957 -0.2359 -0.1078
 4712SOL    HW225773   0.940   1.999   9.406 -0.1461  1.0182  0.2194
 4713SOL     OW25774   1.522   4.476   9.414  0.6006 -0.0123  0.0225
 4713SOL    HW125775   1.580   4.541   9.375  0.9890 -1.1693 -1.3037
 4713SOL    HW225776   1.514   4.502   9.506 -0.3918 -0.9851  0.2045
 4714SOL     OW25777   2.301   1.637  13.990 -0.1405  0.1281 -0.2951
 4714SOL    HW125778   2.303   1.733  13.994  1.0017  0.1913 -1.8221
 4714SOL    HW225779   2.269   1.628  13.900  1.6619 -1.9352 -0.7476
 4715SOL     OW25780   1.867   0.817  15.360  0.1118  0.6474  0.6305
 4715SOL    HW125781   1.902   0.859  15.282  1.0560  0.6959  1.0807
 4715SOL    HW225782   1.787   0.869  15.374 -0.6347  0.0665 -1.5543
 4716SOL     OW25783   4.359   4.033   2.299  0.1731  0.0204  0.0700
 4716SOL    HW125784   4.307   4.113   2.293  0.8034  0.3005 -1.4637
 4716SOL    HW225785   4.297   3.960   2.308 -0.0397 -0.0954 -2.3821
 4717SOL     OW25786   4.449   1.779  13.180  0.1070  0.3013  0.3800
 4717SOL    HW125787   4.403   1.829  13.248 -0.6123 -1.3019  1.0749
 4717SOL    HW225788   4.379   1.776  13.114 -0.0414  0.1258  0.5460
 4718SOL     OW25789   1.198   4.143   7.978  0.8970 -0.1984  0.2217
 4718SOL    HW125790   1.221   4.052   7.959 -1.2660 -0.5586 -0.5992
 4718SOL    HW225791   1.154   4.139   8.063  3.0837 -1.7811  1.2839
 4719SOL     OW25792   2.526   1.078   0.890  0.2446 -0.5439 -0.6068
 4719SOL    HW125793   2.498   1.036   0.809 -1.7953  0.9945 -0.6846
 4719SOL    HW225794   2.550   1.003   0.944 -1.7517 -0.0554  0.9571
 4720SOL     OW25795   0.746   3.913   8.263 -0.2192  0.0998  0.0920
 4720SOL    HW125796   0.674   3.882   8.207 -0.6402  1.5884 -0.1864
 4720SOL    HW225797   0.809   3.954   8.205  0.6278  0.2473  1.1033
 4721SOL     OW25798   0.988   2.335   9.585  0.2981  0.3826 -0.0744
 4721SOL    HW125799   1.072   2.316   9.628  0.4116 -1.2111 -1.0332
 4721SOL    HW225800   0.987   2.429   9.602  0.0971  0.2201  0.8112
 4722SOL     OW25801   2.226   1.498  11.811 -0.8396 -0.1754 -0.0276
 4722SOL    HW125802   2.213   1.590  11.788 -2.3894  0.2254  2.5006
 4722SOL    HW225803   2.170   1.474  11.737 -0.2374  1.1345 -0.9101
 4723SOL     OW25804   2.609   3.739   2.869  0.2212  0.4588 -0.2062
 4723SOL    HW125805   2.650   3.701   2.791 -0.0180  3.0523 -1.5761
 4723SOL    HW225806   2.687   3.778   2.906  0.3157 -0.5361  0.6537
 4724SOL     OW25807   2.044   3.293   8.573 -0.1335 -0.6163 -0.2889
 4724SOL    HW125808   2.094   3.220   8.538  0.4974  0.3609 -1.4195
 4724SOL    HW225809   1.963   3.247   8.596 -0.4577 -0.4711 -1.1588
 4725SOL     OW25810   0.194   1.925  17.096  0.1530  0.5426 -0.2952
 4725SOL    HW125811   0.112   1.971  17.113  0.8764  1.6775  0.1366
 4725SOL    HW225812   0.258   1.995  17.087  1.0702 -0.2317  0.1705
 4726SOL     OW25813   3.300   2.270  14.361  0.0809  0.1275  0.3204
 4726SOL    HW125814   3.379   2.216  14.362  0.3755  0.5348 -1.6697
 4726SOL    HW225815   3.263   2.260  14.449  0.4657 -0.6829  0.3924
 4727SOL     OW25816   3.296   4.213   5.610 -0.4236 -0.1591  0.2746
 4727SOL    HW125817   3.246   4.141   5.650  0.0132 -2.0218 -2.5198
 4727SOL    HW225818   3.372   4.209   5.668  0.6914 -0.4416 -1.2028
 4728SOL     OW25819   2.043   1.004  14.538  0.0597 -0.2829 -0.1112
 4728SOL    HW125820   2.038   1.078  14.479 -0.3377  0.0819  0.3815
 4728SOL    HW225821   1.972   1.029  14.598 -0.5080 -0.2084 -0.8161
 4729SOL     OW25822   4.055   3.902   7.557  0.2737  0.0919  0.0446
 4729SOL    HW125823   3.970   3.926   7.520  0.8102  0.5503 -0.8534
 4729SOL    HW225824   4.110   3.869   7.486  2.2803  3.9799 -0.1993
 4730SOL     OW25825   3.389   3.587   7.490  0.4744 -0.0280  0.2739
 4730SOL    HW125826   3.411   3.636   7.410 -2.4207 -1.1409 -1.1781
 4730SOL    HW225827   3.388   3.496   7.462  1.6237  0.0468 -0.0070
 4731SOL     OW25828   3.022   1.049   7.394  0.7021  0.0560 -0.2408
 4731SOL    HW125829   2.977   1.133   7.391  0.7767  0.1666  1.3586
 4731SOL    HW225830   3.070   1.072   7.474  0.6510 -1.3015  0.1820
 4732SOL     OW25831   1.999   2.066   3.386  0.2347  0.3715 -0.2095
 4732SOL    HW125832   1.932   2.061   3.318  0.2704  1.3055 -0.3111
 4732SOL    HW225833   2.006   1.979   3.425 -0.3264  1.3160  1.9717
 4733SOL     OW25834   2.551   1.557   8.572 -0.2096 -0.3542  0.1413
 4733SOL    HW125835   2.579   1.474   8.533  1.8927  0.8319 -0.8808
 4733SOL    HW225836   2.569   1.542   8.665 -0.7393 -2.2448 -0.0548
 4734SOL     OW25837   2.811   0.304   0.291  0.3126 -0.5983  0.2732
 4734SOL    HW125838   2.788   0.213   0.307  0.1181 -0.9701 -2.1842
 4734SOL    HW225839   2.777   0.307   0.202  1.0912  3.7226  0.0709
 4735SOL     OW25840   1.237   0.913   7.797 -0.9115  0.5863 -0.0754
 4735SOL    HW125841   1.204   0.968   7.726  0.1701 -0.3534 -1.3153
 4735SOL    HW225842   1.238   0.975   7.869 -1.2151 -0.6231  0.9656
 4736SOL     OW25843   4.695   2.508   3.658  0.1246 -0.1429  0.2132
 4736SOL    HW125844   4.653   2.429   3.623  2.1561 -0.9577 -0.3572
 4736SOL    HW225845   0.049   2.490   3.653  0.5391  1.5435  1.6997
 4737SOL     OW25846   2.967   4.389  12.607 -0.0234 -1.1424 -0.3564
 4737SOL    HW125847   2.941   4.371  12.517  0.1340  2.4765 -1.1152
 4737SOL    HW225848   2.913   4.325  12.654 -1.8413  0.6614  0.0187
 4738SOL     OW25849   3.493   1.207  15.078  0.3888 -0.1058 -0.4066
 4738SOL    HW125850   3.502   1.223  14.984 -0.5958 -0.3873 -0.5438
 4738SOL    HW225851   3.400   1.189  15.086  0.8603 -2.1951  0.3394
 4739SOL     OW25852   3.590   3.701  12.901  0.1614 -0.0513  0.2192
 4739SOL    HW125853   3.554   3.732  12.984 -0.8690 -1.2197  0.1964
 4739SOL    HW225854   3.527   3.745  12.844 -0.0766 -1.3648 -0.5154
 4740SOL     OW25855   4.388   4.396  15.160 -0.3470  0.0828 -0.0043
 4740SOL    HW125856   4.429   4.317  15.195 -0.6487 -0.2923 -0.5135
 4740SOL    HW225857   4.336   4.418  15.238  1.6613  1.8837  0.8483
 4741SOL     OW25858   1.030   0.668   4.091 -0.7051  0.1756  0.0831
 4741SOL    HW125859   1.094   0.702   4.155  0.5964 -1.7641 -0.1572
 4741SOL    HW225860   1.041   0.573   4.102  2.6887  0.6165  0.5803
 4742SOL     OW25861   4.628   4.492  14.116 -0.8820 -0.0088 -0.2994
 4742SOL    HW125862   4.589   4.578  14.129 -0.0787  0.7760 -3.0746
 4742SOL    HW225863   4.670   4.509  14.031 -1.7203  2.5107 -0.2004
 4743SOL     OW25864   2.736   4.459  15.901 -0.3232 -0.0989 -0.5376
 4743SOL    HW125865   2.737   4.536  15.958 -0.0001 -1.7043  1.6324
 4743SOL    HW225866   2.659   4.411  15.931 -0.2491  0.3258  0.3414
 4744SOL     OW25867   0.694   3.149  17.184  0.2020 -0.6331 -0.5127
 4744SOL    HW125868   0.667   3.233  17.148  0.3362 -0.4906 -0.2791
 4744SOL    HW225869   0.680   3.093  17.108 -0.4496 -1.8690  0.5035
 4745SOL     OW25870   1.603   3.099   0.541 -0.1272  0.2139  0.7303
 4745SOL    HW125871   1.626   3.090   0.633  0.6525  1.9051  0.6988
 4745SOL    HW225872   1.510   3.102   0.563 -0.3784 -1.0628 -0.1360
 4746SOL     OW25873   4.365   0.129   6.775  0.0239  0.5178 -0.2587
 4746SOL    HW125874   4.355   0.057   6.713  0.7592 -0.1576  0.4055
 4746SOL    HW225875   4.428   0.184   6.729 -0.0364  1.8226  1.2042
 4747SOL     OW25876   4.282   4.219   9.146  0.4900 -0.2560  0.9818
 4747SOL    HW125877   4.216   4.168   9.099  1.6309 -1.1522  0.3073
 4747SOL    HW225878   4.250   4.221   9.236 -1.6329  0.5175  0.2047
 4748SOL     OW25879   1.198   1.203  10.095 -0.3848 -0.4074  0.0898
 4748SOL    HW125880   1.191   1.295  10.119 -1.1084 -0.9157  1.8457
 4748SOL    HW225881   1.111   1.184  10.059 -0.5157 -0.2271  0.3120
 4749SOL     OW25882   2.244   4.227   0.275  0.0505 -0.2968 -0.3327
 4749SOL    HW125883   2.152   4.209   0.291 -0.0200 -0.3765 -0.8311
 4749SOL    HW225884   2.247   4.300   0.213 -0.2882  1.2055  1.4131
 4750SOL     OW25885   0.198   1.691   0.635 -0.0353  0.5650  0.3795
 4750SOL    HW125886   0.166   1.612   0.592 -2.6103  0.9556  1.5555
 4750SOL    HW225887   0.276   1.673   0.687 -0.1965  1.0526  0.7953
 4751SOL     OW25888   2.439   3.147   4.231 -0.2184 -0.0526  0.2705
 4751SOL    HW125889   2.465   3.066   4.186  0.4764  1.0101 -1.2323
 4751SOL    HW225890   2.352   3.128   4.267 -0.1058  0.0448  0.5973
 4752SOL     OW25891   0.034   0.517  16.214  0.3573  0.7863  0.5492
 4752SOL    HW125892   4.708   0.574  16.255 -0.1899 -0.2558  1.1271
 4752SOL    HW225893   0.049   0.561  16.130 -1.4958 -0.4757 -0.4407
 4753SOL     OW25894   0.359   3.636   5.935  0.7383 -0.3253 -0.5674
 4753SOL    HW125895   0.419   3.685   5.991  0.8901 -2.5278  1.2160
 4753SOL    HW225896   0.336   3.574   6.004 -0.8795 -0.0253 -0.8407
 4754SOL     OW25897   4.698   0.736  17.325  0.0033  0.1437 -0.4826
 4754SOL    HW125898   4.708   0.825  17.291 -1.7163  0.2859 -0.5884
 4754SOL    HW225899   4.738   0.739  17.413 -2.6239 -1.3074  0.7510
 4755SOL     OW25900   1.238   3.139   7.670 -0.5218 -0.4912 -0.6930
 4755SOL    HW125901   1.237   3.044   7.661 -1.8725 -0.6662  1.2084
 4755SOL    HW225902   1.145   3.157   7.687 -0.3397 -0.6373  0.4603
 4756SOL     OW25903   2.936   1.164  16.956  0.1149  0.2465  0.1156
 4756SOL    HW125904   3.014   1.161  17.012  0.9717 -0.3908 -1.1017
 4756SOL    HW225905   2.874   1.134  17.022  0.7972 -1.7031 -0.1298
 4757SOL     OW25906   0.588   2.550   3.098  0.3483  0.1062 -0.5280
 4757SOL    HW125907   0.516   2.524   3.157  1.0213  0.3021  0.3718
 4757SOL    HW225908   0.642   2.471   3.096  0.8823  0.5347 -2.7668
 4758SOL     OW25909   0.433   3.729  11.747 -0.3897 -0.0890  0.3124
 4758SOL    HW125910   0.422   3.761  11.837  1.7655 -0.7867  0.8326
 4758SOL    HW225911   0.489   3.797  11.709 -0.1761 -0.0954  0.6076
 4759SOL     OW25912   1.215   1.486   4.119 -0.0497  0.3573 -0.0294
 4759SOL    HW125913   1.257   1.423   4.177 -1.0911 -1.1738 -0.9638
 4759SOL    HW225914   1.135   1.443   4.091  1.0955 -2.4807  1.0246
 4760SOL     OW25915   1.243   4.531   0.916 -0.6206 -0.4271  0.8869
 4760SOL    HW125916   1.192   4.556   0.992 -0.5129  1.2528  0.4124
 4760SOL    HW225917   1.313   4.474   0.948 -1.5203 -1.8158  0.3834
 4761SOL     OW25918   1.011   0.838   1.176  0.7422 -0.3001  0.3602
 4761SOL    HW125919   1.019   0.906   1.110  2.1074 -0.4882  0.3378
 4761SOL    HW225920   1.029   0.889   1.255 -3.7430  0.3329  0.9794
 4762SOL     OW25921   4.016   4.170   4.777  0.1783 -0.6896  0.1972
 4762SOL    HW125922   4.063   4.235   4.830 -1.8687 -0.3433  1.6041
 4762SOL    HW225923   4.086   4.105   4.766  0.2023 -0.8289  1.0976
 4763SOL     OW25924   3.115   1.635   4.682 -0.7909  0.5331  0.5428
 4763SOL    HW125925   3.170   1.609   4.608 -2.8213 -0.6900 -0.5448
 4763SOL    HW225926   3.028   1.618   4.645 -0.0588 -2.4590  0.1878
 4764SOL     OW25927   4.168   1.886   5.065 -0.0496 -0.0013 -0.2120
 4764SOL    HW125928   4.103   1.857   5.001 -0.7972 -0.9631  0.9780
 4764SOL    HW225929   4.205   1.961   5.018  3.8606  1.0465  4.5090
 4765SOL     OW25930   2.669   1.007   3.887 -0.4892 -0.4986  0.3736
 4765SOL    HW125931   2.591   0.978   3.933 -0.3139 -0.9384  0.3921
 4765SOL    HW225932   2.736   0.953   3.929  0.3225  1.5150  1.6499
 4766SOL     OW25933   3.740   4.738   8.478 -0.2748 -0.2305  0.2661
 4766SOL    HW125934   3.650   0.015   8.506 -0.3820 -1.4606  0.6546
 4766SOL    HW225935   3.796   4.739   8.555  0.5159  2.2674 -0.3486
 4767SOL     OW25936   0.132   4.200   2.150  0.0215 -0.2832  0.1763
 4767SOL    HW125937   0.070   4.144   2.197 -2.2246  1.4465 -0.7384
 4767SOL    HW225938   0.069   4.250   2.098  0.9789  0.5281 -0.2129
 4768SOL     OW25939   2.767   1.480  12.405  0.3690  0.2219 -0.3167
 4768SOL    HW125940   2.751   1.391  12.376  0.8710 -0.0158  0.1352
 4768SOL    HW225941   2.792   1.466  12.497 -0.8064  3.4085  0.4952
 4769SOL     OW25942   2.972   2.950   8.268  0.4309 -0.1632 -0.0829
 4769SOL    HW125943   2.955   2.932   8.361 -4.3085 -1.9181 -1.2732
 4769SOL    HW225944   2.909   2.897   8.219  0.2560  0.1950 -0.2444
 4770SOL     OW25945   2.628   3.461   4.777 -0.1610 -0.5264 -0.5081
 4770SOL    HW125946   2.633   3.529   4.710 -1.4060 -1.4056 -1.4923
 4770SOL    HW225947   2.587   3.513   4.846 -0.8179 -1.1347 -0.4389
 4771SOL     OW25948   0.727   4.548   4.506  0.1051 -0.9693 -0.1980
 4771SOL    HW125949   0.761   4.635   4.526 -3.1009  0.4056 -0.7173
 4771SOL    HW225950   0.677   4.549   4.424  0.4734  1.6249 -0.3856
 4772SOL     OW25951   0.540   0.111   3.123 -0.4568  0.1373  0.1217
 4772SOL    HW125952   0.496   0.028   3.141 -0.7353  0.1658 -0.4245
 4772SOL    HW225953   0.570   0.136   3.210  1.0567 -0.7604 -0.1320
 4773SOL     OW25954   3.266   0.864   9.220  0.0386  0.2918 -0.4399
 4773SOL    HW125955   3.265   0.814   9.301 -2.8108 -0.1773 -0.7607
 4773SOL    HW225956   3.263   0.953   9.254  0.6933 -0.2308  0.9492
 4774SOL     OW25957   3.211   2.800   8.277  0.1987  0.0289 -0.4694
 4774SOL    HW125958   3.132   2.852   8.262  0.2647  0.1898 -0.2445
 4774SOL    HW225959   3.177   2.712   8.258 -1.6692  0.7472 -0.4598
 4775SOL     OW25960   1.948   1.420   5.150 -0.4442 -0.4512 -0.1569
 4775SOL    HW125961   1.935   1.393   5.241 -0.3563  1.3104  0.3833
 4775SOL    HW225962   1.865   1.394   5.110 -1.6656 -1.8299  3.2481
 4776SOL     OW25963   2.366   4.110   6.937 -0.0475 -1.1522 -0.2118
 4776SOL    HW125964   2.380   4.149   7.024  0.2571 -1.8809  0.0643
 4776SOL    HW225965   2.406   4.025   6.953 -0.3718 -1.5151 -1.3699
 4777SOL     OW25966   0.036   1.568  12.217 -0.1277 -0.3242 -0.5919
 4777SOL    HW125967   0.116   1.515  12.220  0.8515  1.1461 -0.6447
 4777SOL    HW225968   0.003   1.574  12.307 -0.7942 -0.8966 -0.8078
 4778SOL     OW25969   2.965   1.071   1.352 -0.1620  0.3340  0.3733
 4778SOL    HW125970   3.051   1.096   1.318 -1.4174  1.3814 -2.0401
 4778SOL    HW225971   2.930   1.026   1.275  1.7243  1.4328 -1.1387
 4779SOL     OW25972   1.602   0.035   9.424 -0.5655 -0.5091  0.3771
 4779SOL    HW125973   1.635   0.082   9.500  1.6917  0.5428 -1.2695
 4779SOL    HW225974   1.596   0.108   9.362 -3.1614  1.0164  2.3947
 4780SOL     OW25975   0.981   3.323   5.467 -0.2419 -0.4685  0.1409
 4780SOL    HW125976   0.899   3.303   5.513 -0.9079  2.3452  0.2443
 4780SOL    HW225977   0.953   3.357   5.382 -0.3715 -0.6792  0.0988
 4781SOL     OW25978   3.912   2.343  15.356  0.1680  0.6879  0.9084
 4781SOL    HW125979   3.981   2.325  15.420  0.4010  0.1991  0.5213
 4781SOL    HW225980   3.968   2.397  15.301  1.1564 -0.7416  0.4978
 4782SOL     OW25981   4.605   3.248   8.743  0.1855 -0.8026 -0.2242
 4782SOL    HW125982   4.624   3.191   8.818  0.4268  2.1271  1.9098
 4782SOL    HW225983   4.581   3.179   8.680 -0.2912 -0.8166 -0.0273
 4783SOL     OW25984   1.547   0.255  14.338 -0.0677 -0.0926 -0.2244
 4783SOL    HW125985   1.576   0.336  14.296 -0.6684 -0.1664 -0.7790
 4783SOL    HW225986   1.574   0.182  14.282 -1.5979 -1.1023  0.3641
 4784SOL     OW25987   3.615   3.134   7.960  0.1487  0.1478 -0.4904
 4784SOL    HW125988   3.695   3.095   7.995 -0.4843  0.2661  1.0852
 4784SOL    HW225989   3.624   3.221   7.998  1.2283 -0.2890  0.2421
 4785SOL     OW25990   1.295   0.077   6.199 -0.0486 -0.2585  0.0193
 4785SOL    HW125991   1.208   0.104   6.172 -0.5027  1.1548  2.9494
 4785SOL    HW225992   1.353   0.102   6.127 -1.4311  0.1869 -0.9431
 4786SOL     OW25993   0.316   4.638   5.312  0.2175  0.1489  0.2169
 4786SOL    HW125994   0.403   4.674   5.294  0.3742 -0.4859 -0.2969
 4786SOL    HW225995   0.302   4.574   5.243 -0.4440 -0.4166  0.8801
 4787SOL     OW25996   4.397   1.037   6.446  0.1279 -0.3482 -0.1004
 4787SOL    HW125997   4.315   1.062   6.488  0.5876 -0.7167  1.0410
 4787SOL    HW225998   4.394   1.073   6.358 -1.1458  1.8624  0.8344
 4788SOL     OW25999   1.472   1.495  13.297  0.1662 -0.3578 -0.2030
 4788SOL    HW126000   1.522   1.414  13.305  1.4218  0.3723 -0.7463
 4788SOL    HW226001   1.541   1.561  13.306  0.3976 -0.4670 -1.2269
 4789SOL     OW26002   1.754   0.943   9.467 -0.2851  0.4423 -0.0904
 4789SOL    HW126003   1.659   0.949   9.477 -0.3192  0.5036 -0.4576
 4789SOL    HW226004   1.781   1.022   9.515 -0.2765 -0.1133  0.8267
 4790SOL     OW26005   0.827   3.794   4.447 -0.6179  0.3821 -0.0856
 4790SOL    HW126006   0.892   3.778   4.379 -1.9054  0.8283 -1.4183
 4790SOL    HW226007   0.828   3.887   4.466 -0.2662  0.1076  1.2765
 4791SOL     OW26008   0.807   1.178   6.542  0.0602 -0.0116 -0.3797
 4791SOL    HW126009   0.758   1.101   6.571  1.1015 -0.2296  0.7924
 4791SOL    HW226010   0.847   1.146   6.462  2.4697  1.1742  0.3522
 4792SOL     OW26011   0.435   1.037   3.199  0.3511 -0.5780  0.2557
 4792SOL    HW126012   0.529   1.038   3.180  0.1599  1.0177 -0.5997
 4792SOL    HW226013   0.443   1.052   3.293 -0.3095  2.4308 -0.1870
 4793SOL     OW26014   3.894   0.608   6.898 -0.8072 -0.1668 -0.1984
 4793SOL    HW126015   3.851   0.686   6.931 -0.1533 -0.2903  0.9426
 4793SOL    HW226016   3.940   0.645   6.822 -0.1884 -0.6531 -0.0619
 4794SOL     OW26017   4.443   4.084   6.802  0.4631  0.2833  0.2678
 4794SOL    HW126018   4.412   4.074   6.892 -1.0285 -2.7024 -0.5915
 4794SOL    HW226019   4.354   4.092   6.767  0.0038 -0.2446  1.3015
 4795SOL     OW26020   1.978   4.079   3.015  0.5466  0.8726 -0.5586
 4795SOL    HW126021   1.972   4.068   2.920  2.4052  1.2272 -0.7045
 4795SOL    HW226022   1.971   4.175   3.015 -0.8528  0.7787 -0.7204
 4796SOL     OW26023   2.164   1.280   4.988  1.0100 -0.6454  0.7025
 4796SOL    HW126024   2.103   1.333   5.038 -1.4831 -1.6416 -1.2948
 4796SOL    HW226025   2.155   1.206   5.047 -1.9194 -1.6805 -1.0474
 4797SOL     OW26026   1.988   4.699   7.632  0.1082 -0.5560  0.0127
 4797SOL    HW126027   1.985   4.701   7.728 -5.5923 -0.4085 -0.1916
 4797SOL    HW226028   2.072   4.654   7.623  1.8236  2.9200 -1.2326
 4798SOL     OW26029   3.154   1.907   6.414 -0.3541  0.3179 -0.3517
 4798SOL    HW126030   3.226   1.945   6.464  0.5420 -2.5452  0.5353
 4798SOL    HW226031   3.154   1.815   6.439  1.7932  0.6797  0.9556
 4799SOL     OW26032   3.374   4.117  14.073 -0.0577  0.3102  0.0518
 4799SOL    HW126033   3.466   4.093  14.081  0.3605  2.6172  2.0411
 4799SOL    HW226034   3.372   4.211  14.086  2.0065  0.6719 -2.2013
 4800SOL     OW26035   2.229   4.140   1.482  0.4041  0.3347 -0.2233
 4800SOL    HW126036   2.304   4.150   1.423 -1.1108  2.7636 -1.7723
 4800SOL    HW226037   2.162   4.105   1.423  0.1783 -2.4630  1.7037
 4801SOL     OW26038   3.353   2.766   8.851 -0.0848 -1.0718 -0.0490
 4801SOL    HW126039   3.266   2.726   8.841 -0.2819 -1.5112  3.2762
 4801SOL    HW226040   3.395   2.703   8.794  0.4984  0.3112 -1.1359
 4802SOL     OW26041   1.434   1.400   6.725 -0.3601 -0.0148  0.1061
 4802SOL    HW126042   1.431   1.421   6.818  1.0649  0.7258 -0.0050
 4802SOL    HW226043   1.525   1.422   6.701 -0.4051 -0.1147 -0.1600
 4803SOL     OW26044   1.841   3.437   1.835 -0.2335 -0.5826  0.0716
 4803SOL    HW126045   1.782   3.449   1.760 -1.4801  1.9398  1.4291
 4803SOL    HW226046   1.927   3.428   1.794  0.1419  1.2420  0.4232
 4804SOL     OW26047   0.694   4.433  11.494 -0.3443  0.2270 -0.4942
 4804SOL    HW126048   0.690   4.421  11.589  2.5452 -1.9152 -0.6322
 4804SOL    HW226049   0.779   4.475  11.481 -0.5050  0.4409 -0.8451
 4805SOL     OW26050   2.916   4.571  14.501 -0.1705  0.0853 -0.1492
 4805SOL    HW126051   2.925   4.485  14.459  0.9549  0.7709 -1.3114
 4805SOL    HW226052   2.863   4.630  14.449 -0.1323 -0.5571 -0.9177
 4806SOL     OW26053   3.481   1.807   7.231 -0.2624  0.5649  1.3116
 4806SOL    HW126054   3.451   1.763   7.310 -1.2639 -2.9165 -1.0014
 4806SOL    HW226055   3.537   1.875   7.269  0.2604  2.0701 -2.1493
 4807SOL     OW26056   4.714   1.146   7.651  0.4026 -0.5375  0.5683
 4807SOL    HW126057   0.068   1.167   7.649  0.0738  1.2035  2.1065
 4807SOL    HW226058   4.703   1.093   7.573 -0.3492  0.5183 -0.0441
 4808SOL     OW26059   3.341   3.702   4.081 -0.8859 -0.0330 -0.1820
 4808SOL    HW126060   3.434   3.709   4.062 -0.5074 -2.3291  0.9698
 4808SOL    HW226061   3.331   3.739   4.168 -0.0052  0.2636 -0.2060
 4809SOL     OW26062   0.089   2.230   7.650  0.5154 -0.2515  0.6221
 4809SOL    HW126063   0.086   2.291   7.576  3.4871 -0.2807  0.4809
 4809SOL    HW226064   0.167   2.176   7.637  0.1533 -0.6211 -0.0167
 4810SOL     OW26065   0.983   3.819   6.735 -0.0933  0.1552  0.4393
 4810SOL    HW126066   1.018   3.813   6.823 -1.7895 -0.5497  1.0556
 4810SOL    HW226067   1.062   3.785   6.693  0.0954  1.1563 -0.0211
 4811SOL     OW26068   1.452   3.050   4.929  0.0885 -0.1681 -0.1518
 4811SOL    HW126069   1.389   3.049   4.857 -0.2657  1.4015  0.1442
 4811SOL    HW226070   1.396   3.042   5.006 -1.5225 -1.3752 -1.4449
 4812SOL     OW26071   3.659   4.006   5.818  0.4012  0.5269  0.4309
 4812SOL    HW126072   3.672   3.914   5.792 -0.4015  0.3428  0.6959
 4812SOL    HW226073   3.740   4.021   5.867  0.8300 -1.8462  0.4730
 4813SOL     OW26074   4.561   4.126   4.202  0.1187  0.0332 -0.0430
 4813SOL    HW126075   4.619   4.125   4.126  0.7348  0.1883  0.4327
 4813SOL    HW226076   4.617   4.071   4.256  1.2015  0.3111 -0.8975
 4814SOL     OW26077   3.900   2.923   7.102 -0.0489 -0.5304 -0.5109
 4814SOL    HW126078   3.874   2.855   7.165  0.3699  0.6725  0.9461
 4814SOL    HW226079   3.842   2.897   7.030 -0.1522  0.2245 -0.6973
 4815SOL     OW26080   1.394   2.542   1.085 -0.0955  0.1006  0.0931
 4815SOL    HW126081   1.316   2.596   1.090  0.3344  0.5837  1.4203
 4815SOL    HW226082   1.401   2.504   1.172  0.9478 -0.6373 -0.3059
 4816SOL     OW26083   0.585   3.580   2.878 -0.0116  0.1496  0.4287
 4816SOL    HW126084   0.546   3.557   2.793 -1.8512 -0.0514  1.3307
 4816SOL    HW226085   0.525   3.560   2.949 -1.5819  1.2372 -0.5899
 4817SOL     OW26086   3.392   3.370   8.828 -0.1963 -0.2447  0.0592
 4817SOL    HW126087   3.326   3.389   8.894  0.4509 -0.8124  0.8694
 4817SOL    HW226088   3.392   3.453   8.780  0.0700 -0.0129  0.4664
 4818SOL     OW26089   1.507   2.010   0.021 -0.1420  0.0917  0.2003
 4818SOL    HW126090   1.427   1.957   0.017 -0.0287 -0.0675  0.0451
 4818SOL    HW226091   1.574   1.945  17.754  0.0180  0.1808  0.4151
 4819SOL     OW26092   2.290   3.358   2.270  0.6812  0.0653  0.1641
 4819SOL    HW126093   2.338   3.394   2.344 -3.9998  1.1151  2.6736
 4819SOL    HW226094   2.215   3.417   2.277 -1.9099 -2.9337 -2.2764
 4820SOL     OW26095   0.519   2.036  11.831  0.8089  0.0556 -0.4114
 4820SOL    HW126096   0.430   2.063  11.853  1.2057  0.6963  0.3868
 4820SOL    HW226097   0.554   2.035  11.920 -0.6922 -1.9666  0.1505
 4821SOL     OW26098   3.360   2.589   5.786 -0.4773 -0.2166 -0.0286
 4821SOL    HW126099   3.451   2.560   5.796  0.4198  1.6872 -2.5970
 4821SOL    HW226100   3.367   2.677   5.820  0.1712 -1.1943  2.3460
 4822SOL     OW26101   2.582   0.082   1.627 -0.5400 -0.1394  0.2893
 4822SOL    HW126102   2.511   0.137   1.660 -0.7393 -0.0118 -0.3570
 4822SOL    HW226103   2.633   0.064   1.706 -0.2149  1.3113  0.4040
 4823SOL     OW26104   1.353   0.660   2.902 -0.0738 -0.0519  0.0598
 4823SOL    HW126105   1.297   0.697   2.970 -0.6730  1.4564 -1.2370
 4823SOL    HW226106   1.291   0.620   2.840  1.8690  0.6696 -2.3381
 4824SOL     OW26107   4.308   3.781  17.539  0.2012  0.1693 -0.1400
 4824SOL    HW126108   4.273   3.735  17.463 -0.8107 -2.9588  2.2143
 4824SOL    HW226109   4.235   3.774  17.600  1.5881 -0.8658  1.3834
 4825SOL     OW26110   1.427   4.712  16.687 -0.1664  0.2356 -0.4346
 4825SOL    HW126111   1.407   0.019  16.768  0.6718  0.5887 -0.4228
 4825SOL    HW226112   1.446   4.621  16.710 -0.5015  0.5695  1.1233
 4826SOL     OW26113   2.107   3.250   5.596 -0.0075  0.0440 -0.2331
 4826SOL    HW126114   2.122   3.337   5.558  0.7940  0.0703  0.1459
 4826SOL    HW226115   2.180   3.198   5.564  0.3854 -0.0727  0.8580
 4827SOL     OW26116   2.249   1.628   6.220  0.0866 -0.2058  0.2469
 4827SOL    HW126117   2.228   1.537   6.198 -0.2302 -0.3893  1.3216
 4827SOL    HW226118   2.171   1.664   6.261 -0.8626  0.0261 -1.7532
 4828SOL     OW26119   4.220   2.509   1.867 -0.3450  0.3396 -0.2119
 4828SOL    HW126120   4.166   2.554   1.802  0.3662 -0.2824 -1.2392
 4828SOL    HW226121   4.235   2.582   1.927 -0.4154 -1.5872  2.1470
 4829SOL     OW26122   2.336   1.033   4.993 -0.1085 -0.3714 -0.3007
 4829SOL    HW126123   2.277   1.108   4.997 -1.0986 -1.2736  2.1556
 4829SOL    HW226124   2.300   0.997   4.912  2.1826 -0.0569 -1.4551
 4830SOL     OW26125   4.024   0.885   5.429 -0.1293 -0.0003 -0.2317
 4830SOL    HW126126   3.929   0.897   5.426  0.1527  1.8755 -2.0868
 4830SOL    HW226127   4.050   0.953   5.366 -1.1784  1.4201  0.8909
 4831SOL     OW26128   2.514   1.721   7.854 -0.5452 -0.4708  0.1500
 4831SOL    HW126129   2.460   1.687   7.783 -0.8237  0.9742 -0.3318
 4831SOL    HW226130   2.492   1.814   7.853  0.5023 -0.2262 -2.7236
 4832SOL     OW26131   2.660   2.918   2.388  0.0641 -0.6694 -0.4090
 4832SOL    HW126132   2.720   2.993   2.386 -0.6236 -0.1098 -0.1643
 4832SOL    HW226133   2.699   2.848   2.441  3.8415  2.0797  0.4696
 4833SOL     OW26134   4.679   2.002  17.266  0.5451 -0.3097 -0.0884
 4833SOL    HW126135   4.613   2.070  17.280  1.0326 -0.0278  0.8492
 4833SOL    HW226136   4.700   1.966  17.352 -1.5177 -0.9880  0.1462
 4834SOL     OW26137   0.943   0.996   6.364  0.1138  0.4791  0.4245
 4834SOL    HW126138   0.882   0.978   6.292  0.9200 -1.9466  0.3555
 4834SOL    HW226139   0.925   0.921   6.420 -1.1797  0.1030 -0.5074
 4835SOL     OW26140   2.367   0.720  10.062  0.2732  0.0577  0.1956
 4835SOL    HW126141   2.417   0.665  10.123  0.9920  0.5163  0.0178
 4835SOL    HW226142   2.317   0.775  10.122  0.3719  0.8206 -0.4303
 4836SOL     OW26143   3.584   3.662   3.311 -0.3919 -0.3817  0.6592
 4836SOL    HW126144   3.496   3.629   3.294  0.4109 -0.0339 -4.3769
 4836SOL    HW226145   3.643   3.598   3.270 -1.4447 -0.0221 -1.4325
 4837SOL     OW26146   4.481   3.754   3.730 -0.5384  0.0984  0.5464
 4837SOL    HW126147   4.551   3.753   3.795  0.7436 -0.1377 -0.8358
 4837SOL    HW226148   4.402   3.781   3.778 -1.6284 -1.5590 -0.2726
 4838SOL     OW26149   4.479   1.993   8.963  0.2518 -0.1889 -0.1164
 4838SOL    HW126150   4.515   2.067   8.913 -0.8237  0.2709 -0.2080
 4838SOL    HW226151   4.385   2.012   8.969 -0.3572 -2.5310 -2.0270
 4839SOL     OW26152   4.476   1.321  15.366  0.0187  0.0635  0.8629
 4839SOL    HW126153   4.465   1.407  15.324 -0.7021 -0.3066  0.3159
 4839SOL    HW226154   4.466   1.265  15.290 -1.5694  0.8471  0.4834
 4840SOL     OW26155   2.020   2.216   3.997 -0.3827  0.2623  0.2393
 4840SOL    HW126156   2.037   2.129   4.033  0.8702  1.1019  1.6574
 4840SOL    HW226157   1.949   2.201   3.934 -1.2006  0.5869  1.0868
 4841SOL     OW26158   1.806   1.589   4.799 -0.0290  0.0442 -0.5287
 4841SOL    HW126159   1.716   1.612   4.821 -0.0175 -0.3335 -0.0900
 4841SOL    HW226160   1.825   1.643   4.722 -1.5621 -0.0654 -0.9882
 4842SOL     OW26161   4.600   2.354   2.106  0.4494 -0.7563 -0.5963
 4842SOL    HW126162   4.545   2.432   2.107 -0.3927 -1.3759  1.2600
 4842SOL    HW226163   4.531   2.287   2.108  0.7340 -1.0214  0.3350
 4843SOL     OW26164   4.416   4.513   8.488  0.5535  0.5177 -0.3646
 4843SOL    HW126165   4.492   4.546   8.537  0.5897  1.6302 -1.1913
 4843SOL    HW226166   4.439   4.421   8.501 -1.3406  0.4592  2.7325
 4844SOL     OW26167   0.191   4.175  10.321 -0.3943 -0.2515  0.2382
 4844SOL    HW126168   0.234   4.200  10.403  1.4317 -0.1422 -0.7665
 4844SOL    HW226169   0.107   4.145  10.357 -0.3658  0.8097  1.1784
 4845SOL     OW26170   3.243   0.035   6.368 -0.4631  0.2232 -0.0043
 4845SOL    HW126171   3.177   0.089   6.410 -0.0225  0.2438  0.6616
 4845SOL    HW226172   3.282   0.095   6.305  0.9657  1.5854  2.1884
 4846SOL     OW26173   0.665   1.889   4.928 -0.3193 -0.6246 -0.6600
 4846SOL    HW126174   0.574   1.915   4.940  0.0757  1.1588 -1.3937
 4846SOL    HW226175   0.688   1.880   5.020  1.3987  0.9213 -0.9249
 4847SOL     OW26176   4.123   3.224  13.327 -0.1437  0.2410 -0.1034
 4847SOL    HW126177   4.191   3.157  13.330  0.2565  0.6615  0.0518
 4847SOL    HW226178   4.053   3.185  13.379  2.3360 -1.8942  1.5964
 4848SOL     OW26179   1.129   1.820   1.964 -0.0605 -0.2229  0.4470
 4848SOL    HW126180   1.180   1.861   1.894 -0.1272  0.5442  0.8368
 4848SOL    HW226181   1.159   1.854   2.049 -0.6320  0.8751  0.2064
 4849SOL     OW26182   1.732   3.736   4.266 -0.4517 -0.3610  0.5065
 4849SOL    HW126183   1.775   3.795   4.204  0.8925  0.1241  1.8890
 4849SOL    HW226184   1.813   3.700   4.305 -0.3390  1.5341  1.9879
 4850SOL     OW26185   4.699   3.905   9.415 -0.6190  0.0666 -0.1412
 4850SOL    HW126186   4.622   3.958   9.438 -0.1396  1.6282 -2.1449
 4850SOL    HW226187   4.687   3.906   9.320  1.0636  0.2249 -0.3567
 4851SOL     OW26188   3.448   3.391   4.843 -0.1166 -0.0434 -0.1392
 4851SOL    HW126189   3.537   3.419   4.823 -0.4900  0.3579 -1.2095
 4851SOL    HW226190   3.440   3.329   4.770 -0.1278 -0.8297  0.5265
 4852SOL     OW26191   3.775   4.066  13.216 -0.2163  0.1500  0.5362
 4852SOL    HW126192   3.776   4.044  13.123 -0.7658 -3.7746  1.4538
 4852SOL    HW226193   3.773   4.160  13.197 -0.9246 -0.3404 -1.8357
 4853SOL     OW26194   1.341   1.890   4.998  0.1157 -0.0034  0.6106
 4853SOL    HW126195   1.364   1.983   5.004 -0.1643  0.2022 -1.4377
 4853SOL    HW226196   1.323   1.869   5.089  1.0055  1.1940  1.0615
 4854SOL     OW26197   2.273   3.744   6.389 -0.1575 -0.0086  0.4021
 4854SOL    HW126198   2.281   3.659   6.346 -0.8767  0.8056 -1.3388
 4854SOL    HW226199   2.195   3.765   6.338  0.5832  1.6610 -0.0449
 4855SOL     OW26200   0.963   0.380   3.070 -0.1838 -0.4440  0.6072
 4855SOL    HW126201   0.982   0.327   3.146 -0.1040 -0.5269  0.5293
 4855SOL    HW226202   0.963   0.464   3.115 -1.4130  0.6488 -1.3778
 4856SOL     OW26203   3.091   1.770   2.327  0.9586  0.3123 -0.2607
 4856SOL    HW126204   3.012   1.791   2.278 -0.2067 -1.0108  1.0938
 4856SOL    HW226205   3.092   1.837   2.395  3.4062  0.1682 -0.1197
 4857SOL     OW26206   3.146   0.558  10.945  0.0576  0.2645 -0.0646
 4857SOL    HW126207   3.225   0.547  10.892 -0.7344 -0.9318 -0.9898
 4857SOL    HW226208   3.114   0.468  10.948  0.0209  0.2877  0.2461
 4858SOL     OW26209   3.248   2.244   4.446  0.1694 -0.2778  1.1364
 4858SOL    HW126210   3.333   2.228   4.406 -0.4874  0.5167 -0.5585
 4858SOL    HW226211   3.271   2.299   4.522  2.8283 -1.8032  1.4499
 4859SOL     OW26212   3.201   4.151   4.080  0.1081  0.0103 -0.1682
 4859SOL    HW126213   3.281   4.129   4.033  1.7038  0.2016  2.4653
 4859SOL    HW226214   3.228   4.232   4.123 -1.2096  1.5717 -2.2598
 4860SOL     OW26215   4.201   3.192   6.623 -0.0881  0.6436 -0.3019
 4860SOL    HW126216   4.170   3.281   6.604 -0.7297  0.4619 -0.1090
 4860SOL    HW226217   4.163   3.178   6.710  0.7226  0.1401 -0.0219
 4861SOL     OW26218   3.602   1.886   8.265 -0.2951 -0.0676 -0.3949
 4861SOL    HW126219   3.555   1.818   8.313 -0.1543  0.6472  0.7528
 4861SOL    HW226220   3.541   1.959   8.260 -0.2007  0.1187  1.2148
 4862SOL     OW26221   0.545   3.331   8.681  0.2356 -0.2487 -0.4789
 4862SOL    HW126222   0.584   3.315   8.766 -0.5202 -1.3033 -0.3391
 4862SOL    HW226223   0.569   3.419   8.650 -1.9090 -0.1213 -1.7906
 4863SOL     OW26224   2.142   0.652  12.279  0.2205  0.6097 -0.0962
 4863SOL    HW126225   2.209   0.583  12.284  0.3322  0.7570  0.4232
 4863SOL    HW226226   2.063   0.632  12.328  0.1774  1.4450  0.1775
 4864SOL     OW26227   3.577   1.874   6.274 -0.4555  0.0285 -0.9324
 4864SOL    HW126228   3.583   1.784   6.308 -2.2938  0.4008  0.3570
 4864SOL    HW226229   3.582   1.856   6.180  1.3718 -0.1406 -0.8048
 4865SOL     OW26230   1.598   0.472   8.624 -0.7314 -0.0782  0.6412
 4865SOL    HW126231   1.604   0.461   8.719  2.1821  0.9968  0.5815
 4865SOL    HW226232   1.528   0.537   8.619  0.3243  0.9164 -0.9255
 4866SOL     OW26233   3.374   0.664  13.286  0.0638  0.3157 -0.2300
 4866SOL    HW126234   3.292   0.649  13.333  0.4868 -0.4949  0.2385
 4866SOL    HW226235   3.398   0.748  13.326  0.9023  0.1530 -0.3996
 4867SOL     OW26236   3.615   3.912   8.277  0.6950  0.3182  0.0988
 4867SOL    HW126237   3.618   3.818   8.259  0.1323  0.4901 -0.8635
 4867SOL    HW226238   3.529   3.937   8.243  0.9269  2.8707  1.4268
 4868SOL     OW26239   3.306   1.147   0.362 -0.2410 -0.2991  0.0294
 4868SOL    HW126240   3.233   1.208   0.367 -1.3122 -1.7594  2.1026
 4868SOL    HW226241   3.267   1.062   0.342 -1.9566  0.4877  0.0153
 4869SOL     OW26242   4.022   4.091   5.450  0.3118  0.1463  0.2108
 4869SOL    HW126243   4.103   4.125   5.410 -0.5571  0.1334 -1.5604
 4869SOL    HW226244   4.057   4.003   5.462  0.5534 -0.1847 -2.9803
 4870SOL     OW26245   1.040   3.421   3.307 -0.4063 -0.5915 -0.5325
 4870SOL    HW126246   1.100   3.346   3.305 -0.7271 -0.8135 -1.8814
 4870SOL    HW226247   1.057   3.450   3.397  0.5196  0.6047 -1.1053
 4871SOL     OW26248   3.325   0.220   4.875 -0.0657 -0.2886 -0.0955
 4871SOL    HW126249   3.344   0.289   4.811  0.5935  1.1087  1.5835
 4871SOL    HW226250   3.396   0.232   4.939 -1.5220  3.2008  0.8669
 4872SOL     OW26251   3.501   0.010  14.995 -0.5771  0.3447  0.8848
 4872SOL    HW126252   3.465   0.077  15.052 -1.8811  1.8658 -1.7393
 4872SOL    HW226253   3.581   0.050  14.961 -0.8005 -0.5471 -0.6838
 4873SOL     OW26254   3.737   1.110  17.748  0.5011 -0.8041  0.7309
 4873SOL    HW126255   3.815   1.134  17.697 -0.2741 -0.0516 -0.1002
 4873SOL    HW226256   3.738   1.193   0.040 -0.5783  0.3864 -1.2980
 4874SOL     OW26257   3.409   2.049   3.151  0.2947 -0.1741  0.5790
 4874SOL    HW126258   3.339   2.001   3.107  1.7199 -0.9227 -0.8838
 4874SOL    HW226259   3.478   1.983   3.147 -1.8107 -2.3616  0.4848
 4875SOL     OW26260   0.189   0.955   3.581  0.2804  0.0256 -0.8561
 4875SOL    HW126261   0.154   0.872   3.615 -0.9394  1.6855  1.9339
 4875SOL    HW226262   0.186   0.932   3.488 -2.1398  1.2330 -1.0749
 4876SOL     OW26263   0.371   0.286   1.268 -0.7186 -0.1474 -0.4580
 4876SOL    HW126264   0.393   0.196   1.246 -5.8501 -0.9210 -2.4093
 4876SOL    HW226265   0.393   0.319   1.181 -1.5886 -0.5205 -0.8133
 4877SOL     OW26266   2.885   3.455   3.889 -0.2646 -0.0626  0.8519
 4877SOL    HW126267   2.807   3.497   3.926 -1.9333 -1.5747 -0.9433
 4877SOL    HW226268   2.864   3.429   3.799  0.4079  3.2854 -0.2477
 4878SOL     OW26269   1.127   4.446   4.651  0.7525  0.4632 -0.2405
 4878SOL    HW126270   1.033   4.427   4.658  0.6564  1.6890  1.7821
 4878SOL    HW226271   1.123   4.517   4.715  1.2062  2.0962 -2.0478
 4879SOL     OW26272   0.024   1.914  13.263 -0.2698  0.0765 -0.0953
 4879SOL    HW126273   4.689   1.916  13.323  0.0884  0.3337  0.3448
 4879SOL    HW226274   0.001   1.979  13.197  1.9411  1.1126  0.1430
 4880SOL     OW26275   1.321   2.098   6.555  0.1533  0.3639 -0.4820
 4880SOL    HW126276   1.272   2.021   6.584 -2.4944  2.3887  0.3931
 4880SOL    HW226277   1.254   2.136   6.498  0.4214 -0.4442 -1.3367
 4881SOL     OW26278   1.556   0.126   9.996 -0.5875 -0.5561 -0.4318
 4881SOL    HW126279   1.510   0.197  10.041  1.6738  0.3151  0.5349
 4881SOL    HW226280   1.644   0.149  10.028 -0.7910  0.9492 -0.9236
 4882SOL     OW26281   0.626   4.368   1.957 -0.2768 -0.2488  0.1478
 4882SOL    HW126282   0.561   4.347   2.024 -1.7297  0.9886 -0.8533
 4882SOL    HW226283   0.617   4.293   1.898 -1.4741 -0.5930  0.7664
 4883SOL     OW26284   3.550   3.138   3.632  0.0946  0.3757 -0.5652
 4883SOL    HW126285   3.631   3.127   3.583 -0.6152 -0.8255 -1.4389
 4883SOL    HW226286   3.486   3.091   3.580 -1.3205  0.6776  0.8900
 4884SOL     OW26287   1.298   3.123   4.239 -0.5101 -0.0423 -0.0111
 4884SOL    HW126288   1.357   3.175   4.184 -0.3908 -0.8403 -0.6342
 4884SOL    HW226289   1.246   3.071   4.178 -1.9180  1.0580  0.2550
 4885SOL     OW26290   3.106   0.433   8.102  0.4234  0.5749 -0.0528
 4885SOL    HW126291   3.083   0.420   8.010  0.8349 -0.2000 -0.0487
 4885SOL    HW226292   3.062   0.361   8.147  0.0060  0.8266 -0.0692
 4886SOL     OW26293   2.985   1.970   9.350 -0.8003  0.5129 -0.0773
 4886SOL    HW126294   3.005   1.908   9.280 -2.5281  2.1232 -1.9892
 4886SOL    HW226295   2.910   1.930   9.395 -0.4429 -0.2886 -0.1942
 4887SOL     OW26296   4.720   2.781  14.361  0.3247 -0.0851  0.8500
 4887SOL    HW126297   0.007   2.827  14.441  2.1280  1.8983 -0.8688
 4887SOL    HW226298   0.010   2.693  14.384 -1.6226 -0.8279  0.4451
 4888SOL     OW26299   2.288   0.944   8.401  0.6132 -0.0397 -0.1577
 4888SOL    HW126300   2.320   0.885   8.469 -1.1923  1.9370  2.3683
 4888SOL    HW226301   2.200   0.914   8.376  0.9031 -1.6421  0.7651
 4889SOL     OW26302   2.758   1.717   8.345  0.2354 -0.4516  0.1603
 4889SOL    HW126303   2.690   1.650   8.336  1.1066 -1.1884 -0.9372
 4889SOL    HW226304   2.832   1.666   8.314 -0.2612 -0.2106 -1.4037
 4890SOL     OW26305   1.257   4.161   9.788  0.0787  0.5419  0.2437
 4890SOL    HW126306   1.227   4.127   9.703 -0.7793  1.9640 -0.0306
 4890SOL    HW226307   1.335   4.110   9.809 -0.6763 -0.6937  0.0215
 4891SOL     OW26308   2.182   3.904   2.337  0.6369 -0.2018  0.1080
 4891SOL    HW126309   2.105   3.901   2.280  1.1239 -0.1461 -0.5498
 4891SOL    HW226310   2.249   3.905   2.268 -1.3013 -1.6219 -1.8049
 4892SOL     OW26311   0.789   4.601   1.991 -0.2201 -0.2388 -0.1732
 4892SOL    HW126312   0.743   4.618   2.073 -0.8332 -1.1373 -0.3205
 4892SOL    HW226313   0.719   4.566   1.936 -0.4686  1.5531 -1.0039
 4893SOL     OW26314   3.455   0.717   0.288  0.1377  0.0864 -0.0630
 4893SOL    HW126315   3.462   0.667   0.207 -1.3562 -1.3711  0.6942
 4893SOL    HW226316   3.418   0.649   0.344 -0.5914  0.5522  0.0286
 4894SOL     OW26317   3.112   0.831   2.954 -0.0679 -0.5450 -0.3460
 4894SOL    HW126318   3.177   0.891   2.990 -0.4598  0.2245 -0.9221
 4894SOL    HW226319   3.037   0.860   3.007  1.5344  1.3654  0.8543
 4895SOL     OW26320   3.505   0.395  15.692 -0.3822  0.1275  0.0641
 4895SOL    HW126321   3.515   0.303  15.719  2.1491  0.3052 -0.2676
 4895SOL    HW226322   3.586   0.435  15.725  0.1203  1.4041 -2.7834
 4896SOL     OW26323   0.983   4.565   7.895  0.7079  0.1280 -0.4421
 4896SOL    HW126324   1.076   4.580   7.880 -0.1001  3.7584 -2.0110
 4896SOL    HW226325   0.960   4.651   7.931  0.0457  0.5523 -1.8768
 4897SOL     OW26326   0.481   1.842   3.915  0.2059  0.1966 -0.2067
 4897SOL    HW126327   0.547   1.824   3.849  1.0694 -0.4817  0.8321
 4897SOL    HW226328   0.446   1.753   3.921  2.4062 -0.8264 -2.4747
 4898SOL     OW26329   1.598   1.845   2.277  0.3654 -0.0999  0.0657
 4898SOL    HW126330   1.676   1.804   2.314  0.9940  0.4062 -0.7123
 4898SOL    HW226331   1.624   1.863   2.187  0.8344  1.3413  0.4919
 4899SOL     OW26332   4.186   0.291   3.830 -0.0794 -0.3160 -0.0992
 4899SOL    HW126333   4.178   0.248   3.915  1.4148 -0.4078 -0.0178
 4899SOL    HW226334   4.147   0.227   3.769  1.4547 -0.4655 -0.9124
 4900SOL     OW26335   0.188   1.374  15.987  0.7389  0.6122 -0.5544
 4900SOL    HW126336   0.095   1.384  15.968  1.3213  2.2446 -2.5869
 4900SOL    HW226337   0.225   1.309  15.927  2.2022 -0.1745  1.1959
 4901SOL     OW26338   3.165   0.189   7.711  0.4604 -0.6152 -0.2164
 4901SOL    HW126339   3.232   0.243   7.752  0.3700 -0.3206 -0.4640
 4901SOL    HW226340   3.196   0.200   7.621  2.4251  2.8993  0.8949
 4902SOL     OW26341   1.656   0.086  16.312 -0.3858 -0.5538  0.2110
 4902SOL    HW126342   1.692   0.012  16.264 -0.7585  1.1154 -2.6437
 4902SOL    HW226343   1.685   0.157  16.255 -1.2493 -0.0218  0.4357
 4903SOL     OW26344   1.990   1.845   5.104  0.4983 -0.0997 -0.5080
 4903SOL    HW126345   1.995   1.893   5.021 -0.7957 -0.7058 -0.9359
 4903SOL    HW226346   1.968   1.917   5.163 -0.4276  0.3586 -1.4064
 4904SOL     OW26347   2.767   3.465   6.733  0.6441 -0.0516  0.6241
 4904SOL    HW126348   2.679   3.428   6.738  1.4233 -2.2184 -1.6617
 4904SOL    HW226349   2.778   3.492   6.824  3.3546  3.7821 -0.8302
 4905SOL     OW26350   1.156   3.390   1.234 -0.0149 -0.0242 -0.3256
 4905SOL    HW126351   1.154   3.358   1.144 -0.2588  0.1576 -0.3879
 4905SOL    HW226352   1.063   3.399   1.257 -0.4422 -1.6889 -1.4189
 4906SOL     OW26353   0.442   2.394   1.905  0.6576  0.1500 -0.2593
 4906SOL    HW126354   0.446   2.470   1.963  0.6888 -1.0027  1.2621
 4906SOL    HW226355   0.420   2.321   1.964  0.9613 -0.0965 -0.4482
 4907SOL     OW26356   2.703   1.481   1.682 -0.6777 -0.3723  0.3124
 4907SOL    HW126357   2.681   1.388   1.684  2.2005 -1.0291  1.5698
 4907SOL    HW226358   2.692   1.504   1.589  1.0779  2.2545  0.7492
 4908SOL     OW26359   3.188   3.685  15.617  0.0336 -0.3987  0.2887
 4908SOL    HW126360   3.194   3.697  15.712  1.4928  1.9072 -0.0849
 4908SOL    HW226361   3.093   3.690  15.620  0.0167  0.2479 -1.4798
 4909SOL     OW26362   3.116   2.953  14.129  0.1071 -0.2077  0.5081
 4909SOL    HW126363   3.044   2.895  14.106 -0.1963  0.7316 -0.8569
 4909SOL    HW226364   3.116   3.014  14.055  0.0653  0.5065  1.0957
 4910SOL     OW26365   4.004   2.523   5.601  0.1434  0.0888  0.2949
 4910SOL    HW126366   4.035   2.578   5.673  0.3351  0.3959 -0.0166
 4910SOL    HW226367   4.035   2.437   5.630 -1.9032 -0.2659  1.3750
 4911SOL     OW26368   4.491   1.230   5.669  0.0288 -0.3206 -0.0486
 4911SOL    HW126369   4.477   1.224   5.763  0.9766 -2.3101 -0.0383
 4911SOL    HW226370   4.579   1.195   5.656  0.8996  2.0256 -0.5171
 4912SOL     OW26371   3.013   3.425   5.617 -0.3445  0.2612 -0.2319
 4912SOL    HW126372   3.056   3.465   5.692 -1.5064 -0.9576  1.0939
 4912SOL    HW226373   2.977   3.496   5.564 -0.3770  0.9029  0.6477
 4913SOL     OW26374   4.572   2.297   1.650 -0.2307  0.4145  0.7655
 4913SOL    HW126375   4.559   2.329   1.561  0.3744  0.5002  0.7110
 4913SOL    HW226376   4.497   2.336   1.695  0.6692  2.4467  0.4700
 4914SOL     OW26377   4.175   1.547   1.901 -0.1173 -0.0837  0.3875
 4914SOL    HW126378   4.112   1.475   1.908 -0.9317  0.7159  1.2926
 4914SOL    HW226379   4.108   1.616   1.903  0.7930  0.8241 -0.3711
 4915SOL     OW26380   2.466   2.079   4.170  0.1254 -0.0555 -0.0073
 4915SOL    HW126381   2.507   2.081   4.256  0.6817  1.5582 -0.3066
 4915SOL    HW226382   2.516   2.145   4.122  1.3178  0.0626  1.4130
 4916SOL     OW26383   4.292   2.266   8.369 -0.4039  0.2474 -0.2894
 4916SOL    HW126384   4.249   2.352   8.374  0.9420  0.9789 -1.1681
 4916SOL    HW226385   4.382   2.286   8.342  0.1598  0.5083  1.8244
 4917SOL     OW26386   2.169   2.279   3.504 -0.0055  0.1497  0.1248
 4917SOL    HW126387   2.230   2.210   3.531 -0.6780 -0.3549  0.3524
 4917SOL    HW226388   2.102   2.225   3.462 -0.9099  1.8754 -0.6160
 4918SOL     OW26389   4.416   1.839   8.044 -0.3410 -0.2839 -0.0014
 4918SOL    HW126390   4.425   1.866   8.136  1.6451  0.1142 -0.2942
 4918SOL    HW226391   4.508   1.823   8.023 -0.2197  1.5548 -0.8383
 4919SOL     OW26392   1.220   2.228   6.289  0.7081  0.1692 -0.7504
 4919SOL    HW126393   1.195   2.141   6.258  2.3565 -0.7641  0.5244
 4919SOL    HW226394   1.234   2.273   6.206 -2.8733 -1.0625 -1.9886
 4920SOL     OW26395   4.636   3.208   9.364 -0.5484 -0.1305 -0.1870
 4920SOL    HW126396   4.702   3.277   9.357 -0.0122 -0.6234  0.0441
 4920SOL    HW226397   4.659   3.160   9.444 -0.0902  0.9201  0.3107
 4921SOL     OW26398   0.140   4.027   4.638  0.0001 -0.3745  0.2989
 4921SOL    HW126399   0.224   3.994   4.668  0.0596 -0.0610  0.4831
 4921SOL    HW226400   0.113   3.940   4.610 -3.1764  0.6588  0.1289
 4922SOL     OW26401   0.162   2.044   1.785 -0.3424 -0.2443 -0.0564
 4922SOL    HW126402   0.145   1.969   1.728  2.1652 -0.3061 -0.7387
 4922SOL    HW226403   0.075   2.062   1.819  0.1554  1.5457  0.3171
 4923SOL     OW26404   1.609   0.169   7.565 -0.2618  0.1705 -0.0165
 4923SOL    HW126405   1.605   0.264   7.580 -0.7073 -0.0252  1.0429
 4923SOL    HW226406   1.676   0.168   7.496 -0.2167 -1.6734  0.0569
 4924SOL     OW26407   3.001   4.608  11.998  0.5948 -0.1123 -0.1918
 4924SOL    HW126408   3.045   4.692  12.011  2.9527 -1.1740 -1.3562
 4924SOL    HW226409   2.991   4.614  11.903  1.2743 -0.3583 -0.2782
 4925SOL     OW26410   3.472   4.234   5.830  0.0904  0.0999 -0.1317
 4925SOL    HW126411   3.434   4.197   5.910  1.1902  0.7825  0.7009
 4925SOL    HW226412   3.534   4.163   5.816  0.5874  0.2169  1.4467
 4926SOL     OW26413   3.762   4.405   5.990 -0.2321 -0.1905  0.4934
 4926SOL    HW126414   3.727   4.494   5.987 -1.1619 -0.5551  0.5655
 4926SOL    HW226415   3.703   4.366   6.054 -1.7248  2.0641  0.4604
 4927SOL     OW26416   1.017   4.378  10.113 -0.4315  0.4656  0.1398
 4927SOL    HW126417   1.051   4.294  10.084 -1.6514  0.3079 -0.7933
 4927SOL    HW226418   1.064   4.442  10.058 -1.1096  1.9072  1.2335
 4928SOL     OW26419   3.367   2.065  12.292 -0.1374 -0.1918  0.0266
 4928SOL    HW126420   3.457   2.057  12.324  0.0165 -0.3437 -0.4453
 4928SOL    HW226421   3.336   2.155  12.307 -0.8294 -0.6546  1.3736
 4929SOL     OW26422   0.981   2.834   5.207  0.0719  0.0760 -1.2290
 4929SOL    HW126423   0.957   2.926   5.196  2.3499  0.5213 -2.4089
 4929SOL    HW226424   0.966   2.819   5.300  2.1235  0.2699 -0.8777
 4930SOL     OW26425   0.755   3.297   4.278 -0.2512  0.1333 -0.1179
 4930SOL    HW126426   0.693   3.229   4.303 -0.6742  0.3715 -0.5158
 4930SOL    HW226427   0.761   3.353   4.356  0.7412 -1.3792  0.8904
 4931SOL     OW26428   0.651   4.571   8.441  0.1108  0.4765  0.2552
 4931SOL    HW126429   0.737   4.613   8.452  0.1385  0.7953 -1.1146
 4931SOL    HW226430   0.677   4.494   8.390  0.1922  0.2309  0.6676
 4932SOL     OW26431   3.152   2.302   8.866  0.5765 -0.5149  0.4582
 4932SOL    HW126432   3.134   2.396   8.870 -0.6308 -0.6766 -1.2155
 4932SOL    HW226433   3.220   2.292   8.933 -0.0697 -1.2102  1.0115
 4933SOL     OW26434   2.686   0.116   1.148  0.0002  0.1203 -0.1139
 4933SOL    HW126435   2.693   0.201   1.105 -0.5047  0.3232  0.2045
 4933SOL    HW226436   2.667   0.159   1.232  0.6615 -3.7905  2.0184
 4934SOL     OW26437   2.184   2.062   6.184 -0.3939 -0.6151 -0.1978
 4934SOL    HW126438   2.137   2.011   6.118  0.0759  0.1413 -1.1190
 4934SOL    HW226439   2.148   2.146   6.157  1.1146 -0.0358 -0.4232
 4935SOL     OW26440   0.511   4.614   6.128  0.0541 -0.2601  0.0153
 4935SOL    HW126441   0.587   4.671   6.134 -1.1110  1.0748  2.0054
 4935SOL    HW226442   0.554   4.542   6.081  0.5717  0.8100 -1.1471
 4936SOL     OW26443   1.527   1.010  17.186  0.3894  0.0675 -0.5751
 4936SOL    HW126444   1.508   0.931  17.135 -0.9216 -0.4751  0.7277
 4936SOL    HW226445   1.620   0.994  17.200  0.3771  0.4151 -0.0972
 4937SOL     OW26446   0.416   2.783   6.763 -0.1851  0.1402 -0.1147
 4937SOL    HW126447   0.417   2.873   6.732 -1.3078 -0.2451 -1.3016
 4937SOL    HW226448   0.466   2.743   6.692 -1.8886 -1.7634 -0.2498
 4938SOL     OW26449   0.978   2.004   3.928 -0.0409 -0.0659  0.1097
 4938SOL    HW126450   0.920   2.041   3.994  0.4373 -0.0810  0.5428
 4938SOL    HW226451   0.940   1.919   3.945  2.8393 -1.6202 -1.2203
 4939SOL     OW26452   3.310   3.350   2.062 -0.1693 -0.0304 -0.2220
 4939SOL    HW126453   3.265   3.385   1.986  1.1732  0.5347 -0.7569
 4939SOL    HW226454   3.353   3.267   2.040  0.1137  0.5151 -1.6586
 4940SOL     OW26455   3.895   1.365  14.889  0.1060  0.1223  0.3488
 4940SOL    HW126456   3.856   1.399  14.970  0.1123  0.0380  0.3867
 4940SOL    HW226457   3.823   1.318  14.846 -0.0329  1.4737 -0.8912
 4941SOL     OW26458   3.284   1.334   2.691  0.6281 -0.3105  0.2409
 4941SOL    HW126459   3.244   1.411   2.651 -0.8986 -1.4941 -0.4978
 4941SOL    HW226460   3.343   1.300   2.624  0.1580  1.0326 -0.8493
 4942SOL     OW26461   3.459   4.048   9.144 -0.9415  0.2319 -0.7874
 4942SOL    HW126462   3.554   4.055   9.147 -0.8858 -2.1896  2.4032
 4942SOL    HW226463   3.436   4.044   9.237 -0.8385 -0.0292 -0.7722
 4943SOL     OW26464   4.645   0.388   2.162  0.2629  0.5461 -0.1391
 4943SOL    HW126465   4.733   0.356   2.143 -0.0706  1.1500 -2.8022
 4943SOL    HW226466   4.618   0.424   2.077  0.5049  1.6655  0.2595
 4944SOL     OW26467   3.396   0.231  17.714 -0.3413  0.0145  0.0409
 4944SOL    HW126468   3.401   0.251  17.620 -1.6064  0.5232  0.0805
 4944SOL    HW226469   3.351   0.147  17.714  1.2972 -0.8605  0.4891
 4945SOL     OW26470   3.511   4.509   0.937 -0.2876  0.3663 -0.5718
 4945SOL    HW126471   3.476   4.595   0.913  1.3568  0.8596 -1.2172
 4945SOL    HW226472   3.580   4.487   0.874  0.2711  0.4638  0.0024
 4946SOL     OW26473   2.567   0.988   7.418  0.2983 -0.1104  0.1564
 4946SOL    HW126474   2.653   0.957   7.445 -0.6072 -2.5642  0.2883
 4946SOL    HW226475   2.584   1.055   7.352  2.0958  0.6043  1.3419
 4947SOL     OW26476   3.616   2.449   8.385  0.8962  0.0432 -0.0136
 4947SOL    HW126477   3.624   2.539   8.416  0.0786  0.3496 -0.7079
 4947SOL    HW226478   3.621   2.404   8.470 -3.1625 -1.3987 -0.5566
 4948SOL     OW26479   0.131   1.793   1.685 -0.1704 -0.2473 -0.4169
 4948SOL    HW126480   0.190   1.743   1.742  0.3606  0.9664  0.0981
 4948SOL    HW226481   0.135   1.756   1.597  2.1017  2.0617 -1.2920
 4949SOL     OW26482   0.425   3.131   0.749 -0.1814 -0.4292  0.2216
 4949SOL    HW126483   0.396   3.186   0.822 -0.7047 -1.7351  0.9927
 4949SOL    HW226484   0.342   3.098   0.712  0.3851 -2.0126  0.3656
 4950SOL     OW26485   0.496   0.699   8.171 -0.3294 -1.0160  0.1054
 4950SOL    HW126486   0.413   0.696   8.219 -0.7675 -0.4210 -0.6109
 4950SOL    HW226487   0.495   0.788   8.136 -0.7830  0.1626  3.0661
 4951SOL     OW26488   1.822   3.513  11.633  0.1052  0.5869  0.0785
 4951SOL    HW126489   1.841   3.421  11.617  0.1308  0.5327  0.4180
 4951SOL    HW226490   1.744   3.509  11.690  0.4067 -0.9727  0.3854
 4952SOL     OW26491   2.387   4.454  14.372  0.1030 -0.0791 -0.3362
 4952SOL    HW126492   2.473   4.423  14.402 -0.0114 -0.9014 -0.8550
 4952SOL    HW226493   2.408   4.545  14.351  2.1814 -0.6383 -0.7510
 4953SOL     OW26494   3.380   2.800   8.004 -0.1626 -0.1332 -0.1154
 4953SOL    HW126495   3.396   2.789   8.097  0.1338  0.7706 -0.0587
 4953SOL    HW226496   3.465   2.778   7.966  0.1307 -0.5466  0.8028
 4954SOL     OW26497   3.870   1.902  15.225  0.0546  0.1661 -0.8817
 4954SOL    HW126498   3.855   1.947  15.142 -0.4526  1.2089 -0.2283
 4954SOL    HW226499   3.796   1.841  15.229 -1.3889  1.8979 -1.1432
 4955SOL     OW26500   3.700   0.875   3.417  0.0355  0.0161  0.6123
 4955SOL    HW126501   3.687   0.964   3.386 -1.8855 -0.1898  0.8218
 4955SOL    HW226502   3.625   0.826   3.383 -1.2196  2.2763  0.1445
 4956SOL     OW26503   4.715   3.747   6.810  0.0165  0.4727 -0.3822
 4956SOL    HW126504   0.012   3.804   6.742  0.4385  0.0729 -0.4945
 4956SOL    HW226505   4.650   3.705   6.753 -1.7404  1.8070  0.6521
 4957SOL     OW26506   1.766   0.129  10.823 -0.3173  0.6022  0.0385
 4957SOL    HW126507   1.797   0.123  10.913 -3.1580 -1.0225  0.9027
 4957SOL    HW226508   1.844   0.172  10.787 -0.1203 -0.6247 -0.9813
 4958SOL     OW26509   4.150   0.556   6.055 -0.1495  0.4420  0.7726
 4958SOL    HW126510   4.073   0.602   6.091  0.6905  3.9608 -1.9279
 4958SOL    HW226511   4.170   0.611   5.980 -2.7771  1.1273  0.5692
 4959SOL     OW26512   2.920   3.215  15.600  0.3382 -0.2055  0.1103
 4959SOL    HW126513   2.979   3.216  15.525  2.1426 -2.3070  1.5163
 4959SOL    HW226514   2.937   3.303  15.634  1.5005 -0.7032  0.8217
 4960SOL     OW26515   2.891   1.894   5.851 -0.6468  0.5165  0.2739
 4960SOL    HW126516   2.815   1.857   5.806  0.3040 -1.6816  0.4980
 4960SOL    HW226517   2.958   1.827   5.841  0.4119  1.7709 -1.1693
 4961SOL     OW26518   1.332   3.558   8.256  0.1455 -0.2939  0.0978
 4961SOL    HW126519   1.283   3.576   8.337  0.9412  0.6258  0.3750
 4961SOL    HW226520   1.275   3.500   8.207  1.4664 -0.5365 -1.1321
 4962SOL     OW26521   4.676   1.500   4.046  0.3108 -0.1576  0.5079
 4962SOL    HW126522   0.016   1.455   4.017 -0.3007 -1.2889  0.5818
 4962SOL    HW226523   4.721   1.581   4.069  0.5222  0.1569 -1.0365
 4963SOL     OW26524   1.089   3.152   5.878 -0.1139 -0.0177  0.1207
 4963SOL    HW126525   1.142   3.231   5.875 -2.2678  1.3507 -1.8497
 4963SOL    HW226526   1.141   3.083   5.919  0.3180 -0.2078 -0.7434
 4964SOL     OW26527   3.093   0.197   3.896 -0.0875  0.3279 -0.1202
 4964SOL    HW126528   3.162   0.262   3.902  0.0878  0.1441 -0.1412
 4964SOL    HW226529   3.010   0.245   3.896  0.3633  1.1044 -0.3371
 4965SOL     OW26530   0.065   2.454   1.709 -0.2084 -0.2568  0.5211
 4965SOL    HW126531   0.008   2.526   1.736 -1.8596 -1.0463 -0.8345
 4965SOL    HW226532   0.007   2.394   1.661 -1.8718 -0.7588  3.1264
 4966SOL     OW26533   3.641   2.446  16.849  0.3696  0.1549  0.5311
 4966SOL    HW126534   3.730   2.467  16.822 -0.0400 -0.7035 -1.5102
 4966SOL    HW226535   3.628   2.356  16.820  0.2413 -0.6517  3.1438
 4967SOL     OW26536   3.546   0.342   5.370  0.5846 -0.3836 -0.0414
 4967SOL    HW126537   3.573   0.251   5.359  2.8506  0.1103  1.4152
 4967SOL    HW226538   3.451   0.333   5.380  0.7885 -0.6542  1.6244
 4968SOL     OW26539   0.060   1.485   0.448  0.0349  0.0595 -0.0644
 4968SOL    HW126540   4.725   1.466   0.505  0.1542 -0.8093 -0.1981
 4968SOL    HW226541   0.026   1.441   0.370 -0.3933 -2.2861  1.4412
 4969SOL     OW26542   4.104   1.276  15.051 -0.5162 -0.3344  0.2736
 4969SOL    HW126543   4.050   1.323  14.988 -0.5930 -0.8639 -0.0521
 4969SOL    HW226544   4.182   1.258  15.000 -0.9970 -1.8663  0.0735
 4970SOL     OW26545   3.932   1.286  16.984 -0.1072 -0.3826  0.1635
 4970SOL    HW126546   4.001   1.267  16.920 -0.7969 -1.2031 -0.3483
 4970SOL    HW226547   3.904   1.196  17.000  0.1206 -0.4904 -0.0461
 4971SOL     OW26548   1.378   1.698   2.344  0.6991  0.0104  0.1203
 4971SOL    HW126549   1.426   1.628   2.388 -0.0379 -1.8357 -2.0221
 4971SOL    HW226550   1.452   1.756   2.326  0.3917  0.0889 -0.8955
 4972SOL     OW26551   0.258   1.936  15.599  0.1290 -0.1742 -0.2069
 4972SOL    HW126552   0.344   1.934  15.559  0.3738  2.9509  0.2169
 4972SOL    HW226553   0.230   2.025  15.581 -1.1264 -0.4985  0.0750
 4973SOL     OW26554   4.184   4.643   4.149 -0.0787 -0.8421 -0.1146
 4973SOL    HW126555   4.096   4.669   4.175  0.8230  2.7783 -0.5756
 4973SOL    HW226556   4.168   4.553   4.121 -1.3218 -0.8437  0.5962
 4974SOL     OW26557   0.910   2.134   2.159 -0.2947  0.3679  0.5495
 4974SOL    HW126558   0.951   2.157   2.243  1.2390  1.4950 -0.4895
 4974SOL    HW226559   0.951   2.200   2.102 -0.6636 -1.7605 -2.1547
 4975SOL     OW26560   3.119   0.788   4.085 -0.2301  0.7555 -0.0904
 4975SOL    HW126561   3.112   0.702   4.127 -0.8785  2.0920  2.5039
 4975SOL    HW226562   3.156   0.833   4.161 -0.4060 -0.8549  0.9408
 4976SOL     OW26563   0.074   0.659   5.344  0.0605  0.2668  0.0667
 4976SOL    HW126564   0.064   0.588   5.407 -2.3394 -0.0710 -0.7153
 4976SOL    HW226565   0.122   0.612   5.276 -1.3500 -0.8801 -0.1279
 4977SOL     OW26566   0.641   3.029   2.917 -0.2436 -0.5777 -0.3775
 4977SOL    HW126567   0.665   3.112   2.958  0.0845 -0.8220 -0.0768
 4977SOL    HW226568   0.605   2.983   2.993  1.1201  0.5023  0.9140
 4978SOL     OW26569   1.161   2.737   4.268  0.5377  0.0959 -0.2297
 4978SOL    HW126570   1.155   2.815   4.213 -1.0186  0.3320  0.2757
 4978SOL    HW226571   1.246   2.756   4.309  1.8176 -1.2632 -2.2774
 4979SOL     OW26572   0.346   0.162   2.890 -0.3950  0.2506 -0.1304
 4979SOL    HW126573   0.336   0.085   2.946  0.6506  0.3380  0.1850
 4979SOL    HW226574   0.283   0.142   2.821 -1.7559 -1.0704  1.4905
 4980SOL     OW26575   1.917   0.246  16.224 -0.1219 -0.0747 -0.9513
 4980SOL    HW126576   1.924   0.279  16.135 -0.7214 -1.0525 -1.3565
 4980SOL    HW226577   1.967   0.164  16.219  0.6946  0.3792 -0.3284
 4981SOL     OW26578   2.291   0.093   0.114  0.1070 -0.1661  0.0792
 4981SOL    HW126579   2.374   0.075   0.071 -0.0933  0.3993 -0.5432
 4981SOL    HW226580   2.235   0.096   0.037 -1.4847 -2.4726  1.1461
 4982SOL     OW26581   4.436   0.226   2.231  0.0675  0.0502  0.1343
 4982SOL    HW126582   4.480   0.143   2.211  0.6284  0.5578 -0.7164
 4982SOL    HW226583   4.505   0.281   2.194 -0.1580 -0.8884 -1.7030
 4983SOL     OW26584   4.070   1.502   5.984  0.1436 -0.4866 -0.0759
 4983SOL    HW126585   4.086   1.597   5.986  0.1520 -0.5027  0.8183
 4983SOL    HW226586   4.092   1.491   5.892 -0.8466  2.9221 -0.7420
 4984SOL     OW26587   4.227   0.922   2.841 -0.1824  0.0596 -0.3598
 4984SOL    HW126588   4.287   0.887   2.775  2.7605  0.7090  1.9409
 4984SOL    HW226589   4.290   0.959   2.904 -1.4894  0.3858  0.7493
 4985SOL     OW26590   4.690   1.112   3.213 -0.5211  0.0158  0.4360
 4985SOL    HW126591   4.685   1.199   3.250  2.7728  0.4301 -0.1060
 4985SOL    HW226592   0.038   1.112   3.175 -1.1409  0.4200 -1.0340
 4986SOL     OW26593   0.262   2.585   4.366  0.1861  0.4385  0.7438
 4986SOL    HW126594   0.306   2.633   4.436 -1.0291  0.2616  1.6190
 4986SOL    HW226595   0.294   2.642   4.295  1.0129 -0.0120  0.7529
 4987SOL     OW26596   2.228   1.168  14.226  0.1390 -0.0902 -0.2190
 4987SOL    HW126597   2.148   1.120  14.248 -0.0814  0.2849 -0.1955
 4987SOL    HW226598   2.223   1.244  14.283  1.3694 -0.4769  0.3949
 4988SOL     OW26599   4.595   0.500   3.392 -0.0638  0.2085 -0.0067
 4988SOL    HW126600   4.522   0.502   3.330 -0.3918  2.6790  0.4492
 4988SOL    HW226601   4.588   0.590   3.424  0.3281  0.3919 -0.4445
 4989SOL     OW26602   2.711   0.065   0.296 -0.1083  0.3905 -0.0978
 4989SOL    HW126603   2.720   4.714   0.266  1.5309  0.1342  1.1229
 4989SOL    HW226604   2.628   0.068   0.344  0.4101 -1.9337  0.9548
 4990SOL     OW26605   1.387   1.028   8.381 -0.2505  0.4283 -0.1932
 4990SOL    HW126606   1.379   1.099   8.317 -1.5377 -0.1707 -0.6828
 4990SOL    HW226607   1.304   1.041   8.426  0.1449  1.6513  0.1890
 4991SOL     OW26608   1.324   2.405   4.073  0.0506 -0.9040  0.2968
 4991SOL    HW126609   1.409   2.363   4.060  0.3384 -0.5886  1.1298
 4991SOL    HW226610   1.283   2.375   4.155 -1.1934 -1.3615 -0.4884
 4992SOL     OW26611   1.714   4.640   7.766  0.4715  0.1625 -0.4026
 4992SOL    HW126612   1.694   4.548   7.749 -1.2457  0.3862  0.3988
 4992SOL    HW226613   1.785   4.657   7.704  1.6443  1.5318  1.3132
 4993SOL     OW26614   2.699   3.329   7.642 -0.3947  0.2153 -0.4681
 4993SOL    HW126615   2.696   3.327   7.546  1.7471  1.2567 -0.5341
 4993SOL    HW226616   2.675   3.238   7.662 -0.1519  0.5268  1.2010
 4994SOL     OW26617   2.028   0.824   6.273  1.0811  0.0021  0.5156
 4994SOL    HW126618   1.972   0.835   6.349  1.3160 -3.6621  1.2460
 4994SOL    HW226619   2.013   0.729   6.270 -1.4033  0.4318 -0.4939
 4995SOL     OW26620   4.571   2.791   4.961  0.4929  0.3530 -0.5887
 4995SOL    HW126621   4.552   2.875   5.003  2.4410 -0.7903  2.5924
 4995SOL    HW226622   4.514   2.791   4.885  0.9463  0.0999 -0.9301
 4996SOL     OW26623   4.563   0.655   5.821 -0.2912 -0.3625  0.2142
 4996SOL    HW126624   4.472   0.649   5.794 -0.0690 -0.7051 -0.4615
 4996SOL    HW226625   4.613   0.612   5.751 -1.3098  0.8144 -1.2224
 4997SOL     OW26626   3.742   0.764   7.618 -0.6030 -0.5585  0.4205
 4997SOL    HW126627   3.738   0.669   7.631  1.8427 -0.6021  0.7723
 4997SOL    HW226628   3.830   0.779   7.585 -1.0731  1.9568  0.2684
 4998SOL     OW26629   2.425   2.021  14.450  0.0744 -0.1894  0.5462
 4998SOL    HW126630   2.362   1.955  14.418 -0.6989  1.3100 -1.0214
 4998SOL    HW226631   2.499   2.024  14.389 -1.6794 -3.1071 -1.7783
 4999SOL     OW26632   0.887   4.164   6.574  0.0590  0.0566 -0.1251
 4999SOL    HW126633   0.950   4.111   6.526 -0.5442 -0.0458 -0.8056
 4999SOL    HW226634   0.931   4.183   6.658  1.9195 -4.3029 -0.1352
 5000SOL     OW26635   2.794   2.667   4.802  0.2722  0.1891  0.0554
 5000SOL    HW126636   2.845   2.745   4.821  0.6464  0.2948 -1.4099
 5000SOL    HW226637   2.737   2.673   4.879 -0.9836 -1.5252 -0.7346
 5001SOL     OW26638   3.065   1.140   3.700  0.2329 -0.5356 -0.3589
 5001SOL    HW126639   3.094   1.171   3.786 -0.4960 -3.0665  0.8157
 5001SOL    HW226640   3.094   1.049   3.712 -0.0772 -0.2558  2.4598
 5002SOL     OW26641   3.564   2.478  10.020  0.1492 -0.0071 -0.2317
 5002SOL    HW126642   3.603   2.547   9.966 -1.2756  0.2386 -0.9237
 5002SOL    HW226643   3.646   2.445  10.057 -1.2367  0.5369  3.3294
 5003SOL     OW26644   1.557   0.391  10.140 -0.6963  0.1222  0.2178
 5003SOL    HW126645   1.589   0.472  10.100 -1.0487 -0.1233 -0.5609
 5003SOL    HW226646   1.500   0.413  10.214 -0.9073 -0.2752  0.1705
 5004SOL     OW26647   2.321   3.408  10.262  0.4200  0.4258 -0.2889
 5004SOL    HW126648   2.282   3.328  10.296  1.6714 -0.1387 -0.1548
 5004SOL    HW226649   2.412   3.377  10.266 -0.2643 -1.3775  1.1109
 5005SOL     OW26650   2.333   1.287  12.186  0.0361  0.2422  0.1162
 5005SOL    HW126651   2.297   1.248  12.107  1.3881 -2.8684  1.0343
 5005SOL    HW226652   2.247   1.281  12.227 -1.2577  1.8754 -2.3611
 5006SOL     OW26653   3.544   1.242   3.345  0.2443 -0.2668 -0.4304
 5006SOL    HW126654   3.522   1.333   3.327  1.8446  0.7092  2.6242
 5006SOL    HW226655   3.469   1.186   3.323  0.2017 -0.4431  0.1810
 5007SOL     OW26656   4.712   2.277   7.950  0.1876 -0.4738  0.4501
 5007SOL    HW126657   4.705   2.281   7.854 -2.2063  1.0422  0.6862
 5007SOL    HW226658   0.068   2.273   7.960  0.4920  2.9212 -0.8731
 5008SOL     OW26659   1.534   3.403   5.432 -0.4800 -0.3230 -0.1327
 5008SOL    HW126660   1.595   3.354   5.376 -0.8862 -1.1689  0.1713
 5008SOL    HW226661   1.461   3.396   5.369 -0.9218  1.7299  0.1675
 5009SOL     OW26662   1.157   0.238   3.668  0.2069 -0.3376  0.4169
 5009SOL    HW126663   1.128   0.216   3.757  2.2486 -0.6441  1.0011
 5009SOL    HW226664   1.074   0.276   3.638  0.1183 -0.1640  0.8632
 5010SOL     OW26665   4.581   4.149   6.551 -0.3094 -0.1827 -0.2819
 5010SOL    HW126666   4.496   4.127   6.515 -1.3105  2.1153  0.6567
 5010SOL    HW226667   4.570   4.114   6.640  0.3223 -2.3635 -1.0629
 5011SOL     OW26668   2.424   0.744   7.911  0.5177 -0.0309  0.3691
 5011SOL    HW126669   2.381   0.745   7.997  0.6966 -0.1094  0.4579
 5011SOL    HW226670   2.503   0.794   7.930 -0.4631  1.6282  0.0979
 5012SOL     OW26671   0.155   0.077   5.623 -0.1586  0.2831 -0.2003
 5012SOL    HW126672   0.155   0.138   5.696 -1.2834  0.4947 -0.3778
 5012SOL    HW226673   0.061   0.074   5.606  0.1064 -1.6492 -1.3580
 5013SOL     OW26674   3.188   1.772   8.303  0.0245 -0.1228  0.2185
 5013SOL    HW126675   3.166   1.854   8.347 -1.7951  0.0987 -1.0626
 5013SOL    HW226676   3.151   1.785   8.215 -2.4394 -0.9252  1.1384
 5014SOL     OW26677   1.684   4.546  14.143  0.1306 -0.2404 -0.1260
 5014SOL    HW126678   1.742   4.472  14.124 -1.8473 -1.7404 -0.4695
 5014SOL    HW226679   1.704   4.550  14.236  0.6037 -0.5819 -0.2119
 5015SOL     OW26680   0.125   1.144   8.560 -0.7896  0.1144  0.2182
 5015SOL    HW126681   0.169   1.213   8.610 -0.6755 -1.4284  2.2234
 5015SOL    HW226682   0.092   1.198   8.488 -0.4160  0.6775  0.4594
 5016SOL     OW26683   1.490   0.046  13.670  0.1381  0.2558  0.0306
 5016SOL    HW126684   1.513   0.035  13.763 -2.5815 -1.1607  0.5363
 5016SOL    HW226685   1.576   0.065  13.631  0.4865 -2.0848 -0.3573
 5017SOL     OW26686   4.411   1.091   2.259 -0.3900  0.7354  0.0513
 5017SOL    HW126687   4.504   1.074   2.273 -0.8348 -0.1472  1.9702
 5017SOL    HW226688   4.385   1.062   2.346  0.4678  0.9879  0.3939
 5018SOL     OW26689   2.792   2.980  15.523  0.1749  0.3186  0.1170
 5018SOL    HW126690   2.835   2.962  15.439  1.4506  0.1117  0.8082
 5018SOL    HW226691   2.824   3.068  15.542 -3.6431  2.0506 -1.4983
 5019SOL     OW26692   0.725   0.591  10.584  0.5012 -0.4634  0.2032
 5019SOL    HW126693   0.708   0.603  10.491 -5.3233  0.1452  1.3031
 5019SOL    HW226694   0.728   0.682  10.615 -0.8300 -0.4431  0.2964
 5020SOL     OW26695   2.207   1.508   3.034  0.2712 -0.2051 -0.1378
 5020SOL    HW126696   2.229   1.589   2.988 -0.3592 -0.0222 -0.1154
 5020SOL    HW226697   2.251   1.448   2.974 -0.0896 -3.1793  2.5897
 5021SOL     OW26698   1.892   2.138   5.525  0.1514  0.0899  0.0067
 5021SOL    HW126699   1.848   2.153   5.609  3.3008 -0.7589  1.7703
 5021SOL    HW226700   1.966   2.083   5.551 -0.9267 -1.8910 -1.0640
 5022SOL     OW26701   3.488   0.189   2.389  0.4151 -0.0564 -0.0429
 5022SOL    HW126702   3.431   0.126   2.433 -0.4421  0.5977 -0.2090
 5022SOL    HW226703   3.571   0.141   2.384  1.0349  1.3104 -3.0185
 5023SOL     OW26704   1.936   4.685   3.644  0.0586 -0.3612  0.2846
 5023SOL    HW126705   1.880   4.634   3.702 -0.1253 -1.5872 -0.9772
 5023SOL    HW226706   1.973   4.620   3.584 -0.9939 -0.5006 -0.2163
 5024SOL     OW26707   2.873   0.859  12.844 -0.2383  0.8561 -0.2643
 5024SOL    HW126708   2.950   0.828  12.891  0.0731  0.2100 -1.1901
 5024SOL    HW226709   2.807   0.799  12.878  1.8235 -1.8876 -1.1303
 5025SOL     OW26710   4.310   2.661  16.310  0.6305  0.5324  0.2871
 5025SOL    HW126711   4.346   2.735  16.359 -0.6511  1.3316  0.0323
 5025SOL    HW226712   4.295   2.702  16.224  2.7386 -0.8658 -0.7281
 5026SOL     OW26713   0.058   2.852   5.521  0.1368 -0.1371  0.0808
 5026SOL    HW126714   0.076   2.759   5.510  0.8469 -0.0537  0.5365
 5026SOL    HW226715   4.719   2.867   5.469 -1.3290 -1.5611  1.8912
 5027SOL     OW26716   1.261   2.380   2.943 -0.0124 -0.1041 -0.1640
 5027SOL    HW126717   1.237   2.440   2.872 -0.0317 -2.0173 -1.7699
 5027SOL    HW226718   1.320   2.319   2.898  1.7645  2.4044 -1.2845
 5028SOL     OW26719   3.915   4.259  12.916 -0.0462 -0.4499  0.0563
 5028SOL    HW126720   3.941   4.199  12.847  5.2732  1.4711  0.3374
 5028SOL    HW226721   3.824   4.281  12.898  0.4484 -0.0756 -1.9745
 5029SOL     OW26722   4.687   0.538   5.599  0.3230  0.2268 -0.7364
 5029SOL    HW126723   4.628   0.520   5.525 -0.7099 -0.0549  0.1511
 5029SOL    HW226724   4.734   0.455   5.590  0.5767  0.2298  0.6743
 5030SOL     OW26725   4.438   0.136   3.569  0.0940 -0.2858 -0.3876
 5030SOL    HW126726   4.503   0.097   3.628  0.8945 -0.7509 -1.5569
 5030SOL    HW226727   4.397   0.206   3.620 -0.5892  0.3998 -1.8705
 5031SOL     OW26728   2.272   3.603   3.863  0.4647  0.3108  0.0877
 5031SOL    HW126729   2.233   3.616   3.777 -0.3314  0.7810  0.5104
 5031SOL    HW226730   2.343   3.665   3.879  0.7240  0.0369  0.0084
 5032SOL     OW26731   0.999   2.221  10.412  0.1426 -0.6970  0.0388
 5032SOL    HW126732   1.020   2.129  10.427  3.9858 -0.0535 -1.3743
 5032SOL    HW226733   1.029   2.230  10.322 -2.2438 -0.2952 -0.7288
 5033SOL     OW26734   1.069   2.009   6.216 -0.2966  0.5004 -0.6070
 5033SOL    HW126735   1.066   1.915   6.238 -2.0950  0.9417  0.9903
 5033SOL    HW226736   1.047   2.005   6.123  0.9135  0.8299 -0.9049
 5034SOL     OW26737   3.498   3.412   5.964  0.5982  0.8917 -0.6497
 5034SOL    HW126738   3.584   3.407   6.006 -1.1814 -0.2527  2.7787
 5034SOL    HW226739   3.461   3.325   5.978  2.4355  0.0236 -1.0966
 5035SOL     OW26740   1.855   2.889  14.432  0.6694  0.0655  0.5929
 5035SOL    HW126741   1.861   2.863  14.524  0.7927 -2.8983 -0.2530
 5035SOL    HW226742   1.845   2.984  14.435  1.6264  0.1940 -0.2402
 5036SOL     OW26743   0.587   3.478   4.887  0.0110 -0.2396 -0.0592
 5036SOL    HW126744   0.494   3.494   4.905 -0.5485  0.5963 -3.7428
 5036SOL    HW226745   0.599   3.527   4.806 -1.3895  1.8612  0.9891
 5037SOL     OW26746   0.592   2.133   6.641  0.2952  0.1847 -0.0194
 5037SOL    HW126747   0.500   2.121   6.663 -0.3993  3.3459 -1.2686
 5037SOL    HW226748   0.575   2.177   6.558 -3.2824 -0.6018  0.3115
 5038SOL     OW26749   3.065   1.540   7.288 -0.0248  0.0043 -0.2599
 5038SOL    HW126750   2.980   1.581   7.275 -0.1831  0.3471  1.8077
 5038SOL    HW226751   3.124   1.592   7.233  0.3877  1.2948  1.3902
 5039SOL     OW26752   3.254   0.831  12.630  0.1762  0.0369  0.1492
 5039SOL    HW126753   3.198   0.886  12.684 -0.5552  0.7476 -1.3596
 5039SOL    HW226754   3.280   0.764  12.694 -1.0931  0.7195  1.3774
 5040SOL     OW26755   4.166   0.005   1.200 -0.1100 -0.0002  0.1957
 5040SOL    HW126756   4.163   4.670   1.140 -2.6489  0.5141 -0.3295
 5040SOL    HW226757   4.116   0.067   1.145  0.6546 -1.1015 -1.7536
 5041SOL     OW26758   2.058   0.647  14.144  0.1248 -0.5842 -0.1791
 5041SOL    HW126759   2.043   0.579  14.078 -2.8079 -1.2836  1.1815
 5041SOL    HW226760   2.047   0.594  14.222  2.1784 -0.1906  0.3589
 5042SOL     OW26761   4.274   2.123   4.986  0.1123  0.0754 -0.1683
 5042SOL    HW126762   4.332   2.197   4.970  1.8563 -1.6034 -1.6487
 5042SOL    HW226763   4.189   2.167   4.991 -0.1161 -0.4288  0.3847
 5043SOL     OW26764   0.309   1.208  15.808  0.7524 -0.4972  0.1585
 5043SOL    HW126765   0.399   1.206  15.777  0.5827  0.3115 -0.3673
 5043SOL    HW226766   0.268   1.169  15.730  0.8588  0.3265 -0.3067
 5044SOL     OW26767   2.276   3.372   9.736 -0.2826  0.1951 -0.4048
 5044SOL    HW126768   2.291   3.319   9.814  2.0556  0.0422 -0.9324
 5044SOL    HW226769   2.332   3.446   9.760 -0.4972  0.7374 -1.5437
 5045SOL     OW26770   3.877   4.272   6.738 -0.7719 -0.6953 -0.9239
 5045SOL    HW126771   3.955   4.287   6.792 -0.6878 -1.1351 -0.9181
 5045SOL    HW226772   3.828   4.350   6.760  0.1689 -0.4164  0.1789
 5046SOL     OW26773   4.021   3.857   3.634 -0.0264  0.2937  0.4596
 5046SOL    HW126774   3.959   3.799   3.591  0.5828 -0.6121  0.8042
 5046SOL    HW226775   3.961   3.915   3.682 -1.4111 -0.7935  0.0339
 5047SOL     OW26776   3.360   1.101  12.323 -0.1200  0.8646 -0.4948
 5047SOL    HW126777   3.380   1.088  12.231  0.7866  2.3080 -0.4959
 5047SOL    HW226778   3.281   1.154  12.322 -0.4790  0.3384 -0.1834
 5048SOL     OW26779   0.348   1.093   6.694 -0.1673  0.2354  0.5504
 5048SOL    HW126780   0.297   1.142   6.629 -0.3015 -1.4030 -0.5742
 5048SOL    HW226781   0.346   1.007   6.652  1.3022  0.2717  0.3853
 5049SOL     OW26782   4.452   4.607   3.454  0.2438 -0.2485  0.0303
 5049SOL    HW126783   4.493   4.596   3.540 -1.4776  0.0173  0.8928
 5049SOL    HW226784   4.424   4.699   3.453  3.2826  0.6970  1.1651
 5050SOL     OW26785   4.362   1.038  11.108 -0.0930  0.2025 -0.2504
 5050SOL    HW126786   4.284   1.084  11.140 -2.4942 -2.6766 -2.0215
 5050SOL    HW226787   4.321   0.954  11.089 -0.5433  0.0069  1.6518
 5051SOL     OW26788   3.665   4.431   7.018 -0.1098 -0.6862 -0.6703
 5051SOL    HW126789   3.572   4.452   7.012  0.0530  0.4465  0.8839
 5051SOL    HW226790   3.709   4.511   6.989  1.0685  0.2143  3.5867
 5052SOL     OW26791   0.781   1.898   1.586 -0.2503  0.0698  0.4358
 5052SOL    HW126792   0.756   1.988   1.566  0.9687  0.6332  1.4498
 5052SOL    HW226793   0.873   1.908   1.610 -0.4050  0.4636  0.8593
 5053SOL     OW26794   1.382   2.806   6.186  0.2165 -0.2469 -0.3405
 5053SOL    HW126795   1.322   2.731   6.177 -0.4739  0.2834 -0.1164
 5053SOL    HW226796   1.433   2.788   6.265  0.6737  2.5924 -0.0119
 5054SOL     OW26797   1.378   4.000   9.106 -0.2700 -0.2569 -0.3826
 5054SOL    HW126798   1.432   4.070   9.068 -0.3124  0.0571  0.1335
 5054SOL    HW226799   1.298   4.053   9.104  0.0533  0.2594  0.3814
 5055SOL     OW26800   3.906   3.530  11.450 -0.0917 -0.8994 -0.2960
 5055SOL    HW126801   3.828   3.556  11.499 -1.3605 -2.1968 -1.5975
 5055SOL    HW226802   3.937   3.611  11.409  0.5628 -0.8615  0.2792
 5056SOL     OW26803   0.063   3.929  10.266  0.0917  0.0505 -0.6673
 5056SOL    HW126804   0.156   3.907  10.270 -0.0535 -0.3511  0.3751
 5056SOL    HW226805   0.065   3.960  10.175  1.7728  0.1118 -0.6141
 5057SOL     OW26806   2.505   0.118   6.996  0.4575 -0.4943 -0.0110
 5057SOL    HW126807   2.533   0.117   7.088 -1.1657  2.4767  0.4983
 5057SOL    HW226808   2.574   0.176   6.963  0.0304 -0.7874 -1.3937
 5058SOL     OW26809   0.995   0.912  14.832  0.0184  0.8677  0.1923
 5058SOL    HW126810   1.052   0.988  14.818  2.7083 -1.3833 -1.1858
 5058SOL    HW226811   1.031   0.845  14.774 -0.8383  1.7297 -1.3041
 5059SOL     OW26812   3.789   1.388  15.171 -0.0836  0.1025  0.2683
 5059SOL    HW126813   3.794   1.480  15.147  0.8219  0.1640  0.6718
 5059SOL    HW226814   3.848   1.400  15.246  1.4686 -1.0362 -0.7652
 5060SOL     OW26815   2.503   1.471   8.853 -0.0774  0.0219  0.2821
 5060SOL    HW126816   2.489   1.429   8.938 -1.7607 -0.6515 -0.3238
 5060SOL    HW226817   2.411   1.473   8.826  0.0711 -0.1457 -0.2428
 5061SOL     OW26818   4.499   1.121   0.218  0.2123 -0.5499  0.4140
 5061SOL    HW126819   4.413   1.123   0.259  0.4580 -0.8696  0.9448
 5061SOL    HW226820   4.528   1.031   0.234  2.3841 -0.1562 -1.2085
 5062SOL     OW26821   0.020   1.147  14.690 -0.2027  0.3492 -0.4908
 5062SOL    HW126822   0.049   1.238  14.682 -1.1399  0.7001  0.0435
 5062SOL    HW226823   0.070   1.139  14.771  1.1246  0.0641 -1.3397
 5063SOL     OW26824   3.429   2.388   3.673 -0.4411 -0.3376  0.2362
 5063SOL    HW126825   3.481   2.360   3.748 -0.2304 -0.7071 -0.0492
 5063SOL    HW226826   3.462   2.322   3.612  3.0338  1.6205 -0.0025
 5064SOL     OW26827   1.074   0.913  10.443  0.1223  0.6217  0.0857
 5064SOL    HW126828   0.982   0.938  10.435 -0.0095 -0.1732 -0.9661
 5064SOL    HW226829   1.107   1.003  10.444  0.5807  0.4665 -0.9095
 5065SOL     OW26830   1.679   0.867   3.652 -0.0070  0.3863 -0.1658
 5065SOL    HW126831   1.710   0.782   3.682 -0.0798 -0.6018 -2.8140
 5065SOL    HW226832   1.690   0.875   3.557  1.7230  1.8846  0.1681
 5066SOL     OW26833   0.863   2.565   6.082 -0.2516 -0.0945  0.1589
 5066SOL    HW126834   0.859   2.526   5.994  1.0067  0.2325 -0.0481
 5066SOL    HW226835   0.820   2.648   6.058 -1.2202 -0.6027  0.1506
 5067SOL     OW26836   4.540   1.328   8.519 -0.1526 -0.2787 -0.1560
 5067SOL    HW126837   4.584   1.317   8.434  1.0925  0.1738  0.4369
 5067SOL    HW226838   4.612   1.359   8.573 -0.4953  0.0223  0.1341
 5068SOL     OW26839   4.157   2.150   9.630 -0.2776 -0.5147 -0.6751
 5068SOL    HW126840   4.141   2.080   9.566 -1.3691 -0.5487 -0.3703
 5068SOL    HW226841   4.226   2.106   9.680  0.5336  1.4743 -0.0803
 5069SOL     OW26842   1.982   0.899  14.163 -0.2662 -0.0423 -0.9758
 5069SOL    HW126843   1.990   0.928  14.254 -0.4588 -2.3138 -0.2457
 5069SOL    HW226844   2.005   0.806  14.162 -0.4517 -0.0793 -1.7419
 5070SOL     OW26845   1.902   2.712   5.550  0.7476  0.5331  0.1971
 5070SOL    HW126846   1.889   2.668   5.465 -0.4682 -0.3243  0.8265
 5070SOL    HW226847   1.917   2.804   5.526 -2.9443  0.5740 -2.1041
 5071SOL     OW26848   3.704   3.838  13.503 -0.2196 -0.1267  0.3801
 5071SOL    HW126849   3.703   3.787  13.422  0.7782  0.9560 -0.3019
 5071SOL    HW226850   3.691   3.925  13.465  2.3355 -0.1312 -0.5123
 5072SOL     OW26851   4.190   4.556   4.882  0.3422  0.1895 -0.1672
 5072SOL    HW126852   4.131   4.622   4.918 -1.8519 -0.4100 -2.6708
 5072SOL    HW226853   4.268   4.571   4.936  1.2320  2.9121 -2.1896
 5073SOL     OW26854   4.691   0.421   7.219 -0.3323 -0.0952  0.5825
 5073SOL    HW126855   4.598   0.418   7.238 -0.7423 -1.0121 -1.5587
 5073SOL    HW226856   4.690   0.404   7.124  0.1342  0.3174  0.4986
 5074SOL     OW26857   2.089   3.195   6.529 -0.5680 -0.0350 -0.0323
 5074SOL    HW126858   2.064   3.279   6.566 -1.0087 -1.2913  2.4972
 5074SOL    HW226859   2.101   3.148   6.611 -0.1215 -1.1639 -0.7416
 5075SOL     OW26860   0.985   2.099  16.714  0.0633  0.0065 -0.1552
 5075SOL    HW126861   1.009   2.115  16.805  3.2197  1.0566 -1.1364
 5075SOL    HW226862   1.032   2.169  16.667 -1.2087  1.7380  1.1575
 5076SOL     OW26863   3.708   0.696  17.157 -0.3876 -0.1086  0.0743
 5076SOL    HW126864   3.726   0.693  17.063  1.6190  0.5689  0.4208
 5076SOL    HW226865   3.686   0.606  17.183 -0.4231 -0.2169 -0.3271
 5077SOL     OW26866   3.435   0.447   2.514  0.1017 -0.1899  0.6383
 5077SOL    HW126867   3.408   0.372   2.462  2.4348  0.8980 -2.1441
 5077SOL    HW226868   3.492   0.396   2.572  0.9864  0.7669  0.6205
 5078SOL     OW26869   0.009   1.907   2.975  0.9396 -0.1965 -0.6440
 5078SOL    HW126870   0.074   1.966   2.937  1.2651  0.2547  0.6020
 5078SOL    HW226871   4.726   1.941   3.062 -1.4671 -2.2703 -0.4576
 5079SOL     OW26872   1.032   1.520   9.124  0.1321 -0.0023 -0.0231
 5079SOL    HW126873   1.007   1.520   9.032  0.4603  1.1098 -0.1072
 5079SOL    HW226874   1.010   1.610   9.149  0.0029 -0.4268  1.4130
 5080SOL     OW26875   3.329   3.058   8.089 -0.3478  0.0826  0.1923
 5080SOL    HW126876   3.270   3.098   8.024 -1.3494 -0.9231  0.4924
 5080SOL    HW226877   3.350   2.982   8.035 -0.1427  0.8389 -0.8040
 5081SOL     OW26878   4.538   2.077   1.394  0.1403  0.3911 -0.1375
 5081SOL    HW126879   4.559   2.049   1.483 -0.9126 -1.7936 -0.5837
 5081SOL    HW226880   4.599   2.021   1.346 -1.9860  0.1837 -2.5643
 5082SOL     OW26881   0.446   4.128   7.026  0.1262 -0.0220 -0.1941
 5082SOL    HW126882   0.475   4.099   7.113  2.6715 -0.2156 -1.1093
 5082SOL    HW226883   0.366   4.079   7.007  0.6808 -1.8229  2.1687
 5083SOL     OW26884   3.049   3.021   6.670  0.1440  0.8408 -0.5311
 5083SOL    HW126885   3.013   2.996   6.584  0.4471 -2.6737  0.3646
 5083SOL    HW226886   2.983   3.084   6.698 -0.6071 -0.9054  1.6145
 5084SOL     OW26887   1.352   1.905   3.482 -0.2276 -0.3680  0.5841
 5084SOL    HW126888   1.436   1.950   3.497 -0.3779  0.0992  0.0209
 5084SOL    HW226889   1.308   1.982   3.447  2.0213  1.6549  2.1435
 5085SOL     OW26890   1.073   3.579   0.798  0.1924 -0.0987 -0.1023
 5085SOL    HW126891   1.064   3.485   0.787  0.2392 -0.0512 -0.5295
 5085SOL    HW226892   1.034   3.585   0.886  1.3123  1.2850  0.2944
 5086SOL     OW26893   2.594   3.182   4.721  0.2320  0.0820  0.1749
 5086SOL    HW126894   2.604   3.135   4.804  0.5560 -1.4585 -0.7361
 5086SOL    HW226895   2.595   3.274   4.747  1.3687 -0.0012  0.4378
 5087SOL     OW26896   1.783   0.517   8.413  0.3741 -0.5322  0.4171
 5087SOL    HW126897   1.868   0.517   8.455  0.5210 -0.0537  0.1206
 5087SOL    HW226898   1.732   0.473   8.481 -1.9053  0.6622 -0.5201
 5088SOL     OW26899   0.160   0.714   7.536  0.3777 -0.5831  0.0611
 5088SOL    HW126900   0.191   0.798   7.502 -0.5081 -0.0454  0.5981
 5088SOL    HW226901   0.239   0.681   7.578  0.3640 -0.6776  0.0122
 5089SOL     OW26902   4.047   0.190   4.225 -0.8803 -0.5926 -0.2775
 5089SOL    HW126903   3.989   0.222   4.295  3.8181  0.3732  3.1900
 5089SOL    HW226904   3.985   0.153   4.163 -2.0057 -0.3553  0.7123
 5090SOL     OW26905   1.057   4.242   7.764 -0.6770 -0.4009  0.0056
 5090SOL    HW126906   1.110   4.227   7.842 -1.3806 -1.4630  0.2751
 5090SOL    HW226907   0.979   4.274   7.808 -1.9351 -3.1962 -0.1993
 5091SOL     OW26908   1.431   1.057  11.976  0.2069  0.1031 -0.6535
 5091SOL    HW126909   1.486   0.984  12.004  2.1076  2.9441  3.1141
 5091SOL    HW226910   1.490   1.133  11.978  0.3643 -0.0762  1.1013
 5092SOL     OW26911   0.681   1.779   9.116  0.4841  0.3370  0.0783
 5092SOL    HW126912   0.673   1.857   9.061 -0.1548 -1.8673 -2.9756
 5092SOL    HW226913   0.777   1.785   9.122  0.7157  0.8808 -3.6924
 5093SOL     OW26914   2.892   1.046   7.639 -0.3651 -0.3034  0.3019
 5093SOL    HW126915   2.980   1.079   7.659 -0.6283  1.1083 -0.8619
 5093SOL    HW226916   2.852   1.130   7.614  0.6040  0.3923  1.1105
 5094SOL     OW26917   2.365   3.678   6.635  0.1894 -0.5581  0.2454
 5094SOL    HW126918   2.430   3.645   6.574 -0.5007 -0.3509 -0.5974
 5094SOL    HW226919   2.312   3.726   6.571  0.9876 -0.1821 -0.1343
 5095SOL     OW26920   4.406   3.798  12.192  0.0856 -0.0169 -0.3357
 5095SOL    HW126921   4.436   3.761  12.275  0.1191 -0.3929 -0.5175
 5095SOL    HW226922   4.361   3.723  12.154 -0.6921  0.5701 -0.5658
 5096SOL     OW26923   0.468   2.042   4.156 -0.0357  0.2049  0.0632
 5096SOL    HW126924   0.495   1.983   4.086 -1.3534  0.4783 -0.6798
 5096SOL    HW226925   0.502   1.994   4.232 -0.0931  0.6914  0.3927
 5097SOL     OW26926   3.428   3.512   2.905  0.8518 -0.7196  0.6858
 5097SOL    HW126927   3.399   3.430   2.867 -3.8335 -0.1796  3.1431
 5097SOL    HW226928   3.522   3.493   2.912  1.5627  2.5625  0.0366
 5098SOL     OW26929   0.785   2.059   4.122  1.0421  0.2095 -0.7180
 5098SOL    HW126930   0.847   2.080   4.191  0.7270  0.9033 -0.6423
 5098SOL    HW226931   0.710   2.059   4.182 -0.8889  0.2538 -3.0992
 5099SOL     OW26932   4.049   0.975   8.467 -0.6659 -0.0758 -0.3465
 5099SOL    HW126933   4.013   0.920   8.536 -0.4471  0.1019 -0.0895
 5099SOL    HW226934   4.144   0.972   8.479 -0.6912 -0.7605 -0.3141
 5100SOL     OW26935   1.647   3.529   7.513  0.7159 -0.3360  0.1490
 5100SOL    HW126936   1.710   3.601   7.516 -0.9674  1.2705 -2.5879
 5100SOL    HW226937   1.709   3.457   7.522 -0.0170 -0.8291  1.2262
 5101SOL     OW26938   1.982   0.300   0.632 -0.1580  0.0601 -0.2045
 5101SOL    HW126939   2.011   0.217   0.593 -0.8354  0.0846 -0.7713
 5101SOL    HW226940   1.901   0.305   0.582  0.5045  0.8413 -1.2066
 5102SOL     OW26941   1.510   4.228   4.156  0.2869  0.0368 -0.0830
 5102SOL    HW126942   1.472   4.201   4.072  1.6191 -1.1423 -0.2953
 5102SOL    HW226943   1.602   4.227   4.132  0.3718 -1.3683  0.3016
 5103SOL     OW26944   4.187   1.984   5.987 -0.7342 -0.7267 -0.0093
 5103SOL    HW126945   4.277   2.010   5.971 -1.3116  2.0430  1.2093
 5103SOL    HW226946   4.171   2.027   6.071 -0.4111  1.9885 -1.3498
 5104SOL     OW26947   3.416   4.546   6.148 -0.1987  0.1395 -0.0502
 5104SOL    HW126948   3.372   4.546   6.233  0.8777  0.7562  0.5199
 5104SOL    HW226949   3.465   4.464   6.148 -2.6114 -1.2847  1.0759
 5105SOL     OW26950   2.673   3.805   3.448 -0.1220  0.3037 -0.3842
 5105SOL    HW126951   2.731   3.729   3.439 -0.0398  0.1331  1.6204
 5105SOL    HW226952   2.647   3.792   3.539  1.9963  2.4943  0.5095
 5106SOL     OW26953   2.566   4.376   2.667  0.6718  0.8934  0.6119
 5106SOL    HW126954   2.597   4.321   2.595  0.7786 -0.0653  1.3991
 5106SOL    HW226955   2.493   4.327   2.706  2.4078  0.9341  3.8718
 5107SOL     OW26956   3.372   0.406   4.424 -0.3907 -0.1720 -0.3368
 5107SOL    HW126957   3.285   0.421   4.462  0.2834 -0.6675  1.3788
 5107SOL    HW226958   3.362   0.343   4.353  1.8063 -0.9360  0.0415
 5108SOL     OW26959   2.131   3.667  16.258  0.1351 -0.1497 -0.5970
 5108SOL    HW126960   2.144   3.573  16.272 -2.1691 -0.5557 -1.1959
 5108SOL    HW226961   2.191   3.692  16.328 -1.7838  0.7113  0.7492
 5109SOL     OW26962   4.426   1.597   3.995 -0.2685 -0.0856 -0.1954
 5109SOL    HW126963   4.520   1.592   4.014 -0.0500  1.3092 -0.8548
 5109SOL    HW226964   4.427   1.569   3.903  0.3660 -0.8328  0.0440
 5110SOL     OW26965   1.903   0.583   6.286 -0.1266  0.0722 -0.3455
 5110SOL    HW126966   1.920   0.557   6.376  0.3229  2.0773  0.1665
 5110SOL    HW226967   1.861   0.502   6.258  0.9441 -0.6274  0.1096
 5111SOL     OW26968   3.800   4.429   5.260 -0.1953  0.0300 -0.1002
 5111SOL    HW126969   3.849   4.347   5.251 -1.4659 -0.6398 -1.0232
 5111SOL    HW226970   3.780   4.441   5.167 -1.6829 -0.0370  0.2033
 5112SOL     OW26971   2.098   2.052   1.480  0.2114 -0.2412  0.7995
 5112SOL    HW126972   2.128   2.028   1.393  0.0278 -0.9299  0.9266
 5112SOL    HW226973   2.082   2.146   1.472 -0.0913 -0.4526 -1.0180
 5113SOL     OW26974   4.735   3.837   7.929 -0.0447 -0.1023  0.0392
 5113SOL    HW126975   4.704   3.830   7.839  0.9817 -1.1083 -0.2375
 5113SOL    HW226976   4.655   3.849   7.980 -1.4338 -0.7167 -2.0435
 5114SOL     OW26977   3.401   2.327   8.946  0.0663 -0.3017 -0.3097
 5114SOL    HW126978   3.456   2.340   9.023 -0.7583  0.6656  0.1083
 5114SOL    HW226979   3.401   2.413   8.906 -0.4198  0.4968  1.4166
 5115SOL     OW26980   0.440   3.642   1.720 -0.1952 -0.8099 -0.1369
 5115SOL    HW126981   0.416   3.735   1.712  1.4848 -0.2260  1.6376
 5115SOL    HW226982   0.458   3.627   1.627 -1.5874  4.6061 -1.2702
 5116SOL     OW26983   2.977   0.834   5.241  0.2922  0.1017 -0.5754
 5116SOL    HW126984   3.058   0.877   5.270  0.1447 -0.1380  0.2042
 5116SOL    HW226985   2.967   0.882   5.160  0.7236  3.5439  1.4141
 5117SOL     OW26986   2.972   4.125  14.642  0.1113  0.4796  0.1683
 5117SOL    HW126987   3.066   4.113  14.650 -0.0714 -0.6147  0.7191
 5117SOL    HW226988   2.931   4.084  14.718 -0.7177  0.7398 -0.1311
 5118SOL     OW26989   3.181   1.629  14.802 -0.1709 -0.1272  0.0532
 5118SOL    HW126990   3.129   1.606  14.725 -0.9864 -1.4562  1.0043
 5118SOL    HW226991   3.214   1.543  14.828 -0.9576 -0.3294  0.3820
 5119SOL     OW26992   1.985   1.269  16.398  0.1610  0.5219 -0.4577
 5119SOL    HW126993   1.958   1.183  16.429 -1.1096 -0.5213 -4.4589
 5119SOL    HW226994   1.898   1.307  16.393  0.3609  1.0635  0.2421
 5120SOL     OW26995   3.279   3.606   2.591 -0.5661 -0.0802 -0.2137
 5120SOL    HW126996   3.269   3.650   2.507  2.0566  1.5853  0.3517
 5120SOL    HW226997   3.357   3.553   2.575  0.5245  0.9963  1.5413
 5121SOL     OW26998   2.395   1.063   9.420 -0.1106  0.0157  0.2067
 5121SOL    HW126999   2.378   1.125   9.490 -1.4936 -1.5844  1.2835
 5121SOL    HW227000   2.444   1.002   9.475  0.7602  0.1913 -0.3804
 5122SOL     OW27001   3.539   4.285   2.099  0.2471  0.2252 -0.1096
 5122SOL    HW127002   3.500   4.299   2.185 -1.2724  2.2648 -1.1343
 5122SOL    HW227003   3.505   4.198   2.082 -0.1458  0.1110  1.2496
 5123SOL     OW27004   1.320   4.595   8.862  0.1252  0.0348  0.6289
 5123SOL    HW127005   1.381   4.641   8.919  1.6895 -1.1760 -0.0734
 5123SOL    HW227006   1.266   4.559   8.932  0.8378 -0.2250  1.0379
 5124SOL     OW27007   2.228   2.536   6.420  0.2209  0.1983 -0.0905
 5124SOL    HW127008   2.289   2.576   6.482  0.5118 -0.3305 -0.0295
 5124SOL    HW227009   2.144   2.541   6.465 -0.1187  1.0249 -0.8229
 5125SOL     OW27010   0.457   3.995  11.594 -0.6409  0.1981 -0.5346
 5125SOL    HW127011   0.456   4.042  11.678 -0.2812  0.5529 -0.7308
 5125SOL    HW227012   0.472   4.069  11.536 -0.0818  0.1372 -0.4693
 5126SOL     OW27013   0.169   4.046   5.445 -0.3467 -0.0470  1.1424
 5126SOL    HW127014   0.100   4.101   5.481 -1.8028 -0.9401 -0.2884
 5126SOL    HW227015   0.243   4.106   5.451 -1.5034  1.2477  2.3651
 5127SOL     OW27016   0.225   2.216   5.161  0.7420  0.5664  0.1450
 5127SOL    HW127017   0.241   2.215   5.255 -1.8221 -2.5423  0.5407
 5127SOL    HW227018   0.162   2.287   5.164 -1.5764 -1.5161  0.1926
 5128SOL     OW27019   1.631   2.249   8.077  0.2236 -0.5879 -0.3821
 5128SOL    HW127020   1.629   2.176   8.015  0.3543 -0.9109 -0.0121
 5128SOL    HW227021   1.537   2.266   8.081 -0.3190 -3.5851  0.2841
 5129SOL     OW27022   0.571   3.872  11.222  0.2662  0.0384 -0.3578
 5129SOL    HW127023   0.641   3.893  11.283  0.4206  0.0815 -0.5473
 5129SOL    HW227024   0.614   3.866  11.136  0.0842  0.1199 -0.4534
 5130SOL     OW27025   0.201   1.559   3.674 -0.1010 -0.6144 -0.0092
 5130SOL    HW127026   0.182   1.653   3.676  0.1638 -0.6035  1.5520
 5130SOL    HW227027   0.245   1.564   3.589  0.7079  0.0118  0.4414
 5131SOL     OW27028   1.525   3.749   5.850 -0.6064 -0.0217 -0.2882
 5131SOL    HW127029   1.524   3.674   5.790 -1.2445  0.2723 -0.6400
 5131SOL    HW227030   1.460   3.807   5.811  0.8590  0.9337 -1.3186
 5132SOL     OW27031   1.579   1.618   9.939 -0.0732  0.1572  0.9279
 5132SOL    HW127032   1.515   1.549   9.955  0.5830 -0.6026  0.2635
 5132SOL    HW227033   1.525   1.696   9.953  1.5740  1.2876  1.0413
 5133SOL     OW27034   0.615   3.089  10.860  0.1423  0.1460  0.1380
 5133SOL    HW127035   0.663   3.006  10.859 -1.3574 -0.7329  0.4643
 5133SOL    HW227036   0.651   3.117  10.944 -2.4085 -2.3487  2.0780
 5134SOL     OW27037   1.809   2.943   6.465  1.1238  0.3543 -0.0124
 5134SOL    HW127038   1.837   3.010   6.403  2.3223 -1.3271 -1.3031
 5134SOL    HW227039   1.783   2.993   6.542  2.5024  0.6569  0.2466
 5135SOL     OW27040   0.692   1.869  12.623 -0.9264 -0.2072  0.5124
 5135SOL    HW127041   0.773   1.824  12.647 -0.3533  1.0024  0.8718
 5135SOL    HW227042   0.717   1.959  12.645 -2.2212 -0.0405  1.3013
 5136SOL     OW27043   0.408   0.541   4.852  0.1493  0.1305  0.3114
 5136SOL    HW127044   0.327   0.507   4.812 -1.0987  1.8132  1.4047
 5136SOL    HW227045   0.371   0.580   4.931  0.3295 -1.4840  1.2016
 5137SOL     OW27046   3.616   1.439  15.778 -0.0666  0.2657  0.0778
 5137SOL    HW127047   3.596   1.530  15.754  0.6225  0.0511 -1.2750
 5137SOL    HW227048   3.704   1.424  15.745 -0.1365  1.2600 -0.5546
 5138SOL     OW27049   3.337   0.260  14.974  0.0667 -0.2028  0.0239
 5138SOL    HW127050   3.274   0.259  14.901  0.6259  0.2675 -0.4629
 5138SOL    HW227051   3.336   0.349  15.009 -0.5793  0.7842 -2.4915
 5139SOL     OW27052   3.045   0.098   8.386 -0.4075 -0.0598 -0.1392
 5139SOL    HW127053   3.005   0.132   8.306  0.5690  0.9508 -0.1998
 5139SOL    HW227054   3.131   0.140   8.388 -0.3231 -0.2445  0.0963
 5140SOL     OW27055   2.604   3.367  16.451  0.9254  0.1301  0.2498
 5140SOL    HW127056   2.699   3.361  16.464  0.8387  0.8135  1.1722
 5140SOL    HW227057   2.579   3.441  16.505 -1.7226 -1.8118  1.7036
 5141SOL     OW27058   1.070   1.340  16.701 -0.3226  0.0846  0.0997
 5141SOL    HW127059   1.116   1.425  16.702  0.5365 -0.3777  0.2022
 5141SOL    HW227060   1.003   1.359  16.767  0.3596 -4.4061  2.0956
 5142SOL     OW27061   4.314   4.070   7.034 -0.0504 -0.1823 -0.0493
 5142SOL    HW127062   4.278   4.078   7.123 -1.5800 -1.4223 -0.5566
 5142SOL    HW227063   4.282   4.153   6.999 -1.0636 -1.1679 -1.4133
 5143SOL     OW27064   2.934   1.364   3.636  0.4480 -0.4050  0.5650
 5143SOL    HW127065   2.998   1.294   3.646 -0.4463 -0.8266  3.4163
 5143SOL    HW227066   2.881   1.332   3.709 -1.3597 -1.0835 -1.0297
 5144SOL     OW27067   3.746   1.826   5.002 -0.4323  0.2409 -0.5893
 5144SOL    HW127068   3.663   1.818   4.955 -1.0521 -0.8283  0.7053
 5144SOL    HW227069   3.737   1.912   5.042  2.6226  1.1531 -1.8982
 5145SOL     OW27070   1.118   4.222   7.255  0.1951  0.4062  0.2302
 5145SOL    HW127071   1.122   4.201   7.348 -1.0516 -2.3871 -0.3247
 5145SOL    HW227072   1.209   4.249   7.248  1.0238 -1.4668  3.7735
 5146SOL     OW27073   1.666   4.120  11.387 -0.3171 -0.3282  0.1892
 5146SOL    HW127074   1.579   4.096  11.357  0.2386  0.3192 -1.9572
 5146SOL    HW227075   1.673   4.105  11.482  0.5643  0.2787  0.2231
 5147SOL     OW27076   0.119   2.655   3.162 -0.0927 -0.2832  0.1492
 5147SOL    HW127077   0.170   2.730   3.129 -0.8329  1.0887  2.0982
 5147SOL    HW227078   0.180   2.603   3.215  0.9059  0.3581 -0.3492
 5148SOL     OW27079   3.737   1.455   8.082 -0.0705 -0.1295  0.4078
 5148SOL    HW127080   3.791   1.529   8.054 -0.2780  0.0560  0.4890
 5148SOL    HW227081   3.785   1.375   8.064  2.1010  1.4828 -0.8640
 5149SOL     OW27082   3.144   1.422  12.467  0.2936 -0.1280 -0.2638
 5149SOL    HW127083   3.102   1.506  12.487  1.6201  0.6655 -0.8033
 5149SOL    HW227084   3.238   1.442  12.464  0.3532 -0.2683  0.5037
 5150SOL     OW27085   4.479   3.023  12.789  0.2044  0.3773  0.2363
 5150SOL    HW127086   4.479   2.932  12.762 -0.4054  0.2586  0.6506
 5150SOL    HW227087   4.561   3.047  12.834  1.1049  1.2235 -1.8500
 5151SOL     OW27088   3.501   0.373  16.106 -0.2786  0.2087 -0.5138
 5151SOL    HW127089   3.549   0.404  16.183  1.7312 -0.3797 -1.5125
 5151SOL    HW227090   3.537   0.438  16.045 -0.8229  0.5999 -0.4091
 5152SOL     OW27091   4.700   0.144   5.364  0.1159  0.6235  0.1579
 5152SOL    HW127092   4.686   0.053   5.340  0.3096  0.2709  1.3684
 5152SOL    HW227093   4.667   0.147   5.454  3.2950 -0.8676  1.3864
 5153SOL     OW27094   3.114   3.481   1.895  0.3478 -0.3941  0.0399
 5153SOL    HW127095   3.071   3.397   1.881  0.3337 -0.7044  2.0507
 5153SOL    HW227096   3.131   3.509   1.805 -0.4060 -0.4452 -0.1132
 5154SOL     OW27097   0.605   2.136  11.592  0.2808  0.0686 -0.7706
 5154SOL    HW127098   0.583   2.081  11.667 -0.2554  0.1208 -0.8872
 5154SOL    HW227099   0.698   2.121  11.576 -0.0288  1.0255 -3.4867
 5155SOL     OW27100   2.182   1.039   2.920  0.1969  0.1433 -0.6384
 5155SOL    HW127101   2.112   0.990   2.964  0.1598  0.4563 -0.3497
 5155SOL    HW227102   2.219   0.980   2.854  1.1994 -0.8320  0.7873
 5156SOL     OW27103   4.644   0.607   6.658  0.0063 -0.4459 -0.8463
 5156SOL    HW127104   4.641   0.703   6.656  1.4134 -0.3932 -0.7106
 5156SOL    HW227105   4.694   0.595   6.738 -1.0924  1.1055  0.0733
 5157SOL     OW27106   0.807   3.487   6.614  0.1600 -0.3811  0.3088
 5157SOL    HW127107   0.792   3.486   6.709 -0.0938 -1.6547  0.2479
 5157SOL    HW227108   0.718   3.504   6.584 -0.2039 -2.6476  0.1577
 5158SOL     OW27109   3.774   4.618   3.088  0.2338 -0.1992 -0.5350
 5158SOL    HW127110   3.783   4.543   3.029  0.5629 -0.7281  0.1843
 5158SOL    HW227111   3.861   4.658   3.079  0.4216 -0.7399 -1.1835
 5159SOL     OW27112   1.353   0.566   6.463 -0.8598 -0.3974  0.2840
 5159SOL    HW127113   1.436   0.608   6.438 -1.7723 -0.5208 -2.9849
 5159SOL    HW227114   1.344   0.502   6.393 -0.9934 -0.0901  0.0172
 5160SOL     OW27115   3.265   0.506   2.048 -0.1835 -0.2272 -0.4137
 5160SOL    HW127116   3.324   0.550   1.987 -1.4173  0.6248 -0.9950
 5160SOL    HW227117   3.331   0.476   2.110  1.1670 -0.4529 -1.9681
 5161SOL     OW27118   1.000   4.158   8.748 -0.4177  0.9999 -0.1985
 5161SOL    HW127119   1.088   4.127   8.726 -0.6901 -1.6034  2.3404
 5161SOL    HW227120   1.003   4.130   8.840 -3.0362  0.2248 -0.3629
 5162SOL     OW27121   2.085   0.121   0.446  0.0347 -0.1545 -0.1584
 5162SOL    HW127122   2.140   0.054   0.405 -0.0630  0.2192 -0.9084
 5162SOL    HW227123   2.062   0.170   0.367 -0.8526  0.6578  0.6021
 5163SOL     OW27124   0.581   4.393   7.599  0.4698  0.1471 -0.4382
 5163SOL    HW127125   0.669   4.394   7.561  0.7936 -1.8050  0.2905
 5163SOL    HW227126   0.538   4.454   7.538 -1.0446 -2.8921 -2.3969
 5164SOL     OW27127   2.060   4.181   1.806 -1.0284 -0.3617  0.2434
 5164SOL    HW127128   2.064   4.116   1.875 -2.6377  1.2983  1.8839
 5164SOL    HW227129   2.115   4.136   1.742 -1.1065 -1.5438  1.0048
 5165SOL     OW27130   2.712   1.895   0.182  0.1131 -0.4747 -0.4161
 5165SOL    HW127131   2.657   1.924   0.109 -0.1055 -0.1642 -0.1289
 5165SOL    HW227132   2.732   1.805   0.155 -1.3089 -0.4541 -1.5879
 5166SOL     OW27133   4.738   4.438  10.284 -0.2353  0.1780  0.9269
 5166SOL    HW127134   4.705   4.351  10.306  2.7363 -1.5333 -1.4192
 5166SOL    HW227135   0.040   4.465  10.366  1.4344  1.5394 -0.3462
 5167SOL     OW27136   2.027   0.972   1.881  0.8352 -0.3131 -0.0262
 5167SOL    HW127137   2.003   1.059   1.913  0.6630 -0.6746  0.8241
 5167SOL    HW227138   2.118   0.991   1.857  0.3902  1.9689  0.0188
 5168SOL     OW27139   2.569   3.770   7.229  0.4166  0.0238  0.1068
 5168SOL    HW127140   2.533   3.710   7.164 -1.4522  0.5577  0.6395
 5168SOL    HW227141   2.509   3.845   7.227  1.2422  0.5962 -2.4235
 5169SOL     OW27142   1.313   0.471   3.824  0.1123  0.0798 -0.0672
 5169SOL    HW127143   1.301   0.377   3.814  2.2800 -0.1296 -0.6097
 5169SOL    HW227144   1.390   0.485   3.878  0.1336  0.6460 -0.2426
 5170SOL     OW27145   4.735   1.112   6.727 -0.0731 -0.3876 -0.7077
 5170SOL    HW127146   0.048   1.072   6.795 -0.3875  0.9285  0.3084
 5170SOL    HW227147   4.704   1.029   6.693  0.0464 -0.5609 -0.3887
 5171SOL     OW27148   1.099   1.929  11.859  0.1819  0.1717 -0.1930
 5171SOL    HW127149   1.156   1.860  11.893  2.3995  2.5532  0.9154
 5171SOL    HW227150   1.058   1.955  11.941  0.2410  0.0520 -0.1257
 5172SOL     OW27151   4.675   3.352   4.369  0.4690 -0.0829 -0.1107
 5172SOL    HW127152   4.731   3.372   4.293 -1.5755  0.1324 -1.5664
 5172SOL    HW227153   4.596   3.327   4.320 -1.1553 -0.2244  2.6020
 5173SOL     OW27154   2.421   0.581   8.558 -0.2123  0.4440  0.3595
 5173SOL    HW127155   2.417   0.522   8.633 -2.6388  1.7486  1.2629
 5173SOL    HW227156   2.354   0.537   8.506 -0.7147  1.3752  0.2048
 5174SOL     OW27157   0.059   0.666   9.372  0.9280  0.0932  0.3857
 5174SOL    HW127158   0.084   0.739   9.430  1.9671 -0.5286  0.7319
 5174SOL    HW227159   0.061   0.584   9.421 -1.5762 -0.4623 -0.4959
 5175SOL     OW27160   3.427   4.108   1.688  0.0496 -0.4589 -0.4119
 5175SOL    HW127161   3.461   4.195   1.707  0.3570 -0.5451 -0.5536
 5175SOL    HW227162   3.459   4.085   1.600  0.4539 -0.6849 -0.2040
 5176SOL     OW27163   2.018   4.404   5.500 -0.1101 -0.3687  0.0444
 5176SOL    HW127164   2.057   4.490   5.482  0.9218 -0.6200  1.0530
 5176SOL    HW227165   1.964   4.419   5.577 -1.1173 -1.0387 -0.5383
 5177SOL     OW27166   1.242   3.243  16.594 -0.3664 -0.1488 -0.3646
 5177SOL    HW127167   1.201   3.328  16.609 -2.9465 -1.0012 -2.5252
 5177SOL    HW227168   1.245   3.217  16.686  1.8135  0.7167 -0.2021
 5178SOL     OW27169   2.894   0.929   3.614 -0.0082 -0.4273  0.1792
 5178SOL    HW127170   2.916   1.010   3.661 -1.3786 -0.6622  1.2248
 5178SOL    HW227171   2.980   0.890   3.598 -0.8733 -2.3304  0.1327
 5179SOL     OW27172   0.283   4.637   8.291  0.1623  0.3490  0.2643
 5179SOL    HW127173   0.305   4.548   8.320 -0.6334 -0.7207 -2.4049
 5179SOL    HW227174   0.228   4.660   8.366 -1.3026 -1.5147 -0.2383
 5180SOL     OW27175   4.149   1.383  11.872 -0.4013  0.2643 -0.0355
 5180SOL    HW127176   4.100   1.342  11.943 -1.1590  0.4981 -0.4210
 5180SOL    HW227177   4.208   1.443  11.918 -0.1476 -0.8502  1.0965
 5181SOL     OW27178   0.985   3.652   5.051  0.4803  0.2693  0.4687
 5181SOL    HW127179   0.944   3.727   5.094 -0.0250  0.3769 -0.1901
 5181SOL    HW227180   0.984   3.675   4.958 -0.6401  0.8575  0.6156
 5182SOL     OW27181   0.169   3.514   4.452  0.0161 -0.2260  0.0750
 5182SOL    HW127182   0.226   3.449   4.411  0.5569  0.3273 -0.0490
 5182SOL    HW227183   0.084   3.470   4.442 -1.2463  2.4924 -1.2393
 5183SOL     OW27184   4.316   1.985   1.036  0.8177  0.0911 -0.2689
 5183SOL    HW127185   4.291   1.907   0.988 -2.1280 -0.7977  2.6841
 5183SOL    HW227186   4.396   1.952   1.077 -0.0978 -1.0277  0.6370
 5184SOL     OW27187   0.267   2.826   7.213 -0.3502 -0.1144 -0.2344
 5184SOL    HW127188   0.206   2.806   7.284  0.5758  0.9361  0.8503
 5184SOL    HW227189   0.215   2.891   7.166  1.3157 -0.3196 -2.3505
 5185SOL     OW27190   2.167   2.829   5.163  0.5383 -0.5788 -0.5158
 5185SOL    HW127191   2.091   2.815   5.220  0.7625 -0.4429 -0.1812
 5185SOL    HW227192   2.142   2.799   5.076 -2.4131  1.8520 -0.5121
 5186SOL     OW27193   3.478   1.675   2.388  0.1645 -0.3859  0.3474
 5186SOL    HW127194   3.511   1.586   2.380 -0.1783 -0.3092 -1.8626
 5186SOL    HW227195   3.449   1.678   2.297  2.0749  1.3203 -0.2343
 5187SOL     OW27196   0.657   1.357   8.488 -0.0110 -0.0697  0.0214
 5187SOL    HW127197   0.733   1.326   8.537 -0.3538  2.2848  2.0044
 5187SOL    HW227198   0.668   1.317   8.401 -1.2720 -0.6187  0.1188
 5188SOL     OW27199   1.806   4.661   8.527 -0.3592 -0.4984 -0.1720
 5188SOL    HW127200   1.795   4.580   8.478 -1.3922 -0.1305 -0.5483
 5188SOL    HW227201   1.724   4.654   8.577  0.8827  0.5089  1.9912
 5189SOL     OW27202   3.586   2.704   9.549 -0.2202 -0.0622 -0.2799
 5189SOL    HW127203   3.665   2.729   9.597 -1.0167 -1.0114  1.5290
 5189SOL    HW227204   3.584   2.753   9.467 -1.9906 -0.7429 -0.6509
 5190SOL     OW27205   1.053   4.037  10.076 -0.6408  0.1835 -0.0474
 5190SOL    HW127206   1.043   3.942  10.084 -0.9816  0.2086 -0.1376
 5190SOL    HW227207   1.032   4.055   9.984 -0.7727 -2.5600 -0.5550
 5191SOL     OW27208   1.695   4.195   5.056 -0.4327 -0.1058 -0.3132
 5191SOL    HW127209   1.697   4.288   5.032  0.4651 -1.3623 -5.0087
 5191SOL    HW227210   1.635   4.201   5.131  1.5018  1.5671  1.1273
 5192SOL     OW27211   3.467   1.918   4.323  0.1851 -0.1845  0.0563
 5192SOL    HW127212   3.518   1.838   4.309  2.1291  1.1255 -0.3743
 5192SOL    HW227213   3.380   1.891   4.294  0.2000 -1.3076  1.0506
 5193SOL     OW27214   1.321   0.769   2.518 -0.1578  0.3592  0.0607
 5193SOL    HW127215   1.407   0.742   2.551  0.7595  2.4468 -0.6692
 5193SOL    HW227216   1.341   0.852   2.477 -0.4387  0.0829 -0.6404
 5194SOL     OW27217   1.361   3.158  12.746 -0.2020  0.8938  0.1534
 5194SOL    HW127218   1.340   3.237  12.796 -1.7772  0.9078 -0.5196
 5194SOL    HW227219   1.339   3.190  12.659 -0.9422 -1.4688 -0.5383
 5195SOL     OW27220   4.068   0.761   5.664 -0.6419 -0.1912 -0.2773
 5195SOL    HW127221   4.074   0.816   5.586 -0.8169  1.0022  0.5563
 5195SOL    HW227222   3.979   0.725   5.667 -0.8580  0.3320 -0.4451
 5196SOL     OW27223   1.422   2.887   9.970 -0.2392  0.6722  0.6844
 5196SOL    HW127224   1.400   2.919   9.882  1.0473 -1.3933 -0.3998
 5196SOL    HW227225   1.474   2.959  10.007 -0.3165  0.9207  0.3186
 5197SOL     OW27226   0.628   0.965   5.862  0.0216 -0.0905  0.4307
 5197SOL    HW127227   0.697   0.934   5.804  0.9622  3.4775 -0.3974
 5197SOL    HW227228   0.559   0.899   5.849  2.1210 -2.1520 -0.1351
 5198SOL     OW27229   0.498   2.205   8.855 -0.3100 -0.4925 -0.7837
 5198SOL    HW127230   0.494   2.112   8.831 -1.3351 -0.7480  0.3766
 5198SOL    HW227231   0.590   2.207   8.828  0.7301  0.6278  2.7782
 5199SOL     OW27232   0.740   2.955   6.666  0.0811 -0.0487 -0.0801
 5199SOL    HW127233   0.763   3.039   6.626 -1.8609  0.6547  0.2389
 5199SOL    HW227234   0.818   2.900   6.660  0.0972  0.1050 -1.2974
 5200SOL     OW27235   3.070   3.583   2.143 -0.0339 -0.3437  0.3530
 5200SOL    HW127236   3.165   3.597   2.140 -0.0518 -0.2629  0.1314
 5200SOL    HW227237   3.052   3.548   2.055  2.1841 -1.7046  0.4481
 5201SOL     OW27238   3.316   3.253   6.534  0.1331 -0.1744  0.2666
 5201SOL    HW127239   3.303   3.326   6.474 -2.2379  0.9615  2.1912
 5201SOL    HW227240   3.297   3.287   6.622 -0.5201  1.0730 -0.3625
 5202SOL     OW27241   1.722   0.953   9.176  0.1146 -0.6994  0.2823
 5202SOL    HW127242   1.635   0.917   9.190 -0.4020  0.6675  0.6519
 5202SOL    HW227243   1.725   1.031   9.231 -2.1351 -1.7883  1.9368
 5203SOL     OW27244   3.083   2.282   7.833 -0.3057  0.7161  0.0627
 5203SOL    HW127245   3.024   2.268   7.907 -0.7957  2.3756 -0.0225
 5203SOL    HW227246   3.026   2.294   7.758 -0.5601 -1.1570 -0.0482
 5204SOL     OW27247   0.040   2.244   8.371  0.0649  0.6025  0.0458
 5204SOL    HW127248   0.102   2.316   8.368  2.7268 -1.6239  1.4607
 5204SOL    HW227249   0.074   2.178   8.310 -2.4541 -0.9173  0.2860
 5205SOL     OW27250   1.738   1.585   9.358 -0.3776  0.7850 -0.2044
 5205SOL    HW127251   1.731   1.659   9.418 -0.5312  0.0125  0.7372
 5205SOL    HW227252   1.650   1.588   9.322 -0.2804 -0.7074 -0.5726
 5206SOL     OW27253   1.367   1.965  10.136 -0.0261  0.4899  0.0964
 5206SOL    HW127254   1.422   1.934  10.208  0.2208 -1.1885 -0.7987
 5206SOL    HW227255   1.339   2.053  10.161 -2.1579 -0.9469  2.7420
 5207SOL     OW27256   3.677   0.990  14.491  0.2331  0.3684 -0.6624
 5207SOL    HW127257   3.620   0.919  14.462 -0.3257 -0.2102  1.8508
 5207SOL    HW227258   3.690   1.048  14.416  1.0093  0.1810 -0.6642
 5208SOL     OW27259   0.520   1.629   5.688  0.3987  0.1802 -0.4173
 5208SOL    HW127260   0.605   1.617   5.729  0.1545  1.7226  0.5218
 5208SOL    HW227261   0.535   1.718   5.654  0.7338  0.4462  0.4209
 5209SOL     OW27262   2.970   1.827   3.480 -0.8154  0.3610 -0.3998
 5209SOL    HW127263   2.925   1.787   3.406  0.4254  0.2597 -1.1019
 5209SOL    HW227264   2.951   1.774   3.558  1.4015  0.2562  0.0880
 5210SOL     OW27265   2.272   2.148  14.208  0.0236  0.5305  0.4128
 5210SOL    HW127266   2.210   2.092  14.254 -1.3351  3.7252  2.4581
 5210SOL    HW227267   2.210   2.217  14.185 -0.5549 -1.3310 -3.5812
 5211SOL     OW27268   3.235   1.323   3.279 -0.0846 -0.1397 -0.5867
 5211SOL    HW127269   3.210   1.233   3.301 -2.8836  1.4988  3.0038
 5211SOL    HW227270   3.197   1.382   3.345 -2.7750 -2.8824  0.3179
 5212SOL     OW27271   2.544   3.807   7.798 -0.0617  0.0305  0.5150
 5212SOL    HW127272   2.544   3.810   7.894 -1.5542 -0.2350  0.5261
 5212SOL    HW227273   2.531   3.717   7.767  0.5946  0.1194 -0.0090
 5213SOL     OW27274   2.319   1.985   2.740  0.1023 -0.0950 -0.1704
 5213SOL    HW127275   2.272   2.049   2.687  0.9638  0.8784  0.2594
 5213SOL    HW227276   2.292   2.023   2.823 -1.1336 -0.7813 -0.2481
 5214SOL     OW27277   4.558   3.096   5.236  0.3129  0.3790 -0.4125
 5214SOL    HW127278   4.557   3.189   5.257  1.9746 -0.1268  1.8851
 5214SOL    HW227279   4.643   3.088   5.193 -0.3013  0.6091 -1.6567
 5215SOL     OW27280   0.195   0.019   3.843 -0.8792 -0.5104 -0.3469
 5215SOL    HW127281   0.158   4.676   3.812  0.2699 -0.9379 -0.5744
 5215SOL    HW227282   0.201   0.060   3.757  1.0363  1.3778  0.6793
 5216SOL     OW27283   3.271   1.059   4.906 -0.1260 -0.8335  0.3782
 5216SOL    HW127284   3.360   1.025   4.914 -0.1301 -1.0415 -0.4210
 5216SOL    HW227285   3.285   1.108   4.825  0.6462 -0.7295  0.5652
 5217SOL     OW27286   1.278   1.826   5.826 -0.4648  0.3816 -0.0846
 5217SOL    HW127287   1.230   1.746   5.803 -0.3516  1.0419 -2.6298
 5217SOL    HW227288   1.353   1.828   5.766 -1.0135  1.8433 -0.7214
 5218SOL     OW27289   1.010   0.892   9.573  0.1047  0.4813  0.2363
 5218SOL    HW127290   0.962   0.820   9.614 -1.5270  0.6623 -1.3563
 5218SOL    HW227291   0.956   0.968   9.594 -0.0960 -0.4983  3.3483
 5219SOL     OW27292   2.066   0.125   4.587  0.3328 -0.3556  0.3530
 5219SOL    HW127293   2.133   0.185   4.553 -1.4951  1.7696  0.5521
 5219SOL    HW227294   2.054   0.056   4.522 -2.4007 -0.5377  1.0720
 5220SOL     OW27295   3.189   4.375   3.374  0.1086  0.6786  0.4464
 5220SOL    HW127296   3.280   4.403   3.376  0.1665  0.4548  0.8906
 5220SOL    HW227297   3.143   4.439   3.320  3.0051  2.4591  0.1146
 5221SOL     OW27298   0.709   3.022   3.874 -0.3893  0.0855  0.1936
 5221SOL    HW127299   0.664   2.942   3.903  0.2928 -0.7044 -0.9393
 5221SOL    HW227300   0.657   3.068   3.808  1.1328  0.3519 -0.8189
 5222SOL     OW27301   1.374   1.268   0.729 -0.2669  0.2025 -0.0276
 5222SOL    HW127302   1.401   1.259   0.638 -2.1209  1.3288 -0.6901
 5222SOL    HW227303   1.412   1.188   0.765 -0.1543  0.1668 -0.2275
 5223SOL     OW27304   0.674   2.220   8.479 -0.4431 -0.3332  0.1631
 5223SOL    HW127305   0.659   2.125   8.476 -2.2607 -0.0445  0.2166
 5223SOL    HW227306   0.588   2.254   8.503 -0.4617  0.1217 -0.5296
 5224SOL     OW27307   1.629   0.272   3.428  0.5717  0.0517 -0.0249
 5224SOL    HW127308   1.630   0.348   3.486  0.7904  0.4706 -0.5773
 5224SOL    HW227309   1.615   0.202   3.492 -1.2133 -0.1378 -0.6500
 5225SOL     OW27310   2.578   2.031   2.292  0.1746  0.0417  0.2940
 5225SOL    HW127311   2.549   2.066   2.208 -0.4802  0.0071  0.5060
 5225SOL    HW227312   2.590   1.938   2.273 -2.2418 -0.2169  0.0348
 5226SOL     OW27313   2.701   3.464  10.783  0.1467  0.2471  0.1338
 5226SOL    HW127314   2.732   3.387  10.735  0.5592 -0.0857  0.9447
 5226SOL    HW227315   2.611   3.475  10.753  0.1830 -0.0972 -0.0958
 5227SOL     OW27316   4.098   1.463   5.158  0.2301  0.3785  0.1332
 5227SOL    HW127317   4.051   1.537   5.119  2.1573  1.0228 -0.9780
 5227SOL    HW227318   4.164   1.453   5.089  0.0340 -2.7283  0.4259
 5228SOL     OW27319   0.860   1.354   3.220 -0.4932 -0.3955 -0.2235
 5228SOL    HW127320   0.854   1.412   3.296  2.0367  1.5962 -1.5294
 5228SOL    HW227321   0.828   1.418   3.155  1.3912 -1.0536 -1.7851
 5229SOL     OW27322   0.141   0.513   5.964  0.3605 -0.2359  0.2089
 5229SOL    HW127323   0.052   0.477   5.967 -0.6001  2.0803 -0.2448
 5229SOL    HW227324   0.119   0.604   5.945  0.6339  0.0183  1.1310
 5230SOL     OW27325   4.023   0.774   0.468  0.3920 -0.0094 -0.1196
 5230SOL    HW127326   3.943   0.822   0.448 -0.4921 -1.3022  0.2935
 5230SOL    HW227327   3.997   0.708   0.532  0.9447 -2.5314 -2.4864
 5231SOL     OW27328   3.759   3.240   5.273 -0.5827  0.1246  0.2249
 5231SOL    HW127329   3.694   3.271   5.210  0.1270 -1.3656 -1.2338
 5231SOL    HW227330   3.744   3.148   5.251 -1.4060 -0.0574  1.5060
 5232SOL     OW27331   0.468   4.439   5.721 -0.0776  0.1337 -0.3206
 5232SOL    HW127332   0.400   4.501   5.746  2.2266  1.3238  3.0001
 5232SOL    HW227333   0.509   4.426   5.807 -0.3762 -0.5778 -0.2894
 5233SOL     OW27334   1.849   1.702   6.452  0.2280 -0.0665 -0.1537
 5233SOL    HW127335   1.826   1.674   6.363 -0.8014 -0.6344  0.3037
 5233SOL    HW227336   1.799   1.646   6.510  1.3260  0.7231  1.5401
 5234SOL     OW27337   2.796   2.962   5.478 -0.1949 -0.0348 -0.2841
 5234SOL    HW127338   2.830   3.050   5.465  3.3276 -1.2210  0.9627
 5234SOL    HW227339   2.719   2.959   5.421  1.2969 -3.7659 -2.0953
 5235SOL     OW27340   2.161   2.318   4.689 -0.3249 -0.0103 -0.7627
 5235SOL    HW127341   2.199   2.244   4.736  0.3397  0.4547 -0.5588
 5235SOL    HW227342   2.181   2.392   4.747 -2.8185 -0.1275  0.2600
 5236SOL     OW27343   1.785   1.763   4.598 -0.0388  0.1646 -0.0862
 5236SOL    HW127344   1.713   1.817   4.564  0.8094  1.2005 -0.2241
 5236SOL    HW227345   1.851   1.774   4.530  2.2063 -1.0793  1.9390
 5237SOL     OW27346   0.665   1.717   1.758 -0.8692  0.3405  0.4188
 5237SOL    HW127347   0.674   1.796   1.704  0.4252 -0.5120 -0.6008
 5237SOL    HW227348   0.737   1.729   1.819  0.9104  0.5966 -1.7267
 5238SOL     OW27349   4.073   4.100   8.606  0.3437 -0.0091  0.5195
 5238SOL    HW127350   3.978   4.104   8.595  0.2380  0.1728  1.4639
 5238SOL    HW227351   4.090   4.007   8.623  1.7955  0.6223  2.6222
 5239SOL     OW27352   3.372   1.036   8.063 -0.0982  0.2025  0.2313
 5239SOL    HW127353   3.454   0.986   8.067 -1.1506 -1.6189 -0.8322
 5239SOL    HW227354   3.380   1.105   8.128  0.1032  0.3989  0.0009
 5240SOL     OW27355   2.694   1.937  16.133  0.1094 -0.1785 -0.4420
 5240SOL    HW127356   2.757   1.975  16.072  1.0486  1.9096  1.8339
 5240SOL    HW227357   2.656   1.868  16.078 -0.6018  0.6782 -1.0130
 5241SOL     OW27358   0.417   2.617  12.724 -0.2421  0.6508 -0.0998
 5241SOL    HW127359   0.437   2.650  12.636  0.2510  1.7208  0.4116
 5241SOL    HW227360   0.435   2.524  12.717 -0.5550  0.5961 -0.1806
 5242SOL     OW27361   3.454   1.571   7.657  0.1728  0.2117  0.0064
 5242SOL    HW127362   3.526   1.634   7.655 -0.3086  0.7740  0.6629
 5242SOL    HW227363   3.389   1.611   7.599 -0.2211 -0.1541  0.1884
 5243SOL     OW27364   1.270   3.268   8.533 -0.0341  0.3875  0.1429
 5243SOL    HW127365   1.325   3.262   8.455 -1.6761 -0.6676 -0.9301
 5243SOL    HW227366   1.315   3.209   8.593 -0.2484  0.2622  0.1791
 5244SOL     OW27367   3.689   3.315   5.544 -0.4151 -1.1135 -0.2373
 5244SOL    HW127368   3.593   3.320   5.544 -0.3887 -0.5723  1.0002
 5244SOL    HW227369   3.705   3.258   5.469 -2.6573 -2.2044  0.1242
 5245SOL     OW27370   1.316   4.101  16.695  0.2668 -0.4105 -0.4737
 5245SOL    HW127371   1.248   4.066  16.753 -0.3934  1.1984 -0.2854
 5245SOL    HW227372   1.296   4.042  16.622 -0.1752  0.4582 -1.0595
 5246SOL     OW27373   2.518   3.907   8.562  0.2404  0.3823  0.4464
 5246SOL    HW127374   2.583   3.870   8.501  0.7675 -1.4173  2.0952
 5246SOL    HW227375   2.558   3.993   8.571 -0.9089  1.0788 -1.1170
 5247SOL     OW27376   2.104   2.720   4.172 -0.4870 -0.0948 -0.5373
 5247SOL    HW127377   2.115   2.627   4.192  0.3710 -0.0582 -0.8488
 5247SOL    HW227378   2.167   2.742   4.103  1.6698 -1.5278  0.9735
 5248SOL     OW27379   2.841   3.766   5.825  0.4019  0.1247 -0.2150
 5248SOL    HW127380   2.889   3.683   5.828 -0.6927 -0.5119 -0.4992
 5248SOL    HW227381   2.757   3.738   5.790  0.5971 -0.1906 -0.4412
 5249SOL     OW27382   2.856   3.151  10.614 -0.3190  0.2897 -0.2715
 5249SOL    HW127383   2.820   3.064  10.635 -1.2569  0.9734  0.9764
 5249SOL    HW227384   2.901   3.133  10.531 -2.5833 -1.4506 -1.1126
 5250SOL     OW27385   1.598   2.549  10.889 -0.4494  0.6528  0.0775
 5250SOL    HW127386   1.589   2.636  10.927 -1.3235  0.6841 -0.1904
 5250SOL    HW227387   1.546   2.498  10.951  0.7593 -0.7287 -0.0715
 5251SOL     OW27388   1.025   2.518   5.269  0.1085  0.2946  0.4046
 5251SOL    HW127389   0.974   2.481   5.198 -1.2362  1.7576  0.6085
 5251SOL    HW227390   0.961   2.535   5.339  0.2879 -1.0155  0.8767
 5252SOL     OW27391   2.141   4.011   2.029 -0.0212 -0.4874 -0.1411
 5252SOL    HW127392   2.234   4.018   2.047 -0.0560 -1.4636  0.4291
 5252SOL    HW227393   2.143   3.917   2.006  1.2780 -0.1402 -1.4794
 5253SOL     OW27394   2.577   2.299   2.092 -0.0407  0.2593 -0.5271
 5253SOL    HW127395   2.493   2.274   2.055  0.7764  2.1452 -3.6674
 5253SOL    HW227396   2.569   2.384   2.136 -1.1440  1.4054 -2.9391
 5254SOL     OW27397   0.015   1.197   1.134 -0.3078  0.6183 -0.1687
 5254SOL    HW127398   0.023   1.102   1.144 -1.2568  0.2303 -3.0444
 5254SOL    HW227399   0.029   1.205   1.040 -0.3103 -0.1141 -0.2307
 5255SOL     OW27400   2.147   0.077  12.738 -0.2799 -0.2994  1.0301
 5255SOL    HW127401   2.102   4.740  12.772 -1.0359  0.0320  0.7891
 5255SOL    HW227402   2.236   0.044  12.730 -0.1747  0.5818 -1.5659
 5256SOL     OW27403   2.656   2.027   3.349 -0.0990  0.0137  0.8138
 5256SOL    HW127404   2.632   1.941   3.384  1.6290 -1.3446 -1.3509
 5256SOL    HW227405   2.566   2.042   3.320  0.3304 -1.2474 -1.1557
 5257SOL     OW27406   4.161   3.842   9.016  0.0252  0.0594 -0.5611
 5257SOL    HW127407   4.173   3.756   9.057  2.0919 -0.5786 -2.5354
 5257SOL    HW227408   4.202   3.836   8.930 -0.7054  0.1686 -0.9117
 5258SOL     OW27409   3.881   2.434   0.277 -0.3417  0.2755  0.2327
 5258SOL    HW127410   3.934   2.484   0.339  0.1786  0.5501 -0.4349
 5258SOL    HW227411   3.891   2.479   0.193 -2.5207 -0.6434 -0.5336
 5259SOL     OW27412   1.525   1.574   5.152 -0.2853 -0.6295 -0.0617
 5259SOL    HW127413   1.614   1.607   5.160 -0.3649 -0.8447  1.6537
 5259SOL    HW227414   1.512   1.614   5.066 -0.6778  1.2103  0.8358
 5260SOL     OW27415   1.970   4.449   3.451  0.0733 -0.4846 -0.4594
 5260SOL    HW127416   1.953   4.467   3.359 -1.1809  1.3421  0.1246
 5260SOL    HW227417   2.065   4.452   3.467  0.1685 -2.1738 -0.7272
 5261SOL     OW27418   2.489   0.683   2.641  0.1543  0.2170 -0.2598
 5261SOL    HW127419   2.515   0.596   2.609 -2.4624  0.4133 -2.9672
 5261SOL    HW227420   2.555   0.738   2.601  1.5849 -1.9798 -0.9412
 5262SOL     OW27421   2.592   2.517  12.638 -0.2886 -0.3368 -0.0188
 5262SOL    HW127422   2.671   2.495  12.589 -0.3214 -0.1414 -0.1579
 5262SOL    HW227423   2.523   2.485  12.580 -0.8958  0.5718  0.2086
 5263SOL     OW27424   1.428   1.106   9.876 -0.4101  0.3135 -0.6214
 5263SOL    HW127425   1.429   1.013   9.899  1.3679  0.7219  1.0435
 5263SOL    HW227426   1.337   1.119   9.849  0.3128  2.4389 -1.9921
 5264SOL     OW27427   3.425   0.223   3.108 -0.4523 -0.2307  0.1653
 5264SOL    HW127428   3.503   0.225   3.053  0.5011  2.2580  1.6311
 5264SOL    HW227429   3.434   0.306   3.155 -0.3234 -1.1456  1.7734
 5265SOL     OW27430   0.125   0.785  16.981  0.2378  0.0051 -0.3328
 5265SOL    HW127431   0.103   0.722  17.050  2.0912 -0.4552 -0.1664
 5265SOL    HW227432   0.116   0.730  16.903  1.1043 -2.4022  1.2550
 5266SOL     OW27433   3.065   1.568   6.082 -0.4215 -0.5626  0.0467
 5266SOL    HW127434   3.038   1.595   5.994  1.6788 -0.5945 -0.6007
 5266SOL    HW227435   3.145   1.613   6.107 -1.3989  0.6019  1.1085
 5267SOL     OW27436   1.775   2.985   2.700 -0.2762 -0.0306 -0.1717
 5267SOL    HW127437   1.819   2.936   2.770 -0.8271  0.5838  0.6091
 5267SOL    HW227438   1.696   2.934   2.681 -0.2275 -0.0027 -0.4419
 5268SOL     OW27439   4.423   0.421   7.275 -0.3350 -0.1301  0.1906
 5268SOL    HW127440   4.398   0.489   7.337  0.0285  1.0046 -0.9233
 5268SOL    HW227441   4.353   0.357   7.263  1.0309 -1.6969  0.5402
 5269SOL     OW27442   0.653   1.605   0.942  0.3998 -0.3888  0.8893
 5269SOL    HW127443   0.690   1.669   1.002 -2.1053  3.7658 -1.8702
 5269SOL    HW227444   0.620   1.545   1.008 -1.2177 -0.4010  0.0951
 5270SOL     OW27445   1.871   2.498   5.779  0.2866 -0.2656  0.3667
 5270SOL    HW127446   1.851   2.518   5.687  2.2561 -0.7806 -0.1665
 5270SOL    HW227447   1.963   2.520   5.789  0.4721 -1.5906  1.6116
 5271SOL     OW27448   0.171   0.409   7.359 -0.1458 -0.2418 -0.3759
 5271SOL    HW127449   0.095   0.399   7.301  0.3524 -0.3012 -1.0072
 5271SOL    HW227450   0.120   0.419   7.440  0.0821 -0.5252 -0.1964
 5272SOL     OW27451   4.552   3.054   5.911 -0.1147  0.1174  0.5508
 5272SOL    HW127452   4.613   3.109   5.960 -1.3607  1.5989  0.4511
 5272SOL    HW227453   4.598   3.057   5.828 -0.4682 -0.3514  0.3392
 5273SOL     OW27454   0.123   3.204  17.076 -0.2781  0.2039  0.4384
 5273SOL    HW127455   0.080   3.288  17.063  0.0721  0.0525 -1.6549
 5273SOL    HW227456   0.049   3.143  17.068  3.0267 -3.9388  1.5858
 5274SOL     OW27457   0.121   4.242   6.825  0.5002  0.4393  0.4223
 5274SOL    HW127458   0.164   4.180   6.767  0.0884 -0.6207  1.2477
 5274SOL    HW227459   0.199   4.284   6.861  0.9537 -0.3030  0.3057
 5275SOL     OW27460   2.338   3.279  14.284  0.1017 -0.6610  0.8049
 5275SOL    HW127461   2.301   3.190  14.281  2.1870 -1.4920 -0.6222
 5275SOL    HW227462   2.413   3.270  14.343 -0.7695 -2.5249  1.6552
 5276SOL     OW27463   1.807   1.178   4.761  0.3097 -0.0164  0.0986
 5276SOL    HW127464   1.780   1.131   4.682  1.3162 -0.2150 -0.1212
 5276SOL    HW227465   1.884   1.226   4.729 -0.2828 -0.7550 -2.4028
 5277SOL     OW27466   3.794   0.167   9.111 -0.1276 -0.4062  0.5594
 5277SOL    HW127467   3.742   0.137   9.185 -1.7864  2.6896  0.6760
 5277SOL    HW227468   3.859   0.227   9.147  0.9960  0.4614 -2.9096
 5278SOL     OW27469   1.113   1.006   2.498  1.0161  1.1192 -0.6024
 5278SOL    HW127470   1.091   0.930   2.445  0.7854 -0.9640  2.4948
 5278SOL    HW227471   1.208   1.013   2.511  0.9423  1.7520 -0.3762
 5279SOL     OW27472   2.181   3.165   5.265 -0.2539  0.0753  0.7208
 5279SOL    HW127473   2.240   3.209   5.203  0.5252  0.1508  1.5146
 5279SOL    HW227474   2.100   3.202   5.229  0.2967 -1.3356 -1.9092
 5280SOL     OW27475   1.204   4.662  17.471  0.0960 -0.2609  0.1403
 5280SOL    HW127476   1.292   4.650  17.508 -0.1703 -2.0273  0.1890
 5280SOL    HW227477   1.158   4.700  17.546  0.8301 -0.4738  0.7041
 5281SOL     OW27478   2.865   0.138   7.631 -0.0029  0.0463  0.0334
 5281SOL    HW127479   2.932   0.104   7.690 -0.4654 -2.0183 -0.6162
 5281SOL    HW227480   2.908   0.124   7.547 -0.7909 -1.0661 -0.1911
 5282SOL     OW27481   3.373   0.302   9.629 -0.3413 -0.0824  0.1269
 5282SOL    HW127482   3.295   0.283   9.682 -1.7053 -1.7121 -2.4420
 5282SOL    HW227483   3.421   0.362   9.685 -1.0600 -0.6965  1.4027
 5283SOL     OW27484   2.041   0.137   5.933 -0.1338 -0.7200  0.0041
 5283SOL    HW127485   2.081   0.190   5.864  0.2297  0.7768  1.3644
 5283SOL    HW227486   2.068   0.192   6.007 -1.5745 -1.5327  1.1341
 5284SOL     OW27487   0.060   3.105  11.965  0.0541 -0.6186  0.3235
 5284SOL    HW127488   0.023   3.095  11.877 -1.4180  0.8875  0.7726
 5284SOL    HW227489   0.130   3.159  11.929  1.0108 -0.7239  2.0324
 5285SOL     OW27490   0.981   0.254  10.416 -0.0956  0.3142 -0.2081
 5285SOL    HW127491   0.907   0.272  10.473  1.4795 -1.3506  2.3771
 5285SOL    HW227492   1.015   0.167  10.438 -0.1120  0.3372 -0.0958
 5286SOL     OW27493   0.601   1.674  16.506 -0.5376 -0.1660 -0.6342
 5286SOL    HW127494   0.613   1.581  16.527  0.0095 -0.0377 -0.3722
 5286SOL    HW227495   0.669   1.704  16.566 -0.8794 -0.9374  0.1482
 5287SOL     OW27496   0.982   4.478   6.438  0.3388  0.1674 -0.9406
 5287SOL    HW127497   0.963   4.559   6.485  4.2490  0.4496  0.1710
 5287SOL    HW227498   1.064   4.508   6.397 -1.0079  1.1108 -2.9585
 5288SOL     OW27499   2.874   0.754   8.455 -0.4600 -0.2226  0.0893
 5288SOL    HW127500   2.902   0.839   8.421 -1.7433  0.2102  0.1428
 5288SOL    HW227501   2.942   0.703   8.410  1.4269 -0.1249  2.8163
 5289SOL     OW27502   2.049   1.362   7.307  0.2193 -0.0205 -0.1462
 5289SOL    HW127503   2.009   1.357   7.393  3.5747 -1.3846  1.3559
 5289SOL    HW227504   2.086   1.450   7.294  1.8758 -0.8202 -0.9289
 5290SOL     OW27505   3.590   1.395   5.193 -0.6218  0.0361 -0.7501
 5290SOL    HW127506   3.582   1.489   5.174 -1.5394 -0.1819 -1.4684
 5290SOL    HW227507   3.529   1.362   5.127  0.0446 -0.8711 -0.9215
 5291SOL     OW27508   0.890   2.672   9.912  0.0158 -0.5488  0.1341
 5291SOL    HW127509   0.942   2.730   9.968 -0.5181  0.9089 -0.8772
 5291SOL    HW227510   0.805   2.716   9.904 -0.7246 -2.2220 -0.9975
 5292SOL     OW27511   2.040   0.990  11.432  0.8925 -0.1685  0.0162
 5292SOL    HW127512   2.053   1.010  11.525 -0.3526 -1.3249  0.4430
 5292SOL    HW227513   2.102   1.055  11.399  2.8072 -1.4281  1.0795
 5293SOL     OW27514   4.334   3.134  14.888  0.0050 -0.0221 -0.0526
 5293SOL    HW127515   4.285   3.083  14.823 -1.3892  2.7367 -1.1639
 5293SOL    HW227516   4.393   3.184  14.832 -0.2933 -0.3098 -0.6254
 5294SOL     OW27517   1.215   3.102   2.282 -0.0739  0.0498 -0.0534
 5294SOL    HW127518   1.251   3.017   2.306  0.3696  0.2513 -0.0032
 5294SOL    HW227519   1.291   3.143   2.240 -0.3957  2.2491  1.5065
 5295SOL     OW27520   0.328   0.709   8.890 -0.2903  0.2246  0.1690
 5295SOL    HW127521   0.314   0.775   8.822 -3.0641  0.5711  1.0668
 5295SOL    HW227522   0.377   0.762   8.953  1.3025  0.5133 -1.3188
 5296SOL     OW27523   2.728   0.562   1.877 -0.6295 -0.1485 -0.5535
 5296SOL    HW127524   2.641   0.581   1.843 -0.7892 -0.0597 -0.1002
 5296SOL    HW227525   2.761   0.652   1.879 -4.1227  1.0515  2.7902
 5297SOL     OW27526   0.515   4.081   9.381 -0.1842 -1.0158 -0.1116
 5297SOL    HW127527   0.470   4.037   9.309  0.8671  1.8115 -2.5028
 5297SOL    HW227528   0.452   4.051   9.446 -0.8973 -1.8019 -1.1740
 5298SOL     OW27529   0.738   0.696  11.304 -0.0999 -0.5027  0.2217
 5298SOL    HW127530   0.715   0.669  11.215 -3.7515 -0.3593  1.1282
 5298SOL    HW227531   0.797   0.625  11.330  0.7051  0.2489  0.4556
 5299SOL     OW27532   0.065   0.250   8.740  0.0797 -0.1951  0.3764
 5299SOL    HW127533   0.086   0.343   8.749  2.0552 -0.7681  1.7568
 5299SOL    HW227534   0.064   0.226   8.832  1.1266  0.6268  0.6024
 5300SOL     OW27535   0.393   1.592   7.633  0.2285 -0.5758  0.3355
 5300SOL    HW127536   0.364   1.505   7.659 -0.2091 -0.3374  0.6426
 5300SOL    HW227537   0.320   1.654   7.625  0.8453  0.2134  0.7593
 5301SOL     OW27538   2.938   0.084   7.378 -0.3773 -0.2633 -0.1950
 5301SOL    HW127539   2.993   0.133   7.317  0.1837 -0.7774 -0.1098
 5301SOL    HW227540   2.937   4.737   7.336 -0.9820 -0.1120 -0.4853
 5302SOL     OW27541   3.831   2.106  10.421 -0.4508  0.5212  0.0416
 5302SOL    HW127542   3.781   2.031  10.390  0.5819 -0.5285  0.9007
 5302SOL    HW227543   3.778   2.174  10.380 -0.8003  1.9837  2.9096
 5303SOL     OW27544   4.635   4.212  10.414 -0.5636 -0.2886 -0.7625
 5303SOL    HW127545   4.608   4.214  10.506  2.6739  0.5136  0.1770
 5303SOL    HW227546   4.581   4.141  10.380  1.7744 -2.0373 -0.7929
 5304SOL     OW27547   4.318   1.861   0.734  0.6642  0.8121 -0.0627
 5304SOL    HW127548   4.255   1.821   0.795  0.9823  1.3679  0.6367
 5304SOL    HW227549   4.318   1.801   0.660 -0.5280 -2.7766  2.8307
 5305SOL     OW27550   2.030   4.119   5.279 -0.5741 -0.0132 -0.6670
 5305SOL    HW127551   2.113   4.155   5.309 -0.0149 -1.7407 -0.1553
 5305SOL    HW227552   2.020   4.170   5.199 -0.8046  0.6330 -0.2263
 5306SOL     OW27553   2.533   2.468   8.538 -0.3995  0.1643  0.0436
 5306SOL    HW127554   2.461   2.524   8.563 -0.2421  1.4569 -2.4084
 5306SOL    HW227555   2.595   2.525   8.492  0.9682 -2.5730 -1.5171
 5307SOL     OW27556   2.736   2.057   1.073  0.0050 -0.0336 -0.0694
 5307SOL    HW127557   2.700   1.984   1.124  1.5059 -0.1078  0.9046
 5307SOL    HW227558   2.664   2.094   1.022  0.9246  1.1954 -0.4653
 5308SOL     OW27559   2.577   2.778   4.328  0.0020 -0.0294  0.1766
 5308SOL    HW127560   2.528   2.801   4.249 -2.5307 -0.7715  1.5364
 5308SOL    HW227561   2.544   2.844   4.389  2.3682  2.4053 -1.1637
 5309SOL     OW27562   0.019   1.763   7.842 -0.5295  0.3215  0.2506
 5309SOL    HW127563   4.707   1.755   7.762  0.1201 -1.2979 -0.0178
 5309SOL    HW227564   0.067   1.682   7.824  0.5785  0.9581  0.3350
 5310SOL     OW27565   3.159   1.254   3.934 -0.3281  0.4610  0.0042
 5310SOL    HW127566   3.227   1.303   3.887 -0.9849  1.5542  0.1945
 5310SOL    HW227567   3.204   1.201   4.000 -0.1327 -0.7985 -1.1334
 5311SOL     OW27568   0.294   0.899   4.280 -0.1586 -0.5865  0.0707
 5311SOL    HW127569   0.321   0.875   4.368 -0.2497  0.8234  0.4939
 5311SOL    HW227570   0.280   0.816   4.234 -0.5680 -0.3204 -0.2931
 5312SOL     OW27571   4.118   0.044   3.685 -0.4347  0.2464 -0.2960
 5312SOL    HW127572   4.110   0.022   3.592  0.5087  1.5649 -0.6857
 5312SOL    HW227573   4.170   4.712   3.722  0.0856  1.0297  0.4835
 5313SOL     OW27574   2.001   3.287  16.935 -0.2414 -0.5530  0.1002
 5313SOL    HW127575   2.035   3.336  16.860  1.3837 -1.0199  0.5421
 5313SOL    HW227576   1.907   3.273  16.920  0.2303 -0.6506 -2.6547
 5314SOL     OW27577   2.255   3.228   4.498 -0.3918  0.1985 -0.1574
 5314SOL    HW127578   2.190   3.158   4.509  0.7236 -0.9909 -1.1962
 5314SOL    HW227579   2.245   3.287   4.573  0.5448  1.9092 -1.4037
 5315SOL     OW27580   1.480   4.126   5.808 -0.4000 -0.5193 -0.1820
 5315SOL    HW127581   1.431   4.045   5.794  1.1072 -1.3872 -0.5048
 5315SOL    HW227582   1.407   4.184   5.788 -1.8764 -0.9822  3.9797
 5316SOL     OW27583   0.984   2.004   5.057  0.7135 -0.2189 -0.0590
 5316SOL    HW127584   1.063   2.010   5.112 -0.5660  0.7950  1.6857
 5316SOL    HW227585   0.923   1.965   5.120 -0.3288 -0.0376 -0.9586
 5317SOL     OW27586   0.884   2.842   3.320  0.0147 -0.2885  0.2121
 5317SOL    HW127587   0.871   2.784   3.245 -1.1879  1.9327 -1.2881
 5317SOL    HW227588   0.978   2.836   3.331  0.0435 -1.1677 -0.4650
 5318SOL     OW27589   0.917   2.376   4.584  0.3183 -0.1096  0.8879
 5318SOL    HW127590   0.945   2.453   4.534  0.9770 -0.5863  0.5283
 5318SOL    HW227591   0.896   2.410   4.671 -0.7782 -0.0365  0.5976
 5319SOL     OW27592   2.459   3.913  13.274  0.2923  0.3807  0.3465
 5319SOL    HW127593   2.424   3.827  13.295  0.4277 -0.0254 -1.1392
 5319SOL    HW227594   2.466   3.902  13.180 -1.6211  1.9542  0.0001
 5320SOL     OW27595   2.989   2.527   2.163  0.2139 -0.5883  0.2706
 5320SOL    HW127596   2.903   2.553   2.196 -0.3448 -2.3507  0.1569
 5320SOL    HW227597   3.040   2.608   2.168 -2.4852  1.2421 -1.7577
 5321SOL     OW27598   0.931   2.119   3.014 -0.1116  0.1151  0.1563
 5321SOL    HW127599   1.004   2.180   3.028 -0.1729  0.4404 -0.8760
 5321SOL    HW227600   0.970   2.061   2.949 -0.3856  1.3486 -1.1339
 5322SOL     OW27601   3.797   1.549   2.323 -0.5766 -0.2504  0.0845
 5322SOL    HW127602   3.842   1.492   2.385  0.2671  0.0463 -0.2675
 5322SOL    HW227603   3.705   1.522   2.333 -0.7692  0.0399 -0.8762
 5323SOL     OW27604   2.805   4.709   2.185 -0.5076 -1.0305 -0.2002
 5323SOL    HW127605   2.783   0.042   2.126 -1.0423  0.2372  1.5697
 5323SOL    HW227606   2.866   4.660   2.129  0.3335 -0.9457  0.6460
 5324SOL     OW27607   4.284   4.106   4.637  0.3320  0.3215 -0.1029
 5324SOL    HW127608   4.342   4.179   4.658  1.7317 -0.9742  0.5387
 5324SOL    HW227609   4.287   4.059   4.721  1.6963 -0.9201 -0.8367
 5325SOL     OW27610   2.376   1.952   5.833 -0.1283 -0.8918 -0.4261
 5325SOL    HW127611   2.395   1.858   5.826  1.5438 -0.5767  0.0787
 5325SOL    HW227612   2.281   1.941   5.838 -0.2992 -0.3646 -2.4227
 5326SOL     OW27613   0.073   3.579   3.609  0.0333  0.0498  0.0665
 5326SOL    HW127614   0.087   3.672   3.597 -0.7344  0.4901  2.4710
 5326SOL    HW227615   0.126   3.540   3.539 -0.6056  0.3607 -0.5851
 5327SOL     OW27616   2.451   1.964   3.684  0.0761 -0.4494  0.2338
 5327SOL    HW127617   2.462   2.048   3.729 -0.0185  0.1411 -0.8498
 5327SOL    HW227618   2.390   1.993   3.617 -1.0265 -0.6755  1.1460
 5328SOL     OW27619   2.554   4.142   5.628  0.2042  0.3264 -0.2654
 5328SOL    HW127620   2.618   4.144   5.557 -1.7751 -0.3214 -2.0782
 5328SOL    HW227621   2.531   4.050   5.640  0.9768  0.2171  0.3610
 5329SOL     OW27622   1.337   3.301   2.606 -0.2581 -0.3013 -0.2623
 5329SOL    HW127623   1.268   3.349   2.559 -0.1220  0.6740  0.5120
 5329SOL    HW227624   1.403   3.298   2.537 -0.3606 -1.8507 -0.2795
 5330SOL     OW27625   3.573   2.750   2.178  0.2008  0.7215  0.1217
 5330SOL    HW127626   3.541   2.669   2.218 -2.3052  1.0882 -1.2101
 5330SOL    HW227627   3.573   2.809   2.253 -1.3097 -1.5571  1.9250
 5331SOL     OW27628   4.107   3.623   4.022 -0.3553  0.2262 -0.8256
 5331SOL    HW127629   4.136   3.597   4.109 -0.1163 -1.3964 -1.3844
 5331SOL    HW227630   4.053   3.699   4.044 -0.0903  0.6023 -1.4643
 5332SOL     OW27631   4.702   1.825   7.221 -0.7176  0.1248  0.3358
 5332SOL    HW127632   4.664   1.775   7.149  0.3013  0.0951 -0.1953
 5332SOL    HW227633   4.620   1.856   7.258 -0.2907  3.9866 -1.8944
 5333SOL     OW27634   1.324   0.716   5.650  0.0074  0.2442  0.3481
 5333SOL    HW127635   1.304   0.661   5.725 -0.7920 -1.4840 -1.1417
 5333SOL    HW227636   1.250   0.777   5.651  1.0240  1.5496 -2.3309
 5334SOL     OW27637   3.136   2.375   3.690  0.2979  0.0520  0.3264
 5334SOL    HW127638   3.138   2.306   3.624  1.9642  1.3874 -1.0160
 5334SOL    HW227639   3.226   2.364   3.721  0.4745 -0.6704 -0.4353
 5335SOL     OW27640   1.101   0.541   2.484  0.4728 -0.2740  0.0307
 5335SOL    HW127641   1.061   0.567   2.566 -1.0964  0.8579 -1.0889
 5335SOL    HW227642   1.182   0.592   2.484  1.5498 -1.9880  0.3259
 5336SOL     OW27643   1.048   1.981   1.612 -0.0883 -0.1995 -0.8278
 5336SOL    HW127644   1.024   2.072   1.627 -0.6225 -0.1517 -1.9206
 5336SOL    HW227645   1.127   1.956   1.660  0.1115  1.5547 -0.2461
 5337SOL     OW27646   3.887   3.335   4.411 -0.1147 -0.2721 -0.2995
 5337SOL    HW127647   3.947   3.264   4.390  1.3925  1.4389 -1.7511
 5337SOL    HW227648   3.941   3.414   4.414 -1.1942  0.5014 -0.9556
 5338SOL     OW27649   3.331   2.267   1.792  0.2809  0.0442 -0.5471
 5338SOL    HW127650   3.352   2.206   1.863  0.3891 -0.6220 -1.1541
 5338SOL    HW227651   3.379   2.347   1.815 -0.3445  0.4400 -0.6202
 5339SOL     OW27652   4.128   0.316   0.426  0.1720 -0.0254  0.7848
 5339SOL    HW127653   4.094   0.284   0.510 -3.0507  2.6964  0.5055
 5339SOL    HW227654   4.055   0.369   0.396  0.3999  0.2048  0.6343
 5340SOL     OW27655   2.101   1.029   8.134  0.4495 -0.0158 -0.1924
 5340SOL    HW127656   2.148   0.957   8.092  0.0034  0.2130 -1.0898
 5340SOL    HW227657   2.055   0.981   8.202 -1.8549  2.7457  0.1885
 5341SOL     OW27658   1.688   0.999  12.323  0.3159 -0.3809  0.4242
 5341SOL    HW127659   1.689   1.088  12.287 -0.1003 -1.3564 -1.9683
 5341SOL    HW227660   1.745   0.959  12.258 -2.0608 -0.7590 -1.4414
 5342SOL     OW27661   2.464   0.585   3.310 -0.0968 -0.6503 -0.4127
 5342SOL    HW127662   2.475   0.680   3.302  0.5390 -0.8940 -2.2869
 5342SOL    HW227663   2.535   0.553   3.256  0.1844 -0.7980  0.0477
 5343SOL     OW27664   4.221   2.880  17.397 -0.4829  0.1790 -0.7332
 5343SOL    HW127665   4.212   2.873  17.302  0.4654 -0.4861 -0.7687
 5343SOL    HW227666   4.169   2.959  17.412 -2.0789 -1.1653  0.7498
 5344SOL     OW27667   0.066   3.068   3.870 -0.6512 -0.0866  0.1731
 5344SOL    HW127668   0.022   3.095   3.950  0.0182  1.3405  0.0599
 5344SOL    HW227669   4.739   3.001   3.852  0.3031 -1.0568  0.2172
 5345SOL     OW27670   0.709   3.708   0.719 -0.6802 -0.5832  0.7511
 5345SOL    HW127671   0.743   3.620   0.737 -0.0564  0.0148  2.5497
 5345SOL    HW227672   0.750   3.750   0.795 -1.3415  2.1928 -0.4271
 5346SOL     OW27673   4.447   2.633   8.070 -1.0636  0.1720  0.0314
 5346SOL    HW127674   4.500   2.630   8.150  1.3211  0.3020 -1.5532
 5346SOL    HW227675   4.447   2.727   8.051  0.6488 -0.1387 -1.4199
 5347SOL     OW27676   2.390   1.682   4.323 -0.4405  0.0684 -0.1244
 5347SOL    HW127677   2.427   1.725   4.400  0.3483 -0.3443 -0.2764
 5347SOL    HW227678   2.372   1.598   4.364  0.3538 -1.1368 -2.2460
 5348SOL     OW27679   1.522   1.649   8.773  0.2297  0.2432  0.0262
 5348SOL    HW127680   1.455   1.581   8.769  0.5089 -0.1619  2.3652
 5348SOL    HW227681   1.559   1.622   8.857  2.4405 -0.6008 -1.2269
 5349SOL     OW27682   4.030   2.587   4.314 -0.4315 -0.3797 -0.1287
 5349SOL    HW127683   3.952   2.639   4.336 -0.5878  0.4315 -2.5918
 5349SOL    HW227684   4.098   2.632   4.365 -0.5803 -2.5534  1.9787
 5350SOL     OW27685   2.532   0.650  17.622 -0.5937  0.7656 -1.0130
 5350SOL    HW127686   2.554   0.613  17.707 -0.9618  1.3986 -0.6390
 5350SOL    HW227687   2.610   0.694  17.588 -0.7667  1.7696 -0.1354
 5351SOL     OW27688   2.481   2.531   2.677  0.3497 -0.3004 -0.0520
 5351SOL    HW127689   2.471   2.625   2.664 -0.7200 -0.2608  1.0523
 5351SOL    HW227690   2.569   2.518   2.712 -0.3633 -0.4133  1.7340
 5352SOL     OW27691   3.389   3.224   5.185  0.0904 -0.0145  0.1139
 5352SOL    HW127692   3.412   3.150   5.240  2.4055  0.3847 -0.3161
 5352SOL    HW227693   3.365   3.289   5.251  0.4760  0.6003 -0.3380
 5353SOL     OW27694   2.068   3.260   1.569  0.3873  0.6204  0.3125
 5353SOL    HW127695   2.040   3.243   1.480 -0.4068  0.9285  0.5099
 5353SOL    HW227696   2.081   3.354   1.578  2.6996  0.4485 -1.1083
 5354SOL     OW27697   3.473   0.719   9.093  0.1269 -0.6836 -0.1456
 5354SOL    HW127698   3.429   0.635   9.103 -1.0222  0.0836  1.1037
 5354SOL    HW227699   3.399   0.779   9.100  0.3313 -0.2362 -1.6724
 5355SOL     OW27700   2.427   1.938  15.829 -0.1655  0.1553  0.0652
 5355SOL    HW127701   2.338   1.904  15.835 -0.3863  1.0804  1.8220
 5355SOL    HW227702   2.468   1.867  15.879 -2.1999 -0.1704  1.2655
 5356SOL     OW27703   3.057   4.611   2.113 -0.4449 -0.0141 -0.0353
 5356SOL    HW127704   3.031   4.692   2.070  0.7002  0.2169 -0.2858
 5356SOL    HW227705   3.132   4.641   2.166  0.4293 -1.2446 -0.5925
 5357SOL     OW27706   0.900   0.163  16.578  0.3181  0.4686 -0.1384
 5357SOL    HW127707   0.884   0.238  16.635 -1.2394 -0.9975  1.3636
 5357SOL    HW227708   0.985   0.177  16.535 -0.1154  1.2378 -0.7431
 5358SOL     OW27709   0.447   3.770   6.713 -0.0759 -0.8081 -0.8784
 5358SOL    HW127710   0.527   3.822   6.723  0.1727 -1.5231  0.9316
 5358SOL    HW227711   0.396   3.823   6.652 -1.0405 -2.3224 -1.3716
 5359SOL     OW27712   0.294   3.416   5.770  1.0277  0.6911  0.1390
 5359SOL    HW127713   0.326   3.484   5.829  1.9365  1.1133 -0.8429
 5359SOL    HW227714   0.384   3.396   5.746  1.1259  0.5728  0.6208
 5360SOL     OW27715   0.276   0.033   7.069 -0.1104  0.3990  0.3240
 5360SOL    HW127716   0.272   0.128   7.066 -2.0718  0.3003 -0.2833
 5360SOL    HW227717   0.278   0.027   7.165  0.0048 -1.2423  0.2341
 5361SOL     OW27718   4.240   2.102  13.273 -0.2224 -0.1007 -0.2315
 5361SOL    HW127719   4.245   2.197  13.268 -0.7308 -0.1990 -2.9009
 5361SOL    HW227720   4.197   2.095  13.187  0.8407 -0.8868 -0.6982
 5362SOL     OW27721   0.882   4.143   1.578 -0.1488 -0.5920 -0.3863
 5362SOL    HW127722   0.828   4.110   1.507  2.3948  0.1583 -2.6640
 5362SOL    HW227723   0.975   4.126   1.558 -0.4530 -0.8992 -1.5114
 5363SOL     OW27724   3.868   3.636  10.475 -0.2498  0.0333 -0.6269
 5363SOL    HW127725   3.941   3.634  10.414 -0.5181  0.5728 -0.9638
 5363SOL    HW227726   3.821   3.557  10.448 -1.7299  0.4122  0.8395
 5364SOL     OW27727   3.250   4.065   3.714  0.2214 -0.4563  0.1158
 5364SOL    HW127728   3.265   4.157   3.691 -1.5338 -0.1516  0.1541
 5364SOL    HW227729   3.201   4.071   3.797 -1.0384  3.9246 -0.9027
 5365SOL     OW27730   2.399   0.958   3.693  0.2655 -0.0781 -0.0171
 5365SOL    HW127731   2.422   0.912   3.774 -0.6742 -2.7748 -1.3307
 5365SOL    HW227732   2.365   0.898   3.628 -3.5685  0.9759  1.0028
 5366SOL     OW27733   1.325   3.046  17.743  0.4929  0.0178  0.1543
 5366SOL    HW127734   1.243   3.065   0.032  0.6391  0.8716  0.0585
 5366SOL    HW227735   1.385   3.056   0.062  1.1125  0.4957 -0.4090
 5367SOL     OW27736   2.693   0.070   6.655 -0.6667  0.0420 -0.1910
 5367SOL    HW127737   2.715   0.120   6.734  0.6313 -0.2209 -0.3873
 5367SOL    HW227738   2.745   4.731   6.674  0.5719  1.0515  0.6020
 5368SOL     OW27739   3.093   3.499   7.227 -0.4002 -1.1453  0.5606
 5368SOL    HW127740   3.041   3.578   7.235 -0.8511 -1.2678 -1.0763
 5368SOL    HW227741   3.106   3.504   7.132 -1.3841 -0.4155  0.4739
 5369SOL     OW27742   2.828   3.299   4.977  0.1253  0.3160 -0.6105
 5369SOL    HW127743   2.756   3.345   4.934 -0.4943  1.5128  1.7001
 5369SOL    HW227744   2.902   3.325   4.921  1.4474 -1.9541  0.1139
 5370SOL     OW27745   1.248   1.159   4.099  0.9881  0.0441 -0.1196
 5370SOL    HW127746   1.171   1.109   4.125  0.2814 -0.4687 -3.2090
 5370SOL    HW227747   1.228   1.185   4.009 -1.4707  1.2680  0.7965
 5371SOL     OW27748   0.079   4.164   1.020 -0.3806  0.2957 -0.4328
 5371SOL    HW127749   0.071   4.089   0.961 -0.7753 -1.9922  2.5334
 5371SOL    HW227750   0.074   4.114   1.101  0.2462  1.4475  0.3139
 5372SOL     OW27751   2.652   4.526   9.824  0.1588  0.0742  0.1405
 5372SOL    HW127752   2.598   4.466   9.773  1.9409  0.0554 -1.7509
 5372SOL    HW227753   2.731   4.475   9.839 -0.0599 -0.9656 -2.1876
 5373SOL     OW27754   3.236   3.814  10.533 -0.4385  0.4226  0.2396
 5373SOL    HW127755   3.314   3.759  10.541  0.9190  1.9921 -2.4587
 5373SOL    HW227756   3.193   3.778  10.611 -1.4530  2.7610  0.7576
 5374SOL     OW27757   1.318   1.554   7.305 -0.0038  0.2110  0.0876
 5374SOL    HW127758   1.398   1.605   7.294  1.2239 -1.5758  0.7285
 5374SOL    HW227759   1.332   1.476   7.251 -0.7854 -0.5269  0.9579
 5375SOL     OW27760   0.445   0.960   7.116  0.1463  0.6859  0.0693
 5375SOL    HW127761   0.535   0.977   7.088 -0.1820  2.3729  0.0659
 5375SOL    HW227762   0.388   1.028   7.080  0.1021 -0.1675 -1.4741
 5376SOL     OW27763   2.307   0.693   9.337 -0.7037  0.4954  0.4175
 5376SOL    HW127764   2.354   0.686   9.254 -3.9390 -0.8964 -1.3304
 5376SOL    HW227765   2.286   0.786   9.328  1.7025  0.9698 -0.2623
 5377SOL     OW27766   2.915   0.064   9.157  0.2642 -0.1039  0.7077
 5377SOL    HW127767   2.846   4.738   9.157 -0.7413  0.9124 -1.9337
 5377SOL    HW227768   2.877   0.135   9.208 -2.3862 -0.6865 -0.4421
 5378SOL     OW27769   1.787   3.608   5.117  0.0150  0.3834 -0.6079
 5378SOL    HW127770   1.815   3.552   5.045 -1.0586  0.2880 -0.9496
 5378SOL    HW227771   1.871   3.652   5.129  0.4058 -0.0780 -1.6357
 5379SOL     OW27772   2.901   2.358   6.380  0.0219 -0.7325  0.7899
 5379SOL    HW127773   2.955   2.290   6.340  3.2845  1.0979  2.1058
 5379SOL    HW227774   2.923   2.433   6.325 -0.6167  0.3497  1.9900
 5380SOL     OW27775   0.410   4.564   4.421 -0.3228 -0.2921  0.4721
 5380SOL    HW127776   0.477   4.593   4.360  0.4244  1.0503  1.9131
 5380SOL    HW227777   0.396   4.646   4.470 -1.5795 -1.1162  1.4938
 5381SOL     OW27778   4.449   2.314   5.655  0.2585 -0.2272  0.4871
 5381SOL    HW127779   4.388   2.281   5.589  1.1744 -3.5710  1.3155
 5381SOL    HW227780   4.450   2.404   5.623  0.4479 -1.0504 -1.8174
 5382SOL     OW27781   1.015   2.420   2.557  0.3595 -0.0413 -0.1097
 5382SOL    HW127782   0.962   2.427   2.636  1.1232  3.6901  0.0344
 5382SOL    HW227783   0.952   2.388   2.493  0.9375 -1.9820  0.2720
 5383SOL     OW27784   3.427   3.122   7.770 -0.2094 -0.6363 -0.4096
 5383SOL    HW127785   3.479   3.122   7.851 -2.5064  0.3367  1.0508
 5383SOL    HW227786   3.500   3.102   7.712 -0.8579 -2.7523 -0.5254
 5384SOL     OW27787   1.865   2.146   1.872 -0.1614  0.4933  0.1972
 5384SOL    HW127788   1.846   2.212   1.805  1.2275  2.1538  1.4496
 5384SOL    HW227789   1.798   2.078   1.861  0.9206 -0.6758  0.8606
 5385SOL     OW27790   3.783   2.571   2.431 -0.5281 -0.0889 -0.4552
 5385SOL    HW127791   3.691   2.552   2.412 -0.4029 -0.5224 -0.6376
 5385SOL    HW227792   3.813   2.480   2.436 -1.2754 -0.3972 -1.6823
 5386SOL     OW27793   3.524   3.341   3.838  0.0059 -0.1525 -0.5612
 5386SOL    HW127794   3.587   3.280   3.877 -0.4599 -0.2902 -0.0162
 5386SOL    HW227795   3.517   3.306   3.749 -0.9707  0.1960 -0.6140
 5387SOL     OW27796   1.728   0.077   5.118 -0.7890  0.6356 -0.2894
 5387SOL    HW127797   1.763   0.027   5.191  1.3309 -1.0262 -2.4421
 5387SOL    HW227798   1.729   0.020   5.041  1.1107 -0.5598  0.6250
 5388SOL     OW27799   4.052   2.149   4.308  0.0459 -0.5545 -0.2822
 5388SOL    HW127800   4.110   2.215   4.271 -1.3221  0.7728 -0.0414
 5388SOL    HW227801   3.967   2.192   4.312 -0.4926 -1.4613 -1.7710
 5389SOL     OW27802   1.085   3.625   2.722 -0.0328  0.3896 -0.2097
 5389SOL    HW127803   1.109   3.692   2.786 -0.6453  0.3487  0.0622
 5389SOL    HW227804   1.129   3.653   2.641 -0.1307  1.8512  0.2422
 5390SOL     OW27805   2.327   0.068   5.097  0.5716 -0.1495  0.4173
 5390SOL    HW127806   2.364   0.070   5.185 -2.9991 -2.6401  1.9515
 5390SOL    HW227807   2.288   4.720   5.098 -2.2528  1.1456  2.9516
 5391SOL     OW27808   1.971   1.776   4.397 -0.5568 -0.3813 -0.1978
 5391SOL    HW127809   2.062   1.755   4.419 -0.7597 -0.0545  0.9372
 5391SOL    HW227810   1.960   1.746   4.307  0.5358 -2.5483  0.3750
 5392SOL     OW27811   3.542   1.487  14.563 -0.0718  0.2190 -0.0322
 5392SOL    HW127812   3.541   1.507  14.656  1.3174  1.5543 -0.3065
 5392SOL    HW227813   3.472   1.422  14.551  0.2169  0.0293 -0.6868
 5393SOL     OW27814   3.543   4.124   4.287 -0.1506  0.2890  0.2779
 5393SOL    HW127815   3.505   4.061   4.349 -0.7546 -1.0454 -1.4311
 5393SOL    HW227816   3.485   4.103   4.214 -1.2120  1.6213  0.7499
 5394SOL     OW27817   1.897   0.581   4.239  0.5509  0.2925  0.1423
 5394SOL    HW127818   1.867   0.669   4.217 -3.1418 -1.1134 -0.5316
 5394SOL    HW227819   1.960   0.604   4.307  1.1947 -0.9731 -0.0303
 5395SOL     OW27820   1.846   1.414   1.604 -0.1968  0.3075  0.0996
 5395SOL    HW127821   1.842   1.397   1.697  0.9772  3.9667  0.8409
 5395SOL    HW227822   1.753   1.426   1.584 -0.2666 -2.1201 -0.9559
 5396SOL     OW27823   2.616   3.425   5.560  0.1472  0.9649  0.4525
 5396SOL    HW127824   2.589   3.343   5.601  3.9356 -0.5748 -0.1523
 5396SOL    HW227825   2.711   3.425   5.574 -0.0304 -2.2032  1.7526
 5397SOL     OW27826   3.953   1.135   9.973  0.2868  0.1219 -0.3239
 5397SOL    HW127827   3.973   1.208   9.913  2.4107 -1.6905 -1.8517
 5397SOL    HW227828   3.997   1.168  10.051  1.0570  3.0613 -1.9448
 5398SOL     OW27829   1.785   3.090   0.333 -0.2903  0.4722  0.3887
 5398SOL    HW127830   1.721   3.036   0.288  3.0936 -1.2511 -2.3602
 5398SOL    HW227831   1.743   3.109   0.417 -0.2626  0.1332  0.4803
 5399SOL     OW27832   0.523   4.080   2.682 -0.0550 -0.9681 -0.2895
 5399SOL    HW127833   0.453   4.121   2.632  1.8085  4.2173  1.2822
 5399SOL    HW227834   0.468   4.035   2.745  0.0804 -1.3115 -0.4165
 5400SOL     OW27835   2.213   1.088   4.038 -0.1781  0.4875  0.1948
 5400SOL    HW127836   2.133   1.139   4.037  0.3200  1.3075  1.2784
 5400SOL    HW227837   2.191   1.020   3.975  0.2948 -0.3281  0.8981
 5401SOL     OW27838   4.076   0.029  14.962 -0.1068  0.1894  0.2166
 5401SOL    HW127839   4.160   0.024  14.916 -0.6316  2.5597 -0.9522
 5401SOL    HW227840   4.019   4.711  14.911  0.5410 -0.6448  0.4274
 5402SOL     OW27841   1.436   3.435   6.773  0.4939 -0.0218 -0.3480
 5402SOL    HW127842   1.481   3.397   6.697 -0.3397 -2.3957  0.3594
 5402SOL    HW227843   1.416   3.354   6.819  2.1346  1.0204  2.2169
 5403SOL     OW27844   1.317   0.299   1.930  0.1391 -0.2721  0.5109
 5403SOL    HW127845   1.380   0.359   1.891 -1.8084  1.6985  0.4232
 5403SOL    HW227846   1.308   0.244   1.852 -0.9942  0.4174  0.1582
 5404SOL     OW27847   1.130   0.094  14.056  0.4059  0.1258  0.0543
 5404SOL    HW127848   1.051   0.120  14.104  0.6339 -1.0600  1.0530
 5404SOL    HW227849   1.194   0.139  14.111  0.0181 -0.5214  1.0245
 5405SOL     OW27850   2.019   0.928   2.646 -0.7629 -0.4412 -0.3744
 5405SOL    HW127851   2.033   0.915   2.553  3.2140  0.3326  0.1146
 5405SOL    HW227852   2.074   0.856   2.677 -1.1945 -0.8608 -0.5917
 5406SOL     OW27853   3.591   0.081   5.289 -0.0262 -0.4431 -0.7848
 5406SOL    HW127854   3.684   0.076   5.310 -0.0923 -1.6602 -0.7894
 5406SOL    HW227855   3.580   0.005   5.232 -0.8634 -0.8368 -0.0991
 5407SOL     OW27856   0.648   0.089  13.473 -0.0414 -0.6695 -0.0612
 5407SOL    HW127857   0.639   4.735  13.456  0.0965 -0.6665 -0.1481
 5407SOL    HW227858   0.642   0.085  13.568 -0.5499 -3.0399 -0.1994
 5408SOL     OW27859   0.464   0.564   6.378  0.1562 -0.8074 -0.9944
 5408SOL    HW127860   0.453   0.553   6.473  0.3343 -0.6908 -0.9597
 5408SOL    HW227861   0.547   0.611   6.378 -0.1852 -0.1948  1.5220
 5409SOL     OW27862   1.961   4.697   1.938  0.3045 -0.0179 -0.0258
 5409SOL    HW127863   1.920   0.015   2.001  0.1963 -0.3933  0.2439
 5409SOL    HW227864   2.054   4.707   1.960  0.8563  0.6694 -2.6722
 5410SOL     OW27865   1.774   0.331   1.974  0.0919  0.5018  0.6554
 5410SOL    HW127866   1.680   0.315   1.984 -0.0088  0.4354 -0.4563
 5410SOL    HW227867   1.770   0.427   1.979 -3.4114  0.4623 -1.0587
 5411SOL     OW27868   3.434   4.246   5.064  0.0181 -0.1143  0.3247
 5411SOL    HW127869   3.437   4.321   5.004  2.7881  1.1629  2.0663
 5411SOL    HW227870   3.422   4.293   5.146 -0.3577  2.1157 -0.9860
 5412SOL     OW27871   2.992   1.974   6.828  0.1187 -0.0947 -0.3000
 5412SOL    HW127872   2.973   1.958   6.920 -2.1639  1.1868 -0.5463
 5412SOL    HW227873   3.016   2.066   6.826  0.0918 -0.0321  2.3111
 5413SOL     OW27874   3.465   2.089  15.281  0.2711  0.3173  0.2899
 5413SOL    HW127875   3.428   2.173  15.307 -0.6057 -0.3808  1.3196
 5413SOL    HW227876   3.559   2.101  15.294  0.4998 -1.4581  0.3080
 5414SOL     OW27877   0.798   1.728   4.763  0.3287  0.0390 -0.7029
 5414SOL    HW127878   0.732   1.710   4.697  0.2667  2.1044 -1.2057
 5414SOL    HW227879   0.742   1.769   4.829 -0.3194 -0.7346 -0.7846
 5415SOL     OW27880   4.386   3.160   9.691 -0.7927  0.6567  0.2026
 5415SOL    HW127881   4.316   3.095   9.683  0.4379 -0.6197 -0.1509
 5415SOL    HW227882   4.458   3.135   9.633  0.8520  0.8273  2.1434
 5416SOL     OW27883   0.853   0.964  11.646  0.0596  0.2346  0.4262
 5416SOL    HW127884   0.890   1.052  11.643 -0.2195  0.2674 -2.4368
 5416SOL    HW227885   0.780   0.983  11.587  0.7222  4.3907  0.9793
 5417SOL     OW27886   0.875   4.689   1.724  0.1251  0.5876 -0.3025
 5417SOL    HW127887   0.836   4.620   1.777  2.0503 -0.0229  0.3432
 5417SOL    HW227888   0.962   4.692   1.764  0.4020 -2.0678 -0.7402
 5418SOL     OW27889   3.455   0.549  11.875  0.2215 -0.3586 -0.7603
 5418SOL    HW127890   3.430   0.543  11.968  2.7308 -1.6726 -0.1721
 5418SOL    HW227891   3.547   0.572  11.882  0.2016 -1.0314  1.6918
 5419SOL     OW27892   4.503   1.296  11.296  0.1946  0.3334  0.0650
 5419SOL    HW127893   4.482   1.363  11.231  0.6356 -0.6868 -1.1400
 5419SOL    HW227894   4.453   1.326  11.372  0.4617 -0.6019  0.6200
 5420SOL     OW27895   1.167   1.151   7.655 -0.5294 -0.2581 -0.0399
 5420SOL    HW127896   1.254   1.185   7.633 -0.8194 -0.5302 -1.6378
 5420SOL    HW227897   1.122   1.230   7.685 -3.5647 -1.7322 -0.7255
 5421SOL     OW27898   0.461   0.464   7.385  0.0953 -0.2397  0.4633
 5421SOL    HW127899   0.477   0.555   7.408 -0.9591 -0.2730  1.3173
 5421SOL    HW227900   0.370   0.452   7.412 -0.7525 -1.6485 -2.9192
 5422SOL     OW27901   2.603   2.521   4.460  0.3693  0.0423  0.1791
 5422SOL    HW127902   2.612   2.611   4.429 -1.6752 -0.6264 -2.3376
 5422SOL    HW227903   2.695   2.496   4.468 -0.1887 -1.5240  1.6672
 5423SOL     OW27904   2.007   2.036  13.963 -0.5230 -0.4388 -0.4115
 5423SOL    HW127905   1.990   2.117  13.914  0.0977  1.1801  2.0002
 5423SOL    HW227906   1.962   1.975  13.906 -0.9184  0.8895 -1.5255
 5424SOL     OW27907   3.245   0.322   8.946  0.2777 -0.2392  0.1905
 5424SOL    HW127908   3.191   0.351   8.872  1.1048 -0.0251 -0.3299
 5424SOL    HW227909   3.217   0.231   8.957 -0.8376 -0.0235 -0.8389
 5425SOL     OW27910   0.611   3.843   2.969  0.2713  0.3762  0.4479
 5425SOL    HW127911   0.591   3.755   2.935  0.6903  0.4544 -0.0014
 5425SOL    HW227912   0.704   3.851   2.949  1.0405 -0.4764  3.6310
 5426SOL     OW27913   1.517   4.171   1.600 -0.0836 -0.6020  0.4805
 5426SOL    HW127914   1.510   4.265   1.583  2.0622 -0.7284 -1.0860
 5426SOL    HW227915   1.606   4.178   1.635 -0.3557 -0.0254  1.0566
 5427SOL     OW27916   4.445   4.454   5.056  0.0966  0.6551  0.2223
 5427SOL    HW127917   4.499   4.487   4.984  2.5764  0.5840  2.0250
 5427SOL    HW227918   4.446   4.360   5.036  1.2048  0.7894 -0.3828
 5428SOL     OW27919   3.231   2.900   4.428 -0.1886  0.2821 -0.6320
 5428SOL    HW127920   3.317   2.860   4.418 -1.4259 -2.3753 -0.5497
 5428SOL    HW227921   3.189   2.866   4.349 -0.2423  1.0761 -0.9472
 5429SOL     OW27922   0.406   0.478   5.204 -0.1032  0.3019  0.5631
 5429SOL    HW127923   0.330   0.473   5.147 -0.0795  3.5892  0.2178
 5429SOL    HW227924   0.406   0.398   5.256 -0.9335 -1.7943 -2.6328
 5430SOL     OW27925   4.483   4.707   4.859  0.1869 -0.2846 -1.0273
 5430SOL    HW127926   4.473   0.047   4.808  0.9518  0.7470  0.4173
 5430SOL    HW227927   4.502   4.640   4.793 -3.2279 -2.4426  0.1477
 5431SOL     OW27928   3.378   3.595   7.998  0.1074 -0.1096 -0.3553
 5431SOL    HW127929   3.445   3.552   7.945 -0.0067 -0.6444 -0.0641
 5431SOL    HW227930   3.327   3.516   8.015 -0.3267  0.7260  2.1603
 5432SOL     OW27931   4.598   1.814   6.569 -0.4066 -0.2104 -0.2067
 5432SOL    HW127932   4.645   1.770   6.499 -2.2564 -0.4615 -1.2928
 5432SOL    HW227933   4.647   1.777   6.642 -0.2357  0.3041 -0.0606
 5433SOL     OW27934   2.313   2.279   6.451 -0.1923 -0.5076  0.1527
 5433SOL    HW127935   2.287   2.366   6.421  0.3539 -0.0949  0.8845
 5433SOL    HW227936   2.402   2.270   6.415  0.8270  1.3486  2.2268
 5434SOL     OW27937   0.921   3.397   8.773  0.4006  0.1473 -0.4753
 5434SOL    HW127938   0.863   3.342   8.827  1.5061 -1.2590 -0.7302
 5434SOL    HW227939   0.969   3.446   8.840  0.8221 -0.4966 -0.3144
 5435SOL     OW27940   3.830   0.468   4.313  0.4900  0.4524  0.1529
 5435SOL    HW127941   3.837   0.375   4.332 -3.5738  0.0870 -0.0991
 5435SOL    HW227942   3.770   0.494   4.383  0.5932  3.0870 -0.7458
 5436SOL     OW27943   2.245   2.826   8.326  0.2646  0.1761 -0.0649
 5436SOL    HW127944   2.272   2.898   8.269  2.6790  0.0675  0.9705
 5436SOL    HW227945   2.161   2.859   8.361  0.1012  0.0402 -0.3310
 5437SOL     OW27946   0.303   1.150   8.199 -0.0689 -0.1954 -0.2480
 5437SOL    HW127947   0.345   1.209   8.261  0.5843  0.1950 -1.0668
 5437SOL    HW227948   0.380   1.113   8.157 -1.4515 -0.5925 -2.4501
 5438SOL     OW27949   0.802   1.388   2.342  0.2337 -0.1864  0.4480
 5438SOL    HW127950   0.824   1.476   2.309  0.0198 -0.8696 -1.5306
 5438SOL    HW227951   0.884   1.359   2.381  1.7702  0.5182 -2.2367
 5439SOL     OW27952   1.350   1.351  12.213  0.1790 -0.3758 -0.3829
 5439SOL    HW127953   1.309   1.264  12.217  1.1822 -0.8168  0.4614
 5439SOL    HW227954   1.404   1.354  12.134  0.4765 -1.4485 -0.2339
 5440SOL     OW27955   4.266   4.476   6.417  0.5063 -0.2834 -0.5578
 5440SOL    HW127956   4.251   4.382   6.426 -0.5969  0.0702  1.2940
 5440SOL    HW227957   4.361   4.469   6.415  0.6130  0.4864  1.7666
 5441SOL     OW27958   0.451   1.381   3.709  0.4492 -0.4032  0.2971
 5441SOL    HW127959   0.492   1.389   3.623  1.5798 -0.7668  0.8002
 5441SOL    HW227960   0.387   1.311   3.697 -0.6923  0.6756  0.0495
 5442SOL     OW27961   0.391   3.926   5.015 -0.0862 -0.0963  0.4048
 5442SOL    HW127962   0.312   3.912   5.066  1.3126 -0.3610  2.4887
 5442SOL    HW227963   0.446   3.975   5.076 -0.7823  0.3195  0.6971
 5443SOL     OW27964   0.954   1.992   0.918 -0.0781 -0.1284  0.1329
 5443SOL    HW127965   0.965   2.034   0.832 -0.9152  0.2059  0.1976
 5443SOL    HW227966   0.862   2.013   0.929 -1.3202 -3.6369 -3.6705
 5444SOL     OW27967   0.672   0.254   4.337 -0.0760  0.4292 -0.2961
 5444SOL    HW127968   0.729   0.233   4.263  1.5424  3.1297  0.1952
 5444SOL    HW227969   0.698   0.343   4.361 -1.1016  0.1556  1.8420
 5445SOL     OW27970   1.476   3.019   4.439 -0.3240 -0.8107 -0.0856
 5445SOL    HW127971   1.400   3.041   4.385 -0.6421 -0.1762  0.6157
 5445SOL    HW227972   1.534   3.084   4.401  0.4163 -2.1305 -1.2023
 5446SOL     OW27973   2.306   2.461  15.290  0.2012 -0.2179  0.7721
 5446SOL    HW127974   2.230   2.433  15.239 -0.6108  1.7472  0.9086
 5446SOL    HW227975   2.367   2.489  15.221 -0.2252 -1.7923 -0.2614
 5447SOL     OW27976   0.236   2.228   1.618 -0.4856  0.0874  0.0008
 5447SOL    HW127977   0.203   2.304   1.665  0.2630  1.2415 -1.3377
 5447SOL    HW227978   0.215   2.163   1.685  0.0399 -0.1894 -0.1021
 5448SOL     OW27979   2.794   0.359   2.501 -0.0384  0.2802  0.3045
 5448SOL    HW127980   2.715   0.410   2.519 -1.1824 -1.4727  0.1770
 5448SOL    HW227981   2.791   0.373   2.406 -1.3857 -0.4160  0.2470
 5449SOL     OW27982   2.109   0.737   8.046 -0.1082 -0.3665  0.3394
 5449SOL    HW127983   2.158   0.797   7.990  1.2678 -1.9404 -0.1452
 5449SOL    HW227984   2.050   0.694   7.985 -0.8301  0.4883  0.4442
 5450SOL     OW27985   2.280   1.388   8.716  0.3154 -0.0458 -0.1604
 5450SOL    HW127986   2.248   1.443   8.645  0.9253 -1.2643 -1.3592
 5450SOL    HW227987   2.292   1.303   8.674  2.0205  0.0762  0.0796
 5451SOL     OW27988   3.029   1.298   8.233  0.0403  0.9709 -0.2167
 5451SOL    HW127989   2.941   1.326   8.208 -0.0437 -0.0401 -1.0608
 5451SOL    HW227990   3.074   1.345   8.163  2.2010  1.3433  1.4269
 5452SOL     OW27991   0.283   4.036   2.467  0.1754  0.1562 -0.1318
 5452SOL    HW127992   0.307   3.943   2.469 -0.7238 -0.1661 -3.2571
 5452SOL    HW227993   0.197   4.023   2.427 -2.4400  2.6121  4.7894
 5453SOL     OW27994   1.331   0.833  16.302 -0.4627  0.1460 -0.3413
 5453SOL    HW127995   1.275   0.857  16.376 -1.0738 -0.3826 -0.6329
 5453SOL    HW227996   1.289   0.759  16.257 -0.4336 -1.1487  1.7787
 5454SOL     OW27997   3.606   1.156   7.000 -0.2883  0.1292 -0.2546
 5454SOL    HW127998   3.562   1.238   7.024  0.9305  0.4543  0.8876
 5454SOL    HW227999   3.566   1.099   7.066 -2.4113  2.1356  0.1937
 5455SOL     OW28000   1.515   1.870  10.550  0.8693 -0.2238 -0.3155
 5455SOL    HW128001   1.492   1.795  10.605  1.3135  1.1007  1.6868
 5455SOL    HW228002   1.531   1.827  10.466  0.6501 -1.6414  0.3667
 5456SOL     OW28003   0.545   4.553   6.412 -0.4061  0.0330 -0.1085
 5456SOL    HW128004   0.522   4.513   6.328  0.2651 -1.3986  0.3878
 5456SOL    HW228005   0.619   4.496   6.434 -1.0563 -0.2968  1.1878
 5457SOL     OW28006   2.619   0.399  16.192 -0.2413  0.2119  0.1020
 5457SOL    HW128007   2.571   0.419  16.273  2.5938 -0.9933  2.0796
 5457SOL    HW228008   2.579   0.466  16.136  0.3826  0.6891  0.2252
 5458SOL     OW28009   3.176   3.308   6.985  0.0790 -0.3019 -0.1310
 5458SOL    HW128010   3.201   3.364   6.912  0.5164 -0.7050 -0.2956
 5458SOL    HW228011   3.246   3.242   6.993  2.2852  1.7314 -2.7817
 5459SOL     OW28012   2.610   1.209   4.804 -0.3185 -0.1454 -0.9440
 5459SOL    HW128013   2.602   1.114   4.804  1.6943 -0.3118 -0.0016
 5459SOL    HW228014   2.535   1.222   4.745  0.6588  0.9812 -1.9331
 5460SOL     OW28015   2.193   3.664   8.230  0.0293  0.1734  0.1714
 5460SOL    HW128016   2.121   3.619   8.273  1.0263 -1.1304  0.4760
 5460SOL    HW228017   2.272   3.613   8.252  1.5205  1.8466 -1.2923
 5461SOL     OW28018   4.147   1.480   2.974 -0.3151  0.1490  0.5499
 5461SOL    HW128019   4.196   1.443   2.901  0.1862 -1.4746  1.7152
 5461SOL    HW228020   4.073   1.525   2.931 -1.2379 -1.6129  0.3134
 5462SOL     OW28021   1.184   2.136   3.252  0.5413  0.4674 -0.6787
 5462SOL    HW128022   1.159   2.209   3.309  0.5344 -0.6137  0.7159
 5462SOL    HW228023   1.275   2.161   3.238  0.8678 -0.7611 -0.7541
 5463SOL     OW28024   3.050   1.368   3.082  0.1885 -0.0503  0.3379
 5463SOL    HW128025   3.096   1.363   3.166  0.0928 -0.4690  0.3647
 5463SOL    HW228026   3.069   1.460   3.065  1.8447 -0.8343 -1.9799
 5464SOL     OW28027   3.973   1.064  10.550 -0.0428 -0.1246 -0.0067
 5464SOL    HW128028   3.990   0.977  10.514  2.2414  1.6266 -3.1233
 5464SOL    HW228029   3.945   1.048  10.640  2.9007 -0.3275  0.8664
 5465SOL     OW28030   4.440   1.914   7.289  0.0722  0.1656 -0.1805
 5465SOL    HW128031   4.376   1.873   7.231  1.8166  0.8942 -2.6321
 5465SOL    HW228032   4.405   1.889   7.375  2.2086  1.0200  0.9334
 5466SOL     OW28033   3.793   0.669   9.759 -0.2039 -0.6072  0.1062
 5466SOL    HW128034   3.881   0.707   9.757 -0.2488 -0.6617 -2.4698
 5466SOL    HW228035   3.809   0.580   9.791 -0.6763 -1.2455 -1.4568
 5467SOL     OW28036   3.000   1.254   6.202 -0.6683  0.3040 -0.3759
 5467SOL    HW128037   3.032   1.331   6.249 -1.4006 -0.4208  1.3220
 5467SOL    HW228038   3.074   1.193   6.211  0.8972  2.6022  2.2259
 5468SOL     OW28039   0.312   3.033  16.538  0.5293  0.1759  0.6764
 5468SOL    HW128040   0.235   3.054  16.486  1.0164 -0.2266 -0.1997
 5468SOL    HW228041   0.270   2.990  16.613 -1.4665 -1.0227 -1.1662
 5469SOL     OW28042   4.489   1.978   3.153  0.1186 -0.0893 -0.2776
 5469SOL    HW128043   4.411   1.997   3.101  0.1895  1.2453  0.0951
 5469SOL    HW228044   4.531   2.064   3.149  0.7691 -0.2852  2.7740
 5470SOL     OW28045   0.308   1.775  16.910 -0.2829 -0.1460  0.3769
 5470SOL    HW128046   0.251   1.699  16.893 -0.3778 -0.1019  0.5041
 5470SOL    HW228047   0.276   1.815  16.990  0.0961 -2.0003  1.4636
 5471SOL     OW28048   4.313   1.405   4.290 -0.0123  0.4275  0.4542
 5471SOL    HW128049   4.400   1.380   4.259  0.8943  1.3520  2.2502
 5471SOL    HW228050   4.339   1.394   4.381  0.6616 -2.0482 -0.0379
 5472SOL     OW28051   0.530   0.150   0.784  0.6660 -0.0262  0.3328
 5472SOL    HW128052   0.509   0.085   0.717  0.9682 -0.5563  0.7538
 5472SOL    HW228053   0.494   0.113   0.865 -0.6939 -0.7587 -0.6052
 5473SOL     OW28054   4.128   2.539   8.404 -0.2772 -0.6174  0.1480
 5473SOL    HW128055   4.122   2.568   8.313  1.0735 -2.2599 -0.4792
 5473SOL    HW228056   4.103   2.621   8.445 -0.4276 -0.5928  0.0091
 5474SOL     OW28057   3.609   2.101  11.840  0.3583  0.0129  0.2793
 5474SOL    HW128058   3.594   2.196  11.836 -1.3855 -0.2844 -0.1554
 5474SOL    HW228059   3.569   2.082  11.925 -0.9709 -0.9105 -0.5660
 5475SOL     OW28060   1.115   0.477   5.279 -0.0336 -0.5341  0.0963
 5475SOL    HW128061   1.118   0.394   5.230  0.9265 -1.9040  2.5043
 5475SOL    HW228062   1.037   0.522   5.247 -0.5705 -1.5946 -0.0838
 5476SOL     OW28063   1.503   0.421   2.973  0.1228 -0.3279  0.3025
 5476SOL    HW128064   1.459   0.504   2.960 -2.8984 -1.8384  0.9402
 5476SOL    HW228065   1.574   0.425   2.909 -0.0371  0.9606  0.2135
 5477SOL     OW28066   4.347   1.512  15.608 -0.2249  0.1159  0.0255
 5477SOL    HW128067   4.381   1.423  15.601 -0.1689  0.2029 -0.8162
 5477SOL    HW228068   4.355   1.510  15.703 -1.4534 -0.1237  0.1183
 5478SOL     OW28069   2.116   0.286   6.468 -0.6517 -0.3811 -0.3409
 5478SOL    HW128070   2.160   0.202   6.482 -0.4835 -0.7043 -2.7959
 5478SOL    HW228071   2.171   0.344   6.415 -0.7282  0.5251  0.5716
 5479SOL     OW28072   1.426   1.829   9.909 -0.2325 -0.2586 -0.0345
 5479SOL    HW128073   1.457   1.898   9.850 -0.3191  0.5564  0.8715
 5479SOL    HW228074   1.397   1.880   9.985 -1.6330 -0.2807 -0.5555
 5480SOL     OW28075   4.171   0.511   3.200 -0.4826  0.3085  0.0244
 5480SOL    HW128076   4.266   0.515   3.213 -0.2275 -1.0652 -1.3015
 5480SOL    HW228077   4.148   0.425   3.235  0.9928 -0.2033 -0.2368
 5481SOL     OW28078   1.575   0.129  17.462 -0.0183 -0.1478 -0.2435
 5481SOL    HW128079   1.510   0.135  17.532  2.1297  3.5404  1.4581
 5481SOL    HW228080   1.653   0.119  17.517 -0.2157 -0.7903 -0.0875
 5482SOL     OW28081   4.659   0.335   4.288 -0.0062  0.0409  0.4101
 5482SOL    HW128082   4.589   0.344   4.353  0.6117 -1.4607  1.2720
 5482SOL    HW228083   4.607   0.295   4.217 -0.6721 -1.0591  1.5230
 5483SOL     OW28084   4.544   0.854  16.026  0.4230  0.0966  0.0173
 5483SOL    HW128085   4.560   0.759  16.021  0.8372  0.1965 -0.5374
 5483SOL    HW228086   4.556   0.866  16.120 -1.5281 -3.2550  0.7207
 5484SOL     OW28087   3.658   3.341  16.401 -0.0549 -0.2666  0.4739
 5484SOL    HW128088   3.618   3.400  16.465 -0.6522  1.4560 -1.4656
 5484SOL    HW228089   3.738   3.392  16.383 -1.2595  0.8811 -1.6202
 5485SOL     OW28090   3.655   2.849  12.128 -0.0183 -0.2522 -0.3229
 5485SOL    HW128091   3.629   2.824  12.040 -1.5292  0.1726 -0.0019
 5485SOL    HW228092   3.582   2.819  12.182  1.2668  0.3266  1.7441
 5486SOL     OW28093   4.223   1.345   8.112  0.3115 -0.3675  0.5233
 5486SOL    HW128094   4.206   1.336   8.019  2.2694 -2.4085  0.3867
 5486SOL    HW228095   4.145   1.299   8.143 -1.0071  0.8666 -0.9370
 5487SOL     OW28096   1.904   0.083   4.013  0.5046  0.6077 -0.0455
 5487SOL    HW128097   1.943   0.155   4.063 -0.6781  1.2015  0.0110
 5487SOL    HW228098   1.985   0.044   3.980 -1.5962 -2.9828 -0.9698
 5488SOL     OW28099   1.171   1.830   6.984 -0.5198  0.0060 -0.2233
 5488SOL    HW128100   1.108   1.765   6.955  0.8640 -1.4659  0.0377
 5488SOL    HW228101   1.106   1.898   7.002  0.4049 -0.0363  3.3530
 5489SOL     OW28102   1.620   1.402   0.734 -0.1123 -0.0039 -0.3091
 5489SOL    HW128103   1.623   1.306   0.730  1.6836 -0.0767  2.5115
 5489SOL    HW228104   1.534   1.420   0.696 -0.1463  2.2082  0.8387
 5490SOL     OW28105   2.639   1.306   3.504  0.1949  0.1729  0.0860
 5490SOL    HW128106   2.618   1.393   3.537  2.3279  0.6522  0.1831
 5490SOL    HW228107   2.690   1.276   3.579 -0.1374 -0.0196  0.2361
 5491SOL     OW28108   3.534   0.837   7.450 -0.8091  0.3670 -0.3638
 5491SOL    HW128109   3.459   0.842   7.508 -0.6260 -0.9689 -0.0043
 5491SOL    HW228110   3.611   0.839   7.507  0.4386 -0.8536 -1.9629
 5492SOL     OW28111   4.412   0.980   8.939 -0.1312  0.5749 -0.1359
 5492SOL    HW128112   4.483   0.994   9.001 -0.3704 -0.4698  0.3850
 5492SOL    HW228113   4.470   0.988   8.864  0.5323  1.2162  0.4471
 5493SOL     OW28114   1.250   3.027   0.918  0.5954  0.3027  0.3626
 5493SOL    HW128115   1.232   3.006   1.010  0.7399 -0.1702  0.2823
 5493SOL    HW228116   1.229   3.121   0.919 -3.5921 -0.5778 -1.9838
 5494SOL     OW28117   0.418   2.020  12.973  0.2843  0.0025  0.7985
 5494SOL    HW128118   0.341   1.995  13.024 -1.3647  1.4254 -1.0089
 5494SOL    HW228119   0.488   1.976  13.022 -0.6056 -0.5439  1.5911
 5495SOL     OW28120   3.676   3.967  11.458  0.4771  0.3535  0.2379
 5495SOL    HW128121   3.734   4.042  11.443  1.2991  0.1946  2.5187
 5495SOL    HW228122   3.622   4.014  11.521 -0.9461  2.0353 -2.2387
 5496SOL     OW28123   3.070   0.708  11.135  0.2347 -0.0630 -0.0261
 5496SOL    HW128124   3.123   0.649  11.082 -1.5385 -0.6375 -1.1493
 5496SOL    HW228125   3.053   0.655  11.213 -1.5195  1.5886  0.7212
 5497SOL     OW28126   0.168   3.432   7.473 -0.0650 -0.5283  0.4564
 5497SOL    HW128127   0.115   3.401   7.547 -0.4701  0.4025  0.5558
 5497SOL    HW228128   0.193   3.349   7.432  0.8463 -0.3920  0.7321
 5498SOL     OW28129   3.165   4.270  10.404  0.2491  0.5808 -0.5790
 5498SOL    HW128130   3.234   4.225  10.454  0.5189 -0.3524 -1.7971
 5498SOL    HW228131   3.132   4.194  10.357  1.4985 -0.9434  1.0022
 5499SOL     OW28132   3.445   4.552  13.400 -0.0451 -0.2883  0.1397
 5499SOL    HW128133   3.394   4.633  13.395  2.0565  1.2920  4.1142
 5499SOL    HW228134   3.525   4.594  13.431 -1.1305  1.2697  0.8819
 5500SOL     OW28135   2.123   3.692   2.703  0.0213  0.2925 -0.3782
 5500SOL    HW128136   2.182   3.734   2.640  0.0385 -0.0521 -0.5942
 5500SOL    HW228137   2.049   3.658   2.651  0.1422  0.3003 -0.5570
 5501SOL     OW28138   0.132   1.934  12.980 -0.5344 -0.1851  0.4160
 5501SOL    HW128139   0.067   1.991  12.939  0.8937 -0.4282 -2.1719
 5501SOL    HW228140   0.143   1.877  12.905 -0.8835  2.4984 -1.6853
 5502SOL     OW28141   3.359   0.115  15.510 -0.4362  0.1751 -1.1629
 5502SOL    HW128142   3.289   0.055  15.537 -1.5554  1.2367 -1.7110
 5502SOL    HW228143   3.429   0.100  15.573 -1.4941  1.1978  0.2833
 5503SOL     OW28144   3.731   0.257   8.279  0.4975  0.3729  0.3915
 5503SOL    HW128145   3.819   0.223   8.299 -0.6017 -1.7984  1.5175
 5503SOL    HW228146   3.730   0.343   8.321  0.7510  0.7136 -0.2921
 5504SOL     OW28147   1.719   1.935   7.323  0.0766 -0.4936 -0.6353
 5504SOL    HW128148   1.767   1.961   7.245  0.5976  3.9230  1.1618
 5504SOL    HW228149   1.789   1.949   7.386 -2.8723  3.2845  1.8233
 5505SOL     OW28150   2.361   4.556   2.551 -0.0647 -0.0790  0.1136
 5505SOL    HW128151   2.324   4.607   2.623 -1.0271 -1.4757  0.6057
 5505SOL    HW228152   2.437   4.515   2.592  0.0170 -0.5262 -0.4772
 5506SOL     OW28153   3.810   2.224   5.644 -0.2029 -0.1486  0.0940
 5506SOL    HW128154   3.851   2.218   5.730  1.6831 -0.1923 -0.8084
 5506SOL    HW228155   3.891   2.237   5.594 -0.5662  2.4976  0.1667
 5507SOL     OW28156   2.523   1.462   9.304  0.2948  0.0522  0.5364
 5507SOL    HW128157   2.428   1.454   9.315  0.4114  0.3863  1.7996
 5507SOL    HW228158   2.539   1.557   9.303 -0.7354  0.2131 -1.1808
 5508SOL     OW28159   1.804   0.003   2.706 -0.2423 -0.4459 -0.4229
 5508SOL    HW128160   1.857   0.072   2.745 -0.5762  0.0173 -0.7906
 5508SOL    HW228161   1.719   0.038   2.735  0.0591  0.5038 -0.6744
 5509SOL     OW28162   1.768   1.961  11.497 -0.2211  0.0020  0.5373
 5509SOL    HW128163   1.746   2.000  11.413  1.4380  1.1612  0.6213
 5509SOL    HW228164   1.864   1.958  11.488 -0.2287  1.8154 -0.1413
 5510SOL     OW28165   3.963   0.532   7.161  0.5773  0.1217 -0.8874
 5510SOL    HW128166   4.052   0.499   7.155  0.4286 -0.4009 -0.2727
 5510SOL    HW228167   3.952   0.567   7.073 -0.9425  0.0662 -0.7218
 5511SOL     OW28168   3.312   3.357   7.359 -0.4460 -0.5716 -0.3421
 5511SOL    HW128169   3.261   3.287   7.319 -0.7150  0.1014 -1.1702
 5511SOL    HW228170   3.257   3.433   7.341 -2.1789 -1.9830 -1.0445
 5512SOL     OW28171   2.911   1.472   5.630 -0.3641  0.1078  0.0154
 5512SOL    HW128172   2.890   1.379   5.646 -0.5113  0.3024  0.9762
 5512SOL    HW228173   2.854   1.517   5.691 -0.5875 -0.7270  0.4312
 5513SOL     OW28174   3.633   2.426  14.617  0.8070  0.0140  0.1103
 5513SOL    HW128175   3.562   2.410  14.679  3.3141 -1.8532  2.4934
 5513SOL    HW228176   3.610   2.518  14.606  0.5513  0.1129  1.4680
 5514SOL     OW28177   2.488   4.356   3.514  0.4156  0.0183 -0.3908
 5514SOL    HW128178   2.543   4.312   3.449 -1.5878  0.0717 -2.1120
 5514SOL    HW228179   2.498   4.300   3.592  0.1226  0.4872 -0.0224
 5515SOL     OW28180   3.294   0.017   3.881 -0.4534 -0.0474  0.6377
 5515SOL    HW128181   3.217   0.055   3.922 -0.3765  0.9715 -0.1412
 5515SOL    HW228182   3.254   4.681   3.840  0.8548 -1.1299  1.3631
 5516SOL     OW28183   1.252   3.537   5.826 -0.3369  0.4444  0.0090
 5516SOL    HW128184   1.264   3.468   5.761  1.4265 -0.3645  1.1901
 5516SOL    HW228185   1.219   3.604   5.767 -2.0737  0.3400  0.8675
 5517SOL     OW28186   4.664   3.925   0.736 -0.1312 -0.4689  0.5262
 5517SOL    HW128187   4.613   3.876   0.671 -0.7540  0.0103  0.6533
 5517SOL    HW228188   4.672   4.010   0.691  1.3468 -0.8747  0.0278
 5518SOL     OW28189   1.611   4.248   1.990 -0.0408  0.1605 -0.0203
 5518SOL    HW128190   1.675   4.190   2.031 -0.1565 -0.1630 -0.2930
 5518SOL    HW228191   1.659   4.258   1.908  0.3557  0.7337  0.2821
 5519SOL     OW28192   4.356   4.137   3.987 -0.0847  0.1352 -0.8676
 5519SOL    HW128193   4.418   4.122   4.058 -0.2359 -0.8578 -0.9411
 5519SOL    HW228194   4.273   4.099   4.013  0.2589  0.7480  1.0998
 5520SOL     OW28195   4.138   1.503   2.371  0.7579 -0.5091 -0.5905
 5520SOL    HW128196   4.153   1.430   2.311 -1.1484  0.9644 -2.9017
 5520SOL    HW228197   4.183   1.571   2.320 -1.0932 -0.1451 -1.7555
 5521SOL     OW28198   2.544   3.900   0.122  0.2523  0.0383 -0.2381
 5521SOL    HW128199   2.463   3.857   0.094  1.4813 -0.9049 -2.3812
 5521SOL    HW228200   2.564   3.944   0.039  1.7982 -0.7846 -0.3118
 5522SOL     OW28201   1.897   0.040  14.426  0.0559  0.0086 -0.0330
 5522SOL    HW128202   1.907   0.132  14.400 -0.6307  0.0794 -0.0337
 5522SOL    HW228203   1.988   0.022  14.451 -0.1771 -1.7531 -0.5064
 5523SOL     OW28204   0.690   1.887   0.723  0.0931  0.1617 -0.4906
 5523SOL    HW128205   0.683   1.981   0.704  1.6048 -0.0008 -1.8232
 5523SOL    HW228206   0.668   1.898   0.815  0.5118  0.8456 -0.4640
 5524SOL     OW28207   4.307   3.239   5.352 -0.0477 -0.0605 -0.0771
 5524SOL    HW128208   4.248   3.181   5.400  0.3950  0.0014  0.5557
 5524SOL    HW228209   4.258   3.260   5.274  2.4972  1.8704 -1.1699
 5525SOL     OW28210   4.473   3.341   3.417  0.2608  0.4084 -0.3361
 5525SOL    HW128211   4.422   3.325   3.496  0.6841 -0.8470 -0.3228
 5525SOL    HW228212   4.558   3.305   3.445 -0.8067  0.1389  2.5079
 5526SOL     OW28213   0.017   3.875   1.114 -0.3376 -0.1864  0.5852
 5526SOL    HW128214   0.065   3.927   1.178 -0.3455  0.7775 -0.1882
 5526SOL    HW228215   0.029   3.787   1.149 -1.4002 -0.6620 -0.2397
 5527SOL     OW28216   2.693   4.666  16.050 -0.1232  0.3024 -1.1499
 5527SOL    HW128217   2.632   4.737  16.071 -2.1190 -0.7691 -3.2381
 5527SOL    HW228218   2.774   4.717  16.057 -0.5813  0.8043  0.5461
 5528SOL     OW28219   4.623   3.867   3.277  0.1141  0.4257 -0.0423
 5528SOL    HW128220   4.593   3.830   3.361 -1.6977 -0.2938 -1.0147
 5528SOL    HW228221   4.572   3.948   3.278 -0.4529  0.0653  0.0591
 5529SOL     OW28222   3.111   0.506   7.136 -0.3382 -0.4090  0.0260
 5529SOL    HW128223   3.040   0.570   7.123 -1.0136 -0.9116  1.2391
 5529SOL    HW228224   3.075   0.422   7.108 -1.9215  0.3411 -0.1809
 5530SOL     OW28225   1.181   3.782  11.825  0.0558  0.5728  0.3833
 5530SOL    HW128226   1.201   3.703  11.775  0.3146 -0.6870  2.5039
 5530SOL    HW228227   1.270   3.815  11.834  0.1061 -0.0308  2.1226
 5531SOL     OW28228   1.351   1.574  12.389 -0.0640  0.2348 -0.3182
 5531SOL    HW128229   1.354   1.492  12.338 -0.6078 -0.3616  0.6073
 5531SOL    HW228230   1.342   1.628  12.310  1.1269  2.6611  1.2169
 5532SOL     OW28231   0.247   1.544  10.524 -0.3895  1.0399  0.4891
 5532SOL    HW128232   0.188   1.607  10.482 -1.0742  1.3035  1.8226
 5532SOL    HW228233   0.281   1.500  10.447  0.1947  1.5893  0.4260
 5533SOL     OW28234   0.106   1.500  13.378 -0.0991 -0.9862 -0.7415
 5533SOL    HW128235   0.020   1.539  13.370 -0.0640 -0.6172  0.5968
 5533SOL    HW228236   0.148   1.558  13.314  0.2900 -2.5819 -1.9341
 5534SOL     OW28237   4.353   0.856  12.782  0.4373  0.0804  0.3545
 5534SOL    HW128238   4.443   0.826  12.789  0.3217 -0.1919  0.6737
 5534SOL    HW228239   4.357   0.883  12.690  2.0060 -2.9911 -0.4777
 5535SOL     OW28240   4.161   4.099  10.019 -0.4602 -0.0014  0.0392
 5535SOL    HW128241   4.096   4.148   9.969 -1.4391  1.6427  2.9209
 5535SOL    HW228242   4.100   4.053  10.077 -1.1378 -0.5796 -1.1286
 5536SOL     OW28243   2.265   3.011   1.996  0.1294  0.7778 -0.0175
 5536SOL    HW128244   2.282   2.936   1.939 -1.4384  0.3973  0.0024
 5536SOL    HW228245   2.343   3.009   2.050  0.5966 -1.9317 -0.8160
 5537SOL     OW28246   3.181   1.476  10.711  0.1263 -0.7268 -0.1402
 5537SOL    HW128247   3.098   1.496  10.669  0.0281  0.8348  0.7739
 5537SOL    HW228248   3.165   1.501  10.802 -3.9794 -1.3134 -0.6967
 5538SOL     OW28249   0.799   0.544   4.274  0.4893 -1.1203  0.2004
 5538SOL    HW128250   0.711   0.534   4.239  1.5316 -1.3042 -2.4178
 5538SOL    HW228251   0.789   0.561   4.368 -2.4975  0.5054 -0.4209
 5539SOL     OW28252   1.751   4.240  12.843 -0.2928  0.4630  0.3747
 5539SOL    HW128253   1.662   4.253  12.809  0.3237  1.6509 -0.8283
 5539SOL    HW228254   1.802   4.256  12.763 -2.0046  2.9883 -0.2026
 5540SOL     OW28255   4.460   2.490   0.021  0.0953 -0.4593 -0.2424
 5540SOL    HW128256   4.387   2.530   0.069 -0.2243 -1.4372  0.0784
 5540SOL    HW228257   4.472   2.413   0.076  0.3796  0.8580  1.5083
 5541SOL     OW28258   0.399   1.876  16.518 -0.0094  0.2038 -0.3325
 5541SOL    HW128259   0.437   1.934  16.451 -1.3959  1.2896 -0.1812
 5541SOL    HW228260   0.456   1.800  16.510  1.9345  1.4288  1.8684
 5542SOL     OW28261   2.258   3.035   3.947  0.2259  0.1934 -0.4887
 5542SOL    HW128262   2.238   3.039   3.854  1.4172  0.1052 -0.7560
 5542SOL    HW228263   2.192   3.099   3.971 -0.5185 -1.3324  1.5614
 5543SOL     OW28264   0.129   4.542   8.701  0.2230  0.3534 -0.6555
 5543SOL    HW128265   0.180   4.545   8.783  2.0962 -1.4159 -1.7614
 5543SOL    HW228266   0.172   4.609   8.648 -1.1423  0.8083 -1.1737
 5544SOL     OW28267   1.227   3.493   3.103  0.0013 -0.0423 -0.2273
 5544SOL    HW128268   1.164   3.490   3.031 -0.2756  2.1200 -0.1013
 5544SOL    HW228269   1.170   3.525   3.173  0.2464 -1.8629  0.7835
 5545SOL     OW28270   4.347   4.011  10.931  0.2605 -0.5584 -0.0848
 5545SOL    HW128271   4.340   3.944  10.863  1.6190 -0.7256 -0.0706
 5545SOL    HW228272   4.257   4.042  10.939  1.3951  2.3442  1.4054
 5546SOL     OW28273   2.313   4.537   5.449  0.1444  0.4872  0.0051
 5546SOL    HW128274   2.373   4.533   5.524 -0.5142  0.2308  0.5242
 5546SOL    HW228275   2.348   4.460   5.404 -2.1968 -1.7037  1.8914
 5547SOL     OW28276   1.055   3.632  16.808  0.2763  0.1275 -0.5244
 5547SOL    HW128277   1.131   3.683  16.836  1.5789 -1.2834 -1.5114
 5547SOL    HW228278   1.089   3.577  16.737 -0.1101  1.5376 -1.8070
 5548SOL     OW28279   2.109   2.002   8.304  0.6215  0.3552  0.2720
 5548SOL    HW128280   2.164   2.078   8.324  0.8443 -0.2329  1.9074
 5548SOL    HW228281   2.028   2.045   8.276  0.0296 -1.2257 -0.4082
 5549SOL     OW28282   3.768   2.730   6.620 -0.1469 -0.2405 -0.5478
 5549SOL    HW128283   3.757   2.815   6.578  0.9695  1.1111  1.8608
 5549SOL    HW228284   3.839   2.700   6.562  0.4883  0.0825  0.0583
 5550SOL     OW28285   3.321   3.259  16.167  0.0561  0.0552 -0.0394
 5550SOL    HW128286   3.312   3.354  16.173 -0.6322  0.1516 -2.3441
 5550SOL    HW228287   3.300   3.254  16.073 -0.8422  0.3438  0.1534
 5551SOL     OW28288   3.619   4.404   2.499  0.0126 -0.0605 -0.1093
 5551SOL    HW128289   3.614   4.486   2.548  1.3295  0.1926 -0.4141
 5551SOL    HW228290   3.712   4.387   2.508  0.0539  0.1833 -0.0939
 5552SOL     OW28291   3.554   4.591   8.708  0.7466 -0.5834  0.4789
 5552SOL    HW128292   3.598   4.625   8.785 -0.5681 -1.6105  1.6848
 5552SOL    HW228293   3.509   4.514   8.743 -0.2092 -0.2103  0.0623
 5553SOL     OW28294   4.556   3.070   8.942 -0.0592  0.3350 -0.1041
 5553SOL    HW128295   4.477   3.019   8.930 -0.5207  0.4846  2.3533
 5553SOL    HW228296   4.524   3.116   9.020 -2.1251  1.0386 -1.3760
 5554SOL     OW28297   1.573   3.576   8.905 -0.1051 -0.1597 -0.6484
 5554SOL    HW128298   1.486   3.585   8.868  0.2644 -1.9084 -1.9084
 5554SOL    HW228299   1.547   3.606   8.992 -0.0727 -1.6922 -0.1112
 5555SOL     OW28300   1.589   4.657   9.170 -0.1257 -0.1271 -0.0007
 5555SOL    HW128301   1.574   4.716   9.243  1.0296 -2.1825  1.8798
 5555SOL    HW228302   1.515   4.683   9.114  1.5191 -1.1499 -2.6229
 5556SOL     OW28303   4.404   2.934   5.598  0.4741  0.0557  0.3537
 5556SOL    HW128304   4.477   2.924   5.536 -1.3783  0.8038 -1.9630
 5556SOL    HW228305   4.420   3.027   5.614  1.3505  0.0834 -0.6545
 5557SOL     OW28306   3.896   2.004   6.947 -0.2862  0.2539  0.0250
 5557SOL    HW128307   3.820   1.975   6.896 -0.8788  3.2327 -0.7990
 5557SOL    HW228308   3.961   1.997   6.878 -1.8197  2.2574 -1.6207
 5558SOL     OW28309   3.452   0.538   1.341  0.5131 -0.5669  0.0810
 5558SOL    HW128310   3.493   0.590   1.410 -0.1499 -1.2297  0.9686
 5558SOL    HW228311   3.402   0.477   1.394  1.3926 -1.3637 -0.0052
 5559SOL     OW28312   4.354   1.396   0.642 -0.0152 -0.3729  0.1406
 5559SOL    HW128313   4.392   1.397   0.730  1.1260 -5.5556 -0.3213
 5559SOL    HW228314   4.378   1.483   0.611 -1.9587  0.3357  0.6307
 5560SOL     OW28315   2.486   1.348  12.503  0.5128  0.0110  0.1336
 5560SOL    HW128316   2.441   1.288  12.563 -1.0344  1.3577  0.3128
 5560SOL    HW228317   2.477   1.301  12.420 -0.2274  1.5802 -0.6784
 5561SOL     OW28318   3.341   0.290  13.520 -0.8694  0.0897  0.6818
 5561SOL    HW128319   3.409   0.357  13.516 -0.6176 -0.1063  1.7775
 5561SOL    HW228320   3.345   0.260  13.429  1.2780  1.7636  0.2366
 5562SOL     OW28321   2.979   1.949   6.089 -0.0529 -0.4954  0.1370
 5562SOL    HW128322   2.899   1.903   6.118 -1.2289  0.8548 -0.9897
 5562SOL    HW228323   2.975   1.950   5.994  2.2845  1.5673  0.0758
 5563SOL     OW28324   1.511   0.396   0.817 -0.3851 -0.2865 -0.2017
 5563SOL    HW128325   1.540   0.464   0.878  1.0801 -1.9394  0.9364
 5563SOL    HW228326   1.519   0.320   0.874 -1.6497  1.3041  2.1069
 5564SOL     OW28327   4.702   4.137   8.205 -0.9678 -0.3612  0.1620
 5564SOL    HW128328   4.659   4.075   8.264 -2.1321 -1.1550 -1.5341
 5564SOL    HW228329   0.024   4.179   8.265 -2.1573  1.1022  0.3312
 5565SOL     OW28330   2.801   0.183  10.287 -0.1509 -0.2715  0.1710
 5565SOL    HW128331   2.874   0.226  10.243 -1.5380  1.6451 -0.2532
 5565SOL    HW228332   2.857   0.133  10.346 -1.2413  1.0959  2.3571
 5566SOL     OW28333   3.791   1.734  12.894  0.4764  0.1519  0.1633
 5566SOL    HW128334   3.742   1.667  12.941  0.5440  0.8867  1.2748
 5566SOL    HW228335   3.849   1.768  12.962  1.2768  2.6614 -1.7600
 5567SOL     OW28336   4.418   0.908  13.262 -0.1333  0.0178  0.1632
 5567SOL    HW128337   4.497   0.885  13.312 -2.1164 -3.8192  1.5789
 5567SOL    HW228338   4.446   0.979  13.205 -0.8775 -0.5503 -0.9006
 5568SOL     OW28339   4.196   0.457   2.713  0.1561 -0.3117 -0.2432
 5568SOL    HW128340   4.276   0.411   2.740  1.5297  1.3458 -1.4556
 5568SOL    HW228341   4.195   0.520   2.785 -0.4639 -0.5673 -0.0259
 5569SOL     OW28342   3.220   1.634   4.944 -0.3762  0.1250  0.1607
 5569SOL    HW128343   3.148   1.696   4.955 -0.8872 -0.4941  0.3728
 5569SOL    HW228344   3.213   1.611   4.851 -0.3197 -1.4568  0.5481
 5570SOL     OW28345   3.421   2.427   7.159 -0.1824  0.2753 -0.1962
 5570SOL    HW128346   3.447   2.441   7.068  1.6740  0.5148  0.3665
 5570SOL    HW228347   3.406   2.333   7.164 -2.3443  0.6765  0.5611
 5571SOL     OW28348   2.152   1.347   1.607 -0.4378  0.0598  0.4784
 5571SOL    HW128349   2.241   1.315   1.593 -1.1528 -1.1373 -1.3578
 5571SOL    HW228350   2.128   1.385   1.523 -2.3091 -0.7797  0.6307
 5572SOL     OW28351   0.683   0.444   5.187  0.3010 -0.4141  0.1360
 5572SOL    HW128352   0.602   0.430   5.236  1.1481  3.8036  2.7855
 5572SOL    HW228353   0.655   0.516   5.130  2.9926 -1.1276 -2.0574
 5573SOL     OW28354   1.883   3.667   3.635  0.0513 -0.2729 -0.4790
 5573SOL    HW128355   1.835   3.635   3.712  0.6665  1.0761  0.4607
 5573SOL    HW228356   1.823   3.731   3.597 -0.0142 -0.5691 -0.8731
 5574SOL     OW28357   0.436   0.054  11.906  0.4311  0.5806 -0.0490
 5574SOL    HW128358   0.428   0.126  11.968 -1.5245 -0.2961  0.7305
 5574SOL    HW228359   0.421   0.105  11.826 -0.8955 -0.9780 -0.8014
 5575SOL     OW28360   0.232   0.917   5.061  0.1393 -0.6141  0.0088
 5575SOL    HW128361   0.293   0.856   5.102  0.6752 -0.5917 -0.7450
 5575SOL    HW228362   0.151   0.904   5.110 -1.6716  0.6956 -2.6211
 5576SOL     OW28363   0.895   3.347   2.384  0.2164 -0.1711  0.2103
 5576SOL    HW128364   0.859   3.300   2.459 -0.8444  0.0129 -0.1794
 5576SOL    HW228365   0.834   3.312   2.318 -0.7106 -2.1628  2.1088
 5577SOL     OW28366   2.021   3.672  15.714  0.1226  0.4561  0.1392
 5577SOL    HW128367   2.028   3.713  15.628 -0.5416  0.4668  0.0891
 5577SOL    HW228368   1.993   3.753  15.755 -0.9640  0.5905 -0.8617
 5578SOL     OW28369   2.347   3.582   7.012  0.1317  0.2775 -0.0035
 5578SOL    HW128370   2.315   3.594   7.101 -0.2431  0.0072 -0.0993
 5578SOL    HW228371   2.282   3.518   6.981  0.7523 -1.0745  1.4548
 5579SOL     OW28372   3.224   1.813   4.236  0.1568  0.2599  0.1139
 5579SOL    HW128373   3.165   1.766   4.295  0.1341 -1.0615 -0.9544
 5579SOL    HW228374   3.172   1.823   4.157 -0.7378 -1.4444  0.5025
 5580SOL     OW28375   1.717   0.312   2.623  0.3341  0.1994 -0.2040
 5580SOL    HW128376   1.752   0.365   2.695  2.2720 -1.1353 -0.1298
 5580SOL    HW228377   1.629   0.346   2.613  0.6554 -0.0044 -3.7634
 5581SOL     OW28378   3.024   1.659   9.670  0.5873  0.0508 -0.1813
 5581SOL    HW128379   3.045   1.566   9.672 -3.1443 -0.8139 -2.2296
 5581SOL    HW228380   2.947   1.654   9.727  0.6894  3.2527  0.2621
 5582SOL     OW28381   0.186   4.145   3.696 -0.2294 -0.1249 -0.3048
 5582SOL    HW128382   0.127   4.210   3.732 -1.0156 -0.8466 -0.2816
 5582SOL    HW228383   0.124   4.104   3.635 -0.0660 -1.0161  0.1298
 5583SOL     OW28384   0.566   2.816   6.527  0.1899 -0.3592  0.3407
 5583SOL    HW128385   0.627   2.862   6.584 -0.6348  0.0706  0.8897
 5583SOL    HW228386   0.598   2.830   6.438 -1.4787  2.6430  0.2081
 5584SOL     OW28387   0.221   3.438   8.080 -0.5032 -0.4745  0.2427
 5584SOL    HW128388   0.295   3.458   8.138 -3.0894  0.2064  3.3234
 5584SOL    HW228389   0.218   3.510   8.017 -0.8446 -0.3624  0.3912
 5585SOL     OW28390   2.637   1.626   3.240  0.7596 -0.2568 -0.2501
 5585SOL    HW128391   2.558   1.575   3.221  0.0276  0.7664 -0.0319
 5585SOL    HW228392   2.623   1.660   3.329 -4.3940 -0.5109 -0.9131
 5586SOL     OW28393   1.218   4.256  15.512  0.4660 -0.5891 -0.0585
 5586SOL    HW128394   1.187   4.166  15.501  1.6873 -1.2255  1.7647
 5586SOL    HW228395   1.143   4.316  15.510 -1.3617 -2.8610  0.0559
 5587SOL     OW28396   1.548   0.406  13.944 -0.0127  0.9835  0.4190
 5587SOL    HW128397   1.500   0.488  13.937 -1.7560  0.0281  1.1628
 5587SOL    HW228398   1.588   0.423  14.029  1.2775  1.1519 -0.2140
 5588SOL     OW28399   0.272   4.513   6.150 -0.3407 -0.2207 -0.2135
 5588SOL    HW128400   0.248   4.469   6.069 -0.6117 -0.6612  0.0993
 5588SOL    HW228401   0.349   4.566   6.133  1.0289 -2.4267 -0.9475
 5589SOL     OW28402   0.759   0.427  16.428 -0.5143 -0.9483  0.0132
 5589SOL    HW128403   0.773   0.423  16.522 -0.1902  1.6179  0.0560
 5589SOL    HW228404   0.716   0.341  16.420  0.9697 -1.5174 -1.9593
 5590SOL     OW28405   4.523   2.848   6.903  0.2040 -0.0829  0.2507
 5590SOL    HW128406   4.467   2.772   6.919 -0.9676  0.7244 -0.0626
 5590SOL    HW228407   4.452   2.910   6.890  2.0353  2.2292  1.1932
 5591SOL     OW28408   0.992   0.657  10.343  0.4264 -0.0365  0.3184
 5591SOL    HW128409   0.970   0.627  10.431 -0.6612 -0.6663 -0.1685
 5591SOL    HW228410   1.002   0.751  10.355 -0.8361 -0.1291  2.1136
 5592SOL     OW28411   2.114   3.083   6.806 -0.8814 -0.1769 -0.0022
 5592SOL    HW128412   2.104   3.059   6.898  0.3046 -1.1145 -0.1192
 5592SOL    HW228413   2.145   2.996   6.780  0.5359 -0.3902  2.3780
 5593SOL     OW28414   0.793   0.876  10.654  0.2686  0.2852 -0.0244
 5593SOL    HW128415   0.794   0.948  10.716 -0.5899 -0.9895  1.4765
 5593SOL    HW228416   0.864   0.825  10.694 -2.5651 -1.9725  2.1080
 5594SOL     OW28417   4.550   3.177   8.025 -0.3801  0.3793 -0.0590
 5594SOL    HW128418   4.463   3.179   8.066 -0.5370 -0.2267 -0.3667
 5594SOL    HW228419   4.597   3.236   8.085 -2.2427 -0.1960  1.9860
 5595SOL     OW28420   2.673   0.286  14.602 -0.0425 -0.2827 -0.1333
 5595SOL    HW128421   2.628   0.227  14.542  0.6622 -0.3456 -0.6019
 5595SOL    HW228422   2.686   0.237  14.683  2.3289  4.8307  2.5926
 5596SOL     OW28423   1.225   2.852   7.989  0.2251  0.4079 -0.0616
 5596SOL    HW128424   1.182   2.824   8.070  2.7644 -0.5864  0.9573
 5596SOL    HW228425   1.220   2.773   7.935 -0.2672 -0.4458  1.2256
 5597SOL     OW28426   2.783   0.199  13.810 -0.4627  0.0259  0.2505
 5597SOL    HW128427   2.867   0.244  13.809  0.4753 -1.6891  4.0971
 5597SOL    HW228428   2.728   0.278  13.811  0.5545  0.7635 -1.8364
 5598SOL     OW28429   3.688   0.879   8.504 -0.1673  0.8202 -0.0629
 5598SOL    HW128430   3.770   0.875   8.552 -1.6115  0.5322  2.4107
 5598SOL    HW228431   3.655   0.790   8.516 -0.2199  1.0408  1.4685
 5599SOL     OW28432   2.210   2.047   1.783 -0.2296  0.2166  0.3792
 5599SOL    HW128433   2.145   2.101   1.829  0.6482  2.0147 -0.4910
 5599SOL    HW228434   2.177   2.048   1.693 -1.4909 -1.8596  0.8243
 5600SOL     OW28435   4.507   1.065   5.004  0.4143  0.1009  0.1271
 5600SOL    HW128436   4.491   0.984   5.052 -1.2048  0.3420  0.0003
 5600SOL    HW228437   4.538   1.136   5.061  1.8110 -2.6866  2.8286
 5601SOL     OW28438   1.713   0.702   0.854  0.0728  0.2481 -0.5950
 5601SOL    HW128439   1.643   0.751   0.897  0.1733 -2.1768  2.3546
 5601SOL    HW228440   1.750   0.780   0.814  1.2900 -1.6713 -3.2418
 5602SOL     OW28441   2.189   3.264  16.013  1.2372 -0.0724 -0.4276
 5602SOL    HW128442   2.129   3.305  15.951  0.6680 -0.9421 -0.4523
 5602SOL    HW228443   2.212   3.178  15.976  2.0273 -0.4716  0.9923
 5603SOL     OW28444   0.602   2.818   2.411  0.0438  0.2007 -0.0747
 5603SOL    HW128445   0.515   2.847   2.384  0.7048 -0.7541 -3.1550
 5603SOL    HW228446   0.649   2.899   2.433 -1.3161  0.7553  0.7755
 5604SOL     OW28447   1.618   4.242   0.179  0.4496  0.4370  0.1117
 5604SOL    HW128448   1.555   4.182   0.221  1.4978 -0.8021 -0.0896
 5604SOL    HW228449   1.700   4.211   0.216  0.5976  2.7537  1.7545
 5605SOL     OW28450   3.143   1.336   6.451  0.2026  0.2811  0.3810
 5605SOL    HW128451   3.149   1.243   6.473  2.2875 -0.2236 -2.4458
 5605SOL    HW228452   3.057   1.354   6.490 -0.7156 -2.2592 -0.4809
 5606SOL     OW28453   4.560   0.406   1.899 -0.3606 -0.3700 -0.3855
 5606SOL    HW128454   4.571   0.321   1.858  1.3659 -0.3859  0.1237
 5606SOL    HW228455   4.641   0.447   1.869 -1.6130  2.0586 -0.5065
 5607SOL     OW28456   0.971   0.121  13.586  0.5495  0.0823 -0.3839
 5607SOL    HW128457   0.988   0.172  13.665 -0.6457 -1.2770  0.7316
 5607SOL    HW228458   0.937   0.037  13.617  0.2237  0.3095 -0.1336
 5608SOL     OW28459   0.686   0.111   4.933  0.1973  0.1665 -0.1545
 5608SOL    HW128460   0.686   0.148   4.845  0.2520  2.3091  0.7571
 5608SOL    HW228461   0.623   0.166   4.980  0.6629 -0.2896  1.0174
 5609SOL     OW28462   3.463   3.866   3.620  0.2583  0.3360 -0.1036
 5609SOL    HW128463   3.480   3.894   3.530 -0.2724  1.4731  0.1525
 5609SOL    HW228464   3.376   3.907   3.623 -0.2228 -0.5605 -1.4768
 5610SOL     OW28465   4.043   1.233   3.539 -0.3980 -0.2383  0.0716
 5610SOL    HW128466   3.963   1.212   3.490  0.4428 -1.9519 -0.5349
 5610SOL    HW228467   4.045   1.329   3.546 -3.0827 -0.2873  1.6116
 5611SOL     OW28468   0.976   1.312   5.300 -0.3625 -0.2356 -0.0296
 5611SOL    HW128469   1.037   1.242   5.324 -0.1770  0.0203  0.2458
 5611SOL    HW228470   1.040   1.382   5.287  0.2865 -0.8213 -0.0098
 5612SOL     OW28471   1.606   3.219   3.825  0.4347 -0.0531 -0.0204
 5612SOL    HW128472   1.604   3.140   3.770  2.3500  0.0647 -0.2694
 5612SOL    HW228473   1.683   3.204   3.880 -0.7583 -0.5571  1.5069
 5613SOL     OW28474   4.044   1.534   8.546  0.5900 -0.0136 -1.0349
 5613SOL    HW128475   4.066   1.614   8.498  1.5900  0.6796  0.5637
 5613SOL    HW228476   3.984   1.492   8.485  0.1307  0.2539 -0.7592
 5614SOL     OW28477   0.202   3.188   3.646  0.5714  0.9337 -0.2837
 5614SOL    HW128478   0.150   3.142   3.712  0.3441  0.2935 -0.9189
 5614SOL    HW228479   0.256   3.235   3.710  1.6530  0.9546 -1.2296
 5615SOL     OW28480   1.818   3.650  14.594  0.5286 -0.5701  0.3375
 5615SOL    HW128481   1.760   3.657  14.670  2.1206  2.5226  1.3144
 5615SOL    HW228482   1.796   3.563  14.562 -1.6518 -0.4452  1.4828
 5616SOL     OW28483   3.356   3.148  12.323 -0.7617  0.6723  0.1594
 5616SOL    HW128484   3.284   3.088  12.302 -0.5669  0.0559  1.1921
 5616SOL    HW228485   3.326   3.234  12.296 -1.2966  0.0801 -1.1326
 5617SOL     OW28486   3.411   1.396   0.010  0.1120 -0.1058  0.7277
 5617SOL    HW128487   3.430   1.372  17.675 -0.5287  1.2470  0.2308
 5617SOL    HW228488   3.322   1.431   0.008 -0.0768 -0.5941  0.7432
 5618SOL     OW28489   3.402   1.398   6.093 -0.1560 -0.1713 -0.6162
 5618SOL    HW128490   3.428   1.412   6.001  2.0535 -0.0672  0.0294
 5618SOL    HW228491   3.313   1.365   6.078 -0.3027 -1.0799  2.3405
 5619SOL     OW28492   4.121   1.381   0.758 -0.5620 -0.0934  0.2131
 5619SOL    HW128493   4.099   1.474   0.746 -0.5679 -0.0701  0.4083
 5619SOL    HW228494   4.207   1.387   0.716 -0.0581 -0.7238  1.1693
 5620SOL     OW28495   0.367   1.486  13.485 -0.1156  0.4604  0.0463
 5620SOL    HW128496   0.280   1.475  13.447  1.0827 -1.1763 -2.2566
 5620SOL    HW228497   0.350   1.565  13.537  0.7666  0.3617  0.4913
 5621SOL     OW28498   1.330   1.032   8.699 -0.3195 -0.4754 -0.6485
 5621SOL    HW128499   1.328   0.960   8.763  2.9662  0.5612  0.6357
 5621SOL    HW228500   1.425   1.021   8.689 -0.1215  0.3084  0.3363
 5622SOL     OW28501   1.749   4.465   5.072 -0.0145 -0.0998 -0.4992
 5622SOL    HW128502   1.770   4.522   4.999 -0.0429 -0.3113 -0.6725
 5622SOL    HW228503   1.834   4.423   5.088  0.0085  0.5834  1.1497
 5623SOL     OW28504   2.936   3.986   2.188  0.1313  0.5123  0.8775
 5623SOL    HW128505   2.893   4.062   2.229 -2.1705 -1.4312  2.0893
 5623SOL    HW228506   2.861   3.929   2.170 -0.4386  1.8622 -1.0251
 5624SOL     OW28507   2.835   1.190   5.728 -0.3789  0.0888  0.0108
 5624SOL    HW128508   2.787   1.124   5.677  0.9667 -0.2380 -0.8356
 5624SOL    HW228509   2.809   1.178   5.820  1.4496  0.1126  0.5362
 5625SOL     OW28510   2.530   2.576   1.506 -0.0283  0.1650 -0.0070
 5625SOL    HW128511   2.574   2.497   1.476  2.4665  2.2167 -1.7968
 5625SOL    HW228512   2.564   2.570   1.595 -1.8589  0.8114  0.7403
 5626SOL     OW28513   4.307   0.338   5.982  0.2703  0.0579  0.3028
 5626SOL    HW128514   4.251   0.407   6.017 -1.1019 -1.0714  0.3419
 5626SOL    HW228515   4.314   0.274   6.054  0.0954  0.2866  0.5210
 5627SOL     OW28516   0.798   3.254   6.993 -0.2498  0.5494  0.1775
 5627SOL    HW128517   0.882   3.264   6.947  0.9138 -0.4882  2.0609
 5627SOL    HW228518   0.765   3.344   6.987  1.0185  1.0378  0.4233
 5628SOL     OW28519   2.415   1.210   1.583 -0.1524  0.0291 -0.0798
 5628SOL    HW128520   2.494   1.208   1.637  1.1072 -0.1452 -1.9158
 5628SOL    HW228521   2.443   1.271   1.515 -1.1562 -0.0077 -0.5279
 5629SOL     OW28522   0.281   0.983   4.789 -0.0840  0.3278 -0.1406
 5629SOL    HW128523   0.239   1.068   4.798 -1.1677 -0.2546  0.2188
 5629SOL    HW228524   0.262   0.941   4.872 -0.4052  1.1310  0.1896
 5630SOL     OW28525   2.350   2.194   5.962  0.8948  0.5602 -0.4178
 5630SOL    HW128526   2.410   2.228   6.029  1.6792  0.2665 -0.9673
 5630SOL    HW228527   2.359   2.098   5.970  1.1030  0.6230  0.1489
 5631SOL     OW28528   2.883   0.368   8.568 -0.5635 -0.1054  0.2505
 5631SOL    HW128529   2.803   0.338   8.612 -0.8180 -0.8510 -0.7199
 5631SOL    HW228530   2.865   0.348   8.476 -2.6391 -0.5338  0.7506
 5632SOL     OW28531   1.264   3.287   1.832 -0.2081 -0.3133  0.2386
 5632SOL    HW128532   1.168   3.296   1.832 -0.3252 -1.6406  0.8055
 5632SOL    HW228533   1.272   3.202   1.789 -0.3594  0.6217 -1.6873
 5633SOL     OW28534   0.244   2.546   2.291  0.1604 -0.4893 -0.6026
 5633SOL    HW128535   0.198   2.629   2.279 -3.5289 -2.4587  0.1369
 5633SOL    HW228536   0.217   2.504   2.210 -1.3863 -2.1114  0.7767
 5634SOL     OW28537   4.711   2.811  15.697 -0.2283 -0.4824  0.2085
 5634SOL    HW128538   4.617   2.828  15.694 -0.5112 -1.8833  1.5142
 5634SOL    HW228539   4.733   2.796  15.605 -0.8461 -0.7144  0.1023
 5635SOL     OW28540   0.449   1.588   8.646 -0.2914  0.4444 -0.2355
 5635SOL    HW128541   0.452   1.658   8.581 -0.1137  0.6353 -0.0202
 5635SOL    HW228542   0.539   1.554   8.638  0.0075  1.4480 -1.1187
 5636SOL     OW28543   2.175   3.364   3.199  0.0252  0.0990  0.4261
 5636SOL    HW128544   2.184   3.448   3.153 -1.6873 -0.3377 -0.6917
 5636SOL    HW228545   2.200   3.302   3.130  0.4300  0.2712  0.4179
 5637SOL     OW28546   2.915   2.147   2.683  0.2008  0.2226 -0.0326
 5637SOL    HW128547   2.871   2.095   2.616 -0.1890 -0.1625  0.5211
 5637SOL    HW228548   2.948   2.076   2.737 -0.1979  0.7426  0.8998
 5638SOL     OW28549   2.797   0.191   2.050 -0.1497  0.0908  0.7509
 5638SOL    HW128550   2.883   0.231   2.035 -0.5323  0.7081  0.2447
 5638SOL    HW228551   2.762   0.198   1.962  1.6821  2.7553  0.2190
 5639SOL     OW28552   2.856   1.619   4.845  0.6896 -0.4708  0.8834
 5639SOL    HW128553   2.815   1.574   4.918 -1.9615  0.2642 -0.1362
 5639SOL    HW228554   2.917   1.675   4.892 -1.5335  1.2873  1.6974
 5640SOL     OW28555   4.004   3.791  16.580  0.2931  0.0937  0.3613
 5640SOL    HW128556   4.012   3.859  16.513 -2.6128 -0.3730 -0.4530
 5640SOL    HW228557   4.096   3.785  16.606 -0.2001  2.0659  2.5562
 5641SOL     OW28558   0.341   1.742   5.041  0.3092 -0.2061  0.6530
 5641SOL    HW128559   0.431   1.708   5.038  1.5002  3.2444 -2.3729
 5641SOL    HW228560   0.293   1.691   4.975  1.9544  1.1180 -1.5920
 5642SOL     OW28561   2.821   0.758  14.600 -0.1548 -0.2246 -0.0030
 5642SOL    HW128562   2.745   0.816  14.610  2.2489  2.7776  0.7038
 5642SOL    HW228563   2.795   0.676  14.642  0.7389 -0.3362  0.3319
 5643SOL     OW28564   1.226   4.631  14.459 -0.0931  0.6667  0.3425
 5643SOL    HW128565   1.199   4.690  14.530 -0.0017  1.5719 -0.3810
 5643SOL    HW228566   1.151   4.574  14.476  0.3646 -0.6136 -2.0022
 5644SOL     OW28567   3.611   1.266   9.972  0.4960  0.2922 -0.2740
 5644SOL    HW128568   3.562   1.266  10.054  2.0899 -2.9423  0.6682
 5644SOL    HW228569   3.535   1.274   9.914 -1.8635  1.1952  2.9589
 5645SOL     OW28570   3.608   2.419   4.951  0.2606 -0.3640  0.0143
 5645SOL    HW128571   3.529   2.368   4.931 -0.1783  0.5777 -0.6400
 5645SOL    HW228572   3.590   2.499   4.903 -3.1522 -0.8519  0.4695
 5646SOL     OW28573   3.733   1.301  14.480  0.7547 -0.2490 -0.6247
 5646SOL    HW128574   3.678   1.367  14.522 -0.1185 -1.3115 -0.0726
 5646SOL    HW228575   3.709   1.318  14.389 -1.0772  0.0679 -0.0785
 5647SOL     OW28576   3.419   3.652   0.274  0.2824 -0.3067 -0.4299
 5647SOL    HW128577   3.338   3.633   0.321  0.2741 -1.2478 -0.8247
 5647SOL    HW228578   3.465   3.711   0.334 -0.5053  0.7301 -0.8463
 5648SOL     OW28579   3.941   0.553  16.757  0.5070 -0.0552 -0.3669
 5648SOL    HW128580   3.997   0.629  16.770 -0.6245  0.2188  2.9031
 5648SOL    HW228581   3.993   0.476  16.782  0.9675  0.2644 -0.3383
 5649SOL     OW28582   3.042   2.659   2.492 -0.0767 -0.1268 -0.8599
 5649SOL    HW128583   2.967   2.676   2.434  0.9256  0.6562 -1.9147
 5649SOL    HW228584   3.046   2.733   2.553 -0.8864  0.2675 -1.2828
 5650SOL     OW28585   1.735   0.333   5.227  0.1792  0.4585 -0.3635
 5650SOL    HW128586   1.751   0.254   5.176 -0.0667 -0.7166  1.3774
 5650SOL    HW228587   1.823   0.359   5.255  0.8119 -0.9809 -1.0337
 5651SOL     OW28588   2.961   0.730   5.628 -0.1508  0.4248 -0.2706
 5651SOL    HW128589   2.910   0.676   5.689  0.3641  0.6286  0.3357
 5651SOL    HW228590   2.983   0.799   5.690 -1.2823 -0.6644  1.3557
 5652SOL     OW28591   1.144   0.974   4.770 -0.0366 -0.9766  0.1104
 5652SOL    HW128592   1.066   0.966   4.715 -2.0120 -1.3097  2.9177
 5652SOL    HW228593   1.138   0.904   4.835 -1.0763  1.5285  2.7197
 5653SOL     OW28594   0.819   0.756   9.073 -0.7310 -0.1385 -0.1708
 5653SOL    HW128595   0.766   0.712   9.140 -0.9951 -2.5578 -2.0147
 5653SOL    HW228596   0.778   0.718   8.996 -0.2500  0.8722 -0.9208
 5654SOL     OW28597   0.389   3.726   8.627 -0.4595 -0.7060  0.4719
 5654SOL    HW128598   0.342   3.804   8.657 -0.7751 -0.3782 -0.8617
 5654SOL    HW228599   0.430   3.747   8.543 -2.1735 -2.3768 -0.7624
 5655SOL     OW28600   3.909   2.280  12.804 -0.7257 -0.0820  0.2330
 5655SOL    HW128601   3.848   2.285  12.731 -1.9999 -0.1552  1.2862
 5655SOL    HW228602   3.922   2.186  12.818 -1.1574 -0.3578 -1.1866
 5656SOL     OW28603   0.365   0.283   7.950 -0.6028 -0.5762 -0.1417
 5656SOL    HW128604   0.411   0.198   7.956 -1.2530 -0.8835  0.4845
 5656SOL    HW228605   0.326   0.285   8.037  1.7508 -1.3345  0.9548
 5657SOL     OW28606   2.693   2.891  12.973 -0.3357 -0.3133 -0.3621
 5657SOL    HW128607   2.699   2.961  12.908  2.3848 -1.1472 -1.0056
 5657SOL    HW228608   2.633   2.836  12.923 -1.3139  0.5211 -0.1076
 5658SOL     OW28609   4.455   3.210   1.714  0.5155  0.1706 -0.2449
 5658SOL    HW128610   4.366   3.224   1.746  0.9730 -2.2208  2.1007
 5658SOL    HW228611   4.443   3.220   1.620  0.3848  1.0710 -0.1332
 5659SOL     OW28612   1.339   2.392  13.616 -0.2853  0.5022  0.2471
 5659SOL    HW128613   1.347   2.487  13.626 -0.0594  0.7445 -2.2167
 5659SOL    HW228614   1.430   2.373  13.593 -0.0973  0.5338  0.9679
 5660SOL     OW28615   3.249   3.832   4.680 -0.0086 -0.3350 -0.4332
 5660SOL    HW128616   3.252   3.922   4.714  0.4137 -0.7951  0.7422
 5660SOL    HW228617   3.178   3.837   4.616 -0.6414 -1.9924  0.1370
 5661SOL     OW28618   1.696   2.838   2.167 -0.1223 -0.4032  0.0139
 5661SOL    HW128619   1.716   2.756   2.212 -0.6792 -0.3868  0.2890
 5661SOL    HW228620   1.662   2.886   2.242  0.0992  0.2574 -0.3039
 5662SOL     OW28621   0.102   4.278   8.670  0.5001  0.1247 -0.1619
 5662SOL    HW128622   0.075   4.283   8.762 -0.1735 -1.5671 -0.2575
 5662SOL    HW228623   0.103   4.372   8.651  0.2798  0.2233  0.3057
 5663SOL     OW28624   0.212   2.063   8.231 -0.0609 -0.4805 -0.4758
 5663SOL    HW128625   0.289   2.089   8.181  0.0608  1.6575  0.7872
 5663SOL    HW228626   0.158   2.021   8.164 -1.5534  0.5154  0.0886
 5664SOL     OW28627   2.109   1.106   5.182 -0.2719  0.3896 -0.2810
 5664SOL    HW128628   2.036   1.126   5.240 -0.1544 -0.2118  0.0774
 5664SOL    HW228629   2.065   1.040   5.129  0.1391 -0.0164 -0.1201
 5665SOL     OW28630   1.119   2.936   4.548  0.2382  0.0503  0.6652
 5665SOL    HW128631   1.155   2.853   4.515  2.1011  2.0361 -2.3528
 5665SOL    HW228632   1.124   2.922   4.642  1.2447 -0.0876  0.5975
 5666SOL     OW28633   0.166   2.588   8.381  0.2651  0.6208 -0.1754
 5666SOL    HW128634   0.154   2.561   8.290 -1.6678  0.2801  0.1830
 5666SOL    HW228635   0.117   2.671   8.380 -1.1390 -0.1964  1.1242
 5667SOL     OW28636   1.814   1.988  11.967 -0.3335  0.3132 -0.4715
 5667SOL    HW128637   1.806   1.893  11.976  1.4977  0.2673  0.5978
 5667SOL    HW228638   1.865   2.008  12.046  0.9746 -0.7063 -1.0668
 5668SOL     OW28639   4.064   1.309  10.683  0.6040  0.3148  0.6169
 5668SOL    HW128640   4.060   1.252  10.606 -0.8027  0.0234  0.9074
 5668SOL    HW228641   3.972   1.301  10.706  0.0623  1.0985 -1.3255
 5669SOL     OW28642   1.496   0.373   4.021  0.0917 -0.3760 -0.3073
 5669SOL    HW128643   1.572   0.346   3.970 -0.1780  1.2852 -1.5920
 5669SOL    HW228644   1.443   0.294   4.030  0.9078 -0.7395  1.3748
 5670SOL     OW28645   0.081   1.462   5.064  0.0850 -0.0529  0.2301
 5670SOL    HW128646   0.145   1.514   5.112  1.2344 -1.2263 -0.0259
 5670SOL    HW228647   0.005   1.478   5.120 -0.9944 -0.4225 -1.1421
 5671SOL     OW28648   3.259   1.052   2.711  0.6898  0.4258  0.5594
 5671SOL    HW128649   3.283   1.136   2.748 -0.0479 -0.1776  2.3886
 5671SOL    HW228650   3.306   0.993   2.770 -0.7325 -1.2756  0.0082
 5672SOL     OW28651   3.477   3.205   0.000  0.8848  0.0881 -0.3682
 5672SOL    HW128652   3.506   3.274   0.060 -1.3073  1.5753 -1.0488
 5672SOL    HW228653   3.396   3.240  17.719  1.9769  2.3195 -0.6494
 5673SOL     OW28654   2.905   3.367  16.556 -0.0123  0.2419 -0.3665
 5673SOL    HW128655   2.938   3.280  16.532  0.3169 -0.3909  2.3735
 5673SOL    HW228656   2.932   3.417  16.479  0.9709 -1.3305 -1.0434
 5674SOL     OW28657   3.222   0.658  16.917 -0.3236 -0.6256  0.4259
 5674SOL    HW128658   3.184   0.585  16.868  0.2476  0.4593 -1.6851
 5674SOL    HW228659   3.213   0.625  17.006 -0.9809  0.0979  0.6325
 5675SOL     OW28660   0.133   0.508   3.281 -0.5638 -0.5060  0.9450
 5675SOL    HW128661   0.038   0.516   3.291 -1.0045 -3.2198 -1.0036
 5675SOL    HW228662   0.140   0.488   3.188  0.6217 -2.3374  1.4321
 5676SOL     OW28663   4.658   4.095   6.152  0.0112 -0.1133 -0.3535
 5676SOL    HW128664   4.599   4.110   6.078 -3.3334  4.0526  3.2384
 5676SOL    HW228665   4.679   4.188   6.158 -1.4076  0.2925 -1.5944
 5677SOL     OW28666   2.289   2.012   5.090  0.5228  0.4554  0.3586
 5677SOL    HW128667   2.290   1.933   5.143  1.7939 -0.6824 -1.3544
 5677SOL    HW228668   2.221   2.071   5.123  0.6371  1.0452 -0.4406
 5678SOL     OW28669   2.590   2.573  15.363  0.0102  0.2538  0.2699
 5678SOL    HW128670   2.504   2.540  15.336  1.4364 -0.9022 -2.8180
 5678SOL    HW228671   2.562   2.665  15.368  1.2593  0.5639  1.6290
 5679SOL     OW28672   0.892   1.193   9.517  0.5546  0.1568 -1.1863
 5679SOL    HW128673   0.875   1.204   9.424 -0.7021 -0.9284 -1.0765
 5679SOL    HW228674   0.983   1.222   9.523  0.6900 -0.3602 -0.7095
 5680SOL     OW28675   3.795   3.759   2.711 -0.3306 -0.2496  0.1376
 5680SOL    HW128676   3.882   3.747   2.672 -0.1364  1.0912  0.1545
 5680SOL    HW228677   3.794   3.853   2.731  2.0127 -0.2926  0.5515
 5681SOL     OW28678   4.260   2.522   2.906 -0.8596  0.1107 -0.2578
 5681SOL    HW128679   4.312   2.538   2.827 -0.7495  0.5775 -0.0887
 5681SOL    HW228680   4.310   2.564   2.976  1.9102 -0.9794 -1.5715
 5682SOL     OW28681   2.937   3.680   7.575 -0.2281  0.0529  0.0432
 5682SOL    HW128682   2.880   3.653   7.503 -0.9923 -0.9277  1.0252
 5682SOL    HW228683   2.893   3.745   7.631  1.2713  0.1483  1.0974
 5683SOL     OW28684   1.884   1.451   8.502  0.2362 -0.2620 -0.1457
 5683SOL    HW128685   1.823   1.377   8.500 -0.7456  0.5060  1.2939
 5683SOL    HW228686   1.829   1.502   8.443 -0.3490 -0.2476  0.4056
 5684SOL     OW28687   3.331   3.354   4.198  0.6749 -0.4756  1.2664
 5684SOL    HW128688   3.385   3.342   4.120 -0.6232 -1.5949  0.5547
 5684SOL    HW228689   3.281   3.273   4.200  0.8462 -0.5891  0.8927
 5685SOL     OW28690   2.543   1.721  15.989  0.5920 -0.1879 -0.0574
 5685SOL    HW128691   2.592   1.673  15.922 -0.4732 -1.5886  0.1520
 5685SOL    HW228692   2.575   1.681  16.070 -0.3715 -3.8251 -1.4615
 5686SOL     OW28693   2.811   3.630   2.725 -0.0241  0.4664  0.3055
 5686SOL    HW128694   2.847   3.557   2.776 -0.5193 -0.9275 -1.3093
 5686SOL    HW228695   2.892   3.673   2.699 -0.0590 -0.5653 -1.5039
 5687SOL     OW28696   0.470   4.138   7.980 -0.4824  0.3222  0.6618
 5687SOL    HW128697   0.399   4.124   7.919 -0.4676 -0.1360  0.7530
 5687SOL    HW228698   0.534   4.158   7.911 -0.4876 -0.3685  0.4607
 5688SOL     OW28699   3.958   1.815  13.136 -0.1247 -1.1135 -0.0683
 5688SOL    HW128700   4.021   1.884  13.158 -1.4703  0.7117 -1.9477
 5688SOL    HW228701   3.975   1.750  13.204  1.8255 -0.8724 -0.3312
 5689SOL     OW28702   4.197   2.548   3.247 -0.2246 -0.2932 -0.0066
 5689SOL    HW128703   4.253   2.573   3.174  0.9588  1.0031  1.3299
 5689SOL    HW228704   4.177   2.628   3.296 -0.1078 -0.4938  0.3672
 5690SOL     OW28705   3.546   0.770   9.857  0.3524  0.2142  0.5066
 5690SOL    HW128706   3.586   0.828   9.923  0.9708  0.5833 -0.1963
 5690SOL    HW228707   3.619   0.715   9.829  1.8533  2.3692  0.2112
 5691SOL     OW28708   1.731   0.280   6.030 -0.2132 -0.5651  0.0863
 5691SOL    HW128709   1.781   0.301   5.951 -1.4296 -0.1794 -0.5890
 5691SOL    HW228710   1.796   0.274   6.100 -0.3179  1.0088  0.3199
 5692SOL     OW28711   3.622   1.479   2.011 -0.0573  0.5376 -0.6734
 5692SOL    HW128712   3.622   1.467   1.916  1.7194 -1.4523 -0.4268
 5692SOL    HW228713   3.654   1.393   2.039 -1.1339 -0.1294 -1.4484
 5693SOL     OW28714   0.300   1.244   5.131 -0.0583  0.4265 -0.4013
 5693SOL    HW128715   0.323   1.178   5.066  0.0311  2.1629 -2.1629
 5693SOL    HW228716   0.235   1.290   5.077 -0.7825  0.1034  0.2011
 5694SOL     OW28717   2.275   2.713  16.208  0.1569 -0.1390 -0.3987
 5694SOL    HW128718   2.283   2.739  16.300  0.7631  1.3978 -0.8859
 5694SOL    HW228719   2.315   2.780  16.153 -2.5155  1.4115 -0.4184
 5695SOL     OW28720   2.589   0.047  14.484  0.6379  0.1126  0.4776
 5695SOL    HW128721   2.681   0.033  14.461  0.5004 -1.5288  0.9300
 5695SOL    HW228722   2.538   4.730  14.427 -1.1939 -0.7624  2.9998
 5696SOL     OW28723   0.397   1.566  17.233  0.5432 -0.2748 -0.8392
 5696SOL    HW128724   0.468   1.566  17.169  3.3469 -0.1410  2.2801
 5696SOL    HW228725   0.441   1.512  17.298 -1.0040 -0.8176 -0.2389
 5697SOL     OW28726   1.871   0.959   3.855  0.1111  0.3783  0.3392
 5697SOL    HW128727   1.812   0.964   3.930  0.2016  0.7473  0.3837
 5697SOL    HW228728   1.806   0.941   3.787  0.2033  1.1257  0.0549
 5698SOL     OW28729   4.739   4.444   1.183 -0.3474  0.0316  0.1024
 5698SOL    HW128730   4.674   4.452   1.253 -1.8720  4.1561 -1.7937
 5698SOL    HW228731   4.704   4.369   1.134 -0.0969  1.3979 -2.1850
 5699SOL     OW28732   1.074   4.031   6.421 -0.3645 -0.0720 -0.2814
 5699SOL    HW128733   1.130   3.956   6.402  1.7211  1.2071  0.7702
 5699SOL    HW228734   1.030   4.045   6.337  0.4429 -0.4303 -0.7559
 5700SOL     OW28735   1.071   2.644   7.128 -0.1743 -0.5508  0.1539
 5700SOL    HW128736   1.060   2.552   7.101  0.4511 -1.0368  1.5644
 5700SOL    HW228737   1.023   2.697   7.065 -0.7833 -3.0052 -1.4576
 5701SOL     OW28738   0.018   4.224   7.064  0.0992  0.8949  0.1974
 5701SOL    HW128739   4.683   4.164   7.064  0.3743  0.5445 -1.7654
 5701SOL    HW228740   0.036   4.221   6.970 -1.3886 -2.3651  0.0157
 5702SOL     OW28741   3.205   2.230   4.788  0.2871 -0.4834  0.6981
 5702SOL    HW128742   3.245   2.316   4.771 -0.1588 -0.1231  1.5020
 5702SOL    HW228743   3.115   2.242   4.757  1.1281  1.3624 -1.0678
 5703SOL     OW28744   0.886   4.728   2.919 -0.8145 -0.4879 -0.1472
 5703SOL    HW128745   0.877   4.676   2.999  0.1243 -0.4277 -0.0018
 5703SOL    HW228746   0.798   0.019   2.896  0.2835  1.8977 -1.1795
 5704SOL     OW28747   2.340   0.413   0.214 -0.3122  0.0595 -0.8814
 5704SOL    HW128748   2.382   0.338   0.258 -0.4115 -1.2115 -2.9390
 5704SOL    HW228749   2.313   0.365   0.136 -2.1245  1.1236 -0.8989
 5705SOL     OW28750   1.821   1.529  11.529 -0.6193 -0.0873  0.1736
 5705SOL    HW128751   1.853   1.619  11.530  1.1088 -0.6841 -1.3805
 5705SOL    HW228752   1.731   1.552  11.552  0.0550  1.4383  1.3091
 5706SOL     OW28753   1.362   2.120  10.603  0.3007 -0.1984  0.0186
 5706SOL    HW128754   1.410   2.039  10.583  1.1929 -0.2613  2.3648
 5706SOL    HW228755   1.283   2.086  10.645  1.3998 -1.8581  0.7717
 5707SOL     OW28756   1.116   0.187   3.296  0.3062 -0.4851 -0.1877
 5707SOL    HW128757   1.169   0.206   3.219  2.4853 -0.3325  1.3590
 5707SOL    HW228758   1.162   0.128   3.355  1.6751  0.2360 -0.5313
 5708SOL     OW28759   3.896   3.824   3.064 -0.6093  0.1521 -0.0070
 5708SOL    HW128760   3.932   3.829   3.152 -0.8916 -0.5302  0.1470
 5708SOL    HW228761   3.827   3.891   3.064 -0.4762  0.2863  0.2069
 5709SOL     OW28762   3.819   4.191   7.479 -0.0666  0.9522 -0.0652
 5709SOL    HW128763   3.913   4.207   7.474 -0.1115  1.8522  1.9320
 5709SOL    HW228764   3.793   4.192   7.572  0.8211 -0.2931  0.1985
 5710SOL     OW28765   4.185   3.765   5.170 -0.1215  0.4669  0.0966
 5710SOL    HW128766   4.227   3.731   5.091  1.4314  2.3072  0.1613
 5710SOL    HW228767   4.161   3.678   5.202 -0.3943  0.9862  1.3123
 5711SOL     OW28768   2.702   2.354   7.660  0.7722 -0.4020  0.3642
 5711SOL    HW128769   2.729   2.383   7.573 -1.1051  1.4282  0.4051
 5711SOL    HW228770   2.735   2.425   7.715 -2.2945  1.1673  0.1942
 5712SOL     OW28771   0.784   0.019   6.093  0.3136  0.0814 -0.7158
 5712SOL    HW128772   0.774   0.044   6.184  1.2465 -0.7475 -0.3928
 5712SOL    HW228773   0.878   0.030   6.083  0.2873 -0.6376 -1.7506
 5713SOL     OW28774   1.292   0.703   0.258  0.2945 -0.4030  0.1231
 5713SOL    HW128775   1.312   0.789   0.221  0.1189 -0.2395  0.4101
 5713SOL    HW228776   1.378   0.662   0.257  0.8636  0.8415 -1.6292
 5714SOL     OW28777   1.187   3.435   0.358 -0.1362  0.2921  0.0178
 5714SOL    HW128778   1.137   3.509   0.392 -1.5074 -1.1951  1.2160
 5714SOL    HW228779   1.213   3.463   0.270  0.2725  2.9429  0.9846
 5715SOL     OW28780   1.848   4.438   5.716 -0.0322 -0.3240 -0.4530
 5715SOL    HW128781   1.784   4.508   5.704  2.5768  1.8682 -1.4819
 5715SOL    HW228782   1.911   4.480   5.774 -1.5653  0.8475  0.3770
 5716SOL     OW28783   1.047   3.366   7.455 -0.5713 -0.1588  0.4265
 5716SOL    HW128784   1.068   3.368   7.549 -1.5822  0.8349  0.6272
 5716SOL    HW228785   1.092   3.447   7.433 -1.2532  0.4705  1.3200
 5717SOL     OW28786   1.425   3.182   7.321  0.0870 -0.4418 -0.2473
 5717SOL    HW128787   1.484   3.213   7.253  1.2242 -0.9911  0.4831
 5717SOL    HW228788   1.416   3.262   7.373  2.0391  0.5646 -1.4745
 5718SOL     OW28789   2.801   0.834   7.069 -0.1513 -0.1992 -0.1717
 5718SOL    HW128790   2.810   0.743   7.043 -0.1590 -0.1741 -0.2638
 5718SOL    HW228791   2.790   0.819   7.163 -1.8690  1.0614 -0.1703
 5719SOL     OW28792   1.572   3.281  17.713 -0.1440  0.7302  0.0888
 5719SOL    HW128793   1.558   3.257   0.049  2.3357 -0.1123  0.2499
 5719SOL    HW228794   1.587   3.375  17.720  0.7587  0.5306  0.8554
 5720SOL     OW28795   1.630   2.105  12.723  0.1255  0.3274 -0.2245
 5720SOL    HW128796   1.705   2.059  12.685 -0.4556  0.3851 -1.4360
 5720SOL    HW228797   1.553   2.055  12.697  0.8450 -1.6440  1.4814
 5721SOL     OW28798   3.077   0.659   8.772  0.3346 -0.3068 -0.2861
 5721SOL    HW128799   3.104   0.708   8.849  3.3696 -3.0537  0.4188
 5721SOL    HW228800   3.065   0.726   8.705 -1.6925  0.9641  1.3249
 5722SOL     OW28801   2.404   1.567   6.783  0.0343  0.2791  0.3125
 5722SOL    HW128802   2.441   1.604   6.703 -0.8979  1.0200  0.2265
 5722SOL    HW228803   2.333   1.511   6.752  0.9249 -1.3873  1.2178
 5723SOL     OW28804   3.297   3.327   4.564  0.1142 -0.2525  0.4909
 5723SOL    HW128805   3.281   3.307   4.472 -1.8487  2.5726  0.2011
 5723SOL    HW228806   3.217   3.336   4.616  0.3590  1.5193  0.5769
 5724SOL     OW28807   0.667   1.515   7.353  0.4899  0.2127 -0.5700
 5724SOL    HW128808   0.722   1.516   7.432 -0.9640  1.7793  0.4231
 5724SOL    HW228809   0.703   1.444   7.300 -1.0651 -1.3910  0.5094
 5725SOL     OW28810   2.919   0.437  10.393 -0.4916 -0.5688 -0.2481
 5725SOL    HW128811   2.913   0.341  10.386 -1.2916 -0.7885  3.2517
 5725SOL    HW228812   2.980   0.444  10.466  0.5529  0.0190 -1.1685
 5726SOL     OW28813   3.049   0.801   7.716 -0.0679  0.6142 -0.0750
 5726SOL    HW128814   3.104   0.809   7.794  2.4146  2.3209 -2.0185
 5726SOL    HW228815   3.046   0.888   7.677  1.0793  0.3869 -0.6529
 5727SOL     OW28816   1.170   3.343   2.399 -0.2694 -0.7065  0.1361
 5727SOL    HW128817   1.081   3.357   2.365  0.1263  1.2462 -0.0860
 5727SOL    HW228818   1.193   3.256   2.365  0.3413 -0.9943  1.3002
 5728SOL     OW28819   1.594   0.881   2.621 -0.5056  0.8040  0.2897
 5728SOL    HW128820   1.593   0.789   2.594 -1.9539  0.0559  2.8864
 5728SOL    HW228821   1.582   0.870   2.715 -4.0928 -0.2116 -0.2984
 5729SOL     OW28822   4.511   1.248   9.273  0.4377 -0.1343 -0.2136
 5729SOL    HW128823   4.439   1.190   9.295 -0.7927  1.0211 -1.2205
 5729SOL    HW228824   4.585   1.187   9.272  1.4873  1.1390 -0.0804
 5730SOL     OW28825   3.626   1.529   0.486  0.4936 -0.0618  0.3032
 5730SOL    HW128826   3.547   1.565   0.527 -0.2382 -4.0030  2.3506
 5730SOL    HW228827   3.606   1.435   0.487  0.0383  0.0131 -3.2714
 5731SOL     OW28828   1.053   3.040  13.211 -0.1613 -0.1756 -0.2123
 5731SOL    HW128829   1.130   3.070  13.162 -0.1722 -0.6460 -0.5172
 5731SOL    HW228830   0.984   3.106  13.200 -0.5795  0.1594  4.2858
 5732SOL     OW28831   3.556   1.873  13.666  0.3750 -0.5256 -0.0277
 5732SOL    HW128832   3.574   1.955  13.711 -0.1793  0.8783 -2.3857
 5732SOL    HW228833   3.600   1.810  13.724 -0.0134 -0.1666  0.6562
 5733SOL     OW28834   2.278   0.572   3.541 -0.1068 -0.1694 -0.1837
 5733SOL    HW128835   2.339   0.538   3.606 -0.5193 -0.0555  0.2646
 5733SOL    HW228836   2.319   0.537   3.462 -0.3321 -0.2994 -0.2442
 5734SOL     OW28837   4.112   0.367   3.423 -0.0997 -0.3169 -0.4625
 5734SOL    HW128838   4.176   0.431   3.452  1.0479 -0.9954 -1.5112
 5734SOL    HW228839   4.042   0.393   3.483 -0.8581 -0.8702 -1.1089
 5735SOL     OW28840   4.303   0.300   8.481 -0.5289  0.1262 -0.5175
 5735SOL    HW128841   4.304   0.215   8.525 -2.6208  0.9043  1.0704
 5735SOL    HW228842   4.395   0.325   8.482  0.0307 -2.0137  1.1181
 5736SOL     OW28843   1.870   3.380   3.103 -0.4856 -0.0107 -0.2475
 5736SOL    HW128844   1.906   3.418   3.023 -1.8820  0.9461 -0.4237
 5736SOL    HW228845   1.875   3.460   3.156 -3.7121  0.2636 -0.3333
 5737SOL     OW28846   0.540   1.530   6.250 -0.1133  0.0792  0.0247
 5737SOL    HW128847   0.553   1.601   6.313  1.6422 -1.2297  1.1250
 5737SOL    HW228848   0.518   1.452   6.300  1.5547  0.1195  0.8297
 5738SOL     OW28849   0.103   3.354   4.148 -0.5836  0.0710 -0.3074
 5738SOL    HW128850   0.195   3.335   4.128 -0.3431  0.9940 -0.0982
 5738SOL    HW228851   0.066   3.347   4.061  0.7898 -1.5983 -0.7671
 5739SOL     OW28852   3.599   0.660   6.537 -0.7868  0.0038 -0.0036
 5739SOL    HW128853   3.636   0.604   6.606 -0.3991 -1.9009 -1.7391
 5739SOL    HW228854   3.506   0.640   6.551 -0.2481 -1.6787  1.2314
 5740SOL     OW28855   0.160   0.776   2.944  0.6223 -0.1700  0.0242
 5740SOL    HW128856   0.090   0.811   2.998 -1.1717 -2.0873 -1.0730
 5740SOL    HW228857   0.235   0.804   2.995  0.1124 -1.0806  1.2634
 5741SOL     OW28858   2.904   4.661   8.747 -0.0509 -0.1739  0.9379
 5741SOL    HW128859   2.955   4.714   8.809 -0.8222  1.4915  0.1241
 5741SOL    HW228860   2.816   4.674   8.783 -0.8483  0.2218 -1.1691
 5742SOL     OW28861   0.659   3.129   2.305  0.1395  0.6531  0.2601
 5742SOL    HW128862   0.656   3.153   2.212 -1.0306 -1.6430 -0.2991
 5742SOL    HW228863   0.573   3.094   2.327  0.8401 -1.5462 -0.5820
 5743SOL     OW28864   0.415   4.248   3.524 -0.1610 -0.4509 -0.2139
 5743SOL    HW128865   0.381   4.213   3.441  0.5685 -0.7070 -0.4050
 5743SOL    HW228866   0.361   4.203   3.589 -1.7170 -0.5514 -1.5736
 5744SOL     OW28867   1.149   0.370   2.867 -0.0668 -0.1501  1.0021
 5744SOL    HW128868   1.120   0.453   2.829 -1.1496 -1.4343 -0.9493
 5744SOL    HW228869   1.083   0.365   2.935 -0.0600 -1.2607  0.9307
 5745SOL     OW28870   3.003   0.095  10.452  0.1134  0.3218  0.2896
 5745SOL    HW128871   3.098   0.107  10.460  0.3284 -0.1460 -1.5651
 5745SOL    HW228872   2.989   0.035  10.525  0.3538  0.9111  0.8213
 5746SOL     OW28873   0.535   0.059  12.220  0.2103  0.1834 -0.3839
 5746SOL    HW128874   0.480   0.124  12.175  1.7695  3.1624  2.0113
 5746SOL    HW228875   0.525   4.716  12.173 -0.7239  0.1099 -0.0656
 5747SOL     OW28876   1.868   0.963   3.165  0.4664  0.1373 -0.3532
 5747SOL    HW128877   1.892   0.962   3.073  1.2922  1.6825 -0.1693
 5747SOL    HW228878   1.880   1.055   3.188  1.6963 -0.3066  0.7716
 5748SOL     OW28879   3.130   1.143   7.685  0.3468  0.3851  0.2067
 5748SOL    HW128880   3.212   1.187   7.665 -0.1887  0.5304 -1.6453
 5748SOL    HW228881   3.124   1.173   7.776  2.4753  1.3292  0.0297
 5749SOL     OW28882   1.923   4.123   4.556 -0.5117 -0.4804  0.7140
 5749SOL    HW128883   1.848   4.113   4.498  0.3173 -0.5146 -0.3684
 5749SOL    HW228884   1.880   4.097   4.637 -0.5069 -2.3272  0.1235
 5750SOL     OW28885   4.094   1.165   2.604  0.0049  0.3103  0.4165
 5750SOL    HW128886   4.038   1.204   2.537  0.3457  1.6631  0.9028
 5750SOL    HW228887   4.043   1.088   2.628  0.4704 -0.0506  0.2573
 5751SOL     OW28888   2.022   4.085   4.113  0.0291 -0.3975  0.2203
 5751SOL    HW128889   2.106   4.041   4.103  0.7507  0.3839  2.8562
 5751SOL    HW228890   2.025   4.154   4.047  0.7765 -1.3606 -0.7551
 5752SOL     OW28891   3.767   0.416   2.163 -0.4180 -0.3940 -0.4555
 5752SOL    HW128892   3.861   0.431   2.153 -0.2734 -0.3547  0.9506
 5752SOL    HW228893   3.738   0.374   2.082 -1.0356  0.6802 -0.7905
 5753SOL     OW28894   1.355   0.481  11.374  0.2145 -0.7454  0.1816
 5753SOL    HW128895   1.435   0.529  11.396  0.4056 -1.4237  0.9506
 5753SOL    HW228896   1.308   0.545  11.320 -0.3839 -0.2836  1.2353
 5754SOL     OW28897   2.268   1.950   7.692 -0.2012 -0.0456  0.5443
 5754SOL    HW128898   2.317   1.959   7.774 -0.9529  0.5043  0.9310
 5754SOL    HW228899   2.239   2.040   7.678  1.2429  0.2917 -0.2311
 5755SOL     OW28900   0.389   0.064   5.517 -0.2889 -0.0870  0.5418
 5755SOL    HW128901   0.385   4.720   5.470 -0.5258 -0.2644  0.8782
 5755SOL    HW228902   0.305   0.065   5.563 -1.9555 -0.9508 -2.4945
 5756SOL     OW28903   3.802   1.470   5.657 -0.2118  0.2425 -0.0587
 5756SOL    HW128904   3.776   1.467   5.749  0.4929 -1.9933  0.0829
 5756SOL    HW228905   3.846   1.386   5.645  2.3435  1.8287 -1.7342
 5757SOL     OW28906   2.620   2.921   3.179 -0.1148  0.3781  0.2014
 5757SOL    HW128907   2.706   2.935   3.139 -0.8169  1.5598 -0.9134
 5757SOL    HW228908   2.611   2.827   3.165 -1.2242  1.2150 -5.0321
 5758SOL     OW28909   0.167   4.678   7.781  0.1533  0.3891  0.7980
 5758SOL    HW128910   0.227   4.645   7.848  0.7589  1.1318  0.6215
 5758SOL    HW228911   0.135   4.592   7.755  0.3089  0.8562 -0.9009
 5759SOL     OW28912   1.207   0.788  13.631  0.4891 -0.4348  0.0969
 5759SOL    HW128913   1.127   0.769  13.680  0.0253  1.2903  0.0319
 5759SOL    HW228914   1.177   0.808  13.542  2.4155 -0.9393 -0.6653
 5760SOL     OW28915   3.475   0.495  15.401 -0.1674 -0.4117 -0.7189
 5760SOL    HW128916   3.558   0.462  15.436 -0.7584  0.2009  1.2574
 5760SOL    HW228917   3.411   0.484  15.472 -0.5861  0.5068 -0.9575
 5761SOL     OW28918   4.460   3.337   4.571 -0.2542  0.0003 -0.1842
 5761SOL    HW128919   4.547   3.334   4.532  0.7048  0.7864  1.9279
 5761SOL    HW228920   4.432   3.426   4.552  0.4579 -0.3764 -2.9982
 5762SOL     OW28921   2.619   4.686   4.249 -0.7180 -0.3900  0.1484
 5762SOL    HW128922   2.670   0.024   4.227 -0.8668 -0.5957 -0.9477
 5762SOL    HW228923   2.571   4.685   4.166 -1.2504 -0.4138  0.4631
 5763SOL     OW28924   0.389   3.684   5.666 -0.3614 -0.3480  0.2524
 5763SOL    HW128925   0.300   3.698   5.698 -1.8256 -2.0259 -3.0505
 5763SOL    HW228926   0.422   3.648   5.748 -0.6151  1.2716  1.0730
 5764SOL     OW28927   0.454   3.187   1.190  0.6011 -0.9619 -0.7012
 5764SOL    HW128928   0.384   3.122   1.193  2.4283 -2.7931  1.8108
 5764SOL    HW228929   0.429   3.226   1.107  1.2781  1.2184  0.1269
 5765SOL     OW28930   0.976   4.396  16.177 -0.4231 -0.2588  0.8455
 5765SOL    HW128931   0.924   4.411  16.097  1.5861  0.6600 -0.3030
 5765SOL    HW228932   0.928   4.455  16.235 -1.5481 -0.3088 -0.0303
 5766SOL     OW28933   2.097   1.738   9.427  0.1296 -0.3139  0.0305
 5766SOL    HW128934   2.077   1.822   9.466  1.2783 -0.5432  1.0985
 5766SOL    HW228935   2.152   1.763   9.353  0.7367  1.0965  0.9736
 5767SOL     OW28936   4.524   2.054  17.654 -0.6207  0.2815 -0.9385
 5767SOL    HW128937   4.492   1.979  17.603 -1.9522 -1.0023  1.7774
 5767SOL    HW228938   4.496   2.119  17.589 -0.7048  1.3126  0.1464
 5768SOL     OW28939   1.256   1.391   5.536 -0.6326  0.2786  0.3725
 5768SOL    HW128940   1.346   1.405   5.507 -1.3195 -1.0086 -2.3926
 5768SOL    HW228941   1.253   1.296   5.543  0.0911  0.3270  1.3660
 5769SOL     OW28942   2.251   4.550   5.953 -0.2223  0.2501 -0.2595
 5769SOL    HW128943   2.229   4.510   5.869 -2.4690  0.6922  0.1120
 5769SOL    HW228944   2.252   4.467   5.999  0.0499 -1.1664 -2.8230
 5770SOL     OW28945   0.872   1.031   7.699  0.7127  0.9168  0.1144
 5770SOL    HW128946   0.920   0.990   7.628  0.1669  0.3644  0.0636
 5770SOL    HW228947   0.939   1.097   7.718  0.8664  1.1080 -1.0899
 5771SOL     OW28948   2.344   3.782   2.555 -0.5126  0.1006  0.7031
 5771SOL    HW128949   2.295   3.768   2.474  0.2532  2.7071 -0.2237
 5771SOL    HW228950   2.414   3.836   2.519 -1.5859  0.2817 -1.0897
 5772SOL     OW28951   4.149   0.601  15.110  0.1467  0.7058 -0.2133
 5772SOL    HW128952   4.080   0.544  15.145 -1.4878  3.1296  0.4503
 5772SOL    HW228953   4.205   0.543  15.059 -1.1083  0.1802 -0.9940
 5773SOL     OW28954   2.274   0.811   0.786 -0.1252  0.0460  0.5101
 5773SOL    HW128955   2.282   0.761   0.704  0.8573  0.4838  0.3488
 5773SOL    HW228956   2.178   0.814   0.795  0.0764 -2.3904  3.4192
 5774SOL     OW28957   2.248   1.864   2.219  0.1192  0.3813 -0.0957
 5774SOL    HW128958   2.281   1.782   2.183  0.1723 -0.1484  1.1728
 5774SOL    HW228959   2.238   1.834   2.309 -0.7371 -0.3005 -0.4150
 5775SOL     OW28960   4.442   2.822  15.732  0.2186  0.9049  0.4155
 5775SOL    HW128961   4.401   2.797  15.650 -0.5431  1.0896  0.7425
 5775SOL    HW228962   4.362   2.843  15.781 -2.7296 -1.6971 -3.3936
 5776SOL     OW28963   0.198   3.900   4.020 -0.4496  0.0330 -0.2667
 5776SOL    HW128964   0.228   3.888   3.930 -0.6300  0.3872 -0.3723
 5776SOL    HW228965   0.182   3.808   4.042  1.0182  0.0741  1.0805
 5777SOL     OW28966   3.624   0.629   4.770  0.1451 -0.3509  0.0008
 5777SOL    HW128967   3.609   0.718   4.737 -0.6243 -0.5781 -0.2643
 5777SOL    HW228968   3.613   0.636   4.865 -0.7216  2.9182 -0.3148
 5778SOL     OW28969   1.813   0.271   4.330 -0.1799  0.1786 -0.5147
 5778SOL    HW128970   1.871   0.198   4.307 -4.6057 -2.7742 -2.2882
 5778SOL    HW228971   1.845   0.330   4.261 -0.2605 -0.6049 -1.2253
 5779SOL     OW28972   1.254   2.766   1.159 -0.2956 -0.0602 -0.4731
 5779SOL    HW128973   1.224   2.715   1.234  1.4357  0.2910  0.4755
 5779SOL    HW228974   1.269   2.849   1.204  0.1744 -1.0027  1.1282
 5780SOL     OW28975   1.383   3.169   6.003 -0.1871  0.4714  0.1811
 5780SOL    HW128976   1.466   3.130   6.031 -0.5508  0.2000  0.8783
 5780SOL    HW228977   1.331   3.088   6.002 -0.3890  0.6092 -0.7395
 5781SOL     OW28978   0.643   0.878   3.408  0.2437  0.0556  0.2218
 5781SOL    HW128979   0.666   0.886   3.500  0.0020 -0.5003  0.3291
 5781SOL    HW228980   0.716   0.931   3.374 -0.7836  1.0049 -0.5381
 5782SOL     OW28981   1.144   2.530   5.716 -0.5226 -1.0302  0.4339
 5782SOL    HW128982   1.207   2.573   5.775  1.8312 -1.7881 -1.5267
 5782SOL    HW228983   1.163   2.578   5.636  1.0110 -0.4751  1.1384
 5783SOL     OW28984   1.669   1.659   6.151  0.0050  0.3743  0.1544
 5783SOL    HW128985   1.591   1.657   6.096 -0.4771 -2.7643  0.9304
 5783SOL    HW228986   1.644   1.716   6.224  0.2638  1.9726 -1.0130
 5784SOL     OW28987   4.538   1.257   5.174  0.0221  0.0619 -0.3990
 5784SOL    HW128988   4.483   1.239   5.251 -0.6492 -1.0976 -1.1493
 5784SOL    HW228989   4.568   1.344   5.199  0.2039  0.5008 -2.1861
 5785SOL     OW28990   0.179   1.612   5.260 -0.2493 -0.0475 -0.5562
 5785SOL    HW128991   0.241   1.662   5.207 -0.1960 -2.6941 -3.0051
 5785SOL    HW228992   0.168   1.662   5.341  0.8629  3.2009 -2.4387
 5786SOL     OW28993   1.316   0.788   2.174 -0.3398  0.3726 -0.6128
 5786SOL    HW128994   1.326   0.694   2.157  3.2554  0.2008  2.5258
 5786SOL    HW228995   1.407   0.817   2.165 -0.1909 -0.0230 -0.3920
 5787SOL     OW28996   0.429   3.095   6.328 -0.4986 -0.0543  0.4892
 5787SOL    HW128997   0.408   3.179   6.286 -0.4918 -1.2787 -1.9724
 5787SOL    HW228998   0.479   3.127   6.402 -0.0667 -2.2105  1.1005
 5788SOL     OW28999   1.671   4.715   6.054 -0.3895  0.0988 -1.2109
 5788SOL    HW129000   1.756   4.689   6.019 -0.2676  0.9678 -1.5678
 5788SOL    HW229001   1.671   0.070   6.038  0.0015  0.1100 -1.1363
 5789SOL     OW29002   3.390   1.041  10.415  0.2030  0.5335  0.2128
 5789SOL    HW129003   3.333   1.079  10.482 -1.3575  0.0825 -0.8304
 5789SOL    HW229004   3.411   0.954  10.448  0.9078  1.2238  1.5933
 5790SOL     OW29005   2.473   1.643   8.125  0.0122 -0.7149  0.1925
 5790SOL    HW129006   2.408   1.709   8.150 -0.9813 -0.9402 -1.7649
 5790SOL    HW229007   2.511   1.672   8.042  2.3132 -2.0508  0.8008
 5791SOL     OW29008   1.270   4.714  11.676  0.3737  0.2401 -0.0517
 5791SOL    HW129009   1.249   0.064  11.702 -0.2121 -0.0942  0.6270
 5791SOL    HW229010   1.310   4.690  11.760  0.7816 -0.4789 -0.4514
 5792SOL     OW29011   2.387   4.562   7.216 -0.3236  0.2810  0.1057
 5792SOL    HW129012   2.412   4.576   7.125  0.2971 -1.9007 -0.0599
 5792SOL    HW229013   2.300   4.601   7.220 -0.2686  0.4971 -0.9851
 5793SOL     OW29014   0.996   0.878   8.685 -0.6942  0.4227  0.2747
 5793SOL    HW129015   1.059   0.875   8.757 -1.5924  0.0353  1.0469
 5793SOL    HW229016   0.957   0.791   8.691 -1.5994  0.8198  0.0998
 5794SOL     OW29017   0.968   1.237   9.925 -0.3921 -0.2542 -0.3883
 5794SOL    HW129018   0.916   1.185   9.863  0.5612  0.1967 -1.5543
 5794SOL    HW229019   0.997   1.313   9.874 -0.0387  1.1117  1.8606
 5795SOL     OW29020   3.222   2.604  12.226 -0.0894 -0.3165 -0.1741
 5795SOL    HW129021   3.188   2.651  12.150  1.5995  0.7084 -0.3007
 5795SOL    HW229022   3.155   2.618  12.293  0.1645  1.9286 -0.4118
 5796SOL     OW29023   1.422   3.574   1.554  0.9418 -0.3577 -0.2694
 5796SOL    HW129024   1.350   3.632   1.577  1.5734  0.8201 -1.2768
 5796SOL    HW229025   1.385   3.507   1.496 -1.0828 -0.0765  0.6785
 5797SOL     OW29026   3.819   2.366  11.940  0.5592 -0.0390 -0.0120
 5797SOL    HW129027   3.852   2.445  11.983 -0.2446 -0.0700  0.6528
 5797SOL    HW229028   3.727   2.395  11.939  0.9942  1.3711  0.9511
 5798SOL     OW29029   3.212   1.331  17.397  0.0650 -0.3621  0.1416
 5798SOL    HW129030   3.273   1.288  17.457 -0.7730  1.0277  1.9962
 5798SOL    HW229031   3.257   1.414  17.389  0.3639 -0.6842 -1.4647
 5799SOL     OW29032   1.094   4.019  15.503 -0.1686  0.2426  0.3674
 5799SOL    HW129033   1.014   3.966  15.499 -0.1978  0.2805  0.4569
 5799SOL    HW229034   1.141   3.964  15.566 -0.6845 -1.7239 -0.9526
 5800SOL     OW29035   0.393   0.257  12.096 -0.8235 -0.4446 -0.8357
 5800SOL    HW129036   0.314   0.275  12.147 -0.7623 -0.5554 -0.7011
 5800SOL    HW229037   0.389   0.330  12.034  0.8836  1.0184  0.7686
 5801SOL     OW29038   0.835   0.419   6.192 -0.7322 -0.7137  0.2515
 5801SOL    HW129039   0.778   0.418   6.268  0.3243  2.8425  1.0832
 5801SOL    HW229040   0.878   0.502   6.210  2.0400 -1.9033 -0.7758
 5802SOL     OW29041   4.534   0.708  10.435  0.3509 -0.2643 -0.0539
 5802SOL    HW129042   4.552   0.673  10.348 -2.6174  1.2434 -1.2699
 5802SOL    HW229043   4.570   0.797  10.435  1.7294 -0.8196 -0.4125
 5803SOL     OW29044   4.536   0.118  11.235  0.2071 -0.0575 -0.4266
 5803SOL    HW129045   4.519   0.145  11.326  0.4301 -1.1963 -0.0411
 5803SOL    HW229046   4.464   0.055  11.230  1.7399 -1.9285  0.8662
 5804SOL     OW29047   0.695   3.234  10.636  0.1361  0.4340  0.0297
 5804SOL    HW129048   0.668   3.186  10.714 -1.4430 -2.5570 -2.3720
 5804SOL    HW229049   0.703   3.162  10.573  2.3539  0.8348 -0.1500
 5805SOL     OW29050   3.764   1.132   5.909  0.0967 -0.3329 -0.3004
 5805SOL    HW129051   3.850   1.107   5.877  0.9291 -0.7083  2.2055
 5805SOL    HW229052   3.746   1.085   5.991  2.0637 -0.6051 -0.0250
 5806SOL     OW29053   4.035   2.872   3.716  0.5634  0.3410  0.7217
 5806SOL    HW129054   4.117   2.823   3.720  0.0463 -0.7897 -1.7900
 5806SOL    HW229055   3.981   2.825   3.651 -0.8557  2.0562  0.6450
 5807SOL     OW29056   4.122   1.544  11.655  0.2105  0.4769  0.3006
 5807SOL    HW129057   4.137   1.493  11.734 -0.8183  0.1953  0.3187
 5807SOL    HW229058   4.071   1.616  11.692 -1.8157 -1.7957  1.9316
 5808SOL     OW29059   3.661   0.388  12.392  0.1294  0.4155  0.2667
 5808SOL    HW129060   3.744   0.420  12.358 -1.4128  1.4673 -2.4870
 5808SOL    HW229061   3.648   0.455  12.459 -0.2479  2.2021 -1.5873
 5809SOL     OW29062   4.306   1.242   1.428 -0.1787 -0.1098  0.0771
 5809SOL    HW129063   4.339   1.240   1.518  1.9763 -1.8422 -0.7412
 5809SOL    HW229064   4.384   1.240   1.372  0.2843 -0.8455  0.7385
 5810SOL     OW29065   2.651   2.658   8.381 -0.3974 -0.1054 -0.1023
 5810SOL    HW129066   2.704   2.609   8.318 -1.3381 -0.7996 -0.3442
 5810SOL    HW229067   2.715   2.729   8.388  3.2674 -3.3525 -0.2962
 5811SOL     OW29068   3.153   1.838   1.855 -0.1070 -0.1729  0.1977
 5811SOL    HW129069   3.231   1.865   1.808 -1.7890  2.8053 -0.8294
 5811SOL    HW229070   3.148   1.743   1.840 -0.3677 -0.4833  2.2223
 5812SOL     OW29071   1.750   1.007  10.016 -0.5943 -0.4269  0.5631
 5812SOL    HW129072   1.718   0.953   9.943  2.0249  0.0080 -0.9169
 5812SOL    HW229073   1.669   1.018  10.065  0.3689 -2.4643  2.6107
 5813SOL     OW29074   4.312   4.650   9.062 -0.0772  0.1758  0.4968
 5813SOL    HW129075   4.224   4.669   9.028  0.0491  1.0428  0.6560
 5813SOL    HW229076   4.290   4.611   9.147  0.8164 -0.2899  0.5123
 5814SOL     OW29077   3.156   0.857   7.970  0.0345 -0.0038  0.2974
 5814SOL    HW129078   3.247   0.883   7.989 -0.1706  1.6042 -0.9120
 5814SOL    HW229079   3.108   0.887   8.047  1.5937  2.0279  0.5009
 5815SOL     OW29080   0.515   3.307   1.608  0.1365  0.2879 -0.3185
 5815SOL    HW129081   0.458   3.339   1.538 -1.3998 -1.3707  0.2030
 5815SOL    HW229082   0.579   3.379   1.616  0.4478 -0.0122 -0.0841
 5816SOL     OW29083   1.032   1.016   2.101 -0.5425  0.2804 -0.6178
 5816SOL    HW129084   0.965   0.981   2.042 -2.1365  0.5798  1.0224
 5816SOL    HW229085   0.975   1.023   2.177 -1.3164  0.5069 -1.2191
 5817SOL     OW29086   3.880   3.469   9.306  0.2427  0.1428  0.3832
 5817SOL    HW129087   3.957   3.502   9.351  1.3527  0.0545 -1.4453
 5817SOL    HW229088   3.824   3.462   9.383 -0.7891 -1.5856 -0.5166
 5818SOL     OW29089   1.500   2.348  10.690 -0.1687 -0.1320 -0.4674
 5818SOL    HW129090   1.462   2.265  10.661  0.5130 -0.6915  0.2288
 5818SOL    HW229091   1.473   2.345  10.782 -1.6558  0.0793 -0.9024
 5819SOL     OW29092   4.093   3.044   6.849  0.4673 -0.1585  0.0607
 5819SOL    HW129093   4.007   3.085   6.841  1.3843  1.8829  0.7026
 5819SOL    HW229094   4.100   2.962   6.801  0.3302 -2.0475  3.3039
 5820SOL     OW29095   2.276   2.792   3.270  0.1490  0.3946  0.1847
 5820SOL    HW129096   2.186   2.823   3.284  0.2353  0.8847 -0.3520
 5820SOL    HW229097   2.294   2.772   3.361  1.4524 -4.2451 -1.0662
 5821SOL     OW29098   2.727   4.471   3.929  0.3036  0.3517 -0.7421
 5821SOL    HW129099   2.803   4.413   3.919  0.8009  0.8367  0.1997
 5821SOL    HW229100   2.759   4.553   3.891  2.7577  0.2475  1.0909
 5822SOL     OW29101   2.122   3.859   8.427  0.2041 -0.0256  0.3927
 5822SOL    HW129102   2.156   3.940   8.388 -1.7837  1.4219  1.6336
 5822SOL    HW229103   2.150   3.799   8.359 -2.6491 -1.0878  0.1725
 5823SOL     OW29104   0.967   2.544   4.360  0.3213 -0.1356 -0.0975
 5823SOL    HW129105   0.891   2.590   4.326  0.3363  0.2363  0.3713
 5823SOL    HW229106   1.030   2.614   4.346  0.3426  0.1487  1.3511
 5824SOL     OW29107   4.066   3.835   7.256  0.1194 -0.1381  0.1892
 5824SOL    HW129108   4.159   3.810   7.257  0.0964 -0.2141  0.3635
 5824SOL    HW229109   4.023   3.750   7.249 -0.0682 -0.1091  1.0210
 5825SOL     OW29110   2.874   1.276   0.977 -0.4852  0.1107 -0.3466
 5825SOL    HW129111   2.802   1.311   0.926 -0.4138  0.5874 -0.1250
 5825SOL    HW229112   2.928   1.234   0.911  0.9150 -0.7191  1.3361
 5826SOL     OW29113   0.936   2.845  13.359  0.9931  0.1431 -0.2922
 5826SOL    HW129114   0.993   2.911  13.320 -1.8719  1.4380 -2.2531
 5826SOL    HW229115   0.974   2.830  13.446 -0.2799 -1.8156 -0.0631
 5827SOL     OW29116   2.908   2.162  16.076 -0.5940 -0.7981  0.2218
 5827SOL    HW129117   2.986   2.188  16.027 -1.5713  0.9376 -0.4461
 5827SOL    HW229118   2.929   2.164  16.169 -2.1293  0.6429  0.5446
 5828SOL     OW29119   1.688   4.040   5.487 -0.0661  0.0318  0.0415
 5828SOL    HW129120   1.704   4.130   5.516 -1.4981  0.8052 -1.6246
 5828SOL    HW229121   1.742   4.041   5.408  2.1740 -1.3915  1.5385
 5829SOL     OW29122   0.415   0.691  15.971  0.0706 -0.2186 -0.0416
 5829SOL    HW129123   0.475   0.623  15.942 -0.2563 -0.8570  0.7855
 5829SOL    HW229124   0.432   0.766  15.913 -0.7191  0.5475  0.7140
 5830SOL     OW29125   2.758   1.106   2.624 -0.1197 -0.2919  0.1295
 5830SOL    HW129126   2.852   1.119   2.623  0.0653 -1.5935 -0.0090
 5830SOL    HW229127   2.740   1.096   2.718 -1.4923 -0.7568 -0.1739
 5831SOL     OW29128   3.211   3.744   5.151 -0.0536  0.1229 -0.1773
 5831SOL    HW129129   3.138   3.696   5.111  1.2142 -0.5669 -1.6691
 5831SOL    HW229130   3.292   3.702   5.122 -0.9383 -0.9498 -1.1076
 5832SOL     OW29131   2.454   0.603   1.758 -0.3943 -0.1650  0.1076
 5832SOL    HW129132   2.380   0.543   1.757 -0.6583  0.1653 -0.0430
 5832SOL    HW229133   2.480   0.594   1.667 -3.2303 -2.0172 -0.5128
 5833SOL     OW29134   1.929   1.727   6.144 -0.0739 -0.8207 -0.1989
 5833SOL    HW129135   1.835   1.714   6.132  0.2225 -1.9139 -1.4543
 5833SOL    HW229136   1.920   1.819   6.166  1.4147 -1.3433  2.6219
 5834SOL     OW29137   3.696   3.852  11.218 -0.8817 -0.1444 -0.1782
 5834SOL    HW129138   3.691   3.929  11.162 -0.1517 -0.7323 -1.0459
 5834SOL    HW229139   3.698   3.889  11.306 -1.4717 -0.2004 -0.1440
 5835SOL     OW29140   2.911   2.116   4.155  0.3151  0.1774 -0.0158
 5835SOL    HW129141   2.990   2.164   4.179  1.9548 -3.3863  1.5624
 5835SOL    HW229142   2.904   2.127   4.060 -0.7908  2.2071  0.2950
 5836SOL     OW29143   2.086   2.763  12.141 -0.2851 -0.0152  0.2759
 5836SOL    HW129144   1.991   2.751  12.148 -0.4108  2.1547  2.2422
 5836SOL    HW229145   2.112   2.675  12.169  0.8451  0.1213 -0.3406
 5837SOL     OW29146   0.722   0.969   0.330  0.0212  0.1585 -0.5799
 5837SOL    HW129147   0.753   1.057   0.313 -2.1142  1.2042  0.9890
 5837SOL    HW229148   0.639   0.957   0.284  0.4166 -0.6437 -1.0913
 5838SOL     OW29149   3.226   4.365   8.770  0.5820 -0.2397  0.1216
 5838SOL    HW129150   3.151   4.418   8.741  0.1010 -0.6474  0.6224
 5838SOL    HW229151   3.191   4.339   8.856  0.8975  1.5712  0.8022
 5839SOL     OW29152   0.137   0.433   6.270  1.0727  0.6858  0.3360
 5839SOL    HW129153   0.050   0.406   6.300  0.5311  1.5084 -0.4848
 5839SOL    HW229154   0.164   0.461   6.357  0.9210 -2.4597  1.4052
 5840SOL     OW29155   3.391   4.205   8.340 -0.2875 -0.0864  0.0539
 5840SOL    HW129156   3.413   4.238   8.427 -0.5641  1.1517 -0.3434
 5840SOL    HW229157   3.465   4.240   8.290  0.3321 -0.9659  0.3700
 5841SOL     OW29158   4.716   1.319   2.180  0.0017  0.2081  0.2213
 5841SOL    HW129159   4.665   1.240   2.199  0.1542 -0.0349 -0.3903
 5841SOL    HW229160   0.035   1.323   2.256  1.8842 -0.7339 -1.1767
 5842SOL     OW29161   4.328   2.630   6.144 -0.5387  0.2615  0.2016
 5842SOL    HW129162   4.380   2.679   6.080 -1.5261 -0.6141 -1.2785
 5842SOL    HW229163   4.381   2.553   6.161 -0.5656  0.1145 -0.3921
 5843SOL     OW29164   4.614   0.902   6.580 -0.0219  0.1287 -0.2826
 5843SOL    HW129165   4.578   0.896   6.668 -0.5494  1.6085 -0.3824
 5843SOL    HW229166   4.560   0.972   6.541 -1.5647 -1.0039 -0.1821
 5844SOL     OW29167   1.958   4.711  11.458  0.0428  0.7237 -0.0993
 5844SOL    HW129168   1.926   0.014  11.538 -1.2353 -3.0255  1.3706
 5844SOL    HW229169   2.050   4.737  11.459  0.6554 -1.5124  0.3090
 5845SOL     OW29170   2.230   0.777   5.608 -0.1818  0.1625 -0.1130
 5845SOL    HW129171   2.211   0.865   5.639  0.3535  0.2552 -0.0605
 5845SOL    HW229172   2.297   0.756   5.673 -1.5388  1.0138  1.5496
 5846SOL     OW29173   0.369   3.275   3.054  0.0790 -0.7036 -0.0915
 5846SOL    HW129174   0.412   3.340   3.109 -0.6234  0.3240 -0.7665
 5846SOL    HW229175   0.333   3.214   3.119 -0.8275  0.9579  0.9618
 5847SOL     OW29176   3.797   4.118  10.761 -0.2806  0.1420 -0.4950
 5847SOL    HW129177   3.785   4.040  10.815  0.7608 -1.1676 -2.1271
 5847SOL    HW229178   3.713   4.111  10.716 -1.3546 -0.1306  1.6098
 5848SOL     OW29179   2.251   1.820  14.379  0.2903  0.2074 -0.0794
 5848SOL    HW129180   2.187   1.756  14.409  1.6480 -0.3092  1.7072
 5848SOL    HW229181   2.207   1.870  14.310 -1.2608  0.2185  0.9027
 5849SOL     OW29182   0.831   0.211   5.261  0.4773  0.1834 -0.0510
 5849SOL    HW129183   0.770   0.275   5.225  1.0771 -0.0808 -1.5104
 5849SOL    HW229184   0.914   0.245   5.226  0.3137 -1.2098 -1.7720
 5850SOL     OW29185   3.343   3.591   2.157  0.6906 -0.1538 -0.5279
 5850SOL    HW129186   3.343   3.511   2.105  1.3328 -0.4091 -0.1357
 5850SOL    HW229187   3.413   3.572   2.219 -1.0152  0.6498  1.6765
 5851SOL     OW29188   3.556   1.635  10.192 -0.1890  0.1433  0.3194
 5851SOL    HW129189   3.469   1.644  10.153  0.0311  0.2400 -0.1526
 5851SOL    HW229190   3.599   1.691  10.127  0.9717 -0.4988  0.5331
 5852SOL     OW29191   3.042   4.001   8.233  0.1557 -0.4512  0.5720
 5852SOL    HW129192   3.030   4.014   8.139 -2.1040  0.0642  0.9275
 5852SOL    HW229193   3.087   3.918   8.244 -1.2766 -1.0276  2.1635
 5853SOL     OW29194   0.009   3.451   9.099 -0.2805 -0.1771 -0.1092
 5853SOL    HW129195   4.655   3.450   9.080  0.0050  0.0487 -1.5991
 5853SOL    HW229196   0.004   3.435   9.193  1.6020 -1.6234 -0.2573
 5854SOL     OW29197   2.563   1.041  16.841 -0.2655 -0.5650 -0.3217
 5854SOL    HW129198   2.483   1.069  16.796 -0.8091  1.0254  1.6242
 5854SOL    HW229199   2.542   1.041  16.934 -0.4233 -0.4261 -0.3562
 5855SOL     OW29200   3.856   3.281  13.210 -0.7609 -0.0564 -0.2428
 5855SOL    HW129201   3.840   3.352  13.148 -3.6811 -1.1623 -0.7536
 5855SOL    HW229202   3.951   3.284  13.219 -0.6727  1.8120 -1.9042
 5856SOL     OW29203   3.699   1.683   3.240  0.2103 -0.4955  0.1589
 5856SOL    HW129204   3.703   1.747   3.311 -1.7900 -0.1405 -0.0646
 5856SOL    HW229205   3.775   1.626   3.256  0.1866 -0.0324  1.9369
 5857SOL     OW29206   2.200   0.246   8.189  0.0657 -0.0195  0.0576
 5857SOL    HW129207   2.127   0.283   8.140 -1.2457 -1.9949  0.5059
 5857SOL    HW229208   2.224   0.159   8.154 -0.2428 -0.4047  0.8126
 5858SOL     OW29209   3.731   1.123  15.491  0.0313 -0.1831 -0.1214
 5858SOL    HW129210   3.825   1.140  15.489 -0.2488  1.1767 -1.3559
 5858SOL    HW229211   3.698   1.130  15.402  0.0705  0.6075 -0.0725
 5859SOL     OW29212   1.963   0.712   1.913  0.1269 -0.0901  0.5281
 5859SOL    HW129213   1.989   0.803   1.903 -1.2511  0.1499 -0.8061
 5859SOL    HW229214   2.050   0.672   1.920 -0.6242 -1.7209  0.6694
 5860SOL     OW29215   4.089   3.187   9.526  0.8633  0.3907  0.1574
 5860SOL    HW129216   4.019   3.216   9.584  2.0858  0.4957  1.5515
 5860SOL    HW229217   4.119   3.103   9.560  1.2436 -0.3704 -2.0647
 5861SOL     OW29218   0.387   3.194   2.027 -0.1381  0.0489  0.2927
 5861SOL    HW129219   0.422   3.106   2.042 -1.8134 -0.9508 -1.6221
 5861SOL    HW229220   0.381   3.196   1.931  2.0385 -0.1557  0.1723
 5862SOL     OW29221   3.732   0.847  14.130  0.7182  0.0470  0.0136
 5862SOL    HW129222   3.826   0.831  14.128  1.2203  2.8559  0.8665
 5862SOL    HW229223   3.712   0.785  14.200 -1.4980  0.2567 -0.4291
 5863SOL     OW29224   1.664   4.442   8.996  0.0813  0.3956  0.0401
 5863SOL    HW129225   1.595   4.454   9.062 -0.0669  0.3901 -0.1125
 5863SOL    HW229226   1.699   4.529   9.014  1.2254 -0.2715  1.0494
 5864SOL     OW29227   4.607   0.636  13.029  0.2270 -0.5916 -0.7577
 5864SOL    HW129228   4.699   0.609  13.037  1.3089  3.3034 -0.2493
 5864SOL    HW229229   4.559   0.559  12.996 -0.5215  0.3910 -1.9402
 5865SOL     OW29230   0.716   0.357   2.938 -0.2787  0.1149  0.4072
 5865SOL    HW129231   0.684   0.447   2.923  0.4861  0.4400  0.7449
 5865SOL    HW229232   0.796   0.363   2.990 -0.5381  0.2325  0.8004
 5866SOL     OW29233   1.500   3.108   0.828 -0.2804 -0.1490 -0.1380
 5866SOL    HW129234   1.537   3.176   0.884 -0.4109  0.0700 -0.3170
 5866SOL    HW229235   1.417   3.113   0.876  0.8401  1.9443  1.5805
 5867SOL     OW29236   4.613   4.118   3.554  0.1621 -0.1083  0.6577
 5867SOL    HW129237   4.595   4.188   3.490  2.4514  2.3393  2.6964
 5867SOL    HW229238   4.551   4.142   3.623  1.0399  0.2187  1.3311
 5868SOL     OW29239   1.935   0.200   3.291 -0.0498  0.1361  0.1021
 5868SOL    HW129240   1.915   0.250   3.370 -0.0016 -0.1805  0.3147
 5868SOL    HW229241   1.853   0.210   3.242 -0.9672 -2.4369  1.0847
 5869SOL     OW29242   4.548   2.380   8.313 -0.8381  0.0947 -0.0791
 5869SOL    HW129243   4.583   2.463   8.281  1.0980 -0.2623  1.1346
 5869SOL    HW229244   4.632   2.353   8.351 -0.4031  1.6700  0.0823
 5870SOL     OW29245   3.618   1.563   0.117  0.5590 -0.0949  0.2798
 5870SOL    HW129246   3.545   1.531   0.064  0.3794  1.0048 -0.1316
 5870SOL    HW229247   3.602   1.656   0.102 -0.7812 -0.2860  0.4939
 5871SOL     OW29248   2.483   0.537   3.737  0.2007 -0.3201  0.2720
 5871SOL    HW129249   2.520   0.580   3.813 -1.8499  0.0822  1.0388
 5871SOL    HW229250   2.544   0.580   3.677 -0.4177 -0.9129 -0.7811
 5872SOL     OW29251   2.374   0.307   4.939  0.2787  0.1959 -0.4938
 5872SOL    HW129252   2.362   0.213   4.936  2.6762 -0.1515  0.8433
 5872SOL    HW229253   2.412   0.320   5.026 -0.5137 -2.3019  0.2207
 5873SOL     OW29254   1.584   0.247   9.271  0.2296  0.2944 -0.2919
 5873SOL    HW129255   1.590   0.338   9.298 -0.5700  0.5416 -0.9704
 5873SOL    HW229256   1.548   0.262   9.183  3.5531  1.8616 -1.3809
 5874SOL     OW29257   3.079   1.341   0.373  0.1176  0.3079  0.3176
 5874SOL    HW129258   3.010   1.364   0.435 -1.3508  1.5056 -1.7787
 5874SOL    HW229259   3.122   1.426   0.363  1.2564 -0.3857 -0.7834
 5875SOL     OW29260   4.445   0.750   5.219 -0.4125  0.5055  0.6477
 5875SOL    HW129261   4.439   0.721   5.310  0.6443 -2.6421 -0.2560
 5875SOL    HW229262   4.356   0.729   5.191 -0.6349 -0.4319  2.0251
 5876SOL     OW29263   0.035   3.458   9.370  0.4817  0.3273 -0.3175
 5876SOL    HW129264   0.002   3.532   9.421 -3.8801 -0.0909 -2.5747
 5876SOL    HW229265   0.129   3.456   9.388  0.1752 -0.8807  1.1281
 5877SOL     OW29266   0.324   4.562   8.896 -0.1147  0.1925 -0.0561
 5877SOL    HW129267   0.386   4.490   8.893 -0.2733 -0.0156  1.5412
 5877SOL    HW229268   0.385   4.627   8.862 -1.3741  0.7293 -1.2890
 5878SOL     OW29269   4.155   4.558   9.582 -0.2860 -0.3523  0.2803
 5878SOL    HW129270   4.109   4.494   9.527 -2.4842  1.6319 -0.1764
 5878SOL    HW229271   4.078   4.612   9.599 -0.0484  0.0644  0.0335
 5879SOL     OW29272   0.810   3.450  15.544 -0.8470  0.2483 -0.3962
 5879SOL    HW129273   0.871   3.516  15.575 -1.5622  0.4393  0.6108
 5879SOL    HW229274   0.805   3.470  15.450 -0.9449  1.7104 -0.0743
 5880SOL     OW29275   3.749   2.949   1.772  0.3650  0.2694 -0.2947
 5880SOL    HW129276   3.719   3.026   1.723  0.4755 -0.6567 -1.8267
 5880SOL    HW229277   3.668   2.933   1.820  1.2752  1.7704  1.7151
 5881SOL     OW29278   1.404   2.309   3.193 -0.0648 -0.3176  0.2503
 5881SOL    HW129279   1.335   2.340   3.134  0.5966 -0.6599 -0.6995
 5881SOL    HW229280   1.455   2.389   3.205  1.1773 -1.0676 -0.0798
 5882SOL     OW29281   4.643   1.528   3.553 -0.4584  0.0125  0.1103
 5882SOL    HW129282   4.661   1.613   3.512 -0.8263 -0.6145 -1.3678
 5882SOL    HW229283   4.721   1.528   3.609 -0.0812  1.9981 -0.3906
 5883SOL     OW29284   2.351   1.129   5.321  0.6481  0.3799  0.1973
 5883SOL    HW129285   2.352   1.216   5.360 -0.9287  0.6038 -0.2277
 5883SOL    HW229286   2.264   1.141   5.283  0.7927 -1.6543 -0.7620
 5884SOL     OW29287   1.164   0.039   1.774 -0.2656  0.4406 -0.2514
 5884SOL    HW129288   1.108   0.034   1.851  0.8298 -0.1024  0.5207
 5884SOL    HW229289   1.235   4.720   1.802 -0.6490  0.7620  1.3796
 5885SOL     OW29290   0.364   3.494  15.908  0.3941  0.4390 -0.1834
 5885SOL    HW129291   0.272   3.497  15.883  1.3320  1.1065 -3.5346
 5885SOL    HW229292   0.362   3.569  15.967  1.9248 -0.4804  1.0691
 5886SOL     OW29293   0.021   1.792   3.554  0.2117 -0.6614  0.2043
 5886SOL    HW129294   0.010   1.838   3.637  0.3220  0.6870 -0.5313
 5886SOL    HW229295   4.729   1.856   3.491  1.6821 -0.2422 -0.1162
 5887SOL     OW29296   0.778   1.641   8.446  0.0367  0.4248 -0.2393
 5887SOL    HW129297   0.760   1.686   8.364  0.7981  0.0432 -0.6158
 5887SOL    HW229298   0.692   1.600   8.453  0.7313 -0.8938  0.5804
 5888SOL     OW29299   1.093   2.305   6.506 -0.2220 -0.2613 -0.1301
 5888SOL    HW129300   1.005   2.342   6.495  0.1868 -0.0348 -2.8416
 5888SOL    HW229301   1.115   2.263   6.422 -1.8634 -0.6704 -0.3582
 5889SOL     OW29302   2.884   1.883   1.926  0.6203 -0.1017  0.8554
 5889SOL    HW129303   2.843   1.815   1.873  0.2563  0.3950  0.5108
 5889SOL    HW229304   2.971   1.896   1.887 -0.1069  3.0538  0.3780
 5890SOL     OW29305   3.768   1.148   0.576 -0.4172 -0.4420  0.4552
 5890SOL    HW129306   3.858   1.173   0.600 -0.1588  0.3426 -1.3008
 5890SOL    HW229307   3.741   1.218   0.516  0.4590  0.8627  1.5601
 5891SOL     OW29308   0.649   1.930   0.449 -0.0728  1.0003  0.0758
 5891SOL    HW129309   0.559   1.962   0.459 -0.5633  0.0872 -1.3846
 5891SOL    HW229310   0.676   1.897   0.535  0.9049 -0.1474 -0.6672
 5892SOL     OW29311   3.405   0.538   3.834 -0.8262 -0.5683 -0.5678
 5892SOL    HW129312   3.333   0.497   3.786  0.2571 -3.3759  0.1589
 5892SOL    HW229313   3.461   0.464   3.859 -2.6438 -0.6031  3.4047
 5893SOL     OW29314   1.600   3.103   3.279 -0.5080 -0.0205  0.5750
 5893SOL    HW129315   1.689   3.068   3.276  0.0565  1.3472  1.3553
 5893SOL    HW229316   1.605   3.165   3.206 -3.4338  1.0492  1.2777
 5894SOL     OW29317   4.040   0.903  15.672  0.7210  0.0685  0.0008
 5894SOL    HW129318   4.085   0.893  15.588  0.7186 -1.3841  0.1880
 5894SOL    HW229319   4.110   0.939  15.727  1.5488 -1.7266  0.1033
 5895SOL     OW29320   4.689   2.496   9.049 -0.6059 -0.0150  0.2099
 5895SOL    HW129321   4.602   2.467   9.076 -0.2027 -0.1102  1.3719
 5895SOL    HW229322   4.736   2.415   9.028  0.0975  0.5478 -0.4179
 5896SOL     OW29323   4.701   3.708   3.903 -0.4990  0.4218 -0.5682
 5896SOL    HW129324   0.041   3.665   3.872 -0.2470  1.5495 -1.4715
 5896SOL    HW229325   4.665   3.649   3.970  0.7733  0.4077  0.1015
 5897SOL     OW29326   3.035   3.707  10.715  0.5508 -0.0002  0.8187
 5897SOL    HW129327   2.958   3.752  10.679 -0.8569 -2.9229  0.2037
 5897SOL    HW229328   3.002   3.674  10.798  1.1790  2.5407  2.0602
 5898SOL     OW29329   0.591   2.966   8.422  0.0169 -0.2680 -0.0725
 5898SOL    HW129330   0.546   2.966   8.506  0.9449  0.2214  0.4150
 5898SOL    HW229331   0.628   3.053   8.431 -0.3617 -0.1331  0.1630
 5899SOL     OW29332   1.146   2.576   6.170  0.1919  0.3299 -0.1283
 5899SOL    HW129333   1.054   2.572   6.143  0.7505  3.7040 -2.5031
 5899SOL    HW229334   1.175   2.488   6.149 -2.0521 -0.4149 -0.1739
 5900SOL     OW29335   2.601   2.202   3.592  0.2302 -0.7387  0.5366
 5900SOL    HW129336   2.631   2.126   3.542  0.6850 -0.4298  0.3351
 5900SOL    HW229337   2.655   2.268   3.548 -1.0614  0.7797  1.2346
 5901SOL     OW29338   2.153   0.478   4.878 -0.0047  0.2941 -0.6287
 5901SOL    HW129339   2.123   0.509   4.963 -1.0092 -1.2744 -0.3985
 5901SOL    HW229340   2.229   0.425   4.902 -0.2061  0.0571 -0.5012
 5902SOL     OW29341   4.021   1.704   1.556  0.1874 -0.2039  0.6024
 5902SOL    HW129342   4.115   1.703   1.572  0.6296  1.4178 -1.8965
 5902SOL    HW229343   3.997   1.774   1.617 -1.0299  1.1115 -1.3831
 5903SOL     OW29344   1.524   1.227   0.495  0.5543  0.3505  0.0617
 5903SOL    HW129345   1.560   1.147   0.457 -1.8956 -1.5677  1.8075
 5903SOL    HW229346   1.584   1.289   0.454  1.6777  1.0423  2.7216
 5904SOL     OW29347   0.945   4.682   4.276 -0.2402  0.3359  0.4433
 5904SOL    HW129348   0.995   4.607   4.308 -1.1259 -0.2195  0.5323
 5904SOL    HW229349   0.860   4.641   4.258 -0.2691 -0.7726  3.0230
 5905SOL     OW29350   0.276   1.456   3.246 -0.5047  0.8864 -0.0815
 5905SOL    HW129351   0.290   1.541   3.289 -1.1583  1.3740 -0.8304
 5905SOL    HW229352   0.260   1.405   3.326  0.1708  1.1239  0.2080
 5906SOL     OW29353   0.701   3.477   6.898  0.5048 -0.1032  0.4255
 5906SOL    HW129354   0.712   3.555   6.952 -2.6171  0.9874 -0.5374
 5906SOL    HW229355   0.609   3.483   6.871  0.9836  0.5289 -1.0937
 5907SOL     OW29356   4.210   4.288   6.918 -0.1113 -0.7510  0.3665
 5907SOL    HW129357   4.119   4.278   6.946 -0.0486 -1.2420  0.4000
 5907SOL    HW229358   4.218   4.381   6.900 -0.5343 -0.4793  1.6050
 5908SOL     OW29359   3.310   0.000   2.494 -0.0581  0.0445 -0.2001
 5908SOL    HW129360   3.327   4.648   2.472 -0.2127  0.4131 -1.8985
 5908SOL    HW229361   3.246   4.725   2.564  0.3769 -1.1582 -0.0655
 5909SOL     OW29362   1.151   4.585   5.696  0.3152 -0.7518 -0.2398
 5909SOL    HW129363   1.214   4.614   5.630  1.5385 -0.2546  1.1376
 5909SOL    HW229364   1.199   4.507   5.723  0.1416 -0.6155  0.4835
 5910SOL     OW29365   2.577   3.034   8.805 -0.1156  0.1882  0.1012
 5910SOL    HW129366   2.589   3.047   8.899 -0.6277  0.6790  0.0994
 5910SOL    HW229367   2.484   3.057   8.798 -0.1257  0.3669  0.8460
 5911SOL     OW29368   2.920   1.727  17.584 -0.3657  0.1166 -0.5214
 5911SOL    HW129369   2.949   1.815  17.606  0.3857 -0.2898  0.1615
 5911SOL    HW229370   2.899   1.691  17.671 -0.6827 -1.0069 -1.0556
 5912SOL     OW29371   3.364   0.425   6.532 -0.6630 -0.6837  0.1736
 5912SOL    HW129372   3.363   0.455   6.623  0.4957  0.4415 -0.1849
 5912SOL    HW229373   3.314   0.344   6.539 -0.8360 -0.5669  0.2835
 5913SOL     OW29374   4.678   0.375   7.887 -0.5969 -0.2318  0.0123
 5913SOL    HW129375   4.624   0.433   7.833 -1.4966  1.0057  2.2814
 5913SOL    HW229376   0.023   0.389   7.843  0.0578 -0.9670  1.0205
 5914SOL     OW29377   0.806   0.671   8.679  0.0065  0.3318  0.1108
 5914SOL    HW129378   0.761   0.663   8.594 -1.1282 -3.4701  1.0736
 5914SOL    HW229379   0.744   0.723   8.730  0.6212 -0.9972  2.1841
 5915SOL     OW29380   0.685   3.283   3.007  0.1809 -0.1866  0.3747
 5915SOL    HW129381   0.696   3.309   3.099  0.0687  0.2077  0.2763
 5915SOL    HW229382   0.596   3.308   2.985 -0.3190 -0.6335  1.8579
 5916SOL     OW29383   0.178   1.902  11.290 -0.1708 -0.1160  0.7014
 5916SOL    HW129384   0.110   1.835  11.277 -0.8352  0.5943  0.5151
 5916SOL    HW229385   0.229   1.845  11.347  3.2484  2.0069 -0.2657
 5917SOL     OW29386   0.209   1.362   0.931 -0.0852  0.9486  0.0189
 5917SOL    HW129387   0.119   1.364   0.899  0.0307  0.2549 -0.3365
 5917SOL    HW229388   0.268   1.338   0.860  0.1302  1.3590  0.0571
 5918SOL     OW29389   3.861   0.101   5.336  0.5024  0.1325  0.0825
 5918SOL    HW129390   3.900   0.014   5.340 -1.0954 -0.4751  2.7652
 5918SOL    HW229391   3.889   0.117   5.426  0.3934 -0.9361  0.3014
 5919SOL     OW29392   3.523   0.949   2.833  0.6640  0.2489 -0.2449
 5919SOL    HW129393   3.562   0.863   2.817 -0.1487 -0.2974  0.7271
 5919SOL    HW229394   3.594   1.002   2.796  0.8687  0.9322  1.1209
 5920SOL     OW29395   0.093   1.726   2.546  1.1553 -0.5416  0.0644
 5920SOL    HW129396   0.059   1.739   2.458 -0.8542 -1.9889  0.6186
 5920SOL    HW229397   0.073   1.637   2.576  1.6403 -0.0622  1.8450
 5921SOL     OW29398   0.097   1.794   8.756 -0.1647 -0.2028 -0.0236
 5921SOL    HW129399   0.021   1.849   8.775  0.6079  1.1950 -0.9772
 5921SOL    HW229400   0.162   1.823   8.820  1.9513  0.0781 -2.3282
 5922SOL     OW29401   3.305   1.426   4.381 -0.0725 -0.2295 -0.4567
 5922SOL    HW129402   3.222   1.428   4.334  0.5715  2.2854 -1.4738
 5922SOL    HW229403   3.325   1.514   4.411 -0.2309  0.2722 -1.8702
 5923SOL     OW29404   2.904   0.939   6.831 -0.1110  0.1881 -0.4882
 5923SOL    HW129405   2.851   1.019   6.834  0.0409  0.3579 -2.6405
 5923SOL    HW229406   2.879   0.899   6.915  1.1022  1.3030  0.4017
 5924SOL     OW29407   2.715   3.232   3.090  0.5440  0.6340 -0.3821
 5924SOL    HW129408   2.697   3.270   3.177  0.1848  0.1157 -0.2253
 5924SOL    HW229409   2.756   3.308   3.049  1.8569  1.6294  2.7297
 5925SOL     OW29410   4.227   2.837   8.260  0.4613 -0.3515  0.2891
 5925SOL    HW129411   4.166   2.909   8.244  0.2582 -0.6042 -0.0766
 5925SOL    HW229412   4.289   2.843   8.187 -0.5548 -4.0015 -0.8402
 5926SOL     OW29413   2.945   1.678   6.324  0.3563 -0.2890  0.3135
 5926SOL    HW129414   3.030   1.679   6.367  0.4728 -0.7541  0.0961
 5926SOL    HW229415   2.963   1.639   6.238 -0.6235  0.5073 -0.2710
 5927SOL     OW29416   0.633   0.671   5.029 -0.1987 -0.5070  0.1654
 5927SOL    HW129417   0.681   0.752   5.016  0.4221 -0.7067  1.2238
 5927SOL    HW229418   0.547   0.707   5.049  0.3318 -0.9204  3.1654
 5928SOL     OW29419   4.563   2.487  16.359 -0.0532  0.2604  0.4012
 5928SOL    HW129420   4.629   2.524  16.301 -0.3441 -1.4189 -1.0149
 5928SOL    HW229421   4.484   2.539  16.343 -0.6463 -1.2542 -1.7245
 5929SOL     OW29422   1.317   3.721  16.187 -0.6097  0.1494 -0.4502
 5929SOL    HW129423   1.269   3.804  16.194 -1.4555 -0.2613 -1.5338
 5929SOL    HW229424   1.280   3.688  16.106 -1.9965 -0.0687  0.2677
 5930SOL     OW29425   3.744   0.520   3.783 -0.4749  0.0664 -0.4316
 5930SOL    HW129426   3.727   0.529   3.877 -1.0282 -0.3623 -0.4892
 5930SOL    HW229427   3.758   0.609   3.753 -0.0525  0.8126  1.9561
 5931SOL     OW29428   2.411   4.020   1.696 -0.3313  0.3029  0.1283
 5931SOL    HW129429   2.381   4.110   1.712  0.2947  0.6446 -0.6522
 5931SOL    HW229430   2.380   4.011   1.606  1.5969  0.1569 -0.5314
 5932SOL     OW29431   4.343   2.602  15.873 -0.1544 -0.4895  0.0781
 5932SOL    HW129432   4.306   2.595  15.785 -2.1497  1.5584  0.7605
 5932SOL    HW229433   4.418   2.661  15.867 -1.3989  1.2426  1.7416
 5933SOL     OW29434   3.997   3.190   7.205  0.4208 -0.6555  0.0756
 5933SOL    HW129435   3.975   3.110   7.157 -0.7582  0.4106 -1.1565
 5933SOL    HW229436   4.067   3.159   7.263  0.5616 -0.8024 -0.1752
 5934SOL     OW29437   0.978   2.035   6.953 -0.5925  0.1494 -0.4931
 5934SOL    HW129438   1.024   2.072   6.878 -0.2104 -0.2461 -0.4474
 5934SOL    HW229439   0.890   2.012   6.924  0.0225 -4.0924  1.1272
 5935SOL     OW29440   3.328   4.254   2.757  0.0513 -0.0057 -0.3382
 5935SOL    HW129441   3.364   4.193   2.821 -0.7554 -0.1660 -0.0323
 5935SOL    HW229442   3.360   4.204   2.681 -0.0063 -0.9229  0.2377
 5936SOL     OW29443   2.630   0.669  11.931 -0.5422  0.2106  0.6052
 5936SOL    HW129444   2.613   0.709  11.846  1.7626  0.0393  0.0660
 5936SOL    HW229445   2.672   0.584  11.915 -1.7265 -0.0667 -1.0149
 5937SOL     OW29446   0.760   0.822   7.289 -0.5233  0.0503 -0.0083
 5937SOL    HW129447   0.718   0.815   7.203  1.5385  0.4703 -1.0685
 5937SOL    HW229448   0.823   0.892   7.270 -0.5358  0.0271 -0.1365
 5938SOL     OW29449   1.625   1.193   7.376  0.8573 -0.5114 -0.2574
 5938SOL    HW129450   1.691   1.124   7.382  0.8650 -0.4267  0.6959
 5938SOL    HW229451   1.677   1.272   7.359 -2.4033  1.6045 -0.5415
 5939SOL     OW29452   3.404   4.038   3.112 -0.2566 -0.0024  0.2191
 5939SOL    HW129453   3.374   4.101   3.178 -1.8751 -1.3985  0.8294
 5939SOL    HW229454   3.322   3.997   3.085 -0.2314  1.1905 -1.6310
 5940SOL     OW29455   2.730   4.433   5.757  0.1782  0.1529  0.1749
 5940SOL    HW129456   2.789   4.508   5.763 -1.1096  1.1723  0.0460
 5940SOL    HW229457   2.732   4.416   5.851 -2.2581 -0.4877  0.0901
 5941SOL     OW29458   3.288   0.961  11.741 -0.4328 -0.0445 -0.5596
 5941SOL    HW129459   3.313   1.051  11.719 -2.2460  0.4325 -0.6248
 5941SOL    HW229460   3.288   0.968  11.837  1.8951  3.2785 -0.7852
 5942SOL     OW29461   0.685   4.319   8.335  0.1377  0.8971 -0.2295
 5942SOL    HW129462   0.742   4.276   8.399 -0.4352  2.8372  1.6046
 5942SOL    HW229463   0.727   4.291   8.253  0.9215  0.1640  0.4217
 5943SOL     OW29464   0.771   2.300  16.582  0.3714  0.3709 -0.1641
 5943SOL    HW129465   0.837   2.362  16.614 -1.6598  1.8740  1.0717
 5943SOL    HW229466   0.780   2.240  16.657 -0.7412 -0.6443 -0.8568
 5944SOL     OW29467   1.295   1.070  12.279 -0.5658 -0.2041 -0.7296
 5944SOL    HW129468   1.310   0.979  12.252  0.8291 -0.3777  0.6519
 5944SOL    HW229469   1.270   1.068  12.371 -1.0232  0.7968 -0.8395
 5945SOL     OW29470   0.148   1.500   9.488 -0.5553  0.5545  0.1114
 5945SOL    HW129471   0.086   1.492   9.415 -1.8258  3.8573  0.8327
 5945SOL    HW229472   0.216   1.543   9.436  0.1768  1.4731  1.8316
 5946SOL     OW29473   2.916   3.080   4.344  0.0506 -0.9492  0.0809
 5946SOL    HW129474   2.918   3.138   4.420  0.2856  0.3181 -0.8994
 5946SOL    HW229475   2.890   3.000   4.392 -0.6329 -1.0543 -0.4728
 5947SOL     OW29476   0.907   1.040   9.042  0.3240  0.5290  0.4157
 5947SOL    HW129477   0.834   0.981   9.062  0.7531  0.3259  1.4083
 5947SOL    HW229478   0.907   1.048   8.947  2.2498 -1.5339  0.2121
 5948SOL     OW29479   1.229   4.483   6.709  0.5623 -0.5765 -0.4744
 5948SOL    HW129480   1.170   4.445   6.644 -0.2883 -1.1488  0.6186
 5948SOL    HW229481   1.257   4.409   6.763 -0.6840 -0.2504  0.6169
 5949SOL     OW29482   3.904   4.709   0.941  0.3723 -0.0381 -0.7432
 5949SOL    HW129483   3.863   0.022   0.873 -0.2537  1.4606  0.8045
 5949SOL    HW229484   3.977   4.675   0.890  1.5286 -1.7424  2.0229
 5950SOL     OW29485   0.185   2.935  13.391  0.2856 -0.0245  0.0785
 5950SOL    HW129486   0.188   2.855  13.444  2.2188 -0.5557 -0.8641
 5950SOL    HW229487   0.164   3.004  13.454 -0.2756 -0.7671  0.7116
 5951SOL     OW29488   4.092   0.873   9.995  0.0614  0.7456  0.4070
 5951SOL    HW129489   4.085   0.853   9.902 -0.9375 -2.1716  1.1215
 5951SOL    HW229490   4.041   0.954   9.998  1.3773  1.6399 -1.4370
 5952SOL     OW29491   0.671   2.463   1.477  0.4454 -0.4791  0.5078
 5952SOL    HW129492   0.640   2.551   1.458 -0.0074 -0.5747  0.7962
 5952SOL    HW229493   0.647   2.440   1.567 -0.6183 -2.0270 -0.1661
 5953SOL     OW29494   2.018   2.234  10.575 -0.0613 -0.8950 -0.3482
 5953SOL    HW129495   2.057   2.147  10.563 -0.9714 -1.4770  0.9849
 5953SOL    HW229496   2.000   2.260  10.485 -0.8258 -0.5111 -0.0828
 5954SOL     OW29497   2.478   0.435   7.088 -0.0843 -0.0622 -0.1072
 5954SOL    HW129498   2.440   0.384   7.160 -2.9161  1.0017 -0.8597
 5954SOL    HW229499   2.514   0.510   7.135  0.0206 -0.3473  0.2711
 5955SOL     OW29500   1.557   0.438   2.173 -0.0121  0.0636  0.1562
 5955SOL    HW129501   1.620   0.488   2.225 -1.9048  0.1953  2.2948
 5955SOL    HW229502   1.564   0.361   2.229  3.8423  0.0856 -0.2760
 5956SOL     OW29503   3.293   2.959   2.268  0.2038 -0.5669 -0.4413
 5956SOL    HW129504   3.263   2.956   2.359 -1.8700 -3.0766 -1.2033
 5956SOL    HW229505   3.370   2.903   2.270  1.7496  1.6294  1.8268
 5957SOL     OW29506   3.807   0.649   5.652  0.0919  0.1392 -0.5553
 5957SOL    HW129507   3.713   0.649   5.633  0.3461  0.2727 -1.7965
 5957SOL    HW229508   3.815   0.553   5.648  1.0524  0.3689 -3.6948
 5958SOL     OW29509   1.954   2.229   4.893 -0.0580  0.6873  0.2499
 5958SOL    HW129510   2.009   2.263   4.822  3.3515 -0.1108  2.5414
 5958SOL    HW229511   1.941   2.307   4.947  1.7567  0.6460  0.7508
 5959SOL     OW29512   0.453   1.319   7.651 -0.2693 -0.0826  0.1424
 5959SOL    HW129513   0.535   1.345   7.694 -1.5634  1.0137  1.9384
 5959SOL    HW229514   0.491   1.313   7.564 -1.1887  0.6093 -0.2959
 5960SOL     OW29515   0.445   0.285   3.747  0.7353 -0.3487 -0.2477
 5960SOL    HW129516   0.426   0.320   3.661  0.5658 -1.9363 -0.8674
 5960SOL    HW229517   0.466   0.360   3.802 -1.5492 -0.8180  1.2712
 5961SOL     OW29518   2.152   2.362   3.034  0.1235  0.6381 -0.5081
 5961SOL    HW129519   2.199   2.442   3.011  4.1185 -1.3953  0.5522
 5961SOL    HW229520   2.138   2.382   3.127 -3.3898 -1.2303 -0.6541
 5962SOL     OW29521   3.092   2.789   2.152  0.5601  0.3784 -0.2020
 5962SOL    HW129522   3.162   2.824   2.207  0.5079  1.4719 -0.8396
 5962SOL    HW229523   3.043   2.870   2.164  1.5533  1.2229 -1.8756
 5963SOL     OW29524   2.999   4.439   8.628 -0.5136 -0.2813  0.3115
 5963SOL    HW129525   3.012   4.463   8.536  0.4393  0.8320  0.7420
 5963SOL    HW229526   2.950   4.519   8.650  1.5838  1.1878 -0.4246
 5964SOL     OW29527   1.157   2.285   4.246 -0.1328  0.7144  0.1221
 5964SOL    HW129528   1.217   2.255   4.315 -0.9191 -0.0703  0.4774
 5964SOL    HW229529   1.081   2.314   4.297  0.2771  0.2764  0.9934
 5965SOL     OW29530   1.666   3.460   1.623 -0.3454  0.6130  0.7895
 5965SOL    HW129531   1.656   3.366   1.615  0.7101  0.5104  0.7060
 5965SOL    HW229532   1.579   3.496   1.604 -1.9707 -2.6875  2.0074
 5966SOL     OW29533   1.014   1.428  13.440 -0.2001 -0.0558 -0.4750
 5966SOL    HW129534   1.039   1.503  13.493 -1.4866 -0.8037  1.1855
 5966SOL    HW229535   1.061   1.441  13.358  0.6714  0.0884  0.0522
 5967SOL     OW29536   0.094   3.564   5.673 -0.0883  0.6279 -0.6983
 5967SOL    HW129537   0.151   3.493   5.701 -1.9587 -0.5653  0.0662
 5967SOL    HW229538   0.041   3.575   5.752  0.3136  0.5123 -0.4133
 5968SOL     OW29539   2.144   0.264   9.278  0.3441  0.3229  0.2021
 5968SOL    HW129540   2.102   0.307   9.352  1.4557  1.9244 -0.1111
 5968SOL    HW229541   2.087   0.292   9.206 -2.0368  1.7172  2.6221
 5969SOL     OW29542   0.882   3.362   1.264  0.4272 -0.3606 -0.8178
 5969SOL    HW129543   0.813   3.304   1.295  1.8549 -0.8946  1.3811
 5969SOL    HW229544   0.846   3.445   1.295  0.5905 -0.2247 -0.9925
 5970SOL     OW29545   0.556   3.085  16.434  0.2715 -0.1739 -0.3562
 5970SOL    HW129546   0.581   2.996  16.407  1.2313 -0.3441  1.1234
 5970SOL    HW229547   0.466   3.068  16.463  0.8219 -1.1437  0.8172
 5971SOL     OW29548   1.279   2.168   5.258  0.0513  0.0773 -0.1741
 5971SOL    HW129549   1.295   2.218   5.178 -0.9996 -0.9081 -0.9985
 5971SOL    HW229550   1.370   2.165   5.288 -0.1372 -1.8901  0.2196
 5972SOL     OW29551   4.395   1.763  17.592 -0.3206  0.4731  0.0055
 5972SOL    HW129552   4.365   1.673  17.581 -1.0988  0.7669 -0.2674
 5972SOL    HW229553   4.360   1.782  17.679  0.5331  1.2804  0.1774
 5973SOL     OW29554   4.299   1.584   8.905  0.2677 -0.3867 -0.0739
 5973SOL    HW129555   4.344   1.545   8.980  3.4524  0.1132 -1.7241
 5973SOL    HW229556   4.296   1.508   8.846 -3.0300 -0.2582 -0.0638
 5974SOL     OW29557   0.037   1.430   7.078  0.1089  0.2619 -0.0182
 5974SOL    HW129558   0.100   1.502   7.072  1.4916 -0.8219  1.6702
 5974SOL    HW229559   0.068   1.365   7.015 -1.2978  0.7901 -1.2419
 5975SOL     OW29560   4.193   4.405   3.398  0.1166 -0.4600  0.4398
 5975SOL    HW129561   4.190   4.473   3.332  1.5300  1.1273  1.9982
 5975SOL    HW229562   4.145   4.333   3.356  1.5312 -1.3962  0.4165
 5976SOL     OW29563   4.120   1.649  13.316  0.2699 -0.0637  0.1454
 5976SOL    HW129564   4.040   1.661  13.367 -0.1845 -0.6914 -0.4270
 5976SOL    HW229565   4.165   1.730  13.341  0.4170  0.3102 -1.3289
 5977SOL     OW29566   1.957   3.030   1.750 -0.3002 -0.0863 -0.7962
 5977SOL    HW129567   1.916   3.045   1.834  1.0035 -0.0706 -0.1631
 5977SOL    HW229568   1.988   3.117   1.725 -1.0994  0.4431  0.0785
 5978SOL     OW29569   0.477   1.225  16.390 -0.1688 -0.1884 -0.2352
 5978SOL    HW129570   0.429   1.265  16.318  0.7640  2.1812  0.4495
 5978SOL    HW229571   0.524   1.154  16.347 -1.8068 -2.4878  1.7340
 5979SOL     OW29572   4.734   0.399  10.798  0.1183 -0.0401  0.0929
 5979SOL    HW129573   4.679   0.473  10.773  1.0729  0.0780 -1.6385
 5979SOL    HW229574   4.695   0.384  10.884  1.0554  0.1154  0.5453
 5980SOL     OW29575   1.418   3.197   2.150  1.0527 -0.8491  0.3668
 5980SOL    HW129576   1.442   3.289   2.138 -1.4701 -0.5238 -2.2634
 5980SOL    HW229577   1.468   3.164   2.075  3.0189  0.5043  1.0962
 5981SOL     OW29578   3.090   1.555  17.135  0.1350  0.3970 -0.1998
 5981SOL    HW129579   3.135   1.554  17.220 -1.6923 -0.5305  0.7590
 5981SOL    HW229580   3.117   1.640  17.102 -1.1411 -0.4768 -3.5149
 5982SOL     OW29581   2.452   4.527  16.241 -0.2400 -0.0448  0.3332
 5982SOL    HW129582   2.508   4.570  16.177  3.4562 -2.9753  1.6220
 5982SOL    HW229583   2.517   4.511  16.310  1.4940 -0.2963 -1.3712
 5983SOL     OW29584   1.992   1.101  17.081 -0.3757 -0.2238 -0.4588
 5983SOL    HW129585   1.940   1.094  17.001  0.7585 -0.2849 -1.1938
 5983SOL    HW229586   2.030   1.188  17.069 -0.0961 -0.2558  0.2379
 5984SOL     OW29587   0.972   1.395   2.687 -0.3196 -0.1868  0.1085
 5984SOL    HW129588   1.067   1.383   2.684 -0.0838  1.4512  1.0262
 5984SOL    HW229589   0.948   1.326   2.625  1.6491 -0.0232 -0.8166
 5985SOL     OW29590   1.824   1.272  13.763 -0.4622 -0.5791 -0.2862
 5985SOL    HW129591   1.899   1.300  13.815 -1.1830  1.3082 -0.2372
 5985SOL    HW229592   1.861   1.203  13.708  2.1883  0.9850 -0.4419
 5986SOL     OW29593   4.070   0.482  11.456 -0.2205 -0.0643 -0.3124
 5986SOL    HW129594   4.018   0.561  11.463 -0.0056  0.2813 -2.5423
 5986SOL    HW229595   4.123   0.513  11.382  0.6730  1.0631  0.8092
 5987SOL     OW29596   0.577   3.286   2.729  0.1908  0.3333  0.3175
 5987SOL    HW129597   0.666   3.291   2.764  1.4667 -2.4796 -2.5761
 5987SOL    HW229598   0.580   3.193   2.709 -0.3981 -0.3970  3.7498
 5988SOL     OW29599   2.538   0.373   5.145  0.2499 -0.2935 -0.0734
 5988SOL    HW129600   2.615   0.337   5.189  0.7771  1.3198  0.3640
 5988SOL    HW229601   2.528   0.454   5.197 -2.7297 -0.8213  0.2024
 5989SOL     OW29602   3.424   2.674   6.616 -0.2849  0.5034 -0.6188
 5989SOL    HW129603   3.395   2.708   6.701  0.5526  0.1665 -0.1983
 5989SOL    HW229604   3.482   2.599   6.631  1.8628  2.2929  0.0457
 5990SOL     OW29605   0.250   2.429   7.966 -0.4370 -0.2252  0.5958
 5990SOL    HW129606   0.251   2.335   7.947 -2.1448 -0.4360  1.4747
 5990SOL    HW229607   0.341   2.457   7.969 -1.0160  1.3997  3.2317
 5991SOL     OW29608   3.025   2.141   6.265 -0.4257 -0.3179  0.3499
 5991SOL    HW129609   3.044   2.064   6.319  2.0414 -1.0708 -1.5832
 5991SOL    HW229610   3.010   2.098   6.181  0.4300  2.8233 -1.3619
 5992SOL     OW29611   2.604   0.903   1.086 -0.0683 -0.0570  0.6109
 5992SOL    HW129612   2.513   0.877   1.071 -0.6933  1.2467  2.0875
 5992SOL    HW229613   2.614   0.900   1.182 -2.0164 -0.6020  0.8070
 5993SOL     OW29614   0.538   4.177  17.464 -0.1659 -0.2995 -0.3788
 5993SOL    HW129615   0.539   4.189  17.369  1.5742  0.6698 -0.2190
 5993SOL    HW229616   0.575   4.261  17.489 -1.6958  0.8897 -2.1541
 5994SOL     OW29617   1.956   2.116  15.874  0.6037  0.0067  0.1483
 5994SOL    HW129618   2.029   2.118  15.935 -1.8001 -1.3807  3.0858
 5994SOL    HW229619   2.012   2.116  15.797  0.5586 -0.1981  0.1148
 5995SOL     OW29620   1.781   2.304  14.341 -0.6616  0.2472  0.0543
 5995SOL    HW129621   1.783   2.208  14.340  0.5147  0.2307  2.8366
 5995SOL    HW229622   1.873   2.323  14.323 -0.4367 -0.9128 -0.0596
 5996SOL     OW29623   4.245   3.558   4.242  0.3350  0.1600  0.0932
 5996SOL    HW129624   4.174   3.538   4.303  2.1194 -0.3319  1.9923
 5996SOL    HW229625   4.266   3.650   4.255  0.0645  0.5712 -2.3506
 5997SOL     OW29626   0.741   0.850   3.967  0.1283  0.0002 -0.1202
 5997SOL    HW129627   0.739   0.937   4.006 -2.2946 -0.6434  1.1577
 5997SOL    HW229628   0.681   0.810   4.029 -0.2401  0.7500  0.0071
 5998SOL     OW29629   0.053   1.497  12.965  0.2268  0.0887 -0.6153
 5998SOL    HW129630   0.039   1.523  12.874  0.7711 -1.2140 -1.0667
 5998SOL    HW229631   0.016   1.577  13.001  1.1700  1.4858 -2.7548
 5999SOL     OW29632   0.218   1.202   7.702 -0.1504 -0.5833  0.0259
 5999SOL    HW129633   0.305   1.228   7.672 -0.6649  1.7390  0.5792
 5999SOL    HW229634   0.231   1.211   7.796  0.7065  0.5637 -0.2000
 6000SOL     OW29635   3.723   2.146  15.298  0.2994 -0.4395  0.1942
 6000SOL    HW129636   3.773   2.066  15.282  0.6144 -0.2116  0.0309
 6000SOL    HW229637   3.793   2.197  15.338  0.1968  1.1625 -1.6884
 6001SOL     OW29638   1.003   1.662   7.580  0.1565  0.5725  0.1593
 6001SOL    HW129639   1.025   1.597   7.514 -0.8593 -0.0996  0.4655
 6001SOL    HW229640   1.076   1.723   7.572  0.0715  0.4681 -1.3011
 6002SOL     OW29641   3.018   0.105   5.180  0.3835 -0.1355  0.3505
 6002SOL    HW129642   3.072   0.065   5.248  1.8221 -1.2699 -1.4468
 6002SOL    HW229643   3.029   0.197   5.205 -1.2915 -0.3074  1.6910
 6003SOL     OW29644   4.403   0.246   2.941  0.7903 -0.9383 -0.3235
 6003SOL    HW129645   4.454   0.322   2.913 -0.3011  0.6445  1.9591
 6003SOL    HW229646   4.378   0.207   2.858 -0.6392 -0.5857 -0.0610
 6004SOL     OW29647   3.972   2.969  14.599  0.5886  0.4486 -0.2139
 6004SOL    HW129648   3.886   2.932  14.580  0.9532 -0.0728 -0.8255
 6004SOL    HW229649   3.954   3.047  14.651  0.8974  0.3045  0.1146
 6005SOL     OW29650   0.436   1.123   3.474  0.0895 -0.0927 -0.3411
 6005SOL    HW129651   0.467   1.212   3.460  2.1194 -0.4161  2.1716
 6005SOL    HW229652   0.472   1.093   3.557  1.6237  0.2678 -0.8785
 6006SOL     OW29653   2.028   2.507   2.012 -0.0027  0.4783 -0.0856
 6006SOL    HW129654   2.065   2.487   2.099  0.6888 -0.1726 -0.5280
 6006SOL    HW229655   2.011   2.601   2.010 -1.8535  0.1380 -0.3763
 6007SOL     OW29656   3.597   1.116   6.508 -0.8875  0.4141  0.2274
 6007SOL    HW129657   3.598   1.055   6.582 -1.7862 -0.2919 -0.3404
 6007SOL    HW229658   3.650   1.073   6.440 -1.6815 -0.1567 -0.0410
 6008SOL     OW29659   3.614   2.984  10.591 -0.2006  0.2101  0.1352
 6008SOL    HW129660   3.520   3.000  10.586  0.0431  1.2563 -1.0852
 6008SOL    HW229661   3.610   2.915  10.657  0.4179  0.1645  0.1290
 6009SOL     OW29662   0.183   0.093   2.682 -0.4042  0.2810  0.1529
 6009SOL    HW129663   0.100   0.126   2.645 -0.4875 -1.1697 -0.9501
 6009SOL    HW229664   0.239   0.099   2.605  2.1346  1.3343  2.0995
 6010SOL     OW29665   3.237   3.203   2.613  0.5726  0.3137 -0.1292
 6010SOL    HW129666   3.247   3.264   2.540 -0.6306  1.2920  0.5413
 6010SOL    HW229667   3.219   3.117   2.574 -0.1258  0.3291  0.1756
 6011SOL     OW29668   2.200   1.758   9.184 -0.1464 -0.1208  0.1257
 6011SOL    HW129669   2.141   1.691   9.147 -1.8113  0.3459  1.9651
 6011SOL    HW229670   2.169   1.834   9.134  0.9879 -1.0581 -2.0174
 6012SOL     OW29671   1.441   2.449   9.783 -0.4135  0.2679  0.5427
 6012SOL    HW129672   1.477   2.506   9.851 -0.1857  0.1367  0.5333
 6012SOL    HW229673   1.514   2.451   9.722 -1.5138  1.6751 -0.7268
 6013SOL     OW29674   2.279   3.594   3.074 -0.3233  0.8217 -0.5799
 6013SOL    HW129675   2.250   3.668   3.020 -1.3207 -0.6392 -2.0462
 6013SOL    HW229676   2.344   3.624   3.137  0.9862 -0.3119 -1.4034
 6014SOL     OW29677   0.780   3.611   7.231  0.1706 -0.0269 -0.2523
 6014SOL    HW129678   0.841   3.621   7.158 -0.8370  1.6890 -0.8469
 6014SOL    HW229679   0.715   3.672   7.197  0.0995  0.3886  0.6475
 6015SOL     OW29680   3.540   0.515  15.124 -0.0339 -0.3535  0.2363
 6015SOL    HW129681   3.562   0.515  15.217 -0.1189 -2.2374  0.2571
 6015SOL    HW229682   3.605   0.455  15.088 -0.8689 -0.8023 -0.5354
 6016SOL     OW29683   4.441   3.868  16.930  0.3770 -0.2763  0.4491
 6016SOL    HW129684   4.427   3.843  17.022  0.8408  2.8939  1.3850
 6016SOL    HW229685   4.506   3.803  16.903  0.1448 -0.2638 -0.1414
 6017SOL     OW29686   4.530   0.500   0.538 -0.0473 -0.3302  0.6342
 6017SOL    HW129687   4.443   0.514   0.577 -0.6723  0.4691 -1.0332
 6017SOL    HW229688   4.590   0.547   0.596 -0.0225 -0.3858  0.6534
 6018SOL     OW29689   0.758   1.809   1.132 -0.3648  0.2761 -0.0542
 6018SOL    HW129690   0.735   1.873   1.065  0.2978 -0.9817 -1.4629
 6018SOL    HW229691   0.839   1.848   1.166  0.4166 -1.2145 -0.2108
 6019SOL     OW29692   3.284   1.572   2.844 -0.2948 -0.0917  0.1299
 6019SOL    HW129693   3.209   1.571   2.785 -0.8545 -0.2885  0.8382
 6019SOL    HW229694   3.321   1.660   2.839 -3.3871  1.1554 -0.5192
 6020SOL     OW29695   3.016   0.610   1.997 -0.4759  0.2416 -0.3688
 6020SOL    HW129696   2.958   0.535   1.988 -1.6559  1.3125 -1.6072
 6020SOL    HW229697   3.095   0.568   2.032 -0.1333  2.2190  1.2872
 6021SOL     OW29698   2.163   2.515  12.281 -0.0943  0.2407 -0.1201
 6021SOL    HW129699   2.078   2.479  12.253  0.3001 -2.0634  1.7111
 6021SOL    HW229700   2.223   2.466  12.224 -0.4200 -0.2339 -0.0559
 6022SOL     OW29701   2.522   2.428   3.079  0.6595 -0.6364  0.5167
 6022SOL    HW129702   2.486   2.372   3.011 -1.4678 -0.6154  1.6358
 6022SOL    HW229703   2.607   2.388   3.101  1.5782  1.8066  1.4921
 6023SOL     OW29704   4.201   1.975   1.287 -0.4185  0.3869  0.0710
 6023SOL    HW129705   4.220   1.966   1.193  1.3460 -2.7898  0.7617
 6023SOL    HW229706   4.228   1.888   1.315  2.2787  1.4321  0.6743
 6024SOL     OW29707   0.560   4.728   5.230  0.6280  0.4455 -0.1120
 6024SOL    HW129708   0.650   4.723   5.263 -0.1036 -0.1635  1.7852
 6024SOL    HW229709   0.563   4.661   5.161  2.7425 -0.8644  1.2690
 6025SOL     OW29710   2.332   3.761   2.126 -0.1433  0.6921  0.0299
 6025SOL    HW129711   2.374   3.842   2.097  0.2884  0.2313 -0.6267
 6025SOL    HW229712   2.366   3.687   2.075 -0.0509 -0.2193  1.4189
 6026SOL     OW29713   2.492   1.700   1.298 -0.2677  0.0456 -0.0558
 6026SOL    HW129714   2.555   1.683   1.368  0.3503  1.3043 -0.3056
 6026SOL    HW229715   2.557   1.732   1.236 -1.0480 -1.3376 -1.5878
 6027SOL     OW29716   2.731   0.267   1.366 -0.4374  0.1152 -0.3789
 6027SOL    HW129717   2.644   0.290   1.396 -0.2251 -0.4845  0.7149
 6027SOL    HW229718   2.758   0.224   1.447 -1.3517 -0.5379 -0.4149
 6028SOL     OW29719   3.877   3.455  12.342 -0.4235 -0.0001  0.0109
 6028SOL    HW129720   3.881   3.526  12.406 -1.1040  0.4121 -0.4016
 6028SOL    HW229721   3.949   3.403  12.377  0.7011 -0.0613 -2.3862
 6029SOL     OW29722   3.927   1.677   3.823  0.5337  0.1569  0.2713
 6029SOL    HW129723   4.019   1.702   3.813  0.2489  2.4707  3.2853
 6029SOL    HW229724   3.932   1.654   3.916 -0.6984 -1.0420  0.0439
 6030SOL     OW29725   3.157   1.058   6.975  0.4049  0.3311 -0.0255
 6030SOL    HW129726   3.085   1.116   6.998  0.4097  0.9567 -1.5754
 6030SOL    HW229727   3.173   1.016   7.060  6.2128 -0.0372 -1.2537
 6031SOL     OW29728   2.451   3.812   6.926 -0.0143 -0.1447  0.1929
 6031SOL    HW129729   2.529   3.787   6.877  0.7981 -2.0002  2.4401
 6031SOL    HW229730   2.420   3.724   6.947  2.1348 -1.5231 -2.4838
 6032SOL     OW29731   1.427   0.223  11.915  0.1538 -0.0272 -0.5698
 6032SOL    HW129732   1.462   0.258  11.833 -1.4403  2.3305 -0.2429
 6032SOL    HW229733   1.337   0.224  11.882 -0.2630 -2.0079  0.4630
 6033SOL     OW29734   2.582   0.776   0.741  0.6095  0.3229 -0.3020
 6033SOL    HW129735   2.491   0.754   0.763  1.1623 -0.6215  1.0956
 6033SOL    HW229736   2.568   0.789   0.648  2.0730 -1.0848 -0.7323
 6034SOL     OW29737   4.101   2.629   5.863 -0.1707 -0.0743 -0.3282
 6034SOL    HW129738   4.182   2.679   5.871 -0.3702  0.0986  0.5732
 6034SOL    HW229739   4.034   2.694   5.885 -1.1214 -1.7196  1.6427
 6035SOL     OW29740   0.937   1.768  12.896  0.1138 -0.1395 -0.3978
 6035SOL    HW129741   1.023   1.807  12.911  0.4080 -0.6607 -0.7712
 6035SOL    HW229742   0.949   1.677  12.923 -0.9528  0.3608  1.7569
 6036SOL     OW29743   3.999   3.399   6.262 -0.2515  0.1453 -0.4184
 6036SOL    HW129744   4.065   3.380   6.196  0.7772 -0.6449  0.8472
 6036SOL    HW229745   3.916   3.375   6.221  0.3469  0.2904 -1.7116
 6037SOL     OW29746   2.262   2.846   2.601 -0.0860 -0.3411 -0.2124
 6037SOL    HW129747   2.338   2.813   2.650  1.0548 -1.2580 -2.6198
 6037SOL    HW229748   2.203   2.888   2.664  0.8946  0.3042  0.2820
 6038SOL     OW29749   0.393   2.536   8.502 -0.1735  0.6043  0.8070
 6038SOL    HW129750   0.312   2.568   8.463  0.4421  0.2520 -0.7326
 6038SOL    HW229751   0.439   2.497   8.428  1.2273  1.6084  1.1394
 6039SOL     OW29752   2.427   0.398  14.757 -0.1032  0.2956  0.1622
 6039SOL    HW129753   2.351   0.341  14.766  1.4514 -1.4467  2.1969
 6039SOL    HW229754   2.501   0.341  14.736 -2.4550 -1.4664 -3.3416
 6040SOL     OW29755   4.607   0.613   2.634 -0.3027  0.2805 -0.7543
 6040SOL    HW129756   4.695   0.649   2.628  0.2132 -1.2378 -2.1046
 6040SOL    HW229757   4.599   0.581   2.544  0.2246 -0.5466 -0.5033
 6041SOL     OW29758   1.140   1.006   5.397  0.1199 -0.4764 -1.0245
 6041SOL    HW129759   1.224   0.985   5.356  0.7059 -2.0874  0.9950
 6041SOL    HW229760   1.078   0.977   5.331 -0.3474 -2.2106  0.1890
 6042SOL     OW29761   2.717   1.624   5.295 -0.3809 -0.1103  0.0172
 6042SOL    HW129762   2.731   1.536   5.330  1.2166  1.1250  2.4619
 6042SOL    HW229763   2.629   1.609   5.261 -0.1879  0.1644 -0.6048
 6043SOL     OW29764   0.320   2.232   3.628 -0.1770 -0.7876  0.5001
 6043SOL    HW129765   0.411   2.203   3.628 -0.0204 -0.2672 -0.3197
 6043SOL    HW229766   0.332   2.327   3.625  1.6721 -1.1600 -3.0217
 6044SOL     OW29767   1.869   2.919  10.767 -0.1595  0.3361 -0.1368
 6044SOL    HW129768   1.920   2.839  10.761 -0.4071  0.3260 -1.9801
 6044SOL    HW229769   1.793   2.883  10.813  0.5241  0.0902  0.8022
 6045SOL     OW29770   2.698   2.525   3.784 -0.1073  0.8265  0.1815
 6045SOL    HW129771   2.718   2.542   3.692  0.5517  2.1224  0.5685
 6045SOL    HW229772   2.765   2.461   3.805  0.2618  0.9473 -0.6432
 6046SOL     OW29773   0.334   3.141  16.913  0.1392  0.1072 -0.5510
 6046SOL    HW129774   0.406   3.086  16.943  1.2265  1.4532 -0.7223
 6046SOL    HW229775   0.292   3.174  16.993  4.1012  2.1451  0.6652
 6047SOL     OW29776   2.419   0.662  13.340  0.6979 -0.3938  0.7797
 6047SOL    HW129777   2.489   0.630  13.397  1.9829 -0.4338 -0.8004
 6047SOL    HW229778   2.362   0.585  13.335  0.4756 -0.1116 -0.9959
 6048SOL     OW29779   3.568   4.193   6.969 -0.7407  0.3005  0.3492
 6048SOL    HW129780   3.608   4.279   6.980  2.1346 -1.0278  0.2759
 6048SOL    HW229781   3.492   4.187   7.027 -1.2153  2.7034 -0.0281
 6049SOL     OW29782   1.949   1.969   7.445  0.3203 -0.6799  0.0857
 6049SOL    HW129783   2.032   2.009   7.473 -0.0248 -0.0849  0.2450
 6049SOL    HW229784   1.975   1.901   7.382  0.1547 -0.7339  0.0769
 6050SOL     OW29785   4.368   3.614   7.920 -0.3806 -0.3425  0.2282
 6050SOL    HW129786   4.448   3.616   7.973  0.2770  2.7926 -0.9068
 6050SOL    HW229787   4.302   3.654   7.976  1.7183  2.3881  0.7644
 6051SOL     OW29788   3.197   0.178   5.814  0.4366 -0.2938  0.2323
 6051SOL    HW129789   3.206   0.128   5.895  1.5138 -1.5163 -0.6424
 6051SOL    HW229790   3.280   0.150   5.775  0.8501 -0.2117  1.0410
 6052SOL     OW29791   3.803   3.556  16.703 -0.1301  0.3462 -0.2097
 6052SOL    HW129792   3.869   3.572  16.635  2.4206 -1.7446  1.7813
 6052SOL    HW229793   3.723   3.562  16.651 -0.8072 -0.0919  0.7836
 6053SOL     OW29794   2.086   0.931  12.254 -0.0315 -0.4726 -0.1747
 6053SOL    HW129795   2.098   0.914  12.161  3.5641  2.7548 -0.3209
 6053SOL    HW229796   2.056   0.847  12.289 -0.5603 -0.0024  0.4990
 6054SOL     OW29797   1.926   2.362   3.718 -0.3081 -1.0518 -0.5407
 6054SOL    HW129798   1.922   2.266   3.726 -0.6631 -1.0353 -0.5574
 6054SOL    HW229799   1.871   2.375   3.641 -0.0889 -1.5440 -0.7799
 6055SOL     OW29800   4.068   2.551  15.255 -0.0486  0.2584 -0.0530
 6055SOL    HW129801   4.150   2.591  15.284 -0.5794  0.0392  1.8122
 6055SOL    HW229802   4.003   2.613  15.288 -1.7307 -1.3695 -0.3091
 6056SOL     OW29803   2.478   0.117  15.154 -0.1037  0.0067 -0.0324
 6056SOL    HW129804   2.497   0.210  15.144  1.3180 -0.5104 -2.0740
 6056SOL    HW229805   2.555   0.078  15.196 -0.1293 -1.3530 -1.2575
 6057SOL     OW29806   4.108   3.563   4.923 -0.3245  0.4815 -0.0077
 6057SOL    HW129807   4.191   3.607   4.941 -0.4357  1.3081 -1.4912
 6057SOL    HW229808   4.141   3.489   4.872 -0.8428  0.0076  0.3449
 6058SOL     OW29809   1.538   3.583   4.459 -0.0800  0.0362 -0.2568
 6058SOL    HW129810   1.628   3.551   4.471  0.6881  1.3541 -2.4335
 6058SOL    HW229811   1.489   3.553   4.536 -1.2167  2.7477  0.0735
 6059SOL     OW29812   0.092   1.061   4.547  0.1457 -0.5281  0.4423
 6059SOL    HW129813   0.045   1.050   4.465  2.8102 -0.7807 -1.0763
 6059SOL    HW229814   0.105   1.156   4.551 -1.0027 -0.3795  0.4553
 6060SOL     OW29815   4.609   2.626   4.444 -0.0455 -0.1771 -0.5603
 6060SOL    HW129816   4.675   2.567   4.409 -3.0278 -1.5039 -3.9154
 6060SOL    HW229817   4.647   2.621   4.532 -0.9897 -1.9688 -0.2485
 6061SOL     OW29818   3.188   1.904  17.695 -0.3449 -0.3427 -0.2386
 6061SOL    HW129819   3.098   1.933  17.687  0.4526  2.2921  0.4113
 6061SOL    HW229820   3.220   1.932   0.025  1.4669 -2.6748 -0.1357
 6062SOL     OW29821   4.681   4.273   9.251  0.1575  0.3689  0.2223
 6062SOL    HW129822   4.649   4.309   9.168 -2.2159 -0.6965  0.6924
 6062SOL    HW229823   0.034   4.293   9.239 -0.4190  2.6494 -0.3177
 6063SOL     OW29824   1.686   0.056   3.836 -0.4431 -0.0355  0.6068
 6063SOL    HW129825   1.649   0.144   3.834 -0.3697 -0.0095  0.3801
 6063SOL    HW229826   1.758   0.063   3.898 -0.3907 -3.4367  0.9301
 6064SOL     OW29827   1.375   3.338   0.492  0.4359 -0.5711  0.1680
 6064SOL    HW129828   1.404   3.425   0.518 -0.4055 -0.3974  0.5260
 6064SOL    HW229829   1.288   3.365   0.460  1.5234  1.4195 -1.0971
 6065SOL     OW29830   1.654   1.045   8.343  0.0419 -0.5233 -0.3843
 6065SOL    HW129831   1.698   0.963   8.323  3.4400  0.4199  3.3668
 6065SOL    HW229832   1.560   1.028   8.341 -0.4756  2.2235  0.1006
 6066SOL     OW29833   1.588   3.073   6.702 -0.4433 -0.4201 -0.3085
 6066SOL    HW129834   1.663   3.121   6.737  0.0283 -0.7687 -0.8381
 6066SOL    HW229835   1.616   2.984   6.722 -1.3773 -0.5701  0.3522
 6067SOL     OW29836   1.779   1.280   5.848  0.3459  0.1829  0.1079
 6067SOL    HW129837   1.826   1.272   5.931  0.2724 -1.5065 -0.0057
 6067SOL    HW229838   1.697   1.319   5.878  1.1995  0.9619  1.4478
 6068SOL     OW29839   1.892   2.683   6.994  0.2219 -0.2191 -0.2107
 6068SOL    HW129840   1.982   2.665   7.023  0.6736  0.7261 -1.0238
 6068SOL    HW229841   1.851   2.721   7.072 -1.3468  1.4894 -1.8829
 6069SOL     OW29842   0.704   3.315   8.933 -0.5181  0.6516  0.4852
 6069SOL    HW129843   0.687   3.392   8.987  1.8222  1.3427  0.2622
 6069SOL    HW229844   0.635   3.260   8.970  0.8208 -2.6013 -1.8368
 6070SOL     OW29845   1.454   3.516   4.718 -0.2083  0.1814  0.6677
 6070SOL    HW129846   1.359   3.511   4.705 -0.4062  0.9797  1.7789
 6070SOL    HW229847   1.445   3.583   4.785 -0.2299  1.3385 -0.4802
 6071SOL     OW29848   0.667   1.442   2.736 -0.4105  0.0022  0.0512
 6071SOL    HW129849   0.744   1.395   2.703  0.1769  2.0750 -1.5412
 6071SOL    HW229850   0.666   1.410   2.827  1.6868 -0.0024  0.0824
 6072SOL     OW29851   3.627   4.364  15.180 -0.8176  0.4136 -0.0880
 6072SOL    HW129852   3.576   4.300  15.230  2.1105 -1.9103 -0.0065
 6072SOL    HW229853   3.563   4.416  15.133  0.2096  1.1733 -0.6297
 6073SOL     OW29854   4.591   0.106   6.071 -0.5380 -0.1138  0.5835
 6073SOL    HW129855   4.604   0.144   6.158 -0.4012  0.7334  0.1851
 6073SOL    HW229856   4.521   0.046   6.098 -0.2547 -0.6919  0.0185
 6074SOL     OW29857   1.093   2.383   0.830  0.3638  0.0720 -0.4391
 6074SOL    HW129858   1.121   2.346   0.914  2.6024 -0.6421 -1.4836
 6074SOL    HW229859   1.160   2.445   0.800 -1.5450  2.1361 -0.4073
 6075SOL     OW29860   3.239   3.345   3.795  0.0108 -0.4537  0.2215
 6075SOL    HW129861   3.203   3.432   3.777 -1.6892 -1.4379 -1.1205
 6075SOL    HW229862   3.331   3.362   3.814 -0.6191  1.6796  1.4287
 6076SOL     OW29863   2.368   4.080   5.227 -0.1676 -0.3172 -0.6977
 6076SOL    HW129864   2.341   4.143   5.295  1.9772  2.5364 -2.5044
 6076SOL    HW229865   2.380   4.134   5.149 -0.1801  1.0193  0.2204
 6077SOL     OW29866   2.027   4.646   6.354 -0.3697  0.1819 -1.0553
 6077SOL    HW129867   2.024   4.729   6.401  1.3670 -1.1824  1.4437
 6077SOL    HW229868   2.091   4.655   6.283  2.1342 -1.3089  1.0288
 6078SOL     OW29869   3.299   2.935   3.708  0.4101  0.2955  0.7394
 6078SOL    HW129870   3.204   2.925   3.716  0.2179  0.8257 -0.8832
 6078SOL    HW229871   3.331   2.845   3.717 -0.9749 -0.3588 -0.7650
 6079SOL     OW29872   3.720   4.348  13.546 -0.0457 -0.5119  0.1098
 6079SOL    HW129873   3.729   4.421  13.485  0.6856 -0.3851  0.3681
 6079SOL    HW229874   3.663   4.393  13.609 -0.8127 -1.1221 -0.1492
 6080SOL     OW29875   1.686   4.563   4.391  0.1285  0.5040 -0.1006
 6080SOL    HW129876   1.648   4.641   4.431  0.7958  0.8044 -0.0524
 6080SOL    HW229877   1.610   4.505   4.395  0.5573  0.0925  1.8420
 6081SOL     OW29878   2.012   2.875   3.311 -0.5302 -0.0647  0.4063
 6081SOL    HW129879   1.992   2.968   3.320  2.4639  0.3270  3.2051
 6081SOL    HW229880   2.010   2.848   3.403  0.3164  1.4487  0.8710
 6082SOL     OW29881   1.621   0.611  11.971  0.2642 -0.3735 -0.8407
 6082SOL    HW129882   1.617   0.548  11.899  0.3127 -1.0043 -0.2866
 6082SOL    HW229883   1.712   0.604  12.001  0.1085 -0.2125 -0.3384
 6083SOL     OW29884   4.704   4.662   2.933  0.1595 -0.1059  0.2419
 6083SOL    HW129885   4.671   4.656   2.844  0.2197 -0.9367  0.2723
 6083SOL    HW229886   4.630   4.691   2.986  0.4810 -0.4671  0.8999
 6084SOL     OW29887   0.038   1.744   2.283 -0.4538  0.3878 -0.4887
 6084SOL    HW129888   0.082   1.681   2.225 -1.7144  0.5017 -1.5651
 6084SOL    HW229889   0.046   1.825   2.232 -1.4047  0.7317 -0.0966
 6085SOL     OW29890   1.460   1.200   5.042  0.4811 -0.5644 -1.0723
 6085SOL    HW129891   1.520   1.142   5.090 -0.4901  0.1944  0.9926
 6085SOL    HW229892   1.531   1.264   5.039 -0.5800  0.6307 -0.0679
 6086SOL     OW29893   0.169   3.673   4.810  0.5978 -0.1941  0.4152
 6086SOL    HW129894   0.116   3.713   4.879  0.1849  0.8212 -0.4935
 6086SOL    HW229895   0.230   3.630   4.870  0.4531 -2.1988 -0.8927
 6087SOL     OW29896   1.544   2.151   5.281  0.1238 -0.2001  0.0899
 6087SOL    HW129897   1.614   2.171   5.218 -0.0478 -1.2442 -0.4411
 6087SOL    HW229898   1.545   2.056   5.264  0.8360  0.0393 -1.2560
 6088SOL     OW29899   3.475   1.424   4.016 -0.2366  0.1771 -1.0803
 6088SOL    HW129900   3.402   1.409   3.955 -0.1357 -0.4900 -1.0397
 6088SOL    HW229901   3.548   1.423   3.954  1.0149 -0.9923  0.4009
 6089SOL     OW29902   3.635   1.057   7.895  0.7493  0.2948  0.2643
 6089SOL    HW129903   3.699   1.109   7.945  1.4621 -0.9964  0.6771
 6089SOL    HW229904   3.643   1.110   7.815 -0.1375  1.3819  0.8945
 6090SOL     OW29905   2.864   1.531   1.189 -0.0256 -0.1006 -0.5401
 6090SOL    HW129906   2.930   1.463   1.199  1.9467  2.2112  2.1655
 6090SOL    HW229907   2.891   1.557   1.101 -0.2433 -0.6653 -0.7762
 6091SOL     OW29908   1.742   0.369   0.123 -0.0203 -0.1022  0.2942
 6091SOL    HW129909   1.729   0.319   0.204 -0.4982  0.2551  0.4404
 6091SOL    HW229910   1.728   0.458   0.156 -2.5005 -0.8192  1.1890
 6092SOL     OW29911   3.256   1.198  10.610 -0.2226  0.3540 -0.3481
 6092SOL    HW129912   3.327   1.238  10.560 -0.1587 -1.0512 -1.3580
 6092SOL    HW229913   3.214   1.274  10.650  2.0378  1.7474 -0.5994
 6093SOL     OW29914   1.594   2.746   3.599 -0.6624  0.8114 -0.5261
 6093SOL    HW129915   1.529   2.680   3.621 -0.8180  1.1418  0.0245
 6093SOL    HW229916   1.645   2.747   3.680 -0.3543  2.0836 -0.7357
 6094SOL     OW29917   1.508   1.066   3.775  0.0386 -0.2761  0.2613
 6094SOL    HW129918   1.557   0.986   3.756  0.2733 -0.3612  1.2136
 6094SOL    HW229919   1.504   1.057   3.870  0.7428 -1.2443  0.2066
 6095SOL     OW29920   3.374   0.111   9.439 -0.1823  0.0125 -0.4258
 6095SOL    HW129921   3.320   0.150   9.371  0.2158  0.3772 -0.5335
 6095SOL    HW229922   3.374   0.176   9.510  0.4429 -1.2785  0.7682
 6096SOL     OW29923   2.988   0.140   8.131 -0.4167 -0.2221 -0.6435
 6096SOL    HW129924   2.894   0.126   8.133 -0.4711  0.1415 -0.7987
 6096SOL    HW229925   3.024   0.061   8.089  1.0185  0.6363 -1.0312
 6097SOL     OW29926   0.882   2.873   2.868 -0.3470 -0.1885 -0.5238
 6097SOL    HW129927   0.823   2.942   2.897 -1.8491 -1.4185 -0.7032
 6097SOL    HW229928   0.895   2.824   2.949 -0.3082  0.2576 -0.2574
 6098SOL     OW29929   1.914   1.986  16.624  0.1178 -0.1097 -0.5107
 6098SOL    HW129930   1.983   2.037  16.667 -0.5239 -1.5748  2.2791
 6098SOL    HW229931   1.949   1.897  16.631 -0.4555 -0.3328 -0.4284
 6099SOL     OW29932   0.553   4.336  12.824 -0.1434 -0.9116 -0.6688
 6099SOL    HW129933   0.639   4.365  12.853 -1.4860  0.5831  1.8213
 6099SOL    HW229934   0.515   4.413  12.783  0.9650  0.0941  0.1768
 6100SOL     OW29935   1.936   0.848  17.675  0.0204 -0.0392  0.0548
 6100SOL    HW129936   1.880   0.864  17.752 -1.5999  2.9927 -1.7804
 6100SOL    HW229937   1.997   0.788  17.719 -3.5353 -2.5970  1.5509
 6101SOL     OW29938   1.598   2.631   9.966 -0.4298  0.3651  0.1047
 6101SOL    HW129939   1.552   2.714   9.954  0.5457  0.6656 -1.5731
 6101SOL    HW229940   1.684   2.644   9.925  1.1446 -1.1067  2.9960
 6102SOL     OW29941   1.661   1.279   9.912  0.0361 -0.3429 -0.1026
 6102SOL    HW129942   1.622   1.325   9.838  0.3465  0.1931  0.0648
 6102SOL    HW229943   1.588   1.221   9.934 -2.6413  2.9233 -0.3417
 6103SOL     OW29944   2.610   0.862   9.613  0.0251  0.1261  0.3430
 6103SOL    HW129945   2.586   0.844   9.704  1.1540 -2.3021  0.1729
 6103SOL    HW229946   2.608   0.957   9.623 -1.5293  0.0513  0.7674
 6104SOL     OW29947   4.073   0.172   1.012  0.1316  0.5294 -0.3394
 6104SOL    HW129948   4.010   0.216   1.069  3.6419  2.0136  2.4106
 6104SOL    HW229949   4.012   0.111   0.971  2.5042  0.0414 -3.0893
 6105SOL     OW29950   3.499   3.759   5.047 -0.1862  0.3524 -0.4681
 6105SOL    HW129951   3.460   3.845   5.028 -1.5705  0.0624  1.0144
 6105SOL    HW229952   3.526   3.785   5.135  1.7920  0.3346 -1.0776
 6106SOL     OW29953   2.113   0.601   9.021  0.1200  0.6051  0.0028
 6106SOL    HW129954   2.050   0.665   9.054  1.3703  1.7836  0.0809
 6106SOL    HW229955   2.105   0.616   8.927  1.8493 -0.0053 -0.2382
 6107SOL     OW29956   3.979   0.215   9.559  0.4403  0.3120  0.2671
 6107SOL    HW129957   4.015   0.170   9.483 -1.5833 -0.6724 -0.1293
 6107SOL    HW229958   4.060   0.252   9.592  0.4428  1.2567 -0.8150
 6108SOL     OW29959   2.293   3.654   7.601 -0.2917  0.0803 -0.4781
 6108SOL    HW129960   2.346   3.676   7.677 -1.8456 -1.2648  1.0092
 6108SOL    HW229961   2.265   3.739   7.566  0.9034 -0.4374 -2.7081
 6109SOL     OW29962   4.124   3.186   8.473  0.6047 -0.2028  0.4327
 6109SOL    HW129963   4.063   3.256   8.450  0.8147 -0.0738  0.2709
 6109SOL    HW229964   4.177   3.243   8.528  2.8157 -1.9099  0.0813
 6110SOL     OW29965   2.198   2.858   6.720  0.0884 -0.1280 -0.5457
 6110SOL    HW129966   2.191   2.778   6.772  1.9590 -0.8627 -1.4041
 6110SOL    HW229967   2.292   2.859   6.699  0.4616  2.2544  1.2110
 6111SOL     OW29968   1.813   3.190   7.164  0.9219  0.7767 -0.0125
 6111SOL    HW129969   1.816   3.152   7.252  0.0737  3.2164  1.0670
 6111SOL    HW229970   1.774   3.119   7.113  0.3502  0.3366  1.0264
 6112SOL     OW29971   0.357   2.191   0.936  0.0643  0.5915  0.1420
 6112SOL    HW129972   0.323   2.123   0.878  1.0109  0.6997 -0.5332
 6112SOL    HW229973   0.355   2.147   1.021 -1.2999  0.6734  0.1604
 6113SOL     OW29974   1.432   2.181   1.649  0.3473 -0.0367 -0.8281
 6113SOL    HW129975   1.347   2.175   1.606  1.5645  2.6483 -3.6420
 6113SOL    HW229976   1.430   2.275   1.667  1.0826 -0.5608  1.8793
 6114SOL     OW29977   0.833   0.732   4.801  0.0446 -0.1219  0.2452
 6114SOL    HW129978   0.833   0.644   4.839  0.7967 -1.0502 -1.9531
 6114SOL    HW229979   0.886   0.790   4.855 -0.7290 -0.4009  1.3152
 6115SOL     OW29980   0.610   1.098   9.182  1.0847 -0.1912  0.2557
 6115SOL    HW129981   0.628   1.186   9.149  1.6598  0.7224  2.9518
 6115SOL    HW229982   0.526   1.123   9.221  0.3134  0.1916 -1.6610
 6116SOL     OW29983   3.919   0.646   1.054 -0.0216 -0.0540 -0.1252
 6116SOL    HW129984   3.854   0.715   1.035  0.2742  0.6362  1.3751
 6116SOL    HW229985   3.972   0.680   1.126  0.4439  1.6039 -1.2412
 6117SOL     OW29986   3.516   2.090   9.323 -0.2327  0.7329  0.3041
 6117SOL    HW129987   3.496   2.079   9.230  1.0502  0.8096  0.0122
 6117SOL    HW229988   3.430   2.089   9.364 -0.1468 -1.4869  0.4505
 6118SOL     OW29989   1.878   4.015  12.293  0.7163  0.1043  0.9767
 6118SOL    HW129990   1.944   3.956  12.330  0.5967 -0.6807 -0.0671
 6118SOL    HW229991   1.925   4.059  12.223  0.1049  0.1365  0.5799
 6119SOL     OW29992   0.722   2.631   4.533  0.1416  0.0711 -0.2093
 6119SOL    HW129993   0.703   2.628   4.439  0.9548 -0.2526 -0.3679
 6119SOL    HW229994   0.694   2.546   4.567  3.1423 -1.0944 -0.6224
 6120SOL     OW29995   3.434   3.687   6.381 -0.1969 -0.4708 -0.1200
 6120SOL    HW129996   3.345   3.702   6.350 -0.4875 -1.1222  0.4068
 6120SOL    HW229997   3.480   3.674   6.298  0.8277  0.4506  0.3054
 6121SOL     OW29998   1.882   2.048   7.105  0.2914  0.1610 -0.2222
 6121SOL    HW129999   1.889   2.141   7.087 -0.5764  0.5144  1.2972
 6121SOL    HW230000   1.975   2.025   7.108  0.3184  0.6101  3.2439
 6122SOL     OW30001   2.328   1.904  14.049 -0.2387  0.5188  0.0864
 6122SOL    HW130002   2.265   1.949  13.993  2.0784  0.4750 -2.5736
 6122SOL    HW230003   2.391   1.963  14.091  2.5182 -0.9777 -1.9513
 6123SOL     OW30004   3.938   1.704   6.779 -0.1145 -0.1700  0.0550
 6123SOL    HW130005   3.917   1.729   6.689 -1.9556 -0.9961  0.2573
 6123SOL    HW230006   3.859   1.651   6.790 -1.4244  2.1394  1.7945
 6124SOL     OW30007   2.097   1.287  12.019  0.0412 -0.1711  0.1430
 6124SOL    HW130008   2.061   1.214  11.970 -0.3614 -0.0338  0.2363
 6124SOL    HW230009   2.027   1.352  12.016  1.7603  1.6953 -0.0747
 6125SOL     OW30010   0.914   1.948   9.070 -0.1120 -0.7135 -0.1130
 6125SOL    HW130011   0.925   2.039   9.041  1.8129 -0.6286  0.8688
 6125SOL    HW230012   0.902   1.965   9.164 -1.2743  0.6365 -0.5079
 6126SOL     OW30013   3.989   0.329  11.245 -0.0823 -0.1679 -0.2704
 6126SOL    HW130014   3.911   0.274  11.252 -1.7540  1.9621 -2.0706
 6126SOL    HW230015   3.989   0.386  11.322  1.0445  1.8899 -1.7953
 6127SOL     OW30016   1.014   4.714   6.887 -0.2248  1.0762  0.1971
 6127SOL    HW130017   1.070   4.663   6.945  1.0228  1.7300 -0.4245
 6127SOL    HW230018   0.926   4.695   6.920  0.6135  1.2851  2.5030
 6128SOL     OW30019   3.351   0.367   7.813  0.8466 -0.2137  0.0901
 6128SOL    HW130020   3.430   0.380   7.761  0.4891 -0.2670 -0.4557
 6128SOL    HW230021   3.320   0.458   7.815  1.9357  0.1499  1.1736
 6129SOL     OW30022   0.023   1.011   8.779 -0.0379  0.5564  0.6822
 6129SOL    HW130023   0.072   1.061   8.714  0.2726 -0.2979  0.2654
 6129SOL    HW230024   4.675   1.043   8.755  0.6911  0.5081 -2.0066
 6130SOL     OW30025   4.331   2.920   0.784  0.2284  1.4554 -0.4119
 6130SOL    HW130026   4.357   3.012   0.785  1.0514  1.1821  2.0246
 6130SOL    HW230027   4.408   2.893   0.733  0.4856 -1.5518  1.6062
 6131SOL     OW30028   4.445   3.167   6.450 -0.0966  0.6318  0.2683
 6131SOL    HW130029   4.502   3.091   6.439 -0.9245  0.1001 -0.3062
 6131SOL    HW230030   4.366   3.130   6.490 -0.3892  0.5297 -0.4001
 6132SOL     OW30031   2.220   3.106   8.481 -0.0775 -0.0589 -0.2649
 6132SOL    HW130032   2.212   3.082   8.389  0.5267 -1.5987  0.0903
 6132SOL    HW230033   2.313   3.084   8.492 -0.4463 -2.0758 -1.2151
 6133SOL     OW30034   1.656   0.998   6.499 -0.0967 -0.0691  0.6250
 6133SOL    HW130035   1.582   0.953   6.458  0.1554  0.8210 -0.7980
 6133SOL    HW230036   1.702   1.030   6.421 -2.2721  0.2221 -0.5458
 6134SOL     OW30037   4.202   0.074   4.400  0.4547 -0.3670 -0.3567
 6134SOL    HW130038   4.151   0.119   4.332  1.1638  2.7649  1.1558
 6134SOL    HW230039   4.221   4.734   4.351 -0.4281 -1.4948  1.1074
 6135SOL     OW30040   0.613   1.670   9.369 -0.3533  0.2709 -0.2110
 6135SOL    HW130041   0.633   1.714   9.286 -0.2957  0.4418 -0.1056
 6135SOL    HW230042   0.518   1.677   9.368 -0.3439  0.3730 -0.5751
 6136SOL     OW30043   1.718   3.266  16.951  0.5829 -0.2435 -0.6425
 6136SOL    HW130044   1.647   3.292  17.009 -0.4015  0.3794 -2.0978
 6136SOL    HW230045   1.699   3.172  16.954 -0.3541 -0.0932 -1.7774
 6137SOL     OW30046   0.920   0.253  14.961  0.3136  0.0755 -0.0873
 6137SOL    HW130047   0.835   0.267  15.002 -0.8795 -0.0451 -2.5343
 6137SOL    HW230048   0.879   0.216  14.883  1.5441 -0.1490 -0.6316
 6138SOL     OW30049   1.007   2.397   7.835  0.1442  0.0851  0.2908
 6138SOL    HW130050   0.970   2.440   7.912 -0.5557  0.8392 -0.4591
 6138SOL    HW230051   0.960   2.439   7.762  1.2138  1.0810  0.1759
 6139SOL     OW30052   3.626   0.862   8.223  0.1688  0.0573 -0.7206
 6139SOL    HW130053   3.669   0.843   8.306 -1.3362 -1.2667 -0.2407
 6139SOL    HW230054   3.564   0.930   8.251  0.4730  0.1786 -0.3325
 6140SOL     OW30055   0.871   2.246   5.586 -0.0667  0.6669  0.5894
 6140SOL    HW130056   0.856   2.266   5.494 -1.4097  1.7164  1.0401
 6140SOL    HW230057   0.964   2.222   5.590  0.0349  1.0050  0.1988
 6141SOL     OW30058   0.794   0.908  13.388  0.2203  0.6366  0.4540
 6141SOL    HW130059   0.857   0.980  13.383  1.2147 -0.3744 -1.5515
 6141SOL    HW230060   0.749   0.919  13.472 -0.5917  1.5825 -0.1017
 6142SOL     OW30061   3.009   2.009   1.666 -0.9494  0.1544 -0.6445
 6142SOL    HW130062   3.060   1.999   1.746  2.2629  1.0614 -2.5789
 6142SOL    HW230063   2.930   2.046   1.705  0.1534  0.8461  0.9078
 6143SOL     OW30064   1.235   4.214  10.227  0.0678  0.3059  0.1971
 6143SOL    HW130065   1.241   4.259  10.142  0.6273  0.0884  0.1171
 6143SOL    HW230066   1.171   4.146  10.208  0.7475 -0.5731  1.0431
 6144SOL     OW30067   1.022   3.528  15.804  0.0948 -0.2406 -0.2192
 6144SOL    HW130068   0.933   3.505  15.832 -0.1038 -0.6811 -1.1987
 6144SOL    HW230069   0.997   3.581  15.728 -0.5844 -1.9470 -1.1936
 6145SOL     OW30070   1.307   3.182   4.720 -0.3895 -0.3154  0.6552
 6145SOL    HW130071   1.306   3.277   4.733 -2.3607 -0.7431  3.5247
 6145SOL    HW230072   1.252   3.170   4.642  0.8772 -0.3553 -0.2261
 6146SOL     OW30073   1.824   0.763   5.637 -0.2302  0.8208  0.4816
 6146SOL    HW130074   1.876   0.735   5.562  0.4482  0.9346  0.9153
 6146SOL    HW230075   1.737   0.732   5.610  0.3182  1.2526 -1.7604
 6147SOL     OW30076   2.927   0.862  11.404 -0.4232 -0.3065  0.2406
 6147SOL    HW130077   2.988   0.845  11.332 -1.1163 -2.2473  0.1024
 6147SOL    HW230078   2.883   0.777  11.407  1.9350 -1.5672 -1.0431
 6148SOL     OW30079   1.735   2.923   7.846  0.9139  0.2026 -0.0152
 6148SOL    HW130080   1.646   2.918   7.881  1.0126  1.0485  0.3471
 6148SOL    HW230081   1.749   2.829   7.832  1.1932  0.3089 -0.4354
 6149SOL     OW30082   0.889   2.107   2.572 -0.3069 -0.7392 -0.1060
 6149SOL    HW130083   0.821   2.164   2.536  2.6036  2.2100 -0.9430
 6149SOL    HW230084   0.914   2.065   2.490 -0.7696  0.4720 -0.8721
 6150SOL     OW30085   1.296   0.198   5.767  0.0944 -0.1640 -0.5931
 6150SOL    HW130086   1.377   0.243   5.746  0.0420 -0.2465 -0.9745
 6150SOL    HW230087   1.243   0.230   5.694  0.3444 -2.0723 -1.6253
 6151SOL     OW30088   1.527   1.881   4.544  0.1376 -0.2549  0.5772
 6151SOL    HW130089   1.467   1.876   4.620 -0.0092  0.7354  0.5314
 6151SOL    HW230090   1.464   1.906   4.476  0.8157  1.6901  0.6471
 6152SOL     OW30091   3.774   3.073   3.485  0.1186 -0.0709  0.5801
 6152SOL    HW130092   3.720   2.995   3.477  0.0052  0.0415  0.2343
 6152SOL    HW230093   3.770   3.101   3.393  1.3011  0.2007  0.6165
 6153SOL     OW30094   0.265   1.576   1.115 -0.3986  0.5739  0.3913
 6153SOL    HW130095   0.248   1.499   1.060 -0.0950 -0.3816  1.6218
 6153SOL    HW230096   0.207   1.557   1.189 -1.0525  1.4035  0.0884
 6154SOL     OW30097   4.195   0.668  10.802  0.7051 -0.1754 -0.0486
 6154SOL    HW130098   4.228   0.580  10.782  0.0268 -0.7017  1.1586
 6154SOL    HW230099   4.192   0.708  10.716 -1.7268 -2.6881 -1.1450
 6155SOL     OW30100   3.647   3.010   4.358  0.6755  0.4970 -0.1407
 6155SOL    HW130101   3.572   3.036   4.305  0.4014 -0.0726 -0.0383
 6155SOL    HW230102   3.658   3.089   4.411 -0.5642  0.5154  0.0999
 6156SOL     OW30103   4.376   4.028  15.909 -0.1454  0.0225  0.2522
 6156SOL    HW130104   4.453   3.978  15.935 -1.0232 -0.5813  1.6888
 6156SOL    HW230105   4.376   4.107  15.963  0.7113  0.8899 -1.0183
 6157SOL     OW30106   4.381   2.818   7.222 -0.0476 -0.2024 -0.2862
 6157SOL    HW130107   4.329   2.820   7.142 -0.0862  0.9566 -0.2217
 6157SOL    HW230108   4.345   2.894   7.267 -0.7699  0.1844 -1.5231
 6158SOL     OW30109   4.519   0.021   2.506 -0.1179  0.6214 -0.0271
 6158SOL    HW130110   4.439   4.715   2.481  0.8518 -0.4332 -1.1863
 6158SOL    HW230111   4.547   0.054   2.421  1.6365 -1.5975 -0.3121
 6159SOL     OW30112   3.580   2.179  14.132 -0.0009 -0.3918  0.0918
 6159SOL    HW130113   3.559   2.171  14.225  0.3122  0.6968  0.2447
 6159SOL    HW230114   3.500   2.150  14.089 -0.3498 -1.8299  1.6936
 6160SOL     OW30115   1.842   2.094   8.205  0.3466  0.2435 -0.6319
 6160SOL    HW130116   1.831   2.018   8.148  1.0976 -1.2393  1.1719
 6160SOL    HW230117   1.800   2.164   8.155  0.6055  0.3058 -0.7605
 6161SOL     OW30118   4.081   3.781   8.679  0.1800  0.0727 -0.2152
 6161SOL    HW130119   3.993   3.801   8.711  0.1980 -1.8641  1.0927
 6161SOL    HW230120   4.093   3.690   8.709  1.1917 -0.2058 -1.4644
 6162SOL     OW30121   2.356   0.104   3.577  0.3440  0.6949 -0.3051
 6162SOL    HW130122   2.313   0.020   3.556 -1.0026  1.0443  1.0745
 6162SOL    HW230123   2.298   0.152   3.518  1.0354  1.2689 -0.5119
 6163SOL     OW30124   4.146   1.726   8.374 -0.6567  0.0708  0.3578
 6163SOL    HW130125   4.231   1.692   8.346 -1.0994  0.9848 -2.0545
 6163SOL    HW230126   4.113   1.753   8.288  0.3712  2.6393  0.7732
 6164SOL     OW30127   1.448   3.294   4.050 -0.4096  0.3239 -0.2435
 6164SOL    HW130128   1.504   3.280   3.974  1.1934 -0.3597  1.0782
 6164SOL    HW230129   1.513   3.321   4.114 -2.6522 -1.5265  2.8083
 6165SOL     OW30130   3.792   3.469   9.570  0.2194  0.2046  0.2747
 6165SOL    HW130131   3.759   3.539   9.627  1.9964 -0.4110  2.0358
 6165SOL    HW230132   3.842   3.415   9.631  0.7386  0.8252  0.4005
 6166SOL     OW30133   2.149   3.550   6.718 -0.9217  0.1138  0.2883
 6166SOL    HW130134   2.150   3.497   6.797  1.9936 -0.1722  0.0420
 6166SOL    HW230135   2.239   3.581   6.709 -0.9595  0.3421  0.6992
 6167SOL     OW30136   1.597   2.275  13.225 -1.1994 -0.4236  0.4204
 6167SOL    HW130137   1.517   2.272  13.278 -1.0441  0.5196  0.6969
 6167SOL    HW230138   1.575   2.357  13.181  1.4771  0.2350  0.3498
 6168SOL     OW30139   0.404   3.347   3.484  0.2154 -0.6380  0.0227
 6168SOL    HW130140   0.359   3.427   3.510  1.9324  0.6679 -1.0656
 6168SOL    HW230141   0.384   3.286   3.555 -2.1593 -0.6405 -0.6530
 6169SOL     OW30142   2.069   4.097   7.711  0.4542  0.2645  0.5307
 6169SOL    HW130143   2.080   4.150   7.790 -1.6409 -1.1663  1.8010
 6169SOL    HW230144   2.022   4.022   7.747 -0.3554 -0.6859 -2.5501
 6170SOL     OW30145   1.479   0.401   5.492 -0.2259 -0.2477  0.3946
 6170SOL    HW130146   1.405   0.342   5.481  0.9019 -1.4502 -0.7383
 6170SOL    HW230147   1.492   0.415   5.398 -2.1870  2.6087  0.5534
 6171SOL     OW30148   0.594   1.113   4.023  0.3797  0.4729  0.0008
 6171SOL    HW130149   0.501   1.097   4.009 -0.0684  1.3601  1.9989
 6171SOL    HW230150   0.598   1.129   4.117  1.7699 -0.7863  0.1602
 6172SOL     OW30151   1.670   4.405   6.820  0.1914 -0.4831 -0.8560
 6172SOL    HW130152   1.613   4.406   6.743 -3.6118 -1.3307  1.9769
 6172SOL    HW230153   1.741   4.354   6.781  2.0247  1.1546  0.3302
 6173SOL     OW30154   0.540   2.675  17.343 -0.8392  0.1522 -0.4817
 6173SOL    HW130155   0.472   2.671  17.410 -1.5580  0.5015 -1.1856
 6173SOL    HW230156   0.579   2.588  17.353  1.2146  0.7796 -2.8885
 6174SOL     OW30157   2.545   1.063   6.049 -0.1130  0.3812  0.4909
 6174SOL    HW130158   2.627   1.027   6.015 -0.4205  2.3439 -2.3711
 6174SOL    HW230159   2.566   1.052   6.142  0.7124 -0.0713  0.2539
 6175SOL     OW30160   3.812   0.324   1.898 -0.5239  0.1257  0.4113
 6175SOL    HW130161   3.720   0.320   1.872 -0.3126 -2.9899  0.2224
 6175SOL    HW230162   3.839   0.397   1.842 -0.4099 -0.6930 -0.6016
 6176SOL     OW30163   4.650   4.628   8.033 -0.7929 -0.0113  0.3596
 6176SOL    HW130164   4.711   4.699   8.012  0.5593 -1.0068  0.9422
 6176SOL    HW230165   4.571   4.671   8.067 -0.6866 -0.5888  1.3228
 6177SOL     OW30166   4.043   0.012   8.315 -0.3328  0.8353  0.4268
 6177SOL    HW130167   4.019   4.672   8.267  2.0570  0.5999 -0.3843
 6177SOL    HW230168   4.023   4.725   8.405 -0.1539  2.3470  0.9022
 6178SOL     OW30169   4.291   3.190   0.879  0.4773 -0.5205 -0.7560
 6178SOL    HW130170   4.238   3.247   0.935  2.0279 -1.4028  1.5891
 6178SOL    HW230171   4.228   3.172   0.809 -0.8464 -1.2954  0.6400
 6179SOL     OW30172   3.682   0.911   3.899 -0.1482  0.5715 -0.1191
 6179SOL    HW130173   3.749   0.885   3.962  1.0843 -2.2126 -2.5794
 6179SOL    HW230174   3.702   1.003   3.878 -0.4158  0.4602 -0.8556
 6180SOL     OW30175   1.406   4.237   2.905  0.4328  0.9581  0.0724
 6180SOL    HW130176   1.466   4.309   2.886  0.2215  1.3663  0.9628
 6180SOL    HW230177   1.398   4.223   2.999 -2.1368 -1.9239 -0.5574
 6181SOL     OW30178   2.982   4.277   1.401  0.1976 -0.3091 -0.1440
 6181SOL    HW130179   2.982   4.204   1.462 -1.1818  2.5756  3.3202
 6181SOL    HW230180   2.941   4.347   1.452  3.3290  1.4337 -0.0818
 6182SOL     OW30181   2.086   1.528  12.754  0.0093 -0.3008  0.2365
 6182SOL    HW130182   2.166   1.556  12.710 -0.7880  1.1131 -0.3250
 6182SOL    HW230183   2.110   1.444  12.791 -0.6959  0.2690  2.0182
 6183SOL     OW30184   1.046   2.858   1.744  0.0409 -0.1736  0.6637
 6183SOL    HW130185   0.989   2.802   1.691  0.7942  0.4294 -0.7871
 6183SOL    HW230186   1.043   2.803   1.822  0.3960  0.0303  0.8210
 6184SOL     OW30187   2.032   1.968  11.399 -0.4580  0.3528 -0.6070
 6184SOL    HW130188   2.083   1.919  11.463 -0.9974 -0.3535 -0.7205
 6184SOL    HW230189   2.013   1.896  11.339 -0.3564  0.9442 -1.3413
 6185SOL     OW30190   3.154   2.796   3.077  0.5098  0.4245  0.6966
 6185SOL    HW130191   3.209   2.840   3.142 -0.5302  0.0617  1.8212
 6185SOL    HW230192   3.219   2.741   3.034 -0.9707 -1.1785  0.5535
 6186SOL     OW30193   0.332   3.506   9.413  0.2285 -0.3223  0.7907
 6186SOL    HW130194   0.376   3.574   9.362  1.8439 -2.7838 -1.1038
 6186SOL    HW230195   0.300   3.559   9.486  0.7601  2.3200 -0.9152
 6187SOL     OW30196   3.711   0.577   7.313 -0.5776  0.2446  0.2345
 6187SOL    HW130197   3.686   0.653   7.366  1.2052  1.3554 -0.5284
 6187SOL    HW230198   3.766   0.619   7.248  1.3892 -2.5745  0.0935
 6188SOL     OW30199   4.532   1.688   4.237 -0.8460 -0.3414 -0.0331
 6188SOL    HW130200   4.519   1.777   4.203 -0.4252 -0.3854 -0.3142
 6188SOL    HW230201   4.469   1.642   4.182  1.6188 -2.9152 -0.7038
 6189SOL     OW30202   2.563   2.504   2.305  0.6537  1.2375 -0.0153
 6189SOL    HW130203   2.499   2.468   2.366 -0.1800 -0.7348 -2.0761
 6189SOL    HW230204   2.514   2.575   2.263  0.2299  3.3119  4.0302
 6190SOL     OW30205   0.676   3.698  12.388  0.0419 -0.1172  0.2836
 6190SOL    HW130206   0.752   3.727  12.437  1.7110 -1.7467 -1.3529
 6190SOL    HW230207   0.702   3.750  12.311 -0.4989 -2.5189 -1.5357
 6191SOL     OW30208   3.644   1.351   6.696 -0.0687  0.0450 -0.4714
 6191SOL    HW130209   3.674   1.311   6.614  1.3081  4.3349 -2.0636
 6191SOL    HW230210   3.548   1.348   6.697 -0.1013  0.4588 -2.9817
 6192SOL     OW30211   4.627   3.247   7.203 -0.2209  0.0815 -0.6269
 6192SOL    HW130212   4.718   3.225   7.220 -0.1055 -0.3922 -1.8816
 6192SOL    HW230213   4.623   3.210   7.115 -2.6313 -0.7908 -0.1595
 6193SOL     OW30214   2.215   1.394   6.674 -0.4626 -0.9918 -0.0095
 6193SOL    HW130215   2.145   1.328   6.673  1.7154 -3.2795 -1.3607
 6193SOL    HW230216   2.160   1.472   6.660 -1.3873 -1.4019  1.3742
 6194SOL     OW30217   0.599   3.178  15.926 -0.5610  0.0841  0.0810
 6194SOL    HW130218   0.517   3.129  15.922 -1.3473  1.4506 -0.3812
 6194SOL    HW230219   0.601   3.208  15.836  0.4002 -2.8731 -0.8919
 6195SOL     OW30220   3.785   3.846   6.227 -0.2322  0.2751 -0.0092
 6195SOL    HW130221   3.769   3.842   6.322  2.5807  1.7947  0.5337
 6195SOL    HW230222   3.811   3.937   6.214  1.5196 -0.3471 -0.7762
 6196SOL     OW30223   3.918   3.441  12.064 -0.2431  0.3914  0.3031
 6196SOL    HW130224   3.822   3.439  12.062 -0.1935 -2.5476  0.7821
 6196SOL    HW230225   3.917   3.473  12.155 -1.6279 -0.2808  0.5254
 6197SOL     OW30226   3.543   2.140   4.441  0.5283  0.3599  0.1802
 6197SOL    HW130227   3.619   2.088   4.467  0.4119  0.6426  1.0862
 6197SOL    HW230228   3.490   2.065   4.414  0.6753 -0.0307  0.9776
 6198SOL     OW30229   2.775   1.372  12.125  0.0344 -0.2814 -0.8691
 6198SOL    HW130230   2.704   1.378  12.061 -2.0991 -0.9604  1.4035
 6198SOL    HW230231   2.841   1.419  12.074 -0.7335 -0.7516 -2.2819
 6199SOL     OW30232   1.661   4.237   3.062  0.0811  0.1764 -0.2577
 6199SOL    HW130233   1.696   4.254   2.975 -1.4112 -0.5957 -1.0146
 6199SOL    HW230234   1.686   4.319   3.105  0.7322  0.3816 -1.0197
 6200SOL     OW30235   3.226   1.088  11.984  0.1810  0.0941 -0.1536
 6200SOL    HW130236   3.162   1.137  11.934 -1.5009 -0.6580  1.2625
 6200SOL    HW230237   3.207   1.110  12.075  0.3976 -0.2962 -0.0107
 6201SOL     OW30238   1.898   4.613  13.212  0.1478 -0.1315 -0.0321
 6201SOL    HW130239   1.808   4.609  13.244 -1.0738 -1.0946 -3.5030
 6201SOL    HW230240   1.885   4.550  13.141 -2.3722  2.4053 -1.8455
 6202SOL     OW30241   3.855   1.045   7.216 -0.2310 -0.2594  0.0081
 6202SOL    HW130242   3.928   1.052   7.277 -1.4935 -1.9364  1.7002
 6202SOL    HW230243   3.795   1.097   7.270  1.3541  0.5306  0.9900
 6203SOL     OW30244   3.373   4.057   8.005  0.0693  0.1507 -0.6031
 6203SOL    HW130245   3.329   4.020   7.929  0.5625  1.0738 -1.3335
 6203SOL    HW230246   3.389   4.146   7.975  1.2567  1.1334  3.0031
 6204SOL     OW30247   0.121   0.688  14.045  0.2306 -0.5142 -0.1091
 6204SOL    HW130248   0.048   0.749  14.054  0.1217 -0.6381 -0.1375
 6204SOL    HW230249   0.139   0.684  13.951  2.1871 -3.4264  0.4036
 6205SOL     OW30250   4.334   2.635   6.939  0.8374 -0.3131  0.0484
 6205SOL    HW130251   4.277   2.710   6.952 -0.6979 -1.2951 -1.0803
 6205SOL    HW230252   4.276   2.563   6.960 -0.1067  0.5191  0.2772
 6206SOL     OW30253   0.390   4.529   4.146  0.2761  0.1723 -0.2608
 6206SOL    HW130254   0.386   4.622   4.126 -0.1670  0.5943  1.8384
 6206SOL    HW230255   0.322   4.516   4.211 -2.0484  1.6298 -2.4247
 6207SOL     OW30256   1.574   2.076   6.450  0.0372  0.3370  0.2361
 6207SOL    HW130257   1.585   2.046   6.541 -2.8741 -1.7528 -0.1047
 6207SOL    HW230258   1.481   2.096   6.461 -0.3129  1.0154 -4.1574
 6208SOL     OW30259   2.123   2.288  16.064 -0.2569 -0.1234 -0.0464
 6208SOL    HW130260   2.072   2.358  16.025  0.5284 -0.1499 -1.1463
 6208SOL    HW230261   2.183   2.329  16.126 -0.9015  0.0644  0.4464
 6209SOL     OW30262   0.703   0.206  17.108 -0.5462  0.1537  0.8485
 6209SOL    HW130263   0.759   0.194  17.031 -1.8205 -1.5163  0.1732
 6209SOL    HW230264   0.617   0.177  17.075 -1.3119  0.6076  2.4580
 6210SOL     OW30265   3.185   4.238   7.197  0.0210 -0.2470  0.1223
 6210SOL    HW130266   3.102   4.208   7.235 -0.0831  2.8317  2.3027
 6210SOL    HW230267   3.221   4.285   7.272 -0.2753  0.7286 -0.3432
 6211SOL     OW30268   1.439   4.503   2.784  0.0354 -0.6841  0.5901
 6211SOL    HW130269   1.425   4.589   2.743 -0.1739 -0.8596  0.2959
 6211SOL    HW230270   1.405   4.446   2.715 -2.7167 -1.6769  2.7423
 6212SOL     OW30271   3.759   4.037   6.816 -0.2048 -0.0703  0.0249
 6212SOL    HW130272   3.806   4.114   6.786  2.2982 -0.7116  2.2911
 6212SOL    HW230273   3.677   4.074   6.848 -0.7437 -0.1942 -1.2250
 6213SOL     OW30274   0.908   0.546   8.150 -0.1913 -0.2044 -0.0895
 6213SOL    HW130275   0.951   0.466   8.120 -0.5561 -0.4831  0.1137
 6213SOL    HW230276   0.839   0.555   8.085 -1.0698 -1.2511  0.6845
 6214SOL     OW30277   1.921   1.310   3.743 -0.1258 -0.3821 -0.6486
 6214SOL    HW130278   1.842   1.258   3.757 -0.0016 -1.0047 -2.3042
 6214SOL    HW230279   1.973   1.248   3.693  0.2821 -0.7003  0.1761
 6215SOL     OW30280   2.533   2.642   5.105 -0.3696  0.0415  0.2167
 6215SOL    HW130281   2.612   2.642   5.159 -0.5175 -0.3599  0.4299
 6215SOL    HW230282   2.518   2.548   5.094 -0.2401 -0.1432  1.6741
 6216SOL     OW30283   2.078   2.137   7.961  0.1581  0.1798  0.3297
 6216SOL    HW130284   1.999   2.085   7.946 -0.5504  1.4281 -0.2287
 6216SOL    HW230285   2.143   2.067   7.969 -0.4051 -0.5124 -1.1265
 6217SOL     OW30286   1.243   2.979  15.208  0.5067  0.5723 -0.0939
 6217SOL    HW130287   1.322   2.944  15.166  1.2940  0.0898  1.7653
 6217SOL    HW230288   1.245   2.929  15.290 -1.2583  1.5882  0.5566
 6218SOL     OW30289   3.386   0.784  17.745 -0.3577 -0.6448  0.3732
 6218SOL    HW130290   3.335   0.828   0.057  0.1276 -0.2627  0.4930
 6218SOL    HW230291   3.349   0.696   0.002 -0.6056 -0.6723 -0.5775
 6219SOL     OW30292   2.297   4.588   7.978  0.0520 -0.1912 -0.0430
 6219SOL    HW130293   2.301   4.517   8.042 -0.0170 -0.8721 -0.7909
 6219SOL    HW230294   2.324   4.545   7.897  0.9103  1.4986 -0.6519
 6220SOL     OW30295   3.636   1.886  10.674  0.5664  0.5268  0.5217
 6220SOL    HW130296   3.615   1.850  10.588 -1.6737 -1.6762  1.9871
 6220SOL    HW230297   3.546   1.888  10.706  1.8323 -1.6191  4.1461
 6221SOL     OW30298   0.796   1.851   3.390  0.1305  0.3176  0.4094
 6221SOL    HW130299   0.775   1.914   3.321  0.1261  2.1764  2.1414
 6221SOL    HW230300   0.892   1.858   3.391  0.1736  0.2379 -1.5228
 6222SOL     OW30301   4.731   3.847   6.004  0.0140  0.7849  0.3586
 6222SOL    HW130302   0.015   3.919   6.062 -0.1782 -1.0033  2.6762
 6222SOL    HW230303   0.028   3.776   6.057 -1.6669 -0.2483  0.1164
 6223SOL     OW30304   3.301   3.144   0.876  0.5853  0.5603 -0.1825
 6223SOL    HW130305   3.208   3.130   0.893  0.9791 -1.0823  0.6163
 6223SOL    HW230306   3.329   3.071   0.822  0.3276  1.3316 -1.3567
 6224SOL     OW30307   3.845   2.820   4.326 -0.2989  0.0133  0.3349
 6224SOL    HW130308   3.881   2.843   4.240  0.7404  0.2726  0.8386
 6224SOL    HW230309   3.784   2.892   4.334 -0.3096 -0.1849  1.9204
 6225SOL     OW30310   3.416   0.293   8.063 -0.3642  0.5940  0.8358
 6225SOL    HW130311   3.387   0.321   7.976 -0.4266  0.0336  0.6800
 6225SOL    HW230312   3.464   0.372   8.089  1.3072  0.2124 -1.0833
 6226SOL     OW30313   1.073   1.161   9.210  0.3703  0.2471 -0.1944
 6226SOL    HW130314   1.006   1.111   9.164 -1.9039  0.1720  3.2327
 6226SOL    HW230315   1.019   1.235   9.238 -1.2673 -0.5071 -1.3705
 6227SOL     OW30316   4.085   0.548   4.187  0.3789 -0.1677 -0.2474
 6227SOL    HW130317   4.001   0.519   4.221  0.5330 -0.9232 -0.5001
 6227SOL    HW230318   4.115   0.598   4.262  0.7303  0.1067 -0.5692
 6228SOL     OW30319   1.595   1.366   8.040 -0.0141  0.3032  0.6105
 6228SOL    HW130320   1.595   1.459   8.060  0.8099  0.6826 -1.1579
 6228SOL    HW230321   1.555   1.369   7.953 -0.4128  2.8823  0.8848
 6229SOL     OW30322   0.701   1.110   3.191  0.4546  0.2418 -0.1551
 6229SOL    HW130323   0.741   1.063   3.118 -0.4611 -0.5151 -0.1802
 6229SOL    HW230324   0.734   1.199   3.182 -1.7531  1.1182  0.4082
 6230SOL     OW30325   3.397   2.811  14.009  0.1595 -0.2954 -0.2444
 6230SOL    HW130326   3.379   2.848  14.095 -1.4492  0.5393 -0.9422
 6230SOL    HW230327   3.345   2.873  13.959  1.0709  0.3400 -0.4017
 6231SOL     OW30328   4.683   2.077  12.847 -0.2016 -0.5216 -0.2709
 6231SOL    HW130329   4.717   2.164  12.828  2.6994 -2.0305 -1.9099
 6231SOL    HW230330   4.678   2.039  12.759 -1.0508 -1.8323  0.3424
 6232SOL     OW30331   4.698   3.269   6.281 -0.4041  0.0672 -0.0445
 6232SOL    HW130332   4.616   3.220   6.280  0.2740 -1.0762  1.2911
 6232SOL    HW230333   4.683   3.331   6.209 -2.8577  1.7418  1.9211
 6233SOL     OW30334   4.253   2.185   7.920 -0.5288  0.1720 -0.4379
 6233SOL    HW130335   4.184   2.240   7.959 -0.1239  0.0461  0.4588
 6233SOL    HW230336   4.331   2.207   7.971 -2.9326  3.3405  1.9646
 6234SOL     OW30337   3.317   2.686   1.976  0.2766 -0.0159  1.1819
 6234SOL    HW130338   3.362   2.616   2.022  3.0352  0.2331 -1.1276
 6234SOL    HW230339   3.238   2.709   2.024 -0.4443 -1.2053  0.5748
 6235SOL     OW30340   4.194   0.277   2.318  0.0539 -0.4230 -0.1163
 6235SOL    HW130341   4.145   0.195   2.327 -0.5813  0.1828  1.7390
 6235SOL    HW230342   4.276   0.242   2.283 -1.4481 -2.4046 -1.6599
 6236SOL     OW30343   1.075   1.220   7.983  0.0985 -0.1444 -0.1476
 6236SOL    HW130344   1.081   1.298   8.038  0.8535 -1.4010  1.5444
 6236SOL    HW230345   1.157   1.228   7.934  0.8239  0.6337  1.2144
 6237SOL     OW30346   1.194   1.852  12.918  0.3923  0.4449  0.2637
 6237SOL    HW130347   1.248   1.817  12.988  1.3762  4.2030  1.3747
 6237SOL    HW230348   1.253   1.917  12.880  1.0074  0.3117  0.9929
 6238SOL     OW30349   0.674   0.943   5.050  0.3181 -0.2889  0.4961
 6238SOL    HW130350   0.605   0.987   5.099 -0.8001  1.1306 -2.4149
 6238SOL    HW230351   0.665   0.994   4.970  0.0966  0.1586  0.8070
 6239SOL     OW30352   3.044   2.589   6.328 -0.8444  0.6649 -0.0772
 6239SOL    HW130353   3.072   2.675   6.358 -1.0156 -0.1732  2.4348
 6239SOL    HW230354   3.126   2.547   6.305 -0.0358  1.0731  2.1243
 6240SOL     OW30355   3.224   1.897   3.015  0.5951 -0.2668 -0.1455
 6240SOL    HW130356   3.167   1.923   2.942 -1.5660 -0.5671  1.4280
 6240SOL    HW230357   3.158   1.886   3.083  0.0336 -0.5277 -0.7252
 6241SOL     OW30358   0.307   2.465  12.378 -0.6014 -0.1208 -0.0604
 6241SOL    HW130359   0.356   2.430  12.453 -0.6710 -1.6441 -0.7124
 6241SOL    HW230360   0.335   2.556  12.381  0.8189 -0.5617  0.1670
 6242SOL     OW30361   3.153   1.039   5.338  0.0478  0.1526 -0.0540
 6242SOL    HW130362   3.199   1.111   5.383 -0.8234 -0.2193  1.4436
 6242SOL    HW230363   3.071   1.072   5.303 -1.2618 -1.5222  1.4633
 6243SOL     OW30364   0.227   1.634   7.041 -0.4386  0.2008  0.3477
 6243SOL    HW130365   0.207   1.642   6.948 -0.6380  0.0297  0.3759
 6243SOL    HW230366   0.301   1.694   7.040  0.8608 -1.3994 -0.3433
 6244SOL     OW30367   1.476   3.881   9.353 -0.2692  0.3168  0.3501
 6244SOL    HW130368   1.553   3.933   9.334 -1.0811  0.2824 -2.9612
 6244SOL    HW230369   1.430   3.890   9.270  0.9146 -0.8558 -0.4151
 6245SOL     OW30370   0.801   4.377  17.478 -0.8724  0.5245 -0.0486
 6245SOL    HW130371   0.818   4.420  17.394  1.9098  0.3395  0.4205
 6245SOL    HW230372   0.869   4.309  17.480 -0.5070  0.8438 -1.2435
 6246SOL     OW30373   3.621   1.433  11.620 -0.2429 -0.0365 -0.9859
 6246SOL    HW130374   3.614   1.528  11.607 -1.7287 -0.0597 -0.3680
 6246SOL    HW230375   3.711   1.411  11.644 -0.7518 -0.5821  0.4381
 6247SOL     OW30376   0.754   1.831   6.950  0.1667 -0.5712 -0.3632
 6247SOL    HW130377   0.739   1.816   7.043  2.6722  2.1732  0.4716
 6247SOL    HW230378   0.698   1.905   6.928  0.9225  0.4816  1.2604
 6248SOL     OW30379   1.243   2.974   8.329 -0.4875  0.1621 -0.0600
 6248SOL    HW130380   1.234   2.893   8.279 -1.0446 -0.5201  1.1369
 6248SOL    HW230381   1.273   2.942   8.414  0.2154 -0.2042 -0.4458
 6249SOL     OW30382   1.680   2.912  14.199 -0.1645 -0.0759  0.6705
 6249SOL    HW130383   1.736   2.959  14.138 -2.6379 -0.6107 -1.9944
 6249SOL    HW230384   1.739   2.895  14.273  1.1003  1.2828 -0.0272
 6250SOL     OW30385   0.822   3.847   0.913  0.5801 -0.1650 -0.0926
 6250SOL    HW130386   0.797   3.937   0.929 -0.2012 -0.3097 -0.5206
 6250SOL    HW230387   0.916   3.852   0.931  0.7535  0.4225 -1.1918
 6251SOL     OW30388   1.802   0.200   1.029  0.0444  0.2593  0.3775
 6251SOL    HW130389   1.791   0.118   0.980 -4.2949  0.6482  0.6999
 6251SOL    HW230390   1.715   0.222   1.061  0.1995  0.4080  0.6991
 6252SOL     OW30391   1.310   1.725   4.080 -0.2302 -0.5066  0.1799
 6252SOL    HW130392   1.351   1.720   3.994 -0.5164 -0.6885  0.0525
 6252SOL    HW230393   1.281   1.635   4.094 -1.2271  0.0988  1.9991
 6253SOL     OW30394   0.677   2.819  16.402  0.2064 -0.1552 -0.4055
 6253SOL    HW130395   0.730   2.748  16.366 -0.0476  0.7808 -2.6259
 6253SOL    HW230396   0.591   2.799  16.365  1.3946  0.9691 -3.7656
 6254SOL     OW30397   3.517   0.825   7.799 -0.0644 -0.3143 -0.3564
 6254SOL    HW130398   3.604   0.811   7.762 -1.0535 -0.4469 -2.6372
 6254SOL    HW230399   3.513   0.918   7.821  0.3891  0.1625 -2.3375
 6255SOL     OW30400   0.617   1.473  13.350 -0.4754 -0.4081 -0.1580
 6255SOL    HW130401   0.545   1.474  13.412  0.4802  1.4934  0.9078
 6255SOL    HW230402   0.579   1.408  13.290  0.7855 -1.1103 -0.2162
 6256SOL     OW30403   2.587   1.707   2.420 -0.4062  0.2999  0.5967
 6256SOL    HW130404   2.574   1.733   2.329 -0.7213 -0.4664  0.4249
 6256SOL    HW230405   2.507   1.746   2.456 -0.1752 -0.1202  1.5610
 6257SOL     OW30406   4.002   1.393   9.883 -0.3734 -0.1008  0.0435
 6257SOL    HW130407   3.966   1.457   9.822  1.1354 -0.4294 -1.2076
 6257SOL    HW230408   3.988   1.435   9.968  2.0844  0.2470  0.2838
 6258SOL     OW30409   4.142   2.872   7.442 -0.2144  0.4306  0.0398
 6258SOL    HW130410   4.103   2.834   7.363 -1.1218 -0.5766  0.9855
 6258SOL    HW230411   4.160   2.791   7.489  0.2245  0.3578 -0.2459
 6259SOL     OW30412   2.378   0.550   6.027 -0.8520 -0.3817  0.4106
 6259SOL    HW130413   2.463   0.545   5.983 -0.4682  1.0421  0.9932
 6259SOL    HW230414   2.321   0.517   5.958 -2.5405  2.3583  0.4911
 6260SOL     OW30415   2.702   2.533   3.498  0.0238 -0.5103  0.0042
 6260SOL    HW130416   2.674   2.623   3.479  0.4210 -0.9781 -2.8047
 6260SOL    HW230417   2.760   2.508   3.427  1.6123  0.5468  0.9420
 6261SOL     OW30418   4.678   1.002   7.955  0.3257  0.1893 -0.0984
 6261SOL    HW130419   0.018   1.003   8.009  1.2680  1.0462 -1.5157
 6261SOL    HW230420   4.702   0.944   7.882  0.0399  0.5734 -0.4969
 6262SOL     OW30421   0.605   3.575   7.711  0.1116 -0.3060 -0.4392
 6262SOL    HW130422   0.541   3.504   7.708 -1.5307  1.1777 -0.0923
 6262SOL    HW230423   0.603   3.598   7.618  1.9676 -0.1285 -0.4347
 6263SOL     OW30424   0.341   0.235   5.334 -0.4080  0.1262 -0.1542
 6263SOL    HW130425   0.314   0.176   5.263  1.9447 -1.0788 -0.0443
 6263SOL    HW230426   0.361   0.176   5.406 -0.3498 -0.7115 -0.8475
 6264SOL     OW30427   1.232   2.081   3.735 -0.4451  0.0259 -0.6782
 6264SOL    HW130428   1.317   2.036   3.731 -0.8396 -0.8466  0.6102
 6264SOL    HW230429   1.230   2.078   3.831 -0.9356 -1.7003 -0.7312
 6265SOL     OW30430   2.268   1.301   4.233  0.0444 -0.0414  0.4751
 6265SOL    HW130431   2.239   1.252   4.156  0.4659 -0.6157  0.6798
 6265SOL    HW230432   2.243   1.241   4.303  1.5711 -0.0320  1.0382
 6266SOL     OW30433   0.072   1.112   7.048  0.0699  0.6322  0.7758
 6266SOL    HW130434   4.717   1.097   7.051  0.1002  0.4532  0.8384
 6266SOL    HW230435   0.107   1.048   7.110  1.6899  0.1022 -0.6861
 6267SOL     OW30436   2.618   0.833   9.888 -0.3524  0.0535  0.2272
 6267SOL    HW130437   2.652   0.749   9.918  0.6492 -0.1003 -1.3684
 6267SOL    HW230438   2.635   0.876   9.972  3.5447 -3.3318  1.1628
 6268SOL     OW30439   0.382   3.248   7.464 -0.2817 -0.5295 -0.2347
 6268SOL    HW130440   0.442   3.289   7.401 -0.7470 -0.7187 -0.8020
 6268SOL    HW230441   0.404   3.278   7.552  1.7233 -0.2449 -0.8191
 6269SOL     OW30442   4.019   1.922   2.971  0.1689 -0.0967  0.0704
 6269SOL    HW130443   4.098   1.907   2.920  1.4603  0.8076  1.8197
 6269SOL    HW230444   3.964   1.863   2.919 -0.8299  0.1790  0.8020
 6270SOL     OW30445   3.256   2.757   6.237  0.3420 -0.8065 -0.2067
 6270SOL    HW130446   3.331   2.699   6.249 -0.5908 -2.2023 -0.9926
 6270SOL    HW230447   3.265   2.832   6.295  0.4859 -0.4932 -0.6317
 6271SOL     OW30448   1.465   0.690   1.411  0.2206 -0.1186  0.0473
 6271SOL    HW130449   1.497   0.683   1.501  1.1275 -0.1354 -0.2709
 6271SOL    HW230450   1.420   0.774   1.418 -1.0167 -0.5750 -2.6089
 6272SOL     OW30451   1.084   4.170   5.281 -0.0741 -0.7981  0.3236
 6272SOL    HW130452   1.062   4.087   5.240  1.5152 -0.0192 -2.1892
 6272SOL    HW230453   1.011   4.187   5.340  1.8941  0.2677  2.4589
 6273SOL     OW30454   1.919   2.784   3.060  0.7702 -0.0580 -0.3039
 6273SOL    HW130455   1.874   2.865   3.082  1.1623 -0.4919  2.0115
 6273SOL    HW230456   1.967   2.775   3.142 -0.0577  0.6873  0.2656
 6274SOL     OW30457   3.330   1.926   2.215 -0.2248 -0.7275 -0.4784
 6274SOL    HW130458   3.263   1.880   2.266  0.8737 -0.6840  1.0192
 6274SOL    HW230459   3.372   1.848   2.180  1.0082 -1.1718  1.9600
 6275SOL     OW30460   0.960   2.778   3.622  0.5653 -0.1138 -0.0104
 6275SOL    HW130461   0.977   2.707   3.684 -0.1071 -2.0877 -2.0464
 6275SOL    HW230462   0.923   2.715   3.559  1.6322 -0.2146 -0.5366
 6276SOL     OW30463   1.397   2.926  12.894 -0.4048  0.2851 -0.1156
 6276SOL    HW130464   1.369   2.961  12.978  0.5136  2.4674 -0.7114
 6276SOL    HW230465   1.376   3.001  12.839 -2.0828  0.9940  1.5161
 6277SOL     OW30466   2.563   2.361   4.107  0.8055 -0.0446  0.2802
 6277SOL    HW130467   2.650   2.390   4.134  0.6008 -0.6280  1.5844
 6277SOL    HW230468   2.577   2.348   4.013 -0.4198  0.0115  0.0853
 6278SOL     OW30469   3.145   4.262   8.250  0.0049 -0.2954  0.0960
 6278SOL    HW130470   3.240   4.256   8.253 -0.0373 -1.2827 -0.3298
 6278SOL    HW230471   3.123   4.171   8.229  2.4038 -1.3011  1.9370
 6279SOL     OW30472   0.626   3.941   7.251 -0.4424  0.3862 -0.3473
 6279SOL    HW130473   0.559   3.929   7.317 -0.3639 -2.3568 -0.7684
 6279SOL    HW230474   0.682   4.002   7.300  2.0651 -1.5525 -0.7619
 6280SOL     OW30475   3.182   0.120   9.252  0.3590  0.4520 -0.2387
 6280SOL    HW130476   3.092   0.111   9.220  0.4179 -2.0252  0.3348
 6280SOL    HW230477   3.153   0.186   9.314 -0.3379 -0.9035  0.8575
 6281SOL     OW30478   0.545   1.764  12.301  0.0021  0.3378  0.3263
 6281SOL    HW130479   0.537   1.858  12.319 -2.0650  0.0365  0.9882
 6281SOL    HW230480   0.615   1.733  12.358  1.6408  2.8993 -0.2682
 6282SOL     OW30481   0.639   2.437   3.370  0.0547 -0.0614 -0.2225
 6282SOL    HW130482   0.672   2.457   3.458  0.0141 -3.4783  0.5623
 6282SOL    HW230483   0.660   2.522   3.332  0.3507 -0.9899 -2.1026
 6283SOL     OW30484   1.291   0.724  10.351 -0.0996 -0.1191  0.4890
 6283SOL    HW130485   1.230   0.655  10.378 -1.9766  1.5598  0.5848
 6283SOL    HW230486   1.238   0.799  10.380  0.7903  0.2219  1.2266
 6284SOL     OW30487   3.011   3.711   8.224 -0.4892 -0.6753 -0.2103
 6284SOL    HW130488   2.929   3.663   8.212 -0.6332 -0.3273 -0.6014
 6284SOL    HW230489   3.031   3.743   8.136 -1.0081  0.4563  0.0753
 6285SOL     OW30490   1.171   4.640   3.355 -0.1045 -0.4033 -0.9897
 6285SOL    HW130491   1.088   4.661   3.398 -0.3174 -1.1601 -1.0420
 6285SOL    HW230492   1.130   4.570   3.304  1.4013 -0.0948 -2.6285
 6286SOL     OW30493   3.096   4.614   3.228  0.2560 -0.0374 -0.0706
 6286SOL    HW130494   3.088   4.705   3.258  1.0919  0.1011 -0.2769
 6286SOL    HW230495   3.130   4.620   3.139 -1.1386 -0.2371 -0.6180
 6287SOL     OW30496   1.971   3.463   8.378 -0.2792 -0.0839  0.0215
 6287SOL    HW130497   1.956   3.535   8.439 -2.7749 -0.6495  0.1112
 6287SOL    HW230498   2.016   3.405   8.440 -0.1482 -0.5722 -0.5281
 6288SOL     OW30499   4.504   3.366   3.096  0.0096 -0.2363  0.3295
 6288SOL    HW130500   4.486   3.275   3.072 -1.2590  0.3868 -1.1347
 6288SOL    HW230501   4.529   3.356   3.188  1.2635  0.5199  0.0694
 6289SOL     OW30502   1.073   3.522   2.029 -0.0219 -0.4015 -0.1866
 6289SOL    HW130503   0.986   3.507   2.065  1.5077  0.0636  3.6457
 6289SOL    HW230504   1.058   3.486   1.942 -1.7478  1.6136 -0.7567
 6290SOL     OW30505   4.584   2.930   3.764 -0.5822 -0.2279  0.4404
 6290SOL    HW130506   4.560   2.883   3.684 -1.9409 -1.7265  1.7272
 6290SOL    HW230507   4.500   2.976   3.768 -0.3981 -0.0162  1.8881
 6291SOL     OW30508   3.150   0.837   1.267  0.2731  0.0560  0.0076
 6291SOL    HW130509   3.089   0.782   1.315 -0.8202  0.2837 -1.1317
 6291SOL    HW230510   3.143   0.795   1.181  1.0724 -0.2340  0.0822
 6292SOL     OW30511   2.180   3.539  13.549  0.0102  0.5747  0.3794
 6292SOL    HW130512   2.155   3.495  13.468  0.0887  1.2044  0.0158
 6292SOL    HW230513   2.272   3.561  13.534 -0.4229  1.8070 -0.4085
 6293SOL     OW30514   2.811   4.170   0.950  0.0961  0.0974  0.6491
 6293SOL    HW130515   2.798   4.213   1.034 -0.3306  0.6259  0.3117
 6293SOL    HW230516   2.906   4.154   0.955  0.2544  1.2930  1.4064
 6294SOL     OW30517   3.788   0.506   0.115  0.0862  0.6643 -0.1283
 6294SOL    HW130518   3.704   0.537   0.080 -0.2721  0.4372  0.5075
 6294SOL    HW230519   3.784   0.418   0.077  3.4422  0.9584 -1.0959
 6295SOL     OW30520   1.361   4.471   2.303 -0.1648 -0.2972 -0.4118
 6295SOL    HW130521   1.331   4.473   2.212  0.2194 -2.6629 -0.6073
 6295SOL    HW230522   1.445   4.516   2.304 -0.4396  0.1966  1.1966
 6296SOL     OW30523   4.093   3.775  10.827  0.0635 -0.2740  0.0817
 6296SOL    HW130524   4.188   3.783  10.817  0.0146 -1.0929 -0.9743
 6296SOL    HW230525   4.096   3.714  10.901  0.2487 -0.4267 -0.0523
 6297SOL     OW30526   0.141   2.221   2.192 -0.1650 -0.4659  0.1225
 6297SOL    HW130527   0.066   2.247   2.138  1.6378 -0.8129 -2.5061
 6297SOL    HW230528   0.202   2.201   2.122  0.5057  2.5537 -0.1456
 6298SOL     OW30529   2.878   3.429   2.953  0.3382  0.7458 -0.1950
 6298SOL    HW130530   2.952   3.380   2.989  1.1079  3.1207  1.4589
 6298SOL    HW230531   2.925   3.512   2.961  0.4093  0.6619  0.2561
 6299SOL     OW30532   4.611   0.557   6.357 -0.4044  0.4456  0.1624
 6299SOL    HW130533   4.601   0.635   6.302 -0.9877 -0.5816 -1.1766
 6299SOL    HW230534   4.655   0.588   6.436 -1.6333  2.1750  0.1775
 6300SOL     OW30535   3.955   0.743   2.109 -0.1968  0.3332 -0.4440
 6300SOL    HW130536   4.022   0.743   2.040 -0.1984  1.4313 -0.4480
 6300SOL    HW230537   3.961   0.654   2.143  2.6983  1.7075  2.7161
 6301SOL     OW30538   2.173   0.266   7.793  0.2846  0.4067  0.1800
 6301SOL    HW130539   2.141   0.246   7.881 -0.9630  1.8424  0.0532
 6301SOL    HW230540   2.265   0.278   7.818 -0.0325  2.5773  0.2953
 6302SOL     OW30541   1.082   1.665  13.240  0.3369 -0.3030 -0.4920
 6302SOL    HW130542   0.993   1.655  13.207  1.1839 -0.5962 -2.6884
 6302SOL    HW230543   1.130   1.601  13.187  0.1088 -1.6980  1.0101
 6303SOL     OW30544   3.137   3.773  16.190  0.0117 -0.1215 -0.2411
 6303SOL    HW130545   3.126   3.862  16.224 -1.2900 -0.2993 -0.1768
 6303SOL    HW230546   3.044   3.752  16.179 -0.2602  0.7372  0.4310
 6304SOL     OW30547   1.481   3.847   5.482 -0.5734 -0.1357  0.2426
 6304SOL    HW130548   1.528   3.771   5.447  0.0607  0.3395  0.0727
 6304SOL    HW230549   1.548   3.913   5.466  0.3603 -0.7972  1.4114
 6305SOL     OW30550   0.333   0.740  12.944 -0.3482  0.0587 -0.1770
 6305SOL    HW130551   0.419   0.699  12.951 -0.9188 -1.0286  0.4567
 6305SOL    HW230552   0.278   0.664  12.961 -0.2029 -0.0534 -0.2177
 6306SOL     OW30553   1.722   0.258  12.796 -0.0467  0.5174 -0.0996
 6306SOL    HW130554   1.795   0.223  12.848 -0.1593 -0.2101 -0.4402
 6306SOL    HW230555   1.761   0.268  12.709  2.3090  2.7227  1.2102
 6307SOL     OW30556   3.311   4.670   8.620 -0.1068  0.1554  0.3369
 6307SOL    HW130557   3.264   4.621   8.553 -1.5284 -1.0400  2.2244
 6307SOL    HW230558   3.400   4.636   8.611 -0.3768 -0.1360 -1.2861
 6308SOL     OW30559   4.177   1.471   1.313  0.5787  0.0638 -0.3780
 6308SOL    HW130560   4.203   1.495   1.402 -0.7065  0.2620 -0.0593
 6308SOL    HW230561   4.216   1.384   1.321  1.7913  0.8279  1.8392
 6309SOL     OW30562   2.411   2.318   2.840  0.2850  0.3488 -0.0556
 6309SOL    HW130563   2.409   2.411   2.815  1.1524 -0.0501 -1.5546
 6309SOL    HW230564   2.420   2.279   2.754 -0.2989 -1.0850  0.5374
 6310SOL     OW30565   0.622   1.891   5.641  0.6340 -0.2144  0.4316
 6310SOL    HW130566   0.576   1.967   5.606  1.8320  0.6364  0.7336
 6310SOL    HW230567   0.710   1.927   5.633 -0.0741  1.3132 -0.5617
 6311SOL     OW30568   3.263   0.315  11.818  0.3603 -0.3127 -0.5198
 6311SOL    HW130569   3.344   0.362  11.837  0.9176 -1.7509  0.7086
 6311SOL    HW230570   3.197   0.382  11.803  1.8665  1.6244  1.6072
 6312SOL     OW30571   3.780   1.433  11.124 -0.3854 -0.2427  0.1554
 6312SOL    HW130572   3.857   1.483  11.152  0.4577 -0.2292 -2.1339
 6312SOL    HW230573   3.774   1.448  11.029  1.6920 -2.3312 -0.3172
 6313SOL     OW30574   3.671   2.065  14.808  0.0278 -0.4247  0.1165
 6313SOL    HW130575   3.743   2.057  14.746  1.4206  1.5059  1.4974
 6313SOL    HW230576   3.695   1.996  14.870 -1.2012  0.3157  1.4107
 6314SOL     OW30577   0.633   4.599   4.985 -0.0474 -0.0911  0.2989
 6314SOL    HW130578   0.650   4.689   4.957 -1.8009  0.0398 -0.3885
 6314SOL    HW230579   0.623   4.549   4.904  2.4501 -1.3196  0.7657
 6315SOL     OW30580   2.640   0.324   3.580 -0.6703  0.0960 -0.1738
 6315SOL    HW130581   2.595   0.263   3.522 -1.5819 -2.2397  2.9441
 6315SOL    HW230582   2.564   0.362   3.625 -1.2186 -2.1288  0.8015
 6316SOL     OW30583   3.951   2.336   2.478  0.0574  0.3009  0.3548
 6316SOL    HW130584   3.962   2.259   2.534  1.7001  1.2609  1.3471
 6316SOL    HW230585   4.031   2.330   2.425  0.6646 -0.6219  1.3888
 6317SOL     OW30586   4.236   4.635   8.674 -0.1217  0.3504 -0.1468
 6317SOL    HW130587   4.283   4.718   8.688 -1.2967  1.1530 -0.9890
 6317SOL    HW230588   4.294   4.603   8.605  0.0423  0.9506 -0.2919
 6318SOL     OW30589   0.094   3.449   0.578  0.5797  0.1253  0.3329
 6318SOL    HW130590   0.140   3.484   0.654  1.3108  3.2130 -1.5037
 6318SOL    HW230591   0.163   3.403   0.530 -0.2354 -0.7019 -0.0401
 6319SOL     OW30592   2.138   4.641   7.263 -0.2103  0.1415  0.1319
 6319SOL    HW130593   2.100   4.708   7.321  1.8269  3.0603 -1.8738
 6319SOL    HW230594   2.066   4.598   7.216 -0.5788  1.4024 -0.4573
 6320SOL     OW30595   1.423   4.277  15.037  0.4194  0.2047 -0.2187
 6320SOL    HW130596   1.466   4.343  14.983 -0.2400  0.1128 -0.8550
 6320SOL    HW230597   1.361   4.345  15.063 -0.3877 -0.4357 -0.4372
 6321SOL     OW30598   4.299   1.232   0.404 -0.2270  0.5833 -0.3279
 6321SOL    HW130599   4.243   1.203   0.476  0.1382  4.3323  1.4292
 6321SOL    HW230600   4.367   1.285   0.445  0.3096  1.4938 -2.4154
 6322SOL     OW30601   1.987   3.929   1.510  0.2934 -0.0617 -0.3158
 6322SOL    HW130602   1.991   3.985   1.433  1.2638  2.7010  1.7507
 6322SOL    HW230603   2.070   3.881   1.500  0.0129 -1.0650  2.2691
 6323SOL     OW30604   3.167   0.507   9.700 -1.0429  0.4455  0.2373
 6323SOL    HW130605   3.240   0.508   9.762 -2.7823 -1.2063  2.3025
 6323SOL    HW230606   3.102   0.560   9.746 -2.8772 -0.9665 -0.7098
 6324SOL     OW30607   4.732   2.746   2.184 -0.6550  0.3568 -0.1535
 6324SOL    HW130608   4.647   2.751   2.140 -0.7170  0.8820  0.0309
 6324SOL    HW230609   4.723   2.662   2.230 -0.4188  0.0809 -0.6153
 6325SOL     OW30610   2.539   0.761  14.696  0.3644  0.1253 -0.2928
 6325SOL    HW130611   2.572   0.672  14.707 -0.5229  0.0277  1.4741
 6325SOL    HW230612   2.571   0.813  14.770  0.9877 -0.4744 -0.1500
 6326SOL     OW30613   3.478   0.383   2.167  0.1142 -0.2948 -0.0962
 6326SOL    HW130614   3.487   0.467   2.212  1.4119 -1.3417  1.5890
 6326SOL    HW230615   3.507   0.314   2.226  0.7050 -1.7366 -2.0422
 6327SOL     OW30616   2.469   1.421   1.413  0.1403  0.4070  0.4415
 6327SOL    HW130617   2.401   1.476   1.374 -0.3784 -2.3892 -2.6426
 6327SOL    HW230618   2.522   1.401   1.336 -1.3474  1.4772 -0.8565
 6328SOL     OW30619   0.601   3.447   2.289 -1.1043  0.7487  0.0943
 6328SOL    HW130620   0.526   3.389   2.287  0.5013 -1.3468  0.4123
 6328SOL    HW230621   0.614   3.457   2.383 -2.5266  0.9149  0.2674
 6329SOL     OW30622   3.558   3.232   0.997 -0.2046  0.4688 -0.2957
 6329SOL    HW130623   3.592   3.152   1.036 -1.0028  0.5955  0.6783
 6329SOL    HW230624   3.479   3.203   0.951 -0.8703  2.7696 -0.5706
 6330SOL     OW30625   3.560   1.499  14.828  0.6983  0.1237  0.1575
 6330SOL    HW130626   3.587   1.543  14.908  0.2096  1.5085 -0.4430
 6330SOL    HW230627   3.469   1.472  14.843  0.4895 -0.5784 -2.3724
 6331SOL     OW30628   4.622   3.335   7.576  0.3087  0.7008 -0.4130
 6331SOL    HW130629   4.575   3.375   7.650  0.4986 -0.6108  0.4162
 6331SOL    HW230630   4.662   3.260   7.621  1.8905  1.9063  0.2012
 6332SOL     OW30631   0.440   4.121  11.163  0.0901  0.2260  0.0233
 6332SOL    HW130632   0.501   4.129  11.090  0.4221  0.6386  0.3449
 6332SOL    HW230633   0.427   4.027  11.152 -3.5856  0.7654 -0.0616
 6333SOL     OW30634   2.790   3.488   7.019 -0.0420  0.3816 -0.3790
 6333SOL    HW130635   2.700   3.472   7.046 -0.1908 -0.1283 -1.1975
 6333SOL    HW230636   2.828   3.406   7.052  1.3152  1.0375 -0.2865
 6334SOL     OW30637   3.080   4.417   1.712  1.0169  0.1815  0.0174
 6334SOL    HW130638   3.100   4.462   1.794  2.0119 -0.4109  0.1057
 6334SOL    HW230639   3.115   4.329   1.730 -0.4703 -0.3447  0.3753
 6335SOL     OW30640   3.655   4.680   6.303 -0.5210  0.6590 -0.1022
 6335SOL    HW130641   3.744   4.678   6.268 -0.5647 -3.2157  0.0384
 6335SOL    HW230642   3.606   4.662   6.223 -0.7268  2.9769 -0.5191
 6336SOL     OW30643   2.975   1.814   5.019  0.0659  0.2684  0.3101
 6336SOL    HW130644   2.970   1.891   4.962 -0.7837  0.0837  0.1245
 6336SOL    HW230645   2.898   1.820   5.075  0.9493  2.8933  1.2138
 6337SOL     OW30646   4.090   2.303   5.758 -0.0924 -0.2907 -0.1316
 6337SOL    HW130647   4.060   2.216   5.783 -1.2229 -0.2327 -1.3318
 6337SOL    HW230648   4.120   2.330   5.845  1.2814 -0.5611 -0.5192
 6338SOL     OW30649   2.747   0.403   7.417 -0.2524  0.5110 -0.1570
 6338SOL    HW130650   2.684   0.373   7.483 -0.1502 -1.9274 -1.1809
 6338SOL    HW230651   2.772   0.314   7.392 -1.1260 -0.2985  1.8027
 6339SOL     OW30652   2.553   4.375   3.063  0.2432  0.0016 -0.1497
 6339SOL    HW130653   2.628   4.326   3.031  0.9550  0.7010  0.4668
 6339SOL    HW230654   2.591   4.448   3.112  0.5934 -1.2724  1.4554
 6340SOL     OW30655   3.701   3.407   3.369  0.0423 -0.2909  0.5267
 6340SOL    HW130656   3.792   3.409   3.398  0.4072  1.5958 -0.8049
 6340SOL    HW230657   3.700   3.338   3.302  2.9944 -0.3925  0.5698
 6341SOL     OW30658   0.134   0.569   6.512  0.3288  0.0634 -0.1050
 6341SOL    HW130659   0.135   0.665   6.514 -0.8454  0.0542  0.7220
 6341SOL    HW230660   0.197   0.555   6.583  1.3262  2.3813 -0.5404
 6342SOL     OW30661   1.409   1.875   3.739 -0.0591  1.0195  0.2840
 6342SOL    HW130662   1.403   1.787   3.777 -0.0977  1.1498  0.5765
 6342SOL    HW230663   1.370   1.864   3.652  0.7758 -0.8742  0.1376
 6343SOL     OW30664   2.613   1.799  15.373 -0.3290 -0.3632 -0.6086
 6343SOL    HW130665   2.575   1.712  15.390  0.7392 -0.7320 -0.0782
 6343SOL    HW230666   2.602   1.793  15.278  0.8636  0.0099 -0.7684
 6344SOL     OW30667   0.004   3.402   5.108 -0.8633  0.2683 -0.4650
 6344SOL    HW130668   4.698   3.370   5.186 -2.6093 -2.1150 -2.4591
 6344SOL    HW230669   4.674   3.465   5.088  0.5539  1.8348 -0.4817
 6345SOL     OW30670   4.638   0.539   8.558 -0.4767  0.2083 -0.4973
 6345SOL    HW130671   4.722   0.501   8.533 -0.3488 -0.0781  0.3982
 6345SOL    HW230672   4.670   0.615   8.607  1.1737  0.3505 -1.7703
 6346SOL     OW30673   4.061   3.443  10.620  0.2142  0.0520 -0.4930
 6346SOL    HW130674   3.977   3.487  10.608 -0.4686 -1.4234 -1.1021
 6346SOL    HW230675   4.094   3.448  10.530  0.5897  0.8302 -0.3109
 6347SOL     OW30676   3.732   1.606   1.232  0.5091 -0.5395 -0.0554
 6347SOL    HW130677   3.720   1.522   1.187  0.8667  0.9273 -2.9136
 6347SOL    HW230678   3.811   1.582   1.280  1.6034  2.0714 -0.5712
 6348SOL     OW30679   0.622   2.069   6.895  0.3694 -0.0707 -0.4517
 6348SOL    HW130680   0.672   2.085   6.815  1.6451  1.6562  0.6961
 6348SOL    HW230681   0.612   2.157   6.932  0.1604 -1.3262  2.4438
 6349SOL     OW30682   2.434   2.118  16.850 -0.3491 -0.2306  0.0232
 6349SOL    HW130683   2.373   2.181  16.813 -1.1953 -0.9745  0.1509
 6349SOL    HW230684   2.426   2.046  16.788 -2.4290  1.2300 -1.3958
 6350SOL     OW30685   0.838   2.080   6.401 -0.0706  0.1246  0.3218
 6350SOL    HW130686   0.888   2.124   6.332  1.2553 -0.7224  0.7453
 6350SOL    HW230687   0.803   2.151   6.456 -1.7638 -0.7039  0.3081
 6351SOL     OW30688   4.027   4.737   3.006 -0.4103  0.1702 -0.1685
 6351SOL    HW130689   4.110   4.696   2.982  0.2051  0.1506  1.9780
 6351SOL    HW230690   4.059   0.076   3.051 -5.0886  3.1589 -2.0843
 6352SOL     OW30691   3.295   1.236   8.554  0.1091 -0.9220  0.2484
 6352SOL    HW130692   3.317   1.148   8.584 -1.7594 -1.2487  0.6715
 6352SOL    HW230693   3.223   1.260   8.613 -0.1221 -1.4893  0.1952
 6353SOL     OW30694   2.756   1.589   6.711  0.1223  0.7799  0.2487
 6353SOL    HW130695   2.786   1.680   6.713  0.6432  0.6051  0.2120
 6353SOL    HW230696   2.686   1.597   6.646 -0.8408 -1.2224  1.0414
 6354SOL     OW30697   2.702   3.655   9.184 -0.3036  0.4930  0.2877
 6354SOL    HW130698   2.635   3.723   9.178  0.3876  1.2278  0.8870
 6354SOL    HW230699   2.654   3.579   9.217 -0.6244  0.9140  0.7788
 6355SOL     OW30700   3.499   1.083   8.306 -0.1882 -0.2071  0.4086
 6355SOL    HW130701   3.524   1.081   8.398  0.3636 -0.4453  0.2573
 6355SOL    HW230702   3.408   1.111   8.304  0.5324  2.2007  1.0066
 6356SOL     OW30703   4.733   2.762   5.888  0.6362 -0.2372  0.4321
 6356SOL    HW130704   0.029   2.839   5.845 -2.1931  1.6505  1.5016
 6356SOL    HW230705   4.645   2.755   5.851 -0.0227  0.6881  1.8274
 6357SOL     OW30706   0.114   0.131   2.262  0.1769  0.7789  0.1445
 6357SOL    HW130707   0.179   0.067   2.232  1.2034  1.7062  0.4143
 6357SOL    HW230708   0.115   0.194   2.190 -0.7605  0.9563  0.2872
 6358SOL     OW30709   2.849   4.669   4.986 -0.4864 -0.5132  0.2692
 6358SOL    HW130710   2.905   0.000   5.016 -0.1035 -0.2624 -1.0541
 6358SOL    HW230711   2.839   4.619   5.067  1.6568 -3.2996 -1.1530
 6359SOL     OW30712   2.451   3.760   3.300 -0.1227 -0.2110 -0.2661
 6359SOL    HW130713   2.538   3.765   3.338 -0.0984 -1.5838 -0.1194
 6359SOL    HW230714   2.461   3.816   3.223 -3.0163  0.2066 -0.3568
 6360SOL     OW30715   0.162   0.437   5.079  0.1676  0.6891  0.0452
 6360SOL    HW130716   0.164   0.386   4.998 -1.1603  1.1526 -0.2687
 6360SOL    HW230717   0.096   0.393   5.132  0.5577  1.3260  1.0712
 6361SOL     OW30718   0.431   0.816   6.611  0.5240 -0.2452 -0.7561
 6361SOL    HW130719   0.453   0.727   6.636 -1.3913 -0.9975 -1.7218
 6361SOL    HW230720   0.338   0.811   6.586 -0.0379  2.0969  0.8325
 6362SOL     OW30721   0.034   4.243   4.478  0.1990  0.2108  0.0628
 6362SOL    HW130722   0.059   4.166   4.529 -1.0312 -1.2335 -1.5228
 6362SOL    HW230723   4.680   4.245   4.494 -0.0931 -1.2874 -1.5644
 6363SOL     OW30724   3.497   0.168  15.263 -0.1918 -0.0745 -0.2618
 6363SOL    HW130725   3.457   0.135  15.344  0.8438 -2.2049 -0.6214
 6363SOL    HW230726   3.422   0.223  15.242 -2.6970 -3.2284  0.5626
 6364SOL     OW30727   1.650   2.758   5.891 -0.2684  0.1378  0.0784
 6364SOL    HW130728   1.685   2.684   5.841  1.5846  1.4478 -0.5725
 6364SOL    HW230729   1.721   2.822   5.894  0.7601 -0.8911 -2.0812
 6365SOL     OW30730   0.449   0.360   1.016 -0.4147 -0.3187  0.1112
 6365SOL    HW130731   0.503   0.377   0.940  1.0163  1.6395  1.5495
 6365SOL    HW230732   0.451   0.453   1.039 -1.6723  0.0314 -1.1437
 6366SOL     OW30733   1.703   1.046   8.912 -0.6076  0.4041 -0.5444
 6366SOL    HW130734   1.719   0.997   8.993  0.5789  2.4353  0.4406
 6366SOL    HW230735   1.651   1.123   8.935 -2.7777 -0.6308 -2.0183
 6367SOL     OW30736   1.891   3.064   4.353 -0.2927 -0.4775  0.0889
 6367SOL    HW130737   1.856   2.976   4.367  1.2546 -1.0746  0.1742
 6367SOL    HW230738   1.811   3.116   4.353  0.1190  0.1582  0.8974
 6368SOL     OW30739   1.291   0.625  16.486  0.0087  0.4269 -0.4913
 6368SOL    HW130740   1.247   0.584  16.560  0.4380 -3.0115 -2.1537
 6368SOL    HW230741   1.280   0.719  16.498 -4.3744 -0.3054  1.1983
 6369SOL     OW30742   4.151   1.389   4.013 -0.1914 -0.0566 -0.4632
 6369SOL    HW130743   4.086   1.460   4.009 -0.6434 -0.4117  0.3807
 6369SOL    HW230744   4.234   1.435   4.008 -0.0788 -0.0120  1.7492
 6370SOL     OW30745   1.603   2.384  13.526 -0.0439  0.2705  0.2531
 6370SOL    HW130746   1.662   2.340  13.588 -1.0080 -1.4679 -0.0408
 6370SOL    HW230747   1.663   2.421  13.461 -2.1419 -0.4629 -2.0915
 6371SOL     OW30748   0.712   1.261  10.520  0.0558  0.0427 -0.5142
 6371SOL    HW130749   0.704   1.356  10.512  1.3211  0.2359  0.4017
 6371SOL    HW230750   0.725   1.250  10.425 -0.7193 -0.2363 -0.5875
 6372SOL     OW30751   1.067   0.809   4.975 -0.0842 -0.3396 -0.1354
 6372SOL    HW130752   1.099   0.719   4.983  0.1067 -0.1576  1.1300
 6372SOL    HW230753   1.063   0.836   5.066  2.1648  1.6196 -0.6256
 6373SOL     OW30754   2.133   4.661   3.965 -0.3398 -0.4019 -0.3177
 6373SOL    HW130755   2.185   4.653   3.885  1.2755  1.7390  0.4978
 6373SOL    HW230756   2.126   4.571   3.997  0.9238  0.0091  1.1641
 6374SOL     OW30757   1.741   3.014  12.414 -0.2184  0.0127  0.4168
 6374SOL    HW130758   1.755   3.084  12.477 -0.2514  0.9643 -0.6425
 6374SOL    HW230759   1.649   3.036  12.398  0.2586  1.1107 -0.8276
 6375SOL     OW30760   4.663   3.683   2.594  0.8796 -0.5607  0.0025
 6375SOL    HW130761   4.632   3.740   2.524 -0.9605  1.4873  2.4978
 6375SOL    HW230762   4.668   3.601   2.545  1.1230 -0.0822 -0.7869
 6376SOL     OW30763   2.038   3.103   2.139 -1.0321 -0.7626 -0.6747
 6376SOL    HW130764   2.110   3.049   2.107  1.2721  1.4504  0.7795
 6376SOL    HW230765   1.997   3.043   2.201 -1.8954  1.2953  0.7343
 6377SOL     OW30766   1.522   4.547   3.895  0.4230 -0.2095  0.7742
 6377SOL    HW130767   1.576   4.624   3.909  1.1273 -0.8482  1.6215
 6377SOL    HW230768   1.506   4.524   3.987  2.5902  0.5232  1.3206
 6378SOL     OW30769   0.682   1.801   5.194 -0.2334  0.4615  0.1457
 6378SOL    HW130770   0.766   1.767   5.227 -0.7352 -0.5440  0.3744
 6378SOL    HW230771   0.630   1.735   5.239  0.0627 -0.0869 -0.3072
 6379SOL     OW30772   1.952   0.333  15.977  0.3066  0.3300 -0.7214
 6379SOL    HW130773   2.021   0.390  15.943 -0.3933  1.1306 -0.8067
 6379SOL    HW230774   1.950   0.274  15.901 -0.0903 -1.3738  0.6184
 6380SOL     OW30775   1.724   1.790  11.193  0.4113  0.2678  0.5578
 6380SOL    HW130776   1.816   1.783  11.218  0.4702  0.8176  0.5080
 6380SOL    HW230777   1.704   1.698  11.173  0.0424  0.2244  1.1387
 6381SOL     OW30778   1.789   2.572   6.786 -0.3056 -0.5735  0.1396
 6381SOL    HW130779   1.851   2.581   6.858  2.8147 -1.0539 -2.5000
 6381SOL    HW230780   1.714   2.538   6.835  0.2495 -0.7739  0.8528
 6382SOL     OW30781   1.458   4.456  10.389  0.6124  0.2665  0.2356
 6382SOL    HW130782   1.491   4.483  10.475  2.8893 -1.0213 -0.2385
 6382SOL    HW230783   1.388   4.520  10.374  0.8042  0.6878  1.1427
 6383SOL     OW30784   1.517   1.843   8.309  0.0244 -0.7327 -0.0603
 6383SOL    HW130785   1.453   1.913   8.296  2.3221  1.2881 -0.6297
 6383SOL    HW230786   1.504   1.841   8.404  2.1647 -1.5969  0.2336
 6384SOL     OW30787   2.325   2.776  13.341 -0.5690 -0.0708  0.1011
 6384SOL    HW130788   2.249   2.746  13.390 -1.7727  0.1744 -1.5972
 6384SOL    HW230789   2.282   2.808  13.262 -1.1252 -0.8238  0.0955
 6385SOL     OW30790   3.416   2.758  11.400  0.1088  0.4183 -0.1609
 6385SOL    HW130791   3.373   2.741  11.316 -0.4104  3.6270 -0.5150
 6385SOL    HW230792   3.340   2.755  11.459 -1.2668  1.5215 -1.8544
 6386SOL     OW30793   2.878   0.519  12.524  0.5040  0.0967  0.1632
 6386SOL    HW130794   2.925   0.600  12.504  1.4412 -0.0920  1.5585
 6386SOL    HW230795   2.882   0.485  12.435 -1.3249 -0.0340  0.1179
 6387SOL     OW30796   2.567   1.124   0.114 -0.0139 -0.3311  0.0360
 6387SOL    HW130797   2.540   1.148   0.025  4.3110  0.4420 -1.0320
 6387SOL    HW230798   2.552   1.030   0.118 -0.1976 -0.3244 -0.5007
 6388SOL     OW30799   1.370   0.776   4.150 -0.0071  0.8655 -0.0713
 6388SOL    HW130800   1.297   0.766   4.211 -1.1961 -3.0843 -2.1742
 6388SOL    HW230801   1.448   0.779   4.204  2.4535 -0.8086 -3.5410
 6389SOL     OW30802   4.566   2.135  12.053 -0.1571 -0.4291  0.2444
 6389SOL    HW130803   4.549   2.127  12.146  1.8699  3.2311  0.9069
 6389SOL    HW230804   4.481   2.104  12.020 -0.3345 -0.3656  0.6426
 6390SOL     OW30805   2.772   4.418   7.507 -0.6473 -0.3362  0.2968
 6390SOL    HW130806   2.748   4.357   7.576  0.3680  0.2792  1.1999
 6390SOL    HW230807   2.747   4.505   7.537  1.0588  0.7453 -1.3797
 6391SOL     OW30808   2.791   0.843   1.764 -0.5512  0.3205  0.3768
 6391SOL    HW130809   2.711   0.882   1.728 -0.3183 -0.4877 -0.9892
 6391SOL    HW230810   2.849   0.865   1.692  0.9138 -0.5426  1.3020
 6392SOL     OW30811   1.990   4.608   8.190  0.2293  0.0314  0.1372
 6392SOL    HW130812   1.906   4.586   8.149  0.0841 -0.1801  0.5524
 6392SOL    HW230813   1.965   4.673   8.256  0.4460  2.5605 -2.2227
 6393SOL     OW30814   0.747   0.845  14.771 -0.0700  0.2871 -0.4480
 6393SOL    HW130815   0.842   0.853  14.777  0.0825 -1.3611 -0.6801
 6393SOL    HW230816   0.739   0.885  14.685  0.6252 -1.0445 -1.1325
 6394SOL     OW30817   4.119   0.226  15.863  0.2803  0.2252  0.3039
 6394SOL    HW130818   4.093   0.215  15.955  2.1220 -1.5955  0.6010
 6394SOL    HW230819   4.137   0.320  15.858  0.1713  0.1621 -1.2424
 6395SOL     OW30820   3.620   1.163   9.325 -0.6604  0.5371 -0.0628
 6395SOL    HW130821   3.681   1.137   9.394 -1.9931  0.9085  1.2465
 6395SOL    HW230822   3.550   1.203   9.377 -1.3672  1.6366 -1.8484
 6396SOL     OW30823   3.271   0.393  15.539  0.3579  0.0871  0.3137
 6396SOL    HW130824   3.334   0.369  15.607 -0.0065  0.8199  0.9077
 6396SOL    HW230825   3.274   0.315  15.484 -1.5559 -0.2683  0.7455
 6397SOL     OW30826   1.290   2.531   3.475 -0.0578  0.1110 -0.5098
 6397SOL    HW130827   1.253   2.611   3.510 -1.4206 -0.8923  0.3685
 6397SOL    HW230828   1.277   2.551   3.382  0.0851  3.6753  0.2499
 6398SOL     OW30829   1.805   3.517   4.512 -0.2504  0.1501 -0.0377
 6398SOL    HW130830   1.871   3.580   4.485  0.3496 -1.2509 -1.8434
 6398SOL    HW230831   1.850   3.434   4.494 -2.2072 -0.8906 -0.1391
 6399SOL     OW30832   0.141   4.082  12.381  0.5370 -0.1624 -0.7986
 6399SOL    HW130833   0.161   4.176  12.384  1.1876 -0.3240 -0.3764
 6399SOL    HW230834   0.117   4.073  12.473  0.4620  0.8152 -0.7194
 6400SOL     OW30835   0.588   2.691   8.695 -0.4023  0.5986  0.2746
 6400SOL    HW130836   0.535   2.681   8.774 -0.9071  0.5007 -0.0808
 6400SOL    HW230837   0.520   2.697   8.628 -1.7768 -3.3598  1.3421
 6401SOL     OW30838   1.168   4.720  10.096  0.3744 -0.2877  0.0791
 6401SOL    HW130839   1.235   4.693  10.032  0.7985 -1.0373  0.8315
 6401SOL    HW230840   1.098   4.684  10.043 -0.3022 -0.4073  1.0614
 6402SOL     OW30841   1.740   1.080   4.072  0.0274 -0.7751  0.1867
 6402SOL    HW130842   1.732   1.166   4.114 -2.6924 -1.6363  1.4304
 6402SOL    HW230843   1.653   1.049   4.050  0.3435 -0.1370 -1.9399
 6403SOL     OW30844   1.800   3.683   1.447 -0.2319  0.0714  0.0317
 6403SOL    HW130845   1.845   3.765   1.429 -0.9189  0.7277  1.3469
 6403SOL    HW230846   1.714   3.709   1.413 -1.2906 -2.1121  1.0454
 6404SOL     OW30847   0.825   4.396   7.454 -0.1926 -0.0138  0.5897
 6404SOL    HW130848   0.832   4.438   7.369 -2.5942 -1.5968 -0.3873
 6404SOL    HW230849   0.836   4.302   7.440  0.0146  0.0222  0.5050
 6405SOL     OW30850   1.685   0.018   3.535  0.1709  0.0686 -0.5255
 6405SOL    HW130851   1.632   4.731   3.610 -1.7275 -0.2626 -2.0169
 6405SOL    HW230852   1.772   0.002   3.572  0.4676  0.7222 -0.9410
 6406SOL     OW30853   0.658   4.450   4.759  0.3180  0.5419  0.7094
 6406SOL    HW130854   0.739   4.439   4.809 -0.0353  0.2041  1.2087
 6406SOL    HW230855   0.688   4.498   4.682 -0.3496  0.8912  0.6674
 6407SOL     OW30856   4.562   0.530  14.115 -0.3780  0.1919 -0.6863
 6407SOL    HW130857   4.653   0.544  14.089 -0.7302 -0.6572 -2.3999
 6407SOL    HW230858   4.525   0.532  14.027  0.1521  0.4851 -0.9014
 6408SOL     OW30859   1.800   0.124  12.242 -0.5868 -0.7851  0.2652
 6408SOL    HW130860   1.862   0.181  12.288 -1.0507 -0.5165  0.5658
 6408SOL    HW230861   1.714   0.161  12.263 -0.5774 -1.3222  1.2835
 6409SOL     OW30862   0.551   3.882   8.080 -0.3895 -0.4188  0.5671
 6409SOL    HW130863   0.558   3.864   7.986  5.0128 -3.3898  1.5529
 6409SOL    HW230864   0.526   3.974   8.085  2.0865  0.2609  0.3696
 6410SOL     OW30865   4.174   0.081   2.606  0.2818 -0.2692 -0.3300
 6410SOL    HW130866   4.207   0.058   2.519  1.0013 -0.3771 -0.0355
 6410SOL    HW230867   4.192   0.001   2.656 -1.4059 -0.0543  0.6290
 6411SOL     OW30868   3.245   2.339   6.235 -0.4194  0.3247 -0.3151
 6411SOL    HW130869   3.157   2.304   6.220 -0.2916 -0.7616  1.3951
 6411SOL    HW230870   3.300   2.302   6.166  0.0343 -0.9193  0.6931
 6412SOL     OW30871   0.810   2.971   5.836 -0.1049 -0.3030  0.1312
 6412SOL    HW130872   0.881   3.007   5.783 -0.1817 -1.2575 -0.5947
 6412SOL    HW230873   0.741   3.032   5.807 -0.4048 -0.7955 -0.1836
 6413SOL     OW30874   4.239   3.570   9.157  0.8446 -0.1670 -0.0840
 6413SOL    HW130875   4.152   3.563   9.196  0.9245  2.0880  0.4766
 6413SOL    HW230876   4.281   3.639   9.209  3.8902 -2.6302  0.7606
 6414SOL     OW30877   4.347   2.831   5.925 -0.1680 -0.3164 -0.6500
 6414SOL    HW130878   4.405   2.781   5.867  1.1802 -0.0573  0.4722
 6414SOL    HW230879   4.409   2.897   5.956 -2.5739  1.5440  0.2408
 6415SOL     OW30880   0.632   2.499   4.816 -0.0169  0.5046  0.0385
 6415SOL    HW130881   0.719   2.528   4.791  0.7006 -2.0251 -0.3845
 6415SOL    HW230882   0.650   2.443   4.892 -1.0829  1.1271  0.7555
 6416SOL     OW30883   4.723   4.373  17.557 -0.4776 -0.0383  0.0394
 6416SOL    HW130884   4.727   4.324  17.475  1.9515 -1.4153  0.9756
 6416SOL    HW230885   0.067   4.419  17.549  0.4588 -1.7530 -0.0507
 6417SOL     OW30886   3.032   1.652   8.971  0.2627  0.5532 -0.0087
 6417SOL    HW130887   3.106   1.605   8.931 -0.0058 -0.0208  0.1637
 6417SOL    HW230888   2.970   1.646   8.898  0.4534 -0.5376 -0.0917
 6418SOL     OW30889   0.624   1.031   2.880 -0.5049 -0.0926 -0.0499
 6418SOL    HW130890   0.549   0.973   2.871  0.6793 -1.7954  1.0488
 6418SOL    HW230891   0.692   0.965   2.890  1.7016  2.0387 -0.9871
 6419SOL     OW30892   1.364   2.464   1.719 -0.6793 -0.0148  0.1141
 6419SOL    HW130893   1.406   2.483   1.635 -1.6098  0.9784 -0.1288
 6419SOL    HW230894   1.435   2.490   1.778 -1.5714 -1.5283  1.8453
 6420SOL     OW30895   0.897   1.057   8.156  0.0542 -0.0998 -0.2617
 6420SOL    HW130896   0.953   1.112   8.101  1.7604 -1.8542 -0.2853
 6420SOL    HW230897   0.944   0.973   8.146  0.4380 -0.0686  1.2335
 6421SOL     OW30898   4.218   3.404   8.637  0.3410 -0.5227  0.3998
 6421SOL    HW130899   4.284   3.411   8.706  0.2646  0.6909  0.3447
 6421SOL    HW230900   4.163   3.346   8.689 -1.6808 -0.5413 -1.7836
 6422SOL     OW30901   0.623   3.162   7.663  0.0847  0.3480  0.4323
 6422SOL    HW130902   0.642   3.245   7.618  0.4095 -0.3281 -0.7000
 6422SOL    HW230903   0.590   3.188   7.749  2.0408 -0.9035  1.5665
 6423SOL     OW30904   4.132   2.770  12.176 -0.8081 -0.0725 -0.1688
 6423SOL    HW130905   4.173   2.762  12.263  1.0200  1.1926 -0.9289
 6423SOL    HW230906   4.054   2.824  12.190 -0.9068  0.3388 -2.3789
 6424SOL     OW30907   4.702   2.163   9.418  0.4655 -0.0121  0.1154
 6424SOL    HW130908   4.711   2.116   9.336 -0.8164  0.8875 -0.5416
 6424SOL    HW230909   4.606   2.159   9.422  0.3471  0.3302 -2.6002
 6425SOL     OW30910   0.975   3.849   5.830  0.2815  0.2698 -0.5001
 6425SOL    HW130911   0.928   3.780   5.876 -0.2054 -0.5440 -2.2006
 6425SOL    HW230912   0.905   3.914   5.823 -0.7794 -0.8140  0.1650
 6426SOL     OW30913   1.572   3.772   1.315 -0.5384 -0.3861 -0.1848
 6426SOL    HW130914   1.517   3.790   1.391 -0.2495 -1.5030  0.2861
 6426SOL    HW230915   1.566   3.856   1.268 -2.1912  0.8158  2.2086
 6427SOL     OW30916   2.870   4.524   3.356 -0.1131  0.4088 -0.1189
 6427SOL    HW130917   2.960   4.550   3.336  0.3027 -0.9730 -0.0349
 6427SOL    HW230918   2.814   4.576   3.298 -1.6117  2.4329  3.1218
 6428SOL     OW30919   3.792   4.107  17.722  0.5121 -0.0709  0.3693
 6428SOL    HW130920   3.866   4.048  17.707  0.4758  0.5126 -2.1778
 6428SOL    HW230921   3.729   4.060   0.021 -0.3924  1.7114  0.8412
 6429SOL     OW30922   0.746   3.991   8.806 -0.0668  0.2999 -0.8118
 6429SOL    HW130923   0.738   3.964   8.714 -1.3841 -0.6625 -0.4163
 6429SOL    HW230924   0.786   4.078   8.799  1.1143 -0.0187  2.3159
 6430SOL     OW30925   2.933   4.402   8.123  0.0327  0.6154 -0.3663
 6430SOL    HW130926   2.948   4.474   8.062 -1.9793 -1.1762 -2.9653
 6430SOL    HW230927   3.023   4.387   8.151  0.2517  1.3515 -0.6689
 6431SOL     OW30928   2.115   3.099   2.718 -0.2897  0.1826  0.4092
 6431SOL    HW130929   2.075   3.157   2.654 -0.9566 -0.9488 -0.2049
 6431SOL    HW230930   2.207   3.120   2.704  0.1536 -1.3251  1.0608
 6432SOL     OW30931   1.042   3.084  11.973  0.1245  0.4363 -0.1574
 6432SOL    HW130932   1.006   3.006  11.932 -0.6979  1.1630 -0.8232
 6432SOL    HW230933   1.061   3.059  12.064 -0.1327  0.4786 -0.0928
 6433SOL     OW30934   3.090   1.206  15.318 -0.3251 -0.4249 -0.8092
 6433SOL    HW130935   3.094   1.162  15.403  0.7125  0.5459 -0.3464
 6433SOL    HW230936   3.135   1.138  15.268  0.1333 -1.7226  1.3728
 6434SOL     OW30937   0.068   3.024   4.807 -0.0298  0.1241 -0.0526
 6434SOL    HW130938   0.132   3.052   4.742 -1.8561 -0.2273 -2.0319
 6434SOL    HW230939   4.727   3.024   4.755 -1.3311 -0.8893  1.9909
 6435SOL     OW30940   1.179   4.606   2.950 -0.2468 -0.1791 -0.3787
 6435SOL    HW130941   1.104   4.648   2.907 -0.5256  1.4115  1.6539
 6435SOL    HW230942   1.208   4.549   2.878  0.9087 -0.5825  0.4138
 6436SOL     OW30943   2.466   0.265   4.042  0.0878 -0.2418  0.6072
 6436SOL    HW130944   2.459   0.177   4.004 -3.1573  0.1905  0.2023
 6436SOL    HW230945   2.554   0.294   4.018  0.7712 -1.4070  1.7042
 6437SOL     OW30946   1.991   1.896  14.630 -0.4182  0.2551 -0.4370
 6437SOL    HW130947   2.034   1.815  14.602  0.4561 -1.1778  5.1573
 6437SOL    HW230948   1.938   1.868  14.704 -0.7582  0.1674 -0.7132
 6438SOL     OW30949   3.006   3.029   1.844 -0.0763 -0.6937 -0.3980
 6438SOL    HW130950   3.057   2.948   1.842 -0.1243 -0.7646  2.1481
 6438SOL    HW230951   3.052   3.085   1.781  0.7989 -0.1802  0.7000
 6439SOL     OW30952   1.578   0.919   8.702 -0.2799  0.1137 -0.3696
 6439SOL    HW130953   1.594   0.949   8.791 -0.9288 -3.0553  0.8083
 6439SOL    HW230954   1.636   0.844   8.713  1.9881  1.7540 -1.2402
 6440SOL     OW30955   1.391   1.108   5.622  0.4228  0.0212  0.3417
 6440SOL    HW130956   1.484   1.089   5.608  0.2319 -1.3466  0.9328
 6440SOL    HW230957   1.349   1.056   5.553  0.1101  1.3135 -0.4318
 6441SOL     OW30958   2.250   4.250  14.142  0.4673  0.0622  0.0289
 6441SOL    HW130959   2.299   4.251  14.224  0.0639  0.3688  0.2669
 6441SOL    HW230960   2.193   4.177  14.166 -2.1700  1.5144 -1.8763
 6442SOL     OW30961   1.155   0.118   8.906 -0.2578 -0.3081 -0.4644
 6442SOL    HW130962   1.207   0.188   8.866 -0.0916 -1.3294 -2.0667
 6442SOL    HW230963   1.100   0.090   8.833 -2.9917 -1.0917  1.9107
 6443SOL     OW30964   2.204   2.488   5.161  0.5074 -0.6165 -0.2785
 6443SOL    HW130965   2.234   2.410   5.207 -1.2567 -0.9826  0.2332
 6443SOL    HW230966   2.233   2.557   5.221 -1.1776  0.2963 -0.4964
 6444SOL     OW30967   4.483   0.882   3.722  0.6276  0.0120  0.0684
 6444SOL    HW130968   4.397   0.919   3.704  1.0702  1.9229  1.9196
 6444SOL    HW230969   4.530   0.957   3.759 -2.6090  0.2403  3.7707
 6445SOL     OW30970   2.243   3.836   4.233 -0.2543 -0.2852 -0.3500
 6445SOL    HW130971   2.309   3.815   4.299  0.9929 -1.0154 -1.8294
 6445SOL    HW230972   2.272   3.911   4.181  3.7565 -2.0161 -0.6076
 6446SOL     OW30973   1.451   0.984   9.446 -0.2176  0.3838 -0.0865
 6446SOL    HW130974   1.359   1.001   9.430  0.2206  0.4701 -2.4937
 6446SOL    HW230975   1.464   1.072   9.482  0.7689  0.4182 -0.5206
 6447SOL     OW30976   3.338   2.477   5.158 -0.2178  0.1074  0.2350
 6447SOL    HW130977   3.253   2.482   5.201 -1.0792 -1.2475 -1.2827
 6447SOL    HW230978   3.328   2.485   5.063  1.5001  1.7789  0.1923
 6448SOL     OW30979   0.118   2.046   0.176 -0.1685 -0.0810  0.3120
 6448SOL    HW130980   0.032   2.007   0.190  0.2239 -0.4556  1.6383
 6448SOL    HW230981   0.098   2.128   0.131  0.0250 -0.3921 -0.3435
 6449SOL     OW30982   2.278   2.622   3.025 -0.8922 -0.0161  0.1353
 6449SOL    HW130983   2.260   2.685   3.095 -0.8514  1.2223 -0.9729
 6449SOL    HW230984   2.354   2.575   3.058 -0.9813  0.2408  0.6956
 6450SOL     OW30985   0.614   4.283   2.996  0.5911 -0.0633  0.0351
 6450SOL    HW130986   0.547   4.350   2.982  1.9758  1.3271 -0.0085
 6450SOL    HW230987   0.671   4.277   2.919 -1.0682  2.5560 -1.4017
 6451SOL     OW30988   1.400   1.417   3.252  0.4969 -0.0050 -0.3299
 6451SOL    HW130989   1.323   1.401   3.196  0.4785 -1.6442  0.1367
 6451SOL    HW230990   1.392   1.509   3.276  1.5218  0.0952 -0.4156
 6452SOL     OW30991   1.340   1.407   6.998 -0.2666  0.0263 -0.5004
 6452SOL    HW130992   1.409   1.471   7.014  0.4971 -0.5969 -1.3041
 6452SOL    HW230993   1.346   1.357   7.080 -1.5443 -0.7716 -0.8943
 6453SOL     OW30994   0.227   4.687   9.463 -0.9968 -0.1168  0.5778
 6453SOL    HW130995   0.178   0.002   9.525  0.5502  1.0088  0.7991
 6453SOL    HW230996   0.306   4.670   9.514 -0.4962  0.9169  0.1301
 6454SOL     OW30997   3.204   3.091   5.406 -0.1878 -0.7634 -0.0629
 6454SOL    HW130998   3.276   3.033   5.383 -1.7052 -1.9229 -1.9428
 6454SOL    HW230999   3.205   3.101   5.501 -1.6297  0.2844 -0.1468
 6455SOL     OW31000   2.912   4.486  17.651  0.3044 -0.2199 -0.2230
 6455SOL    HW131001   2.921   4.452  17.562 -1.0505 -0.8402 -0.1249
 6455SOL    HW231002   2.973   4.433  17.702 -0.4806 -0.7963  0.1128
 6456SOL     OW31003   2.858   1.387   8.608 -0.3251  0.9107  0.9881
 6456SOL    HW131004   2.831   1.385   8.517 -0.3857 -0.8212  1.0392
 6456SOL    HW231005   2.802   1.324   8.652  0.1490  0.2021  0.5832
 6457SOL     OW31006   2.619   3.294  15.993 -0.0142  1.0358 -0.3625
 6457SOL    HW131007   2.692   3.280  15.933 -0.8365 -0.3891 -1.0298
 6457SOL    HW231008   2.571   3.213  15.975 -0.3853  1.7653 -2.6427
 6458SOL     OW31009   2.904   2.109   4.850  0.2751  0.2807  0.3165
 6458SOL    HW131010   2.815   2.093   4.820  1.1189 -1.3331 -1.3533
 6458SOL    HW231011   2.953   2.038   4.809 -0.6362  0.7596 -1.5802
 6459SOL     OW31012   4.183   1.242   8.614  0.1773  0.0480 -0.5136
 6459SOL    HW131013   4.121   1.279   8.551 -0.0456 -0.7821 -0.7898
 6459SOL    HW231014   4.241   1.193   8.555 -0.3017 -0.9971 -0.1058
 6460SOL     OW31015   3.719   2.558   6.358  0.3683 -0.0706  0.2269
 6460SOL    HW131016   3.662   2.509   6.418  0.3961  0.9515  1.0869
 6460SOL    HW231017   3.778   2.485   6.337  2.9995  2.1456 -0.0290
 6461SOL     OW31018   2.946   1.454  16.601  0.1602 -0.0266  0.5457
 6461SOL    HW131019   3.012   1.419  16.540 -0.0221  0.7097 -0.0787
 6461SOL    HW231020   2.997   1.460  16.682  2.2992  0.8558 -0.8528
 6462SOL     OW31021   3.841   1.418   8.359 -0.1196 -0.5846 -0.3930
 6462SOL    HW131022   3.789   1.405   8.280  2.1709  0.7371 -2.1065
 6462SOL    HW231023   3.862   1.326   8.375 -1.1269 -1.0057 -1.4744
 6463SOL     OW31024   1.135   4.701   8.652 -0.4139 -0.1731  0.2230
 6463SOL    HW131025   1.205   4.673   8.711  0.7303 -0.6827 -1.3712
 6463SOL    HW231026   1.174   4.685   8.566  1.1014  2.3546  0.4544
 6464SOL     OW31027   2.933   0.600  11.363  0.3224  0.4272 -0.5233
 6464SOL    HW131028   2.869   0.562  11.302  1.5462  2.4976 -3.1313
 6464SOL    HW231029   2.975   0.517  11.386 -1.6098 -0.4475 -0.1347
 6465SOL     OW31030   4.021   1.281   6.697 -0.2220 -0.2173 -0.2404
 6465SOL    HW131031   3.965   1.308   6.625 -0.7683  0.1451  0.3189
 6465SOL    HW231032   3.957   1.238   6.754 -0.8182 -1.8806 -2.2005
 6466SOL     OW31033   0.721   1.741  17.713 -0.1529  0.3060  0.0808
 6466SOL    HW131034   0.672   1.776  17.638 -0.5332 -1.4369 -0.4792
 6466SOL    HW231035   0.669   1.762   0.034  0.6354  1.1680  0.3788
 6467SOL     OW31036   0.651   4.492   9.236  0.2859 -0.7178 -0.3287
 6467SOL    HW131037   0.658   4.423   9.170 -1.2902 -1.8130  0.6730
 6467SOL    HW231038   0.591   4.449   9.296 -1.3862  4.0612  1.4233
 6468SOL     OW31039   3.107   1.261  17.133 -0.5050  0.0444 -0.1294
 6468SOL    HW131040   3.153   1.259  17.217 -1.3324 -0.3859  0.3181
 6468SOL    HW231041   3.117   1.355  17.114  2.5968 -0.1230  0.7102
 6469SOL     OW31042   3.846   4.430  13.970  0.1375  0.1101 -0.2499
 6469SOL    HW131043   3.771   4.483  13.945  0.0685 -0.3648 -1.0778
 6469SOL    HW231044   3.896   4.491  14.023  0.2749 -0.1392 -0.0913
 6470SOL     OW31045   1.868   0.173   9.449 -0.1370 -0.1733  0.0506
 6470SOL    HW131046   1.912   0.256   9.467 -0.7756  0.5637 -1.7661
 6470SOL    HW231047   1.801   0.195   9.384  0.0364 -0.5027 -0.2330
 6471SOL     OW31048   4.279   3.057  16.839  0.1345  0.2794  0.1602
 6471SOL    HW131049   4.297   2.963  16.839  1.9831  0.6214 -0.2656
 6471SOL    HW231050   4.348   3.100  16.788  0.3366 -0.8607 -0.5363
 6472SOL     OW31051   0.071   4.495  16.693 -0.4028  0.1671  0.3393
 6472SOL    HW131052   4.724   4.510  16.656  0.4668  1.7469 -1.0537
 6472SOL    HW231053   0.046   4.456  16.777  1.1535 -0.9443  0.2993
 6473SOL     OW31054   2.574   1.480  17.627  0.4927 -0.0277  0.2533
 6473SOL    HW131055   2.554   1.528  17.547 -0.4201  0.0414  0.5261
 6473SOL    HW231056   2.568   1.387  17.602  1.5519 -0.3669  1.2890
 6474SOL     OW31057   1.119   2.917   0.716 -0.2552  0.1328 -0.4069
 6474SOL    HW131058   1.170   2.959   0.785  0.6214  0.3319 -1.1840
 6474SOL    HW231059   1.030   2.953   0.715 -0.9425 -1.4922  1.8591
 6475SOL     OW31060   4.100   3.690   6.332 -0.0400  0.4900  0.0716
 6475SOL    HW131061   4.085   3.612   6.279 -3.9186  1.4553 -0.1811
 6475SOL    HW231062   4.011   3.723   6.339  0.1704  1.7068 -3.0109
 6476SOL     OW31063   0.246   4.228   4.999 -0.0828 -0.4821 -0.0674
 6476SOL    HW131064   0.317   4.208   5.060  1.1972 -0.3655 -1.5267
 6476SOL    HW231065   0.288   4.246   4.915 -2.6061 -0.7168 -1.3752
 6477SOL     OW31066   0.435   1.132  10.512  0.1244  0.2253  0.2865
 6477SOL    HW131067   0.525   1.138  10.483  0.0024 -2.1849 -0.5732
 6477SOL    HW231068   0.445   1.201  10.578 -0.1397 -0.1066  0.6769
 6478SOL     OW31069   3.769   0.694  15.551 -0.0780  0.2451  0.3770
 6478SOL    HW131070   3.850   0.650  15.524 -1.1658 -0.6031 -1.5268
 6478SOL    HW231071   3.797   0.774  15.507  2.2509 -1.3924 -1.1751
 6479SOL     OW31072   0.586   0.273   9.046  0.8025 -0.0025 -0.0166
 6479SOL    HW131073   0.615   0.204   8.986 -0.5079 -0.9616  0.4337
 6479SOL    HW231074   0.495   0.285   9.017  0.6011  0.3286  0.7638
 6480SOL     OW31075   1.214   1.916   7.740 -0.5587 -0.4757 -0.1681
 6480SOL    HW131076   1.286   1.976   7.719 -2.2200  1.5757  0.0404
 6480SOL    HW231077   1.133   1.955   7.706  0.0512  1.2660  0.3669
 6481SOL     OW31078   3.992   0.744   9.257 -0.1625 -0.1707 -0.0829
 6481SOL    HW131079   3.940   0.758   9.337 -1.8466 -1.6451 -0.9058
 6481SOL    HW231080   3.918   0.731   9.197 -0.2364  0.5944 -0.1471
 6482SOL     OW31081   3.194   1.300  16.612 -0.1249  0.5390 -0.0734
 6482SOL    HW131082   3.159   1.226  16.662 -0.7486  0.4986 -0.5659
 6482SOL    HW231083   3.247   1.347  16.676  0.1895 -0.6086  0.5224
 6483SOL     OW31084   1.664   2.620  16.962 -0.2130 -0.0041 -0.4342
 6483SOL    HW131085   1.735   2.605  16.899  0.1436 -0.8843  0.1719
 6483SOL    HW231086   1.615   2.539  16.952  1.5754 -0.9537 -1.5009
 6484SOL     OW31087   3.258   1.158  16.359 -0.7437 -0.4406 -0.3784
 6484SOL    HW131088   3.229   1.212  16.433  1.2182 -0.1317  0.1567
 6484SOL    HW231089   3.176   1.158  16.310 -2.3101  0.4279  2.1835
 6485SOL     OW31090   3.974   1.895   4.879  0.3847  0.0964 -0.3236
 6485SOL    HW131091   3.889   1.878   4.920  1.3880  1.6075  2.3865
 6485SOL    HW231092   3.951   1.974   4.830  1.3384  0.1638 -0.6560
 6486SOL     OW31093   3.095   4.178   4.368 -0.1219 -0.0801  0.7062
 6486SOL    HW131094   3.108   4.233   4.291 -1.8637 -0.4688  0.1215
 6486SOL    HW231095   3.009   4.209   4.396 -0.3134 -1.7748  2.0147
 6487SOL     OW31096   4.458   2.336   1.186 -0.0743 -0.2178 -0.1693
 6487SOL    HW131097   4.518   2.277   1.142  1.3194 -0.0809  1.5562
 6487SOL    HW231098   4.388   2.273   1.204  0.6227 -1.2309 -1.0724
 6488SOL     OW31099   3.364   4.028   7.605  0.4605 -0.2868 -0.4607
 6488SOL    HW131100   3.355   3.974   7.527 -1.2394  0.5078 -0.8275
 6488SOL    HW231101   3.338   4.113   7.569 -0.2986 -0.7202 -0.9336
 6489SOL     OW31102   1.042   2.431  11.865  0.1153  0.0484 -0.8861
 6489SOL    HW131103   1.053   2.506  11.923  0.2955 -0.7726  0.1423
 6489SOL    HW231104   0.984   2.472  11.802 -1.0315 -2.0402 -1.1887
 6490SOL     OW31105   4.524   0.073   4.355 -0.5656  1.1313 -0.4185
 6490SOL    HW131106   4.580   0.088   4.279 -2.1125 -0.6960 -1.9360
 6490SOL    HW231107   4.514   4.718   4.341 -1.2403  1.1082  0.2060
 6491SOL     OW31108   4.012   3.825   4.816 -0.0557  0.1277  0.3301
 6491SOL    HW131109   4.042   3.740   4.849 -1.4180 -0.2045  0.6735
 6491SOL    HW231110   3.929   3.803   4.774 -0.0656 -1.0580  0.9515
 6492SOL     OW31111   0.238   2.064   2.828 -0.3304  0.3510 -0.1449
 6492SOL    HW131112   0.303   2.053   2.898 -1.6348  0.1824  1.0350
 6492SOL    HW231113   0.226   1.970   2.810  2.1347  0.1271 -0.6212
 6493SOL     OW31114   2.657   0.390   9.431  0.4362 -0.2984 -0.2715
 6493SOL    HW131115   2.662   0.424   9.342  1.2020  0.6725  0.1462
 6493SOL    HW231116   2.565   0.367   9.443  0.1645  0.0981 -1.6594
 6494SOL     OW31117   1.776   0.358  11.991 -0.6336 -0.1928  0.0006
 6494SOL    HW131118   1.727   0.291  11.945  0.4261 -0.2534 -1.0397
 6494SOL    HW231119   1.845   0.296  12.016 -0.3695  0.5597  1.1630
 6495SOL     OW31120   1.686   1.629   9.016 -0.0799 -0.7512  0.0124
 6495SOL    HW131121   1.751   1.687   8.976  0.5131 -0.0187  2.0485
 6495SOL    HW231122   1.717   1.539   9.014  1.3558 -0.3219  2.4851
 6496SOL     OW31123   3.992   0.939   2.697 -0.3485 -0.0118 -0.1320
 6496SOL    HW131124   4.032   0.876   2.637 -1.4862  0.3386 -1.2489
 6496SOL    HW231125   4.069   0.942   2.754  0.4886 -1.0640 -1.1898
 6497SOL     OW31126   2.009   3.607  11.466  0.3878 -0.8534  0.3108
 6497SOL    HW131127   1.960   3.612  11.384 -0.4619  1.0999  0.9205
 6497SOL    HW231128   1.936   3.589  11.526 -0.4970 -1.7280 -1.0309
 6498SOL     OW31129   3.407   1.139   5.137  0.3539 -0.2845 -0.0466
 6498SOL    HW131130   3.347   1.209   5.113  1.8789  1.2058  0.5037
 6498SOL    HW231131   3.349   1.064   5.149 -0.8363  0.5987 -0.2908
 6499SOL     OW31132   2.785   0.094   2.991  0.1301  0.0765  0.1112
 6499SOL    HW131133   2.704   0.135   3.021  1.1756  0.7232  2.1287
 6499SOL    HW231134   2.847   0.164   3.014 -0.3969  0.3979  0.5586
 6500SOL     OW31135   3.461   0.357   0.192 -0.2655  0.3707  0.0375
 6500SOL    HW131136   3.546   0.326   0.224 -1.0547  0.0732  1.8443
 6500SOL    HW231137   3.435   0.301   0.118  1.2304 -2.1301  1.3932
 6501SOL     OW31138   1.100   3.010   2.530  0.1437 -0.0995  0.0962
 6501SOL    HW131139   1.041   3.064   2.583  0.1794 -0.5350  0.5841
 6501SOL    HW231140   1.175   3.065   2.512  1.2374 -0.8846  2.2883
 6502SOL     OW31141   1.766   1.653   1.747 -0.1801  0.6057  0.4558
 6502SOL    HW131142   1.680   1.617   1.724 -0.7713  0.5621  2.8019
 6502SOL    HW231143   1.777   1.720   1.679 -0.0009 -0.9764 -1.0994
 6503SOL     OW31144   2.222   3.075   0.549  0.2252 -0.1657 -0.0357
 6503SOL    HW131145   2.199   3.159   0.510 -0.1027  0.6061  1.8191
 6503SOL    HW231146   2.173   3.015   0.493 -1.6163  1.0191  0.2979
 6504SOL     OW31147   3.579   2.538  13.206 -0.1868  0.1861  0.2377
 6504SOL    HW131148   3.635   2.530  13.283 -1.5595 -0.9548  1.1091
 6504SOL    HW231149   3.495   2.561  13.248  0.1907  1.9732  0.0257
 6505SOL     OW31150   2.013   0.255  10.759 -0.2407  0.3403  0.5819
 6505SOL    HW131151   2.106   0.243  10.776 -0.2440  2.1431  2.0285
 6505SOL    HW231152   2.017   0.348  10.737 -1.3920  0.4055  0.6486
 6506SOL     OW31153   1.671   2.679   4.181  0.4001 -0.7910  0.6438
 6506SOL    HW131154   1.654   2.590   4.211  0.0566 -0.6883  0.7543
 6506SOL    HW231155   1.585   2.690   4.140  1.2587  0.3334 -0.8350
 6507SOL     OW31156   3.998   1.085   7.454 -0.0798  0.1259 -0.2316
 6507SOL    HW131157   4.086   1.104   7.488 -0.1395  1.2437 -0.6859
 6507SOL    HW231158   3.941   1.141   7.506 -0.3030 -0.6122  0.3123
 6508SOL     OW31159   0.514   1.755  13.255 -0.1453  0.0267 -0.3491
 6508SOL    HW131160   0.549   1.793  13.174  0.4082  0.5073  0.1213
 6508SOL    HW231161   0.580   1.691  13.282  0.3288  0.8245  0.3817
 6509SOL     OW31162   4.129   1.711  12.074  0.5214 -0.2157 -0.3247
 6509SOL    HW131163   4.102   1.740  11.987 -1.1217  1.8574  0.8803
 6509SOL    HW231164   4.192   1.643  12.049  1.0953  0.0457  0.3937
 6510SOL     OW31165   1.045   0.672  14.068 -0.2222 -0.0662 -0.3350
 6510SOL    HW131166   1.001   0.757  14.063 -0.3921 -0.1707 -0.6090
 6510SOL    HW231167   1.054   0.643  13.977 -0.4979 -1.9235  0.2379
 6511SOL     OW31168   0.158   0.960  16.302  0.4827 -0.1188  0.2893
 6511SOL    HW131169   0.163   0.999  16.215 -0.1954  1.2882  0.8776
 6511SOL    HW231170   0.220   0.887  16.300  0.1016 -0.4466  0.5381
 6512SOL     OW31171   2.792   3.813   6.560  0.0910 -0.0228 -0.1793
 6512SOL    HW131172   2.747   3.816   6.475  0.1033 -0.5830 -0.2019
 6512SOL    HW231173   2.862   3.753   6.533 -0.2993 -0.5312 -0.0583
 6513SOL     OW31174   3.054   1.917   2.788  0.5253 -0.1105  0.1486
 6513SOL    HW131175   3.034   1.823   2.796 -1.9663  0.3699 -0.7981
 6513SOL    HW231176   3.077   1.922   2.696  2.0805  0.4102  0.5630
 6514SOL     OW31177   0.110   2.054   7.314 -0.2180 -0.2779  0.4317
 6514SOL    HW131178   0.053   1.983   7.286 -0.7898 -0.7079  2.6215
 6514SOL    HW231179   0.195   2.010   7.325 -1.3958 -2.3066  1.4884
 6515SOL     OW31180   3.838   1.312   2.789 -0.0528  0.4646 -0.3538
 6515SOL    HW131181   3.770   1.325   2.855 -0.2985 -0.3004 -0.4568
 6515SOL    HW231182   3.827   1.221   2.763 -1.5962  0.9456 -1.3887
 6516SOL     OW31183   4.263   3.769  16.680 -0.3937  0.7441  0.1206
 6516SOL    HW131184   4.258   3.706  16.752 -1.5975 -1.9881 -2.3524
 6516SOL    HW231185   4.317   3.832  16.728 -0.3120  0.6323  0.1752
 6517SOL     OW31186   3.505   0.095  15.739 -0.3077 -0.4190  0.4436
 6517SOL    HW131187   3.595   0.068  15.716 -0.4228 -1.0349  0.7162
 6517SOL    HW231188   3.478   0.033  15.806 -0.0815 -4.0730 -2.8197
 6518SOL     OW31189   3.549   1.604  14.287  0.0308 -0.2926  0.6495
 6518SOL    HW131190   3.536   1.557  14.370 -0.5297 -1.2790  0.0070
 6518SOL    HW231191   3.459   1.631  14.269 -0.6077 -2.8325 -0.0034
 6519SOL     OW31192   2.447   1.064   2.680 -0.0885  0.1563  0.0555
 6519SOL    HW131193   2.391   1.141   2.683  1.6241  1.3972  0.1031
 6519SOL    HW231194   2.529   1.109   2.663 -0.9017  0.9750 -1.6642
 6520SOL     OW31195   2.742   2.240  11.807 -0.1294  0.3999  0.2418
 6520SOL    HW131196   2.746   2.272  11.717 -1.1657  1.3418  0.5214
 6520SOL    HW231197   2.731   2.147  11.790  0.1656  0.4998 -0.5188
 6521SOL     OW31198   4.223   4.135  17.739  0.1512  0.9451 -0.7196
 6521SOL    HW131199   4.191   4.222  17.712  4.1107  2.0072 -1.9412
 6521SOL    HW231200   4.318   4.139  17.738  0.1937 -0.2169 -0.2733
 6522SOL     OW31201   4.305   2.847  15.447 -0.2010 -0.1386 -0.1884
 6522SOL    HW131202   4.382   2.904  15.437  0.1213 -0.8531 -1.7762
 6522SOL    HW231203   4.247   2.923  15.436  2.3811  1.9748  0.6081
 6523SOL     OW31204   2.727   1.343   4.564  0.2945 -0.7352  0.0795
 6523SOL    HW131205   2.663   1.310   4.627 -1.0655 -0.6635 -1.2474
 6523SOL    HW231206   2.791   1.273   4.565 -0.2756 -1.2518  0.6321
 6524SOL     OW31207   0.907   2.307   9.295  0.1698  0.5026  0.0333
 6524SOL    HW131208   0.928   2.323   9.387  0.6319  2.1384 -0.3510
 6524SOL    HW231209   0.866   2.391   9.275  1.3291  0.6450 -1.7816
 6525SOL     OW31210   1.783   0.534  17.281  0.5477  0.2000  0.0382
 6525SOL    HW131211   1.735   0.582  17.349  1.4734  0.8478  0.2256
 6525SOL    HW231212   1.784   0.604  17.216 -0.7121  1.2123  1.1143
 6526SOL     OW31213   1.446   4.305  17.730  0.0330  0.1622 -0.3141
 6526SOL    HW131214   1.520   4.281   0.031 -0.9931  3.5014  2.4068
 6526SOL    HW231215   1.423   4.388   0.014 -0.8403  0.4900 -1.5197
 6527SOL     OW31216   2.780   2.520   7.897  0.0996  0.5892  0.1302
 6527SOL    HW131217   2.819   2.446   7.943 -3.0321 -0.8308  0.4741
 6527SOL    HW231218   2.860   2.564   7.866  0.1748 -1.1414 -2.1618
 6528SOL     OW31219   3.451   3.253   3.341  0.6023 -0.1915 -0.1491
 6528SOL    HW131220   3.406   3.327   3.302 -0.1547 -0.9533 -0.7243
 6528SOL    HW231221   3.510   3.279   3.412  0.6714 -1.3600  0.2176
 6529SOL     OW31222   3.209   0.197   9.839  0.4723 -0.2946  0.0296
 6529SOL    HW131223   3.154   0.121   9.818 -0.3848  1.0909 -2.7516
 6529SOL    HW231224   3.242   0.170   9.925 -1.0886 -0.8663  0.4487
 6530SOL     OW31225   0.752   0.618   4.517  0.3203  0.3565  0.1147
 6530SOL    HW131226   0.693   0.575   4.578  0.9261  1.4261  1.4571
 6530SOL    HW231227   0.783   0.686   4.576 -0.9965 -0.4240  1.6990
 6531SOL     OW31228   3.515   1.291  17.502 -0.7352 -0.0137 -0.8454
 6531SOL    HW131229   3.578   1.239  17.451 -0.5141 -2.9205  2.4041
 6531SOL    HW231230   3.531   1.379  17.468  0.9296  0.0066 -0.0032
 6532SOL     OW31231   4.021   4.495   7.635 -0.5965 -0.2755  0.1904
 6532SOL    HW131232   4.029   4.444   7.553 -1.7058  0.3008 -0.2774
 6532SOL    HW231233   4.107   4.474   7.671 -0.4288  0.4595  0.2073
 6533SOL     OW31234   1.855   2.774   5.076 -0.3600 -0.3237  0.5967
 6533SOL    HW131235   1.801   2.779   4.997 -1.9109 -0.4233  1.6660
 6533SOL    HW231236   1.931   2.735   5.032 -0.3848  0.2926  0.0119
 6534SOL     OW31237   3.112   1.417   5.301  0.1227 -0.1704 -0.1042
 6534SOL    HW131238   3.043   1.359   5.335  0.4850 -0.2070  0.5548
 6534SOL    HW231239   3.087   1.502   5.337  0.9804  0.0243  0.0191
 6535SOL     OW31240   3.573   4.364   8.194 -0.3830 -0.0251  1.0163
 6535SOL    HW131241   3.519   4.442   8.211 -2.4000 -1.2881  0.4203
 6535SOL    HW231242   3.646   4.378   8.254  0.1679  0.2567  0.2855
 6536SOL     OW31243   1.551   1.351   5.957 -0.0690  0.3567  0.6374
 6536SOL    HW131244   1.468   1.387   5.923  0.8132  2.3519  0.6044
 6536SOL    HW231245   1.548   1.343   6.052 -2.0523 -3.5713  0.2513
 6537SOL     OW31246   3.120   1.505   1.461  0.2288 -0.0814  0.2812
 6537SOL    HW131247   3.066   1.478   1.387 -0.9902  2.1181  0.3605
 6537SOL    HW231248   3.075   1.577   1.505 -1.0581 -0.7539  0.0591
 6538SOL     OW31249   1.847   4.657   4.871 -0.1328 -0.1022  0.3233
 6538SOL    HW131250   1.853   4.614   4.785  0.9390  0.2133  0.2495
 6538SOL    HW231251   1.911   4.728   4.869 -0.2706 -0.0259 -2.0705
 6539SOL     OW31252   2.441   2.657  17.664 -0.1857  0.1814 -0.0784
 6539SOL    HW131253   2.476   2.692  17.747 -2.2278 -0.5279  1.0735
 6539SOL    HW231254   2.361   2.707  17.650 -1.4107 -1.5543  0.7175
 6540SOL     OW31255   2.764   0.566   9.603 -0.4105  0.2906 -0.4473
 6540SOL    HW131256   2.743   0.497   9.540 -1.6387 -1.5857  2.0516
 6540SOL    HW231257   2.706   0.637   9.574  0.1445  1.7010  1.9693
 6541SOL     OW31258   2.532   4.273  16.970  0.2482 -0.1010  0.1015
 6541SOL    HW131259   2.444   4.236  16.972 -0.6135  2.0160  0.6401
 6541SOL    HW231260   2.518   4.360  17.006 -0.3154 -0.7537  1.4609
 6542SOL     OW31261   2.106   3.103   2.984 -0.2484  0.1182  0.1004
 6542SOL    HW131262   2.095   3.092   2.890 -0.9883 -0.2566  0.2326
 6542SOL    HW231263   2.196   3.073   2.994 -0.0308 -0.0173 -2.3911
 6543SOL     OW31264   4.640   4.469   5.470 -0.1131 -0.2278 -0.0870
 6543SOL    HW131265   4.556   4.439   5.435  0.7381 -1.2548 -1.2959
 6543SOL    HW231266   4.619   4.531   5.540  0.7144 -1.9072  1.6492
 6544SOL     OW31267   0.965   3.176   1.582  0.0581  0.1143 -0.2956
 6544SOL    HW131268   0.926   3.182   1.669 -3.7864  0.8193 -2.0405
 6544SOL    HW231269   0.899   3.124   1.537  0.1994  0.5047 -0.9609
 6545SOL     OW31270   4.311   0.909  10.146  0.3148  0.1046  0.0303
 6545SOL    HW131271   4.331   0.820  10.175 -0.3273  0.0397  0.2562
 6545SOL    HW231272   4.234   0.901  10.090  0.8834 -1.7653 -0.4877
 6546SOL     OW31273   0.110   0.498   4.361  0.4949 -0.3329  0.0101
 6546SOL    HW131274   0.057   0.576   4.350  2.0175  0.6035 -0.6302
 6546SOL    HW231275   0.047   0.434   4.327  1.0563 -0.3081 -1.0901
 6547SOL     OW31276   1.766   4.471   2.109 -0.3116 -0.2231  0.2070
 6547SOL    HW131277   1.733   4.392   2.066  1.6135 -1.7243  1.5424
 6547SOL    HW231278   1.842   4.494   2.056 -0.1265 -0.1941  0.4852
 6548SOL     OW31279   1.058   1.282   8.387 -0.2396 -0.3087 -0.3023
 6548SOL    HW131280   1.133   1.261   8.443  0.8942  2.2146 -0.8681
 6548SOL    HW231281   1.038   1.199   8.344  0.1762 -0.6729  0.2069
 6549SOL     OW31282   0.190   1.683   1.438  0.2463  0.8147  0.2021
 6549SOL    HW131283   0.226   1.601   1.471 -1.6986  0.1301  0.6085
 6549SOL    HW231284   0.132   1.646   1.371 -0.2411  1.6037  0.1962
 6550SOL     OW31285   4.644   3.389   1.802 -0.5157 -0.3581 -0.4663
 6550SOL    HW131286   4.558   3.351   1.784 -1.2038  1.7943 -1.6506
 6550SOL    HW231287   4.640   3.369   1.896 -0.0510 -0.9416 -0.5686
 6551SOL     OW31288   4.203   0.813   0.818  0.9280 -0.2538  0.0604
 6551SOL    HW131289   4.231   0.886   0.873 -1.6670 -0.1212  1.1928
 6551SOL    HW231290   4.190   0.853   0.732  1.0727 -1.7000 -0.6450
 6552SOL     OW31291   0.909   2.576   5.517 -0.4877  0.6550  0.0718
 6552SOL    HW131292   0.949   2.544   5.598  2.7553  0.5685 -1.5220
 6552SOL    HW231293   0.933   2.668   5.520 -2.3979  1.0938  1.5137
 6553SOL     OW31294   1.420   0.315   4.644  0.0838  0.2736  0.4731
 6553SOL    HW131295   1.506   0.341   4.676 -0.4467  0.0500  2.0665
 6553SOL    HW231296   1.421   0.220   4.636 -2.9640  0.1829  1.1143
 6554SOL     OW31297   2.215   0.972   7.031 -0.5517  0.1466 -0.3037
 6554SOL    HW131298   2.123   0.980   7.006 -0.2327  2.2263 -0.8470
 6554SOL    HW231299   2.212   0.929   7.116 -1.2557  2.0696  0.6515
 6555SOL     OW31300   1.091   2.584   3.782 -0.4660 -0.1868 -0.1040
 6555SOL    HW131301   1.144   2.507   3.760  0.9950  0.8440 -0.2413
 6555SOL    HW231302   1.117   2.605   3.872 -1.9418  0.4156  0.1833
 6556SOL     OW31303   3.250   1.082   1.285 -0.1267  0.3639  0.1273
 6556SOL    HW131304   3.229   1.085   1.192  0.5902  1.6445  0.0023
 6556SOL    HW231305   3.215   0.996   1.309  0.5334  0.3189  0.9294
 6557SOL     OW31306   0.581   3.271  13.901  0.1284 -0.0417  0.2839
 6557SOL    HW131307   0.565   3.352  13.950 -0.4109  0.6595 -1.0691
 6557SOL    HW231308   0.619   3.301  13.819 -0.7733  2.0995  0.6301
 6558SOL     OW31309   4.486   4.360   7.303 -0.0362 -0.2032 -0.0191
 6558SOL    HW131310   4.509   4.412   7.225 -0.1924 -0.0396  0.0425
 6558SOL    HW231311   4.460   4.421   7.372  0.6155 -0.7425  0.6991
 6559SOL     OW31312   3.827   4.645   7.999 -0.6425 -0.5420  0.9016
 6559SOL    HW131313   3.756   4.652   8.063 -2.3880 -1.5799 -0.9391
 6559SOL    HW231314   3.807   4.714   7.937  0.6079 -0.5741  0.4772
 6560SOL     OW31315   3.398   1.661   1.684 -0.5557 -0.1132  0.0659
 6560SOL    HW131316   3.335   1.589   1.682  1.0631 -1.5642  1.2997
 6560SOL    HW231317   3.359   1.709   1.611 -1.4331  0.2247  0.7542
 6561SOL     OW31318   3.222   2.464  17.505 -0.2675  0.6919 -0.1056
 6561SOL    HW131319   3.251   2.542  17.552  1.3782  1.0259 -1.6451
 6561SOL    HW231320   3.160   2.433  17.570 -2.0082 -0.5264 -2.3713
 6562SOL     OW31321   3.687   4.184   3.634  0.3388  0.4333  0.3100
 6562SOL    HW131322   3.600   4.220   3.618  0.3165 -1.0601 -2.9311
 6562SOL    HW231323   3.742   4.235   3.575  0.2270  0.8556  0.5703
 6563SOL     OW31324   0.969   0.758  13.756  0.2801  0.1404  0.6149
 6563SOL    HW131325   0.936   0.825  13.815  0.9340  2.7174 -1.9674
 6563SOL    HW231326   0.888   0.709  13.741  0.9034 -0.1227 -1.7839
 6564SOL     OW31327   2.529   4.485  10.117  0.3597  0.1843 -0.1236
 6564SOL    HW131328   2.527   4.540  10.039 -1.6313 -1.1571 -1.0346
 6564SOL    HW231329   2.620   4.490  10.147  0.9213  0.4280 -1.9132
 6565SOL     OW31330   0.595   3.122   5.724 -0.5099 -0.1068 -0.2538
 6565SOL    HW131331   0.532   3.107   5.795 -1.1377  0.1594 -0.7506
 6565SOL    HW231332   0.541   3.094   5.649 -0.9572 -1.5308  0.6066
 6566SOL     OW31333   3.727   0.372   1.549  0.8126 -0.0622 -0.2790
 6566SOL    HW131334   3.813   0.342   1.521  0.8307 -1.1565  0.9444
 6566SOL    HW231335   3.683   0.292   1.577  1.6692 -0.7476 -0.9003
 6567SOL     OW31336   3.143   2.923  14.943 -0.0185 -0.2304 -0.5203
 6567SOL    HW131337   3.228   2.936  14.902  0.1713  1.2580  0.3544
 6567SOL    HW231338   3.164   2.860  15.013  0.2295  0.9873  0.4927
 6568SOL     OW31339   2.687   2.661   3.116 -0.1718  0.1939  0.0968
 6568SOL    HW131340   2.774   2.623   3.105 -0.3353 -0.4961  1.0684
 6568SOL    HW231341   2.622   2.597   3.088  0.4756  0.3591 -1.7786
 6569SOL     OW31342   0.404   3.282   3.797  0.1401  0.8113 -0.0928
 6569SOL    HW131343   0.389   3.376   3.797  0.5272  0.8702 -0.4517
 6569SOL    HW231344   0.415   3.268   3.891  1.0063 -0.9637 -0.4562
 6570SOL     OW31345   3.553   2.521  11.524  0.1217 -0.1364 -0.0252
 6570SOL    HW131346   3.642   2.550  11.544 -0.7071 -0.0762  3.6001
 6570SOL    HW231347   3.511   2.601  11.494  1.6133  0.7915  0.3618
 6571SOL     OW31348   0.828   3.516   2.110  0.0033 -0.5644 -0.6247
 6571SOL    HW131349   0.746   3.544   2.068 -1.1560 -2.8303  0.1335
 6571SOL    HW231350   0.793   3.480   2.192  1.1987 -1.7199 -0.6368
 6572SOL     OW31351   4.583   2.812   6.120 -0.2357  0.3568 -0.2220
 6572SOL    HW131352   4.634   2.794   6.042  2.1184 -0.7029  1.5406
 6572SOL    HW231353   4.650   2.808   6.189 -0.4152  0.4210 -0.0429
 6573SOL     OW31354   3.444   0.131   1.754  0.0981  0.4110  1.0185
 6573SOL    HW131355   3.472   0.205   1.808 -0.3989  0.2466  1.5061
 6573SOL    HW231356   3.523   0.108   1.706 -0.8716 -0.0780 -0.3477
 6574SOL     OW31357   3.891   1.757  10.614  0.1043  0.1980 -0.5073
 6574SOL    HW131358   3.840   1.717  10.544  1.3769 -1.5152 -0.4488
 6574SOL    HW231359   3.836   1.825  10.653 -0.5188  0.1040 -1.2041
 6575SOL     OW31360   2.702   1.912   6.134  0.4561 -0.1027 -0.6193
 6575SOL    HW131361   2.708   1.941   6.043 -0.6481 -0.9345 -0.9622
 6575SOL    HW231362   2.626   1.853   6.129 -0.5511  1.1287  0.0747
 6576SOL     OW31363   0.976   4.404   6.835  0.2722  0.1379 -0.4631
 6576SOL    HW131364   0.984   4.430   6.927 -0.0861  0.7018 -0.5890
 6576SOL    HW231365   1.066   4.382   6.811  0.2107 -0.9354  0.2959
 6577SOL     OW31366   1.917   0.061   0.122  0.9880  0.0017  0.3243
 6577SOL    HW131367   1.958   0.136   0.166  0.3029  0.6622 -0.1710
 6577SOL    HW231368   1.980   0.040   0.052 -1.4685  2.0857 -2.5296
 6578SOL     OW31369   1.290   2.506   5.277  0.5927  0.6655 -0.1360
 6578SOL    HW131370   1.198   2.490   5.297  1.2288 -1.7868  0.8513
 6578SOL    HW231371   1.280   2.586   5.226  1.7070  1.3696  0.7364
 6579SOL     OW31372   0.817   2.870   4.645 -0.0001  0.3894  0.3759
 6579SOL    HW131373   0.897   2.862   4.696  0.2141  1.1080  0.1495
 6579SOL    HW231374   0.803   2.777   4.625  0.4687  0.5226 -0.5964
 6580SOL     OW31375   3.816   2.475   4.641 -0.4998  0.3305  0.1001
 6580SOL    HW131376   3.783   2.561   4.614 -1.4969 -0.1672 -0.2578
 6580SOL    HW231377   3.735   2.424   4.636 -0.3205 -0.0019  0.6877
 6581SOL     OW31378   0.824   2.938  10.828 -0.3120 -0.2134 -0.1330
 6581SOL    HW131379   0.901   2.926  10.773  1.6534  3.1890  1.8257
 6581SOL    HW231380   0.851   2.872  10.892  1.0701 -0.7290 -1.2607
 6582SOL     OW31381   3.534   3.629   8.229  0.1235 -0.0497  0.6975
 6582SOL    HW131382   3.454   3.614   8.179  1.0485  1.2998 -1.2262
 6582SOL    HW231383   3.500   3.597   8.312  3.1263 -1.3226  1.4550
 6583SOL     OW31384   1.551   1.829   8.571 -0.7350 -0.1367  0.4546
 6583SOL    HW131385   1.605   1.889   8.623 -0.6379 -0.5480  0.8314
 6583SOL    HW231386   1.532   1.759   8.635  3.2700 -1.5802  0.0638
 6584SOL     OW31387   1.010   1.506   0.628  0.0434 -0.0970  0.7653
 6584SOL    HW131388   0.933   1.557   0.655 -1.5096 -2.3354  0.5870
 6584SOL    HW231389   1.064   1.513   0.706  0.9819 -0.7860  0.1784
 6585SOL     OW31390   3.111   2.378  13.262  0.3074  0.3244  0.1165
 6585SOL    HW131391   3.150   2.291  13.253 -0.0690  0.4411 -2.5158
 6585SOL    HW231392   3.090   2.382  13.355  1.2190 -2.0698  0.4138
 6586SOL     OW31393   2.726   0.545  14.741 -0.0554 -0.0747 -0.3692
 6586SOL    HW131394   2.764   0.484  14.677  0.4498  0.0910 -0.2191
 6586SOL    HW231395   2.716   0.484  14.814  2.8374  0.9419  0.8572
 6587SOL     OW31396   3.009   4.708   1.568 -0.3453  0.2346 -0.2543
 6587SOL    HW131397   3.094   4.663   1.565  0.1755  1.2540 -0.6313
 6587SOL    HW231398   2.966   4.628   1.537  0.0750 -0.0241 -0.1760
 6588SOL     OW31399   3.378   0.100   6.864  0.3204 -0.3173  0.2238
 6588SOL    HW131400   3.310   0.167   6.858 -0.3467 -0.8441  1.8778
 6588SOL    HW231401   3.414   0.114   6.952  0.3000  0.6996  0.0786
 6589SOL     OW31402   0.314   3.664   5.220 -0.1383  0.1382  0.1943
 6589SOL    HW131403   0.379   3.624   5.277 -0.3982  0.1832  0.5197
 6589SOL    HW231404   0.235   3.672   5.274 -0.7326  1.2163 -0.8290
 6590SOL     OW31405   4.392   2.326   4.600  0.0343  0.0710  0.1555
 6590SOL    HW131406   4.447   2.252   4.578  1.4395  0.5992  1.9361
 6590SOL    HW231407   4.309   2.280   4.614 -1.1954  2.0470 -0.6970
 6591SOL     OW31408   2.892   3.564  12.093 -1.0299 -0.8390 -0.5991
 6591SOL    HW131409   2.852   3.625  12.156 -0.3573 -2.4892  1.3954
 6591SOL    HW231410   2.968   3.532  12.141 -0.0023  2.7724  0.2006
 6592SOL     OW31411   3.555   2.961  15.013 -0.7052 -0.0027  0.5696
 6592SOL    HW131412   3.511   2.911  14.945  0.9737  0.6719 -1.0491
 6592SOL    HW231413   3.489   3.024  15.042 -1.2345 -1.7813  3.2233
 6593SOL     OW31414   3.801   1.177  14.027 -0.1458 -0.1880  0.3640
 6593SOL    HW131415   3.817   1.232  14.104  0.0727 -0.6737  0.6671
 6593SOL    HW231416   3.705   1.170  14.019 -0.1122 -0.8654  0.5524
 6594SOL     OW31417   0.796   1.106   9.750  0.1520  0.1421 -0.3163
 6594SOL    HW131418   0.828   1.118   9.661 -1.2219  0.5957 -0.7452
 6594SOL    HW231419   0.711   1.147   9.732  0.6136  1.9265  1.4698
 6595SOL     OW31420   3.746   2.046   5.160 -0.9707  0.5895  0.2097
 6595SOL    HW131421   3.721   1.974   5.218  0.1507  0.1920  0.2063
 6595SOL    HW231422   3.672   2.102   5.137 -0.8493  0.1214 -1.3331
 6596SOL     OW31423   4.582   0.587   2.354 -0.2922 -0.0915 -0.3678
 6596SOL    HW131424   4.592   0.518   2.288 -0.5186 -1.3493  0.9118
 6596SOL    HW231425   4.595   0.666   2.302  0.0850 -1.1340 -1.8817
 6597SOL     OW31426   2.570   1.696   7.086 -0.0637 -0.0075  0.1256
 6597SOL    HW131427   2.524   1.613   7.073 -0.3400 -0.1505  1.9776
 6597SOL    HW231428   2.520   1.731   7.160  0.1301  0.3666  0.0750
 6598SOL     OW31429   2.348   2.495   3.995  0.6056 -0.1771 -0.3368
 6598SOL    HW131430   2.408   2.445   4.050 -0.3286 -0.8292  0.0948
 6598SOL    HW231431   2.273   2.485   4.053  0.4475 -0.1690 -0.5371
 6599SOL     OW31432   1.955   0.604   6.716 -0.3352 -0.4445 -0.7407
 6599SOL    HW131433   1.950   0.562   6.631  0.9438 -0.2792 -0.8922
 6599SOL    HW231434   1.916   0.689   6.692 -0.3112 -0.3380 -0.4053
 6600SOL     OW31435   2.148   0.821  14.380  0.2411 -0.0721  0.2947
 6600SOL    HW131436   2.241   0.843  14.376  0.1236  0.5604  1.0616
 6600SOL    HW231437   2.111   0.875  14.450 -0.0978  0.7002 -0.4698
 6601SOL     OW31438   3.655   0.494   2.888 -0.1824  0.2925  0.2090
 6601SOL    HW131439   3.725   0.461   2.943  0.3840  1.5250  0.2103
 6601SOL    HW231440   3.633   0.418   2.833 -0.5312  1.4173 -1.2049
 6602SOL     OW31441   1.266   1.684   8.116  0.4988  0.1949  0.0327
 6602SOL    HW131442   1.298   1.659   8.029  0.4849 -1.3501  0.4664
 6602SOL    HW231443   1.273   1.779   8.117  3.0326 -0.0059  0.8919
 6603SOL     OW31444   4.241   1.646   9.270 -0.2608 -0.5195  0.0370
 6603SOL    HW131445   4.184   1.582   9.311 -1.4871 -0.1528 -1.0923
 6603SOL    HW231446   4.306   1.594   9.223 -0.5479 -1.8799  1.1569
 6604SOL     OW31447   0.035   4.625   5.274 -0.2100  0.4067  0.0084
 6604SOL    HW131448   0.128   4.634   5.296 -0.0465 -2.1429  0.3325
 6604SOL    HW231449   0.005   4.541   5.308 -2.4774  0.4834 -1.7855
 6605SOL     OW31450   1.767   2.879  17.631  0.3917  0.0448 -0.0919
 6605SOL    HW131451   1.714   2.852  17.706  3.1355  0.7999  2.1009
 6605SOL    HW231452   1.717   2.945  17.584 -2.3359 -1.5257  0.5698
 6606SOL     OW31453   2.966   3.588   6.599 -0.4726 -0.1792 -0.5176
 6606SOL    HW131454   2.986   3.519   6.536 -2.4751 -2.5330  1.3647
 6606SOL    HW231455   2.903   3.542   6.655  0.1536  0.6347  0.8606
 6607SOL     OW31456   2.762   2.189  17.628 -0.4566 -0.3333  0.8209
 6607SOL    HW131457   2.750   2.272  17.584 -0.8640 -0.0939  1.3827
 6607SOL    HW231458   2.745   2.220  17.717  2.0366 -0.2403  1.2904
 6608SOL     OW31459   2.681   4.347   2.201  0.0777  0.1955  0.2151
 6608SOL    HW131460   2.765   4.339   2.155  0.5691  1.3904  0.8986
 6608SOL    HW231461   2.705   4.407   2.272 -0.4011  1.5202 -0.7472
 6609SOL     OW31462   1.988   2.305   7.786  0.0076  0.5649 -0.0865
 6609SOL    HW131463   1.960   2.380   7.838 -0.6911 -0.2511  0.7016
 6609SOL    HW231464   1.992   2.240   7.856 -0.8619 -1.3396 -1.8138
 6610SOL     OW31465   0.575   2.156   0.778 -0.4299 -0.5073 -0.5792
 6610SOL    HW131466   0.528   2.221   0.830 -0.2998 -0.4578 -0.5222
 6610SOL    HW231467   0.573   2.192   0.689  1.1629 -0.2787 -0.5268
 6611SOL     OW31468   0.403   0.978   8.676  0.4531  0.8130 -0.5212
 6611SOL    HW131469   0.364   0.939   8.598  0.9598 -0.3197 -0.2156
 6611SOL    HW231470   0.387   1.072   8.666  1.1416  1.0568  0.5854
 6612SOL     OW31471   0.712   0.869   3.671  0.3115  0.1427  0.5857
 6612SOL    HW131472   0.761   0.790   3.649  2.6784  1.6941  0.4035
 6612SOL    HW231473   0.725   0.876   3.766 -1.6507 -1.9286  1.0217
 6613SOL     OW31474   3.335   0.890   2.424 -0.6126 -0.3679  0.4684
 6613SOL    HW131475   3.254   0.845   2.398  0.1635 -1.5988  0.1737
 6613SOL    HW231476   3.360   0.831   2.496 -1.4798  1.6099  2.3897
 6614SOL     OW31477   1.493   3.395   1.979  0.0254  0.5529 -0.2824
 6614SOL    HW131478   1.540   3.334   1.921 -1.5281 -0.4749 -0.4684
 6614SOL    HW231479   1.421   3.422   1.922 -0.7184 -0.8019  0.0288
 6615SOL     OW31480   0.888   2.556   8.018 -0.4997  0.1302  0.2291
 6615SOL    HW131481   0.847   2.594   8.095 -0.3764  3.5894 -1.4359
 6615SOL    HW231482   0.867   2.623   7.953  0.5496  0.2188 -0.0317
 6616SOL     OW31483   2.843   0.292   4.599 -0.5534 -0.4795 -0.5063
 6616SOL    HW131484   2.876   0.304   4.688 -0.8005  1.5307 -0.6913
 6616SOL    HW231485   2.796   0.209   4.615 -0.0492 -0.9729 -1.6193
 6617SOL     OW31486   2.530   4.583   7.002  0.3132 -0.3675 -0.2988
 6617SOL    HW131487   2.567   4.657   6.953 -0.4267  1.8252  2.5134
 6617SOL    HW231488   2.614   4.546   7.031  1.2398  1.5632 -0.5031
 6618SOL     OW31489   0.855   4.060   4.527  0.2820 -0.6178  0.1474
 6618SOL    HW131490   0.885   4.106   4.606  0.1932  0.4026 -0.4237
 6618SOL    HW231491   0.891   4.112   4.456  0.9367 -1.8857 -0.4457
 6619SOL     OW31492   3.974   2.193   9.383  0.5696  0.0182 -0.0149
 6619SOL    HW131493   3.895   2.244   9.398  0.9158  1.3870 -2.8487
 6619SOL    HW231494   4.010   2.186   9.472  1.5995 -1.5028 -0.5424
 6620SOL     OW31495   2.931   0.299  11.663 -0.2750  0.2905 -0.0336
 6620SOL    HW131496   2.991   0.373  11.672 -0.5526  0.3326  1.4774
 6620SOL    HW231497   2.936   0.277  11.570 -2.0290  0.4565 -0.1665
 6621SOL     OW31498   3.857   2.901   3.911 -0.7429  0.2155  0.0352
 6621SOL    HW131499   3.783   2.846   3.883 -3.0974  2.5946  1.5107
 6621SOL    HW231500   3.917   2.890   3.837 -1.7095  0.8844 -0.8528
 6622SOL     OW31501   2.890   1.219  10.030 -0.5504 -0.0349  0.4424
 6622SOL    HW131502   2.930   1.138  10.062 -0.6766  0.4969  1.9555
 6622SOL    HW231503   2.850   1.245  10.112 -1.2802 -1.3961  0.5190
 6623SOL     OW31504   2.835   3.933   8.596  0.8129 -0.5803  0.4020
 6623SOL    HW131505   2.899   3.863   8.608  1.4686  0.3263  2.1827
 6623SOL    HW231506   2.883   4.006   8.635 -1.3704  2.4817 -2.5518
 6624SOL     OW31507   0.374   3.677  12.954 -0.2593 -0.1166  0.5421
 6624SOL    HW131508   0.366   3.762  12.911 -2.7628 -0.6008  0.0766
 6624SOL    HW231509   0.380   3.705  13.045  0.4950 -1.2901  0.8592
 6625SOL     OW31510   0.610   3.037   4.845 -0.4981 -0.1265 -0.3821
 6625SOL    HW131511   0.690   3.021   4.895 -0.0314 -2.1277 -1.7487
 6625SOL    HW231512   0.576   3.112   4.893 -1.4852 -1.8735  1.6969
 6626SOL     OW31513   3.229   0.660   7.320 -0.1663  0.1703 -0.6032
 6626SOL    HW131514   3.286   0.587   7.297 -2.2976 -2.1162  1.4136
 6626SOL    HW231515   3.154   0.649   7.260  0.0481  0.5123 -0.9310
 6627SOL     OW31516   4.225   1.835   7.152 -0.1079 -0.3282  0.5179
 6627SOL    HW131517   4.164   1.880   7.210 -2.5739  0.6028 -2.8227
 6627SOL    HW231518   4.188   1.848   7.065 -1.3445 -3.7546  0.5074
 6628SOL     OW31519   2.042   2.660   3.790 -0.1090 -0.2536  0.1524
 6628SOL    HW131520   1.998   2.582   3.823  0.2054  0.0272  1.2324
 6628SOL    HW231521   2.131   2.627   3.777 -0.7610 -1.0858 -2.2551
 6629SOL     OW31522   2.556   3.244  14.421  0.1434 -0.4609 -0.6711
 6629SOL    HW131523   2.550   3.194  14.502 -0.6501 -1.5927 -1.4347
 6629SOL    HW231524   2.644   3.282  14.419 -0.3392  0.8567  2.7804
 6630SOL     OW31525   3.702   3.856  10.591 -0.0302  0.0288  0.5866
 6630SOL    HW131526   3.762   3.800  10.542  0.3678 -0.1822  1.3192
 6630SOL    HW231527   3.754   3.882  10.667  1.4126  2.2959 -1.1726
 6631SOL     OW31528   1.215   0.285   5.496  0.0467 -0.2371  0.0296
 6631SOL    HW131529   1.186   0.227   5.426 -1.9042 -0.4768  1.0366
 6631SOL    HW231530   1.194   0.369   5.456 -1.5836 -0.0466  1.2734
 6632SOL     OW31531   3.973   0.701   6.666  0.3614 -0.0278  1.1367
 6632SOL    HW131532   3.930   0.665   6.589 -1.0061 -0.1540  1.9642
 6632SOL    HW231533   3.955   0.794   6.650  2.5479  0.0229 -0.9921
 6633SOL     OW31534   3.924   0.381   2.957  0.1907 -0.0701  0.0214
 6633SOL    HW131535   3.940   0.340   2.872 -1.3222 -1.4763  0.4217
 6633SOL    HW231536   4.010   0.402   2.995 -0.7654  0.1359  2.1029
 6634SOL     OW31537   4.028   0.298  16.933 -0.0010  0.6464  0.1716
 6634SOL    HW131538   4.100   0.334  16.882 -0.3734  0.0043 -0.8022
 6634SOL    HW231539   4.083   0.230  16.972  0.5386  0.1152 -1.5255
 6635SOL     OW31540   3.053   4.555   8.394  0.9569  0.1252  0.0864
 6635SOL    HW131541   3.055   4.650   8.377  0.3612  0.3610  1.2988
 6635SOL    HW231542   3.127   4.522   8.345  1.0886  1.3222 -0.5095
 6636SOL     OW31543   3.374   2.193   6.026  0.3082  0.1294 -0.0785
 6636SOL    HW131544   3.327   2.216   5.946 -1.4767 -0.0495  0.9241
 6636SOL    HW231545   3.326   2.122   6.067 -1.2954  3.0179  3.0747
 6637SOL     OW31546   2.285   2.823  16.729 -0.0149  0.4223 -0.5538
 6637SOL    HW131547   2.208   2.839  16.783 -0.7728 -0.6514 -1.3186
 6637SOL    HW231548   2.344   2.896  16.748  3.5465 -2.0475 -2.0829
 6638SOL     OW31549   4.398   0.818   4.853 -0.0498 -0.0874 -0.1547
 6638SOL    HW131550   4.482   0.792   4.890 -0.5335 -0.7247  0.5076
 6638SOL    HW231551   4.329   0.767   4.896  0.0449 -0.1502 -0.0774
 6639SOL     OW31552   4.376   3.446   9.598  0.0005 -0.2041  0.0285
 6639SOL    HW131553   4.293   3.479   9.633 -0.8097 -2.3858  0.1579
 6639SOL    HW231554   4.380   3.357   9.633  0.9931 -0.6612 -1.2151
 6640SOL     OW31555   3.124   2.416  16.961  0.0239  0.2330  0.1332
 6640SOL    HW131556   3.213   2.404  16.996 -0.6620  3.5829  2.9627
 6640SOL    HW231557   3.098   2.324  16.955  0.0169  0.2426  0.0226
 6641SOL     OW31558   4.431   0.186   3.300 -0.3398 -0.6375  0.3909
 6641SOL    HW131559   4.526   0.179   3.295  0.0995  3.2661  3.1298
 6641SOL    HW231560   4.415   0.184   3.394  0.6220  1.1160  0.5926
 6642SOL     OW31561   3.445   0.794   7.043  0.2308 -0.1699 -0.0344
 6642SOL    HW131562   3.504   0.842   7.101  1.1885 -2.1461  0.6337
 6642SOL    HW231563   3.370   0.853   7.047 -0.6618 -1.3053 -0.2680
 6643SOL     OW31564   3.736   1.413  14.227 -0.2463 -0.3239 -0.3417
 6643SOL    HW131565   3.656   1.464  14.213 -0.9542 -0.9489  1.3700
 6643SOL    HW231566   3.793   1.488  14.240  2.5127 -2.5394  0.3055
 6644SOL     OW31567   4.269   1.141   9.352 -0.3136  0.0332  0.5045
 6644SOL    HW131568   4.192   1.167   9.403  0.2956  3.6543 -0.4573
 6644SOL    HW231569   4.245   1.062   9.304 -1.3889  0.6800 -0.0295
 6645SOL     OW31570   2.093   2.585  15.987  0.0839 -0.1138 -0.1766
 6645SOL    HW131571   2.158   2.611  15.921  0.5660  0.6749  0.6017
 6645SOL    HW231572   2.134   2.624  16.065 -2.3986 -0.9265  1.5184
 6646SOL     OW31573   4.571   2.797   2.591  0.1912  0.7629 -0.0269
 6646SOL    HW131574   4.569   2.844   2.508  0.6243  0.3025 -0.2998
 6646SOL    HW231575   4.651   2.747   2.573  0.2748  0.7678  0.3286
 6647SOL     OW31576   0.908   1.199   2.509  0.2205  0.0802  0.0743
 6647SOL    HW131577   0.978   1.147   2.469  0.0762  0.4522 -0.6595
 6647SOL    HW231578   0.837   1.136   2.519  0.4711  0.1056  2.0762
 6648SOL     OW31579   1.276   3.668   1.266  0.3593  0.2359 -0.1261
 6648SOL    HW131580   1.371   3.678   1.268  0.3562  0.2160  0.0902
 6648SOL    HW231581   1.265   3.582   1.225  0.4931 -0.7853  1.9908
 6649SOL     OW31582   1.204   4.089   6.061 -0.1516  0.1402 -0.6873
 6649SOL    HW131583   1.201   4.003   6.019  1.4655 -1.1430  1.8320
 6649SOL    HW231584   1.116   4.114   6.032 -1.3645 -0.7277  2.2634
 6650SOL     OW31585   0.089   2.098   6.085  0.9074 -0.4652 -0.6289
 6650SOL    HW131586   0.178   2.125   6.062  1.5659 -0.6881  1.7231
 6650SOL    HW231587   0.081   2.104   6.180  0.6875 -2.5526 -0.4984
 6651SOL     OW31588   4.219   3.268   1.825 -0.0259  0.2950 -0.2796
 6651SOL    HW131589   4.137   3.219   1.832 -0.2537  0.6861 -0.2662
 6651SOL    HW231590   4.255   3.258   1.914  2.5517  2.3694 -1.0778
 6652SOL     OW31591   0.808   4.162   6.913 -0.1896 -0.5093  0.5880
 6652SOL    HW131592   0.838   4.125   6.996 -0.5851 -0.7358  0.6302
 6652SOL    HW231593   0.885   4.217   6.898  0.5017 -0.8265  2.9529
 6653SOL     OW31594   0.985   1.724   9.287 -0.6894 -0.1252 -0.2084
 6653SOL    HW131595   0.992   1.681   9.372  0.8369  2.6364  1.0919
 6653SOL    HW231596   0.957   1.811   9.316 -1.8346 -0.5629 -0.0077
 6654SOL     OW31597   3.734   4.519   4.419 -0.6325 -0.5975  0.5464
 6654SOL    HW131598   3.639   4.517   4.422 -0.8075  4.2301 -1.9261
 6654SOL    HW231599   3.757   4.426   4.420 -0.1323 -0.4751 -0.0317
 6655SOL     OW31600   0.270   4.590   8.028 -0.6591  0.4298 -0.2252
 6655SOL    HW131601   0.263   4.617   8.120  0.4841 -0.2881  0.0824
 6655SOL    HW231602   0.248   4.499   8.043  0.8425  0.1849  0.5385
 6656SOL     OW31603   0.238   0.593  14.267  0.1914 -0.9767  0.2011
 6656SOL    HW131604   0.215   0.648  14.193 -2.3240 -1.1745  0.8418
 6656SOL    HW231605   0.206   0.643  14.342  2.5380 -1.4087  1.4942
 6657SOL     OW31606   3.661   3.541   3.616 -0.1071 -0.3494  0.2665
 6657SOL    HW131607   3.570   3.569   3.621 -0.2286 -0.6922  0.0074
 6657SOL    HW231608   3.666   3.499   3.529  1.4839 -1.6385  0.9798
 6658SOL     OW31609   2.325   4.493   8.475 -0.1626  0.2278  0.0095
 6658SOL    HW131610   2.270   4.566   8.445  0.0904  0.2353 -0.4443
 6658SOL    HW231611   2.262   4.421   8.474 -0.9349  0.9114 -0.7538
 6659SOL     OW31612   1.717   3.314   5.260  0.1885 -0.5161 -0.2016
 6659SOL    HW131613   1.750   3.354   5.179 -1.4164  0.6134 -0.2903
 6659SOL    HW231614   1.769   3.233   5.263  1.2369  0.1389 -0.8119
 6660SOL     OW31615   0.973   1.883   2.318 -0.0582  0.5233 -0.5237
 6660SOL    HW131616   1.025   1.935   2.256  0.9956  1.1492  0.9023
 6660SOL    HW231617   0.881   1.886   2.291  0.2568  2.6415 -1.3493
 6661SOL     OW31618   1.697   4.207   3.827  0.2959 -1.2290  0.1709
 6661SOL    HW131619   1.641   4.146   3.778 -1.5156 -1.5401  2.6458
 6661SOL    HW231620   1.761   4.226   3.758  1.9293 -1.3656  1.6703
 6662SOL     OW31621   0.208   1.731  17.666 -0.2547  0.9511  0.0268
 6662SOL    HW131622   0.163   1.653  17.634  0.7882 -1.1739  3.7265
 6662SOL    HW231623   0.302   1.715  17.675 -0.2481  1.3228  0.6113
 6663SOL     OW31624   2.787   3.434   2.503 -0.6967  0.1115  1.0736
 6663SOL    HW131625   2.786   3.507   2.565  2.8122 -0.0583  1.3594
 6663SOL    HW231626   2.780   3.476   2.418  0.8101  1.6536  1.7068
 6664SOL     OW31627   3.468   4.355  14.367  0.8120  0.1094 -0.6902
 6664SOL    HW131628   3.504   4.337  14.280  1.9452  2.3982 -0.6864
 6664SOL    HW231629   3.376   4.360  14.340 -0.1167  0.7087  2.6375
 6665SOL     OW31630   3.666   4.598   2.692 -0.8952 -0.6472 -0.1383
 6665SOL    HW131631   3.742   4.655   2.688 -1.6951  0.1769 -2.8958
 6665SOL    HW231632   3.603   4.659   2.730  1.9841  0.7490  2.4183
 6666SOL     OW31633   4.722   4.573  17.106  0.2146 -0.3970 -0.0592
 6666SOL    HW131634   4.699   4.498  17.051  2.8194 -0.8426 -0.5625
 6666SOL    HW231635   0.057   4.535  17.152  0.0703  0.2151  0.6793
 6667SOL     OW31636   2.554   4.615   2.179 -0.5410 -0.7614  0.3851
 6667SOL    HW131637   2.648   4.632   2.181 -0.5519 -0.8042  1.5256
 6667SOL    HW231638   2.544   4.521   2.193  0.2682 -0.3482  3.6505
 6668SOL     OW31639   0.476   3.962  16.251 -0.7538  0.2719 -0.6977
 6668SOL    HW131640   0.490   4.003  16.165  2.9224  2.6248  1.0222
 6668SOL    HW231641   0.441   4.039  16.295  0.5510  0.0431  0.7191
 6669SOL     OW31642   4.291   3.559   3.047  0.0757 -0.4627  0.0394
 6669SOL    HW131643   4.287   3.595   3.136  1.5562  1.0941 -0.5348
 6669SOL    HW231644   4.354   3.487   3.043  0.7841  0.1088  0.8710
 6670SOL     OW31645   2.082   2.716   4.948  1.1419 -0.3362 -0.0871
 6670SOL    HW131646   2.070   2.750   4.860  1.5253  0.6420  0.2438
 6670SOL    HW231647   2.138   2.642   4.925  1.0754 -0.5168  0.3343
 6671SOL     OW31648   2.316   3.923   3.815 -0.5920 -0.2733  0.2778
 6671SOL    HW131649   2.384   3.956   3.756 -1.7922  0.2394 -0.8352
 6671SOL    HW231650   2.253   3.880   3.756  1.0513 -0.5053 -1.3046
 6672SOL     OW31651   1.459   1.827   6.960 -0.5019 -0.4535  0.0980
 6672SOL    HW131652   1.486   1.918   6.946  1.4973 -1.4412 -2.4962
 6672SOL    HW231653   1.364   1.834   6.953 -0.5357 -0.9006  0.1018
 6673SOL     OW31654   3.816   0.859   4.271 -0.2234 -0.2783  0.2075
 6673SOL    HW131655   3.869   0.869   4.192  0.0265 -0.6852  0.3233
 6673SOL    HW231656   3.732   0.827   4.239 -0.7113  1.2221 -0.0331
 6674SOL     OW31657   0.412   3.386   7.728 -0.5053 -0.3182 -0.0552
 6674SOL    HW131658   0.317   3.376   7.724 -0.4121 -1.1763 -0.3004
 6674SOL    HW231659   0.446   3.320   7.789  1.5417  0.2087 -0.6229
 6675SOL     OW31660   1.382   1.420   9.968 -0.3293  0.0364  0.5777
 6675SOL    HW131661   1.383   1.417  10.064  1.0026  4.2136  0.6961
 6675SOL    HW231662   1.383   1.326   9.956 -0.5145  0.1591 -0.3894
 6676SOL     OW31663   1.498   2.273   8.469  0.2527  0.1384  0.3236
 6676SOL    HW131664   1.526   2.362   8.449  0.9081 -0.0452  0.4364
 6676SOL    HW231665   1.577   2.220   8.468  0.2497  0.1489 -0.6674
 6677SOL     OW31666   2.343   1.263   2.987 -0.2524 -0.4105  0.1123
 6677SOL    HW131667   2.289   1.188   2.963 -1.7194  0.0796  1.9472
 6677SOL    HW231668   2.372   1.286   2.899 -2.0759 -3.4545 -1.2834
 6678SOL     OW31669   3.930   0.407   7.415 -0.0011  0.0566 -0.0480
 6678SOL    HW131670   3.967   0.449   7.338 -3.0175 -0.7904 -1.9879
 6678SOL    HW231671   3.845   0.384   7.376 -0.3612  1.1918  0.0804
 6679SOL     OW31672   3.639   2.105   7.260  0.8551  0.2465 -0.2861
 6679SOL    HW131673   3.706   2.100   7.329  1.6980  1.9396 -0.9827
 6679SOL    HW231674   3.661   2.192   7.226  0.6856 -1.3170 -4.3775
 6680SOL     OW31675   4.111   3.908   7.932 -0.1269  0.1004 -0.0751
 6680SOL    HW131676   4.085   3.815   7.931  0.7866 -0.1572 -0.4138
 6680SOL    HW231677   4.040   3.950   7.979 -0.8141 -0.5044 -0.5787
 6681SOL     OW31678   2.948   1.999  17.685  0.4039  0.0350  0.3157
 6681SOL    HW131679   2.931   2.012   0.023  2.8763 -1.5671  0.9674
 6681SOL    HW231680   2.883   2.060  17.648 -1.1447 -0.7920  1.6698
 6682SOL     OW31681   0.370   1.121   4.517 -0.1544  0.1591  0.3506
 6682SOL    HW131682   0.370   1.060   4.591  1.9933 -0.8155 -0.4413
 6682SOL    HW231683   0.276   1.114   4.500  0.1620  1.8788 -2.0149
 6683SOL     OW31684   3.185   1.735  15.500 -0.0906  0.5131 -0.1400
 6683SOL    HW131685   3.128   1.698  15.567 -0.6600  0.5260 -0.6146
 6683SOL    HW231686   3.146   1.822  15.489  1.8673  1.5436  1.1219
 6684SOL     OW31687   3.737   0.912   5.043 -0.7627 -0.1839  0.1398
 6684SOL    HW131688   3.777   0.935   5.126 -1.6156 -1.4564  0.9070
 6684SOL    HW231689   3.814   0.898   4.988  0.4174  0.0809  1.7272
 6685SOL     OW31690   1.251   0.942   1.961  0.1227 -0.5831 -0.0264
 6685SOL    HW131691   1.170   0.958   2.010 -0.4054 -2.1504 -0.3841
 6685SOL    HW231692   1.290   0.878   2.020 -1.4442  0.3445  2.0112
 6686SOL     OW31693   4.710   4.002  15.245 -0.0926  0.0559 -0.3145
 6686SOL    HW131694   4.696   3.947  15.168  1.0450 -1.0443  0.2747
 6686SOL    HW231695   0.066   4.002  15.249 -0.2079  2.7014  2.4671
 6687SOL     OW31696   3.016   3.102   4.754 -0.8764 -0.4585 -0.0744
 6687SOL    HW131697   2.955   3.144   4.693  1.3704  1.4415 -1.0226
 6687SOL    HW231698   3.029   3.172   4.818  2.2203 -1.3728  0.2902
 6688SOL     OW31699   2.470   4.526  17.043  0.0818 -0.5675 -0.0058
 6688SOL    HW131700   2.496   4.618  17.036 -1.5217 -0.2697 -1.9661
 6688SOL    HW231701   2.388   4.522  16.993 -1.2184 -1.6859  2.2205
 6689SOL     OW31702   1.681   1.675   6.814 -0.0696  0.2903 -0.1618
 6689SOL    HW131703   1.725   1.748   6.770 -0.8103  0.5670 -0.4391
 6689SOL    HW231704   1.591   1.703   6.798 -0.0185  0.8155  0.4588
 6690SOL     OW31705   0.846   3.297   2.798  0.2868 -0.1849  0.1700
 6690SOL    HW131706   0.811   3.290   2.887 -1.3868 -3.0207 -0.7293
 6690SOL    HW231707   0.928   3.342   2.820 -1.1468  1.1662  2.6657
 6691SOL     OW31708   2.395   3.926  16.211 -0.1516  0.5252  0.4909
 6691SOL    HW131709   2.461   3.861  16.188 -2.1068 -0.4512 -2.2828
 6691SOL    HW231710   2.361   3.878  16.287 -1.0360 -0.3534 -0.4565
 6692SOL     OW31711   4.001   2.395   6.689 -0.2324 -0.0141 -0.8400
 6692SOL    HW131712   4.040   2.473   6.649  1.1917 -0.3470 -0.0747
 6692SOL    HW231713   4.046   2.328   6.638 -0.1143  0.5444 -1.4701
 6693SOL     OW31714   0.608   4.174   4.641 -0.0019  0.4685 -0.4193
 6693SOL    HW131715   0.622   4.264   4.670 -2.3218  0.2652  1.3113
 6693SOL    HW231716   0.700   4.147   4.640 -0.2787 -0.5986  3.2590
 6694SOL     OW31717   3.188   0.846   8.257 -0.7610 -0.1457  0.1086
 6694SOL    HW131718   3.262   0.815   8.205  0.2398  1.0197  0.8212
 6694SOL    HW231719   3.234   0.880   8.334  1.7341  0.5762 -1.7136
 6695SOL     OW31720   0.999   0.032   9.146 -0.8186 -0.7105 -0.0859
 6695SOL    HW131721   1.045   0.040   9.063  0.0845  1.2829  0.6130
 6695SOL    HW231722   1.031   0.108   9.196  0.9455 -1.3546 -0.2505
 6696SOL     OW31723   3.984   0.767   8.615  0.0250  0.1814 -0.1858
 6696SOL    HW131724   4.020   0.692   8.568 -0.3950 -0.2906  0.2351
 6696SOL    HW231725   3.995   0.742   8.707  0.4032  2.1717  0.3030
 6697SOL     OW31726   2.390   1.179   5.874 -0.1176  0.1842 -0.1443
 6697SOL    HW131727   2.448   1.127   5.929 -1.0437 -1.1345 -0.4124
 6697SOL    HW231728   2.310   1.126   5.870  0.4551 -0.7255  0.5776
 6698SOL     OW31729   4.111   3.845   2.574  0.1158 -0.3495  0.3753
 6698SOL    HW131730   4.125   3.896   2.654  1.9673 -0.1012 -0.1122
 6698SOL    HW231731   4.195   3.800   2.568  0.3299  0.1851 -0.5582
 6699SOL     OW31732   1.018   1.519   2.944  0.7162  0.3778 -0.2962
 6699SOL    HW131733   0.996   1.479   2.860 -1.6992  0.2919  0.3556
 6699SOL    HW231734   0.929   1.528   2.979  1.4390  2.6981  0.9102
 6700SOL     OW31735   3.154   3.152   3.981  0.4756  0.1184 -0.3010
 6700SOL    HW131736   3.223   3.091   3.953  1.2436  0.8805 -0.0731
 6700SOL    HW231737   3.194   3.234   3.952 -0.4018  0.3130 -0.9516
 6701SOL     OW31738   2.543   4.262   6.750 -0.2846  0.7381 -0.0107
 6701SOL    HW131739   2.497   4.288   6.671  1.8770 -1.1489 -1.8848
 6701SOL    HW231740   2.466   4.259   6.807 -0.1522  0.2618  0.1448
 6702SOL     OW31741   4.297   1.220  15.578  0.0635  0.3112 -0.6211
 6702SOL    HW131742   4.362   1.236  15.510  0.5277  0.7347 -0.0806
 6702SOL    HW231743   4.242   1.149  15.544 -1.2354  1.9144 -1.8296
 6703SOL     OW31744   1.969   1.319   9.212  0.1577  0.1515 -0.4227
 6703SOL    HW131745   2.011   1.245   9.167  0.5308  1.8380 -2.8668
 6703SOL    HW231746   1.958   1.274   9.295 -1.5871  0.5056 -0.4614
 6704SOL     OW31747   3.772   0.273   7.231 -0.5076  0.3221 -0.2960
 6704SOL    HW131748   3.789   0.229   7.148  1.1978  1.8985 -0.7960
 6704SOL    HW231749   3.750   0.362   7.202 -1.5162  0.7272  1.6815
 6705SOL     OW31750   3.602   1.372   1.174 -0.1271 -0.6169 -0.4573
 6705SOL    HW131751   3.542   1.390   1.246 -1.2273 -0.9084 -1.3100
 6705SOL    HW231752   3.590   1.280   1.151 -2.1849 -0.2999 -0.6127
 6706SOL     OW31753   3.995   3.180   3.603 -0.4273 -0.8821  0.0799
 6706SOL    HW131754   3.916   3.133   3.576 -0.7125 -1.1786  1.4252
 6706SOL    HW231755   4.061   3.111   3.611 -0.3343 -0.4633  2.8897
 6707SOL     OW31756   2.763   2.305   8.454  0.3316  0.1280  0.4069
 6707SOL    HW131757   2.726   2.218   8.466  1.7681 -0.8494 -2.0451
 6707SOL    HW231758   2.686   2.358   8.473  0.9397  0.2822  2.4620
 6708SOL     OW31759   0.821   2.412  15.816 -0.1748  0.2278  0.6835
 6708SOL    HW131760   0.749   2.349  15.810 -1.2864  1.7846 -2.2049
 6708SOL    HW231761   0.775   2.495  15.805 -1.1196 -0.2755  0.7939
 6709SOL     OW31762   1.011   0.873  16.255 -0.5778  0.4786 -0.3615
 6709SOL    HW131763   0.951   0.801  16.274  0.3447 -0.6963 -1.8693
 6709SOL    HW231764   1.082   0.820  16.218 -0.0455 -0.3464  1.8330
 6710SOL     OW31765   4.136   1.391  16.405  0.7285 -0.4073 -0.3690
 6710SOL    HW131766   4.066   1.395  16.469  2.4871 -0.8329  1.5766
 6710SOL    HW231767   4.094   1.355  16.327 -0.5231 -0.6541  0.4204
 6711SOL     OW31768   2.966   4.705   9.905  0.0542  0.3666 -0.0046
 6711SOL    HW131769   2.898   0.028   9.880  0.9983  0.9309 -1.1705
 6711SOL    HW231770   2.938   4.636   9.845 -0.4386  1.4823 -1.0582
 6712SOL     OW31771   2.193   3.810   3.384  0.0486 -1.0168  0.1578
 6712SOL    HW131772   2.282   3.786   3.359 -0.0688 -0.1638 -1.0569
 6712SOL    HW231773   2.145   3.728   3.376  1.1872 -1.3684 -2.8355
 6713SOL     OW31774   2.265   2.530   3.731 -0.1166  0.5036  0.1303
 6713SOL    HW131775   2.241   2.445   3.694 -2.3441  0.2044  2.2911
 6713SOL    HW231776   2.304   2.496   3.811  1.4589  1.0314 -0.4097
 6714SOL     OW31777   3.862   2.676  13.682  0.7686  0.1966 -0.1313
 6714SOL    HW131778   3.823   2.663  13.769  0.6747  0.4694 -0.1334
 6714SOL    HW231779   3.885   2.585  13.663  0.0562  0.1102 -0.5478
 6715SOL     OW31780   0.764   2.015  15.987  0.6206  0.0812 -0.2110
 6715SOL    HW131781   0.857   2.034  15.988  0.4806  0.7702 -0.5383
 6715SOL    HW231782   0.772   1.931  16.033 -3.5325  0.5446  1.4249
 6716SOL     OW31783   4.025   1.871  10.316 -0.2122  0.0258 -0.1091
 6716SOL    HW131784   3.931   1.876  10.303  0.0333  0.0898 -1.7867
 6716SOL    HW231785   4.052   1.838  10.230 -0.3403  0.3464 -0.2719
 6717SOL     OW31786   2.595   4.124   0.766  0.1532  0.9348 -0.1233
 6717SOL    HW131787   2.652   4.132   0.843  1.5746  1.5727 -1.2374
 6717SOL    HW231788   2.651   4.156   0.695  0.2588 -0.1869 -0.5514
 6718SOL     OW31789   1.579   2.058   3.499 -0.3599 -0.9760  0.3323
 6718SOL    HW131790   1.645   1.990   3.484  1.3556  0.7899 -0.1632
 6718SOL    HW231791   1.593   2.083   3.590  2.9615 -2.7724  0.3327
 6719SOL     OW31792   3.416   4.308   8.594 -0.2164  0.7150 -0.1392
 6719SOL    HW131793   3.443   4.247   8.663 -1.6827 -1.7045 -1.7045
 6719SOL    HW231794   3.329   4.332   8.624 -0.8168 -1.6321 -0.0196
 6720SOL     OW31795   2.525   3.785   8.088  0.3741 -0.7517  0.0205
 6720SOL    HW131796   2.501   3.740   8.169 -0.9905 -1.0306 -0.5329
 6720SOL    HW231797   2.483   3.871   8.095 -0.2123 -1.1403  1.3473
 6721SOL     OW31798   1.981   1.242   1.980  0.1709 -0.1315  0.3537
 6721SOL    HW131799   1.990   1.279   2.068  1.8141  0.9811 -0.2985
 6721SOL    HW231800   1.889   1.259   1.959 -0.3389 -1.0433  1.8195
 6722SOL     OW31801   3.814   3.387   6.598 -0.0582 -0.0188  0.0998
 6722SOL    HW131802   3.771   3.472   6.596 -2.1803 -1.0631  0.8081
 6722SOL    HW231803   3.794   3.346   6.514  1.7256 -0.3338 -0.1831
 6723SOL     OW31804   0.484   3.938   8.916  0.7086 -0.2424  0.7843
 6723SOL    HW131805   0.497   3.989   8.836  1.1686  1.3397  1.8806
 6723SOL    HW231806   0.404   3.892   8.891  0.3436  0.8634 -0.1164
 6724SOL     OW31807   1.426   3.884   2.371 -0.1479  1.2278  0.1056
 6724SOL    HW131808   1.370   3.839   2.308  0.5477 -1.5265  1.4409
 6724SOL    HW231809   1.513   3.856   2.344 -0.9505 -1.6342  0.4186
 6725SOL     OW31810   1.358   0.594   5.170  0.6677 -0.5602 -0.2873
 6725SOL    HW131811   1.426   0.532   5.147  1.1059 -1.0422  2.3075
 6725SOL    HW231812   1.291   0.530   5.195  0.1855  0.2570  0.5110
 6726SOL     OW31813   1.009   2.202   5.323  0.3577 -0.0380 -0.6296
 6726SOL    HW131814   1.103   2.198   5.304  0.4805 -1.0350  0.2632
 6726SOL    HW231815   0.974   2.243   5.243  1.6148  0.8665 -0.7247
 6727SOL     OW31816   4.698   4.552   3.325 -0.4352  0.0581 -0.9401
 6727SOL    HW131817   4.620   4.601   3.353  2.3985  4.0965 -0.1431
 6727SOL    HW231818   0.015   4.618   3.285 -1.8565  1.1738 -1.1103
 6728SOL     OW31819   0.392   1.319   4.839  0.5431 -0.2540 -0.1252
 6728SOL    HW131820   0.297   1.321   4.828  0.7256  1.7716 -1.3438
 6728SOL    HW231821   0.429   1.369   4.766  0.9697 -1.3209 -0.6414
 6729SOL     OW31822   2.987   4.677   4.756  0.6746  0.1112 -0.0394
 6729SOL    HW131823   3.081   4.693   4.767  1.0956 -3.1501  1.0290
 6729SOL    HW231824   2.951   4.671   4.845 -1.9409 -2.4270 -1.3042
 6730SOL     OW31825   1.761   3.546   3.853  0.1818 -0.3761  0.0655
 6730SOL    HW131826   1.809   3.474   3.812  2.4543  0.8865  0.5113
 6730SOL    HW231827   1.793   3.527   3.941 -0.1342 -1.4529 -0.0452
 6731SOL     OW31828   2.216   3.786  11.473 -0.1557  0.2273 -0.5661
 6731SOL    HW131829   2.235   3.780  11.567 -1.0049  1.1804 -0.3434
 6731SOL    HW231830   2.148   3.720  11.459  1.0710 -0.7375 -1.9491
 6732SOL     OW31831   0.241   1.903   0.364  0.5148 -0.0132  0.2409
 6732SOL    HW131832   0.206   1.942   0.284  0.2353  1.3587  1.0172
 6732SOL    HW231833   0.221   1.811   0.353  0.6266  0.1557 -1.3097
 6733SOL     OW31834   0.727   1.876  13.074 -0.3609 -0.5629 -0.7889
 6733SOL    HW131835   0.752   1.801  13.128 -0.7219  1.7805  2.6307
 6733SOL    HW231836   0.785   1.860  13.000  0.5983  0.8081 -0.3222
 6734SOL     OW31837   4.208   2.701   2.077 -0.2199 -0.7072 -0.5545
 6734SOL    HW131838   4.123   2.701   2.121 -0.5615  1.8531 -1.2281
 6734SOL    HW231839   4.219   2.792   2.052 -1.6041 -0.6260 -0.8559
 6735SOL     OW31840   1.938   2.083   4.316  0.4321  0.4037  0.1716
 6735SOL    HW131841   2.029   2.104   4.292  0.7936  0.0208  1.1865
 6735SOL    HW231842   1.949   2.077   4.411 -2.9047 -4.0644  0.2538
 6736SOL     OW31843   4.514   1.703   2.375 -0.5977 -0.4059  0.1976
 6736SOL    HW131844   4.606   1.713   2.348  0.0215 -4.6667  0.5994
 6736SOL    HW231845   4.514   1.608   2.363 -2.8711 -0.6576  2.1749
 6737SOL     OW31846   4.094   3.576   9.426  0.4923 -0.0178 -0.7013
 6737SOL    HW131847   4.100   3.554   9.519  3.1878  2.5123 -0.2826
 6737SOL    HW231848   4.155   3.649   9.420  1.7983 -0.8716  2.1280
 6738SOL     OW31849   2.638   4.679   1.409  0.5410 -0.0291  0.0589
 6738SOL    HW131850   2.617   0.004   1.477 -0.2716 -0.4587  0.2109
 6738SOL    HW231851   2.558   4.658   1.362  0.6327 -1.2446  0.4354
 6739SOL     OW31852   0.874   2.053  11.610  0.5523 -0.3181  0.1663
 6739SOL    HW131853   0.970   2.061  11.609  0.3493  1.7320 -2.0240
 6739SOL    HW231854   0.855   1.980  11.669 -0.4168  2.0515  2.7481
 6740SOL     OW31855   2.684   3.237  10.023  0.7375  0.1963 -0.1232
 6740SOL    HW131856   2.660   3.169  10.086  1.0440 -1.1802 -1.4881
 6740SOL    HW231857   2.638   3.218   9.941  0.7459 -0.8402  0.1059
 6741SOL     OW31858   4.163   3.308   4.871  0.4122 -0.4952 -0.1384
 6741SOL    HW131859   4.146   3.286   4.779 -1.8043  0.7507 -0.0283
 6741SOL    HW231860   4.116   3.244   4.924  1.6570  0.7821  2.4881
 6742SOL     OW31861   1.644   1.769   9.547 -0.1373  0.1683  0.1824
 6742SOL    HW131862   1.687   1.803   9.626 -0.6159  0.5180  0.2922
 6742SOL    HW231863   1.555   1.750   9.577 -0.0404 -1.3939 -0.4849
 6743SOL     OW31864   1.535   1.826   6.342  0.5020 -0.3902  1.0035
 6743SOL    HW131865   1.476   1.825   6.268  1.4483 -0.7221  0.2579
 6743SOL    HW231866   1.544   1.918   6.368  0.0250  0.3212 -1.4377
 6744SOL     OW31867   2.491   2.792   6.771  0.0752 -0.2330  0.0142
 6744SOL    HW131868   2.544   2.871   6.782 -0.2287  0.0601 -0.6123
 6744SOL    HW231869   2.487   2.750   6.857  0.6415 -1.0789 -0.3709
 6745SOL     OW31870   3.657   4.615  13.869 -0.2608  0.3879 -0.0710
 6745SOL    HW131871   3.590   4.557  13.834 -1.6501  1.9986 -0.1193
 6745SOL    HW231872   3.633   4.705  13.845  0.7859 -0.2785 -3.6456
 6746SOL     OW31873   1.637   2.054   2.915 -0.4074 -0.0490 -0.7553
 6746SOL    HW131874   1.615   2.039   3.007 -0.1289  0.3478 -0.6215
 6746SOL    HW231875   1.662   2.146   2.925 -2.3138  0.2823  0.9630
 6747SOL     OW31876   2.172   3.630   2.301 -0.6409 -0.0588 -0.1120
 6747SOL    HW131877   2.237   3.685   2.257 -2.1800  2.4337  0.7223
 6747SOL    HW231878   2.116   3.607   2.227  0.5178 -0.2297 -0.9309
 6748SOL     OW31879   1.028   4.048   8.984  0.1823 -0.2296  0.0551
 6748SOL    HW131880   1.099   4.110   8.999  1.3923 -1.5421 -0.2102
 6748SOL    HW231881   0.960   4.080   9.043 -1.0554  0.2072 -1.6038
 6749SOL     OW31882   1.117   2.194   4.521  0.0242  0.1485  0.1900
 6749SOL    HW131883   1.052   2.254   4.559  2.4916  1.9183  1.5502
 6749SOL    HW231884   1.067   2.116   4.493 -0.4567  0.8134 -0.8245
 6750SOL     OW31885   2.254   2.107   4.814  0.4657 -0.4407  0.1548
 6750SOL    HW131886   2.274   2.018   4.788 -0.6613 -0.2984 -1.2106
 6750SOL    HW231887   2.273   2.097   4.907  2.6225 -3.5514 -0.6427
 6751SOL     OW31888   1.481   0.482  14.744 -0.0273  0.3323  0.2026
 6751SOL    HW131889   1.482   0.571  14.779  1.2322  0.0973  0.7727
 6751SOL    HW231890   1.568   0.481  14.705 -0.2042 -1.0287 -0.1648
 6752SOL     OW31891   0.004   3.194  10.388  0.0413  0.4664  0.4995
 6752SOL    HW131892   0.046   3.132  10.448 -1.7781 -2.5072 -1.3104
 6752SOL    HW231893   0.077   3.202  10.327  0.5327 -3.4872  0.5488
 6753SOL     OW31894   2.913   1.303   7.310 -0.2726 -0.6150  0.3431
 6753SOL    HW131895   2.842   1.367   7.320  0.2856 -0.1099  1.1517
 6753SOL    HW231896   2.985   1.363   7.290  1.1874 -2.4210  0.2324
 6754SOL     OW31897   3.391   2.607   3.181 -0.1310  0.1278  0.1968
 6754SOL    HW131898   3.400   2.514   3.201 -1.4799 -0.0658 -0.0961
 6754SOL    HW231899   3.363   2.634   3.269 -2.9334  1.0613 -1.0173
 6755SOL     OW31900   4.699   2.939   4.552 -0.3976  0.1171  0.0562
 6755SOL    HW131901   0.003   2.854   4.554 -1.6074 -0.5021 -0.0674
 6755SOL    HW231902   4.732   2.965   4.466  0.4830 -1.6712 -0.1336
 6756SOL     OW31903   1.945   2.377   7.468 -0.5165  0.0745  0.5545
 6756SOL    HW131904   1.850   2.363   7.467 -0.5218  0.1233  0.0415
 6756SOL    HW231905   1.974   2.360   7.557  1.5277  1.0156  0.0633
 6757SOL     OW31906   4.009   1.253  15.601 -0.3390 -1.2960 -0.0372
 6757SOL    HW131907   4.053   1.178  15.560 -1.7162 -2.0487 -0.1182
 6757SOL    HW231908   4.086   1.308  15.616 -2.1728  1.7288 -1.5926
 6758SOL     OW31909   4.428   3.437   8.784 -0.3090 -1.0148  0.3524
 6758SOL    HW131910   4.451   3.489   8.862  1.8413 -1.3456 -0.0538
 6758SOL    HW231911   4.509   3.390   8.764 -0.0954 -0.6958  0.4548
 6759SOL     OW31912   1.692   2.332   7.494  0.5165  0.0792 -0.3945
 6759SOL    HW131913   1.622   2.380   7.451 -0.9039 -0.5981  1.1568
 6759SOL    HW231914   1.664   2.330   7.585  1.1149  0.6646 -0.1990
 6760SOL     OW31915   1.292   1.381   1.642  0.3767 -0.2141 -0.3940
 6760SOL    HW131916   1.265   1.453   1.700  0.6618 -0.6669  0.3014
 6760SOL    HW231917   1.327   1.317   1.703 -1.6385 -0.4244  0.5587
 6761SOL     OW31918   4.420   0.799   2.699  0.1407  0.3909 -0.4194
 6761SOL    HW131919   4.491   0.738   2.679  0.5198  0.4240  0.8061
 6761SOL    HW231920   4.477   0.871   2.726  0.3091  0.5388 -1.1779
 6762SOL     OW31921   1.079   0.190   3.914  0.1061  0.0972  0.0347
 6762SOL    HW131922   1.002   0.140   3.940  0.0966 -0.6090 -1.3357
 6762SOL    HW231923   1.097   0.220   4.003 -0.3878 -0.6953  0.4059
 6763SOL     OW31924   1.571   3.792   8.483  0.1808  0.2792  0.4352
 6763SOL    HW131925   1.657   3.808   8.445 -0.6944 -1.7245 -2.4330
 6763SOL    HW231926   1.567   3.698   8.499 -0.0591  0.6248  2.4457
 6764SOL     OW31927   3.771   0.099   2.404 -0.2657 -0.4819 -0.2433
 6764SOL    HW131928   3.804   0.031   2.462 -0.8593 -0.6337 -0.0797
 6764SOL    HW231929   3.803   0.060   2.322  0.5976 -0.8549  0.2743
 6765SOL     OW31930   3.179   0.986  15.175  0.1840  0.0673 -0.8910
 6765SOL    HW131931   3.197   0.943  15.259 -0.8905 -0.7980 -1.1049
 6765SOL    HW231932   3.113   0.931  15.133  0.7255 -1.5068  0.2762
 6766SOL     OW31933   1.928   3.693   8.504 -0.5748  0.1256 -0.2967
 6766SOL    HW131934   1.878   3.718   8.582 -0.7125  1.3430 -0.7907
 6766SOL    HW231935   1.979   3.773   8.489  0.8179 -0.5945  0.5401
 6767SOL     OW31936   3.587   3.448  11.440  0.4120  0.1081 -0.2828
 6767SOL    HW131937   3.498   3.481  11.424  1.1909  1.9179 -0.9105
 6767SOL    HW231938   3.615   3.522  11.494 -1.2647  0.7417 -0.2654
 6768SOL     OW31939   3.010   1.772  10.443  0.3795 -0.2741 -0.3296
 6768SOL    HW131940   2.947   1.795  10.375 -0.1997 -1.4623 -0.1881
 6768SOL    HW231941   2.986   1.828  10.517  1.8512  1.2473 -1.0234
 6769SOL     OW31942   4.340   0.100   3.997 -0.4297 -0.2159  0.8789
 6769SOL    HW131943   4.299   0.044   3.931  2.2421  0.1886 -1.1302
 6769SOL    HW231944   4.326   0.044   4.074 -2.5594 -0.3468  0.3716
 6770SOL     OW31945   3.406   3.166   5.961  0.2273 -0.6208  0.1657
 6770SOL    HW131946   3.415   3.115   6.041  1.5642  2.0518  1.7247
 6770SOL    HW231947   3.314   3.193   5.963 -0.0732 -1.2979 -3.8848
 6771SOL     OW31948   2.859   4.074   3.769 -0.0345  0.0193  0.3591
 6771SOL    HW131949   2.878   3.981   3.786 -2.2376 -0.0077  2.6986
 6771SOL    HW231950   2.799   4.098   3.839  1.7180  1.2242  1.4408
 6772SOL     OW31951   3.422   0.368  11.073 -0.2840  0.4938  0.2089
 6772SOL    HW131952   3.405   0.414  10.991 -1.1432  0.0150  0.1210
 6772SOL    HW231953   3.516   0.382  11.084 -0.0408 -0.6718 -0.3715
 6773SOL     OW31954   1.859   4.166   7.525 -0.0524  0.7573  0.1505
 6773SOL    HW131955   1.916   4.105   7.571  0.1498  0.2311 -0.7948
 6773SOL    HW231956   1.922   4.235   7.503 -0.3805  1.0611  0.1564
 6774SOL     OW31957   4.089   3.361  10.132 -0.0755 -0.1204 -0.2196
 6774SOL    HW131958   4.078   3.438  10.076 -2.9955 -1.9303 -2.1440
 6774SOL    HW231959   4.151   3.313  10.077 -0.1288  0.1120 -0.4850
 6775SOL     OW31960   4.652   1.297   7.300  0.2733  0.3901  0.1883
 6775SOL    HW131961   4.701   1.351   7.363  0.7387 -0.7122  0.7671
 6775SOL    HW231962   4.692   1.327   7.218  2.4861  2.8212  2.1564
 6776SOL     OW31963   4.407   1.177   6.222 -0.8204 -0.6334  0.0640
 6776SOL    HW131964   4.338   1.242   6.207 -3.2502 -2.8546  1.5792
 6776SOL    HW231965   4.398   1.127   6.141 -0.9722 -2.1670  1.0356
 6777SOL     OW31966   2.212   0.690   8.771 -0.0822  0.4951 -0.4389
 6777SOL    HW131967   2.206   0.765   8.830  0.1632  0.4288 -0.3292
 6777SOL    HW231968   2.302   0.706   8.741  0.6437  1.2667  2.1768
 6778SOL     OW31969   2.790   0.782   5.416  0.0836 -0.2616 -0.0341
 6778SOL    HW131970   2.858   0.749   5.474 -0.6195  0.8776  1.4387
 6778SOL    HW231971   2.850   0.794   5.342  1.1646 -1.2883  0.6857
 6779SOL     OW31972   1.484   3.343   9.514  0.2458 -0.4969 -0.0519
 6779SOL    HW131973   1.389   3.354   9.512  0.2049 -0.6930  0.9481
 6779SOL    HW231974   1.497   3.253   9.542  1.9637 -0.0857  0.4588
 6780SOL     OW31975   4.568   1.258   1.317 -0.2547 -0.6494  0.2701
 6780SOL    HW131976   4.629   1.261   1.390 -1.6401  1.9310  1.3444
 6780SOL    HW231977   4.622   1.229   1.244  1.9086  1.8148  0.8802
 6781SOL     OW31978   3.758   3.805   7.454  0.0901 -0.4680  0.3282
 6781SOL    HW131979   3.703   3.771   7.383 -0.1832 -3.5870  2.0260
 6781SOL    HW231980   3.833   3.746   7.456 -1.3480 -2.3155  0.5325
 6782SOL     OW31981   1.003   1.699   4.145 -0.4113 -0.5136 -0.4081
 6782SOL    HW131982   1.097   1.686   4.158 -0.3503 -1.6387 -1.9517
 6782SOL    HW231983   0.967   1.697   4.234  2.3227 -0.6126  0.6880
 6783SOL     OW31984   3.066   2.130   8.235 -0.1229  0.2522  0.2224
 6783SOL    HW131985   3.147   2.105   8.191 -0.0173  0.8024  0.1084
 6783SOL    HW231986   3.009   2.054   8.221  0.2633 -0.1845  1.0305
 6784SOL     OW31987   4.654   0.981   2.677 -0.2670 -0.6773  1.3731
 6784SOL    HW131988   4.684   0.976   2.768 -2.7478  0.8842  2.2582
 6784SOL    HW231989   4.600   1.060   2.681 -1.5198 -1.6930  4.3908
 6785SOL     OW31990   3.928   1.541   7.398  0.4918  0.4912  0.3801
 6785SOL    HW131991   4.012   1.554   7.353 -0.0935 -1.8933 -1.3857
 6785SOL    HW231992   3.873   1.603   7.350 -0.2317 -0.7763 -0.4173
 6786SOL     OW31993   1.751   1.190   9.588  0.0303 -0.0445  0.2784
 6786SOL    HW131994   1.773   1.256   9.653  0.7425  0.4976 -0.5041
 6786SOL    HW231995   1.707   1.236   9.517  2.8665  1.8907 -0.2441
 6787SOL     OW31996   2.714   4.317   7.993  0.1455 -0.1900 -0.5170
 6787SOL    HW131997   2.681   4.239   8.037  0.8873 -0.6963 -0.8760
 6787SOL    HW231998   2.794   4.341   8.040 -1.1028  0.5920  1.2036
 6788SOL     OW31999   3.461   3.957   0.069 -0.2809  0.3225 -0.4239
 6788SOL    HW132000   3.544   3.922   0.103 -0.8137 -0.3598  0.1676
 6788SOL    HW232001   3.461   4.047   0.101 -0.2647 -0.3054  1.3658
 6789SOL     OW32002   0.667   2.888   6.933 -0.6072  0.4524  0.6006
 6789SOL    HW132003   0.666   2.909   6.840 -2.5456  1.7752  0.9221
 6789SOL    HW232004   0.758   2.862   6.951 -0.1793  1.1701 -0.5576
 6790SOL     OW32005   4.140   2.790   4.630 -0.9478 -0.4583 -0.3458
 6790SOL    HW132006   4.181   2.850   4.692  2.4258 -2.3468 -0.7439
 6790SOL    HW232007   4.185   2.705   4.635  0.1894  0.2178  0.7881
 6791SOL     OW32008   4.393   1.989  10.541 -0.2948 -1.1971 -0.3073
 6791SOL    HW132009   4.301   1.965  10.557 -0.8908  0.3350 -1.3486
 6791SOL    HW232010   4.382   2.083  10.527 -0.3955 -1.0124  1.0399
 6792SOL     OW32011   1.168   3.371   6.035 -0.1716  0.0552  0.0178
 6792SOL    HW132012   1.245   3.333   6.077 -1.2150  0.0129  1.9229
 6792SOL    HW232013   1.214   3.424   5.970 -0.4183 -0.3260 -0.4664
 6793SOL     OW32014   2.039   4.290   3.945 -0.1260  0.3904 -0.4369
 6793SOL    HW132015   1.985   4.326   3.875  0.4200  0.1927 -0.9521
 6793SOL    HW232016   2.122   4.328   3.918  0.5767  0.1803  1.3968
 6794SOL     OW32017   4.584   1.923   5.625 -0.3638 -0.3582 -0.6527
 6794SOL    HW132018   4.519   1.856   5.646  1.0859 -1.4921  0.2206
 6794SOL    HW232019   4.623   1.952   5.708  1.4259 -0.8675 -1.3049
 6795SOL     OW32020   0.117   1.147   5.292  0.0160 -0.4009  0.4684
 6795SOL    HW132021   0.093   1.226   5.340 -0.9035 -0.8987  0.8271
 6795SOL    HW232022   0.181   1.185   5.231 -0.1840  0.6752  0.9261
 6796SOL     OW32023   3.857   4.327   3.493  0.0661  0.2365 -0.4073
 6796SOL    HW132024   3.830   4.391   3.428 -0.1498 -1.9461 -2.4680
 6796SOL    HW232025   3.924   4.273   3.451 -1.5491 -1.7617 -0.4747
 6797SOL     OW32026   2.159   4.240   0.921  0.0034 -0.0576  0.4022
 6797SOL    HW132027   2.111   4.161   0.897 -0.9160  0.7360 -0.4142
 6797SOL    HW232028   2.211   4.263   0.844  0.1922  0.2118  0.6100
 6798SOL     OW32029   1.512   2.923   2.633  0.3099 -0.8211 -0.0682
 6798SOL    HW132030   1.460   2.998   2.660 -1.9774 -1.8585 -1.5867
 6798SOL    HW232031   1.473   2.844   2.671  3.5550 -2.0061  0.7898
 6799SOL     OW32032   2.375   1.722   7.588  0.1033  0.1344 -0.5089
 6799SOL    HW132033   2.374   1.818   7.589 -1.4653  0.1247 -0.5172
 6799SOL    HW232034   2.293   1.697   7.630  1.0155  1.1436  1.8749
 6800SOL     OW32035   0.838   2.284   6.200 -0.3617 -0.6345 -1.1372
 6800SOL    HW132036   0.832   2.225   6.124 -1.2799 -1.4507 -0.4154
 6800SOL    HW232037   0.839   2.372   6.161  0.0569  0.5275  1.5410
 6801SOL     OW32038   4.674   2.334   5.834 -0.5621  0.7986 -0.4068
 6801SOL    HW132039   4.588   2.364   5.802 -1.4849 -1.8610 -0.3934
 6801SOL    HW232040   4.678   2.372   5.921 -2.1274 -0.3662  0.1784
 6802SOL     OW32041   4.619   4.613   8.637  0.5379  0.3281  0.3054
 6802SOL    HW132042   4.713   4.598   8.651  0.3244 -0.9935  0.3802
 6802SOL    HW232043   4.589   4.626   8.727 -0.6138  0.2292 -0.0617
 6803SOL     OW32044   4.433   1.832   4.567  0.2809 -0.5379 -0.2632
 6803SOL    HW132045   4.349   1.787   4.563  0.1950 -0.1715 -2.5148
 6803SOL    HW232046   4.476   1.786   4.639  0.0292  0.1188  0.3141
 6804SOL     OW32047   2.015   0.895   7.371  0.2568  0.6480 -0.5757
 6804SOL    HW132048   2.016   0.830   7.441  0.9130  1.4903  0.2057
 6804SOL    HW232049   2.097   0.873   7.326  0.1507 -1.5393  0.3235
 6805SOL     OW32050   1.420   3.528   2.417  0.3373  0.2730 -0.0434
 6805SOL    HW132051   1.334   3.491   2.397  0.3496  1.7788 -2.9065
 6805SOL    HW232052   1.474   3.485   2.350  0.3443 -1.8850  1.3646
 6806SOL     OW32053   4.085   1.232   9.557 -0.1609 -0.1535 -0.0191
 6806SOL    HW132054   4.148   1.229   9.629  0.2167 -1.1420 -0.3751
 6806SOL    HW232055   4.116   1.306   9.505  0.2866 -0.1627  0.2360
 6807SOL     OW32056   1.570   2.514   0.874 -0.2872 -0.2286 -0.3000
 6807SOL    HW132057   1.597   2.438   0.925  1.1462 -0.2483 -1.0898
 6807SOL    HW232058   1.486   2.533   0.915  0.9801  0.2943  2.0983
 6808SOL     OW32059   0.238   4.342   1.288  0.0209  0.3097 -0.1819
 6808SOL    HW132060   0.166   4.377   1.235  0.7268  0.0151 -1.3086
 6808SOL    HW232061   0.248   4.410   1.355 -1.3287 -0.8454  1.1955
 6809SOL     OW32062   2.852   1.591   0.889  0.5087 -0.0027 -0.3547
 6809SOL    HW132063   2.759   1.600   0.911  0.7610  1.1296  0.2078
 6809SOL    HW232064   2.880   1.682   0.899  0.7222 -0.1563  0.3959
 6810SOL     OW32065   0.335   4.316   2.607  0.5868  0.4877  0.0855
 6810SOL    HW132066   0.357   4.384   2.542 -0.6000  1.7293  0.9793
 6810SOL    HW232067   0.307   4.244   2.551 -1.6817  1.0278  0.5321
 6811SOL     OW32068   2.794   4.502  10.221 -0.1661 -0.4445  0.4217
 6811SOL    HW132069   2.825   4.507  10.311 -0.2521 -0.2350  0.4411
 6811SOL    HW232070   2.866   4.474  10.166  1.4486 -0.0426  2.3329
 6812SOL     OW32071   1.495   0.756   3.901  0.0314 -0.0544  0.3340
 6812SOL    HW132072   1.432   0.791   3.837  0.6370 -0.4788 -0.4833
 6812SOL    HW232073   1.445   0.736   3.980  0.1022  1.5858  0.8019
 6813SOL     OW32074   1.819   0.834   2.205 -0.6609 -0.9744 -0.4252
 6813SOL    HW132075   1.853   0.836   2.115  2.1338 -1.2649  0.6377
 6813SOL    HW232076   1.835   0.920   2.243 -2.1840 -0.2938 -1.3258
 6814SOL     OW32077   1.639   4.655   5.373 -0.3554 -0.0813 -0.8120
 6814SOL    HW132078   1.732   4.644   5.352  0.0098 -1.0840  1.3586
 6814SOL    HW232079   1.632   4.651   5.468 -0.2854 -3.2194 -0.9097
 6815SOL     OW32080   1.461   0.013   7.798  0.0504  0.1049  0.3460
 6815SOL    HW132081   1.541   4.700   7.804 -0.9763 -1.5051  0.0709
 6815SOL    HW232082   1.478   0.061   7.717 -0.7470  0.2608  0.2699
 6816SOL     OW32083   0.274   0.396   2.465 -0.4645 -0.4353  0.5728
 6816SOL    HW132084   0.283   0.400   2.560  0.5264  3.2584  0.3292
 6816SOL    HW232085   0.298   0.306   2.445  1.2429 -0.0549  0.9750
 6817SOL     OW32086   3.340   3.956   8.273  0.1496  0.2628 -0.0168
 6817SOL    HW132087   3.329   3.976   8.180  0.3528  1.6088  0.2465
 6817SOL    HW232088   3.328   4.043   8.312 -1.8105  1.4589 -3.3153
 6818SOL     OW32089   3.675   4.120   6.386  0.1556  0.0143  0.3183
 6818SOL    HW132090   3.611   4.049   6.393  0.1312  0.3710  3.5243
 6818SOL    HW232091   3.677   4.146   6.477  1.6643 -0.3857  0.4048
 6819SOL     OW32092   1.401   2.247   4.402 -0.3685 -0.4206  0.1110
 6819SOL    HW132093   1.391   2.337   4.433  1.8244 -0.0196 -0.3170
 6819SOL    HW232094   1.479   2.269   4.350  2.0280 -2.6811  2.7360
 6820SOL     OW32095   0.124   0.256   5.822  0.1944 -0.1094  0.7295
 6820SOL    HW132096   0.194   0.242   5.886  2.4391  0.9029 -1.4954
 6820SOL    HW232097   0.087   0.335   5.862 -0.9523 -0.9724  1.3477
 6821SOL     OW32098   1.495   3.974   2.822  0.2487  0.2281 -0.1822
 6821SOL    HW132099   1.459   4.060   2.843 -2.5404 -0.3147 -2.7939
 6821SOL    HW232100   1.545   3.949   2.900 -0.9007 -2.7298 -0.4143
 6822SOL     OW32101   2.121   0.554  10.753 -0.4332  0.2244  0.3379
 6822SOL    HW132102   2.060   0.619  10.717 -4.3852 -3.1837  0.8442
 6822SOL    HW232103   2.106   0.575  10.845  0.9617  0.4757  0.5027
 6823SOL     OW32104   3.241   0.730   6.517 -0.1045  0.0254 -0.6267
 6823SOL    HW132105   3.206   0.764   6.600 -0.0030 -1.5982  0.0736
 6823SOL    HW232106   3.239   0.637   6.538 -0.4053  0.5373  1.6538
 6824SOL     OW32107   1.244   2.373   3.801 -0.4949  0.1981  0.2783
 6824SOL    HW132108   1.251   2.377   3.896 -4.2553  1.6586  0.4945
 6824SOL    HW232109   1.252   2.278   3.786  1.0522  0.6587 -1.7504
 6825SOL     OW32110   1.238   3.819   5.329  0.2135 -0.1801 -0.0686
 6825SOL    HW132111   1.178   3.883   5.367  0.6380  1.7501 -2.6271
 6825SOL    HW232112   1.320   3.831   5.377  0.1600  1.4133 -0.3605
 6826SOL     OW32113   2.918   1.190   5.426 -0.2954 -0.8713 -0.1709
 6826SOL    HW132114   2.903   1.193   5.332 -0.8857  0.0347 -0.0446
 6826SOL    HW232115   2.851   1.238   5.475 -1.5069 -1.3769 -1.3214
 6827SOL     OW32116   1.342   2.476   7.159  0.2092 -0.2125  0.3212
 6827SOL    HW132117   1.284   2.413   7.116  0.9717  0.7415 -2.1039
 6827SOL    HW232118   1.385   2.416   7.221  0.2678  0.2369  0.7208
 6828SOL     OW32119   3.845   2.774   6.215 -0.1055  0.0568 -0.1816
 6828SOL    HW132120   3.798   2.699   6.252  0.0099 -0.1393 -0.4349
 6828SOL    HW232121   3.827   2.844   6.279 -2.9972 -0.9703  0.1540
 6829SOL     OW32122   3.249   1.657  10.384  0.1385 -0.3959  0.5374
 6829SOL    HW132123   3.160   1.691  10.392  0.0359 -0.8202  1.2189
 6829SOL    HW232124   3.247   1.623  10.474  0.3128 -1.3675  0.1715
 6830SOL     OW32125   1.979   1.605   9.168 -0.1942  0.4655 -0.2267
 6830SOL    HW132126   1.959   1.665   9.240  0.8100  0.5835 -0.0506
 6830SOL    HW232127   1.964   1.519   9.207 -2.8412  0.7609 -0.6093
 6831SOL     OW32128   3.201   1.636   6.424  0.2023  0.3689  0.1291
 6831SOL    HW132129   3.223   1.545   6.446 -0.4809 -0.3900 -2.2531
 6831SOL    HW232130   3.242   1.633   6.337 -1.8686 -1.2232 -0.8173
 6832SOL     OW32131   0.722   0.267   9.327  0.3668  0.4385  0.2523
 6832SOL    HW132132   0.700   0.253   9.235 -1.0406 -0.2164  0.6808
 6832SOL    HW232133   0.650   0.222   9.371  0.7213 -0.3985 -0.0249
 6833SOL     OW32134   3.867   4.350   3.005  0.4800 -0.0096 -0.0982
 6833SOL    HW132135   3.956   4.338   3.038  0.8154 -1.5263 -1.5664
 6833SOL    HW232136   3.815   4.317   3.078 -0.0065  1.1000  0.0596
 6834SOL     OW32137   1.353   0.420  13.005 -0.0566 -0.5750 -0.0849
 6834SOL    HW132138   1.378   0.513  12.997 -0.6746 -0.3459  0.7107
 6834SOL    HW232139   1.278   0.418  12.945 -1.1295 -1.0206  1.2967
 6835SOL     OW32140   3.167   0.200   1.682  0.5347 -0.4651  0.1009
 6835SOL    HW132141   3.131   0.173   1.766  1.2289 -1.8234 -0.0271
 6835SOL    HW232142   3.262   0.192   1.688  0.5205 -0.5801  0.1627
 6836SOL     OW32143   0.259   3.177   5.359  0.2211 -0.5085 -0.0503
 6836SOL    HW132144   0.168   3.192   5.385  0.7798  0.2720  1.4900
 6836SOL    HW232145   0.261   3.108   5.293 -2.1768 -1.5842  1.0109
 6837SOL     OW32146   4.308   0.312   4.192 -0.3079  0.1011  0.2871
 6837SOL    HW132147   4.328   0.229   4.150 -0.1321 -0.7453  2.0399
 6837SOL    HW232148   4.212   0.310   4.192 -0.2539 -2.5125  1.3052
 6838SOL     OW32149   2.020   4.038  13.972 -0.0363  0.1232  0.1376
 6838SOL    HW132150   1.975   4.083  13.900 -0.1079  0.8773  0.6539
 6838SOL    HW232151   1.973   4.077  14.046 -0.7340 -1.4578  0.5287
 6839SOL     OW32152   2.190   1.311   7.769  0.3736  0.0783 -0.2589
 6839SOL    HW132153   2.214   1.342   7.856 -1.7956  0.1118  0.3472
 6839SOL    HW232154   2.125   1.245   7.794  1.5897 -0.7488  0.7283
 6840SOL     OW32155   1.681   1.777   2.872  0.6196 -0.0213  0.1365
 6840SOL    HW132156   1.773   1.775   2.898  0.9619  0.0061 -1.0326
 6840SOL    HW232157   1.668   1.870   2.853 -4.3354 -0.8169 -0.2439
 6841SOL     OW32158   1.780   4.617  16.143 -0.2083  0.3871  0.3482
 6841SOL    HW132159   1.738   4.669  16.074 -0.1864  0.5888  0.4869
 6841SOL    HW232160   1.841   4.572  16.084  0.7479 -0.0946  1.7216
 6842SOL     OW32161   1.859   4.135   2.077  0.1943 -0.0557 -0.4211
 6842SOL    HW132162   1.841   4.084   2.156 -0.4253 -0.9129 -1.1096
 6842SOL    HW232163   1.918   4.077   2.027  0.2065  0.2897 -0.8040
 6843SOL     OW32164   2.847   3.631  10.939 -0.0662  0.1173  0.0992
 6843SOL    HW132165   2.911   3.567  10.969  1.2396  1.6643  0.6130
 6843SOL    HW232166   2.790   3.567  10.896  0.2842  0.1527 -0.4078
 6844SOL     OW32167   3.968   1.972   0.983  0.0337 -0.1947  0.6181
 6844SOL    HW132168   4.000   2.021   0.908  1.9645 -1.2797  0.7002
 6844SOL    HW232169   3.920   2.040   1.030 -1.7664 -0.5616 -0.6870
 6845SOL     OW32170   3.842   2.793   5.946 -0.1052  0.1575  0.0020
 6845SOL    HW132171   3.748   2.780   5.935 -0.3828  2.4906 -0.3659
 6845SOL    HW232172   3.855   2.774   6.038 -0.2412 -0.0192 -0.0149
 6846SOL     OW32173   0.254   4.591   0.809  0.1997 -0.1492  0.1688
 6846SOL    HW132174   0.281   4.568   0.721 -1.4373 -2.3826  0.2258
 6846SOL    HW232175   0.158   4.587   0.804  0.2997 -2.8434  0.3992
 6847SOL     OW32176   1.899   0.432   5.549  0.0582  0.3093 -0.2092
 6847SOL    HW132177   1.911   0.426   5.455 -0.8763  2.2188 -0.4407
 6847SOL    HW232178   1.983   0.467   5.579  0.0437 -0.5903  0.8932
 6848SOL     OW32179   1.717   4.020  14.460 -0.6786  0.1807 -0.1935
 6848SOL    HW132180   1.656   3.992  14.392 -0.4225 -1.7466  0.3799
 6848SOL    HW232181   1.746   4.104  14.423 -1.0970  0.2911 -0.2760
 6849SOL     OW32182   4.414   0.642   5.467  0.5443 -0.2697  0.7723
 6849SOL    HW132183   4.328   0.602   5.454  1.3061 -1.7011  0.0118
 6849SOL    HW232184   4.470   0.578   5.423  1.8754  2.0138 -0.8290
 6850SOL     OW32185   0.136   3.223   6.465 -0.1597  0.4997 -0.1968
 6850SOL    HW132186   0.210   3.283   6.455  2.2469 -1.9783  2.7281
 6850SOL    HW232187   0.075   3.247   6.396 -0.3257  1.0960  0.1526
 6851SOL     OW32188   0.988   3.659   1.336 -0.5799  0.1514 -0.7431
 6851SOL    HW132189   0.969   3.748   1.305  2.7592 -0.3441 -4.1926
 6851SOL    HW232190   1.081   3.684   1.333 -0.8351  1.4813  1.7440
 6852SOL     OW32191   2.680   3.377   7.356  0.4994  0.2125  0.5534
 6852SOL    HW132192   2.638   3.377   7.270 -0.6091 -0.6802  1.0978
 6852SOL    HW232193   2.695   3.471   7.353  1.5418  0.0990  2.3989
 6853SOL     OW32194   0.179   2.668   6.664 -0.2951  0.0934  0.5676
 6853SOL    HW132195   0.238   2.705   6.730 -0.0800 -0.4709  0.6923
 6853SOL    HW232196   0.107   2.728   6.683 -1.1158 -0.0894 -1.9725
 6854SOL     OW32197   1.261   1.958   8.107 -0.3029 -0.5852 -0.2753
 6854SOL    HW132198   1.255   2.026   8.174 -1.3412 -1.3625  0.4276
 6854SOL    HW232199   1.237   2.009   8.030  1.6862  1.5763  0.5481
 6855SOL     OW32200   1.030   1.509   4.447 -0.6896  0.4700 -0.2698
 6855SOL    HW132201   0.974   1.586   4.434 -1.7491 -0.0098  1.5541
 6855SOL    HW232202   1.104   1.555   4.407 -0.3873 -1.4346 -1.9025
 6856SOL     OW32203   3.527   3.551  16.057 -0.2201  0.0365  0.0950
 6856SOL    HW132204   3.551   3.544  15.965 -2.2303  0.7073 -0.4798
 6856SOL    HW232205   3.608   3.589  16.092 -0.3621  0.9291 -0.5673
 6857SOL     OW32206   3.565   4.360  16.665 -0.2712  0.1970  0.5013
 6857SOL    HW132207   3.603   4.338  16.580  0.6855  0.5970  0.8264
 6857SOL    HW232208   3.479   4.319  16.660 -0.1488  0.0207 -0.1977
 6858SOL     OW32209   0.859   3.150   2.575 -0.0020  0.1146 -0.1949
 6858SOL    HW132210   0.784   3.092   2.562 -0.1057  0.1896  0.0802
 6858SOL    HW232211   0.837   3.193   2.657 -1.6216  1.2596 -1.2420
 6859SOL     OW32212   0.692   1.245   6.139  0.3564  0.3521  0.2193
 6859SOL    HW132213   0.673   1.297   6.061  0.3646  3.7379  2.4672
 6859SOL    HW232214   0.761   1.282   6.193  1.0227 -3.5338  2.0316
 6860SOL     OW32215   0.983   0.601  10.976  0.0778 -0.1703  0.3981
 6860SOL    HW132216   1.017   0.515  11.002  0.1232 -0.5417 -0.9343
 6860SOL    HW232217   1.030   0.657  11.039  1.2933  0.9208 -1.4801
 6861SOL     OW32218   0.127   1.348   2.408  0.1927 -0.2354 -0.2642
 6861SOL    HW132219   0.197   1.288   2.436 -1.9887 -2.3069  0.7952
 6861SOL    HW232220   0.111   1.398   2.488  1.7168 -0.0526 -0.0671
 6862SOL     OW32221   1.687   0.015   6.743  0.1282 -0.2772  0.0843
 6862SOL    HW132222   1.605   4.705   6.734  0.2278  0.1189 -2.9689
 6862SOL    HW232223   1.724   4.697   6.811  0.7872  0.3550  0.2557
 6863SOL     OW32224   4.652   2.482  13.539 -0.0727 -0.0520 -0.0139
 6863SOL    HW132225   4.574   2.433  13.564 -0.4245 -1.5084 -4.0728
 6863SOL    HW232226   4.726   2.431  13.572  1.2792  1.3099 -0.9475
 6864SOL     OW32227   4.546   1.520   6.703  0.0396  0.2554  0.2996
 6864SOL    HW132228   4.500   1.501   6.621  0.5054 -0.2833  0.1577
 6864SOL    HW232229   4.487   1.583   6.744  0.1804  1.1585 -0.8732
 6865SOL     OW32230   2.209   2.221   7.654 -0.2714  0.0824 -0.3371
 6865SOL    HW132231   2.132   2.265   7.689  0.6179  1.1834  0.2382
 6865SOL    HW232232   2.270   2.295   7.659 -0.8736  0.3543  2.8343
 6866SOL     OW32233   2.815   3.847   7.767 -0.4002 -0.1150  0.2435
 6866SOL    HW132234   2.722   3.832   7.782  0.1991 -1.7789  2.2348
 6866SOL    HW232235   2.856   3.816   7.847 -1.7486 -1.2563  0.4912
 6867SOL     OW32236   4.031   0.473   2.163  0.9537  0.4467  0.4696
 6867SOL    HW132237   4.106   0.416   2.144  0.9801  0.5126  0.3764
 6867SOL    HW232238   4.034   0.467   2.258  1.5250 -1.2371  0.3514
 6868SOL     OW32239   1.416   0.100   0.900 -0.1614 -1.0397  0.0731
 6868SOL    HW132240   1.486   0.075   0.839 -1.1177 -2.5413 -0.3998
 6868SOL    HW232241   1.432   0.038   0.971 -1.2123  0.7980  1.8937
 6869SOL     OW32242   0.884   3.299   5.977  0.3027  0.3038 -0.1140
 6869SOL    HW132243   0.939   3.221   5.969 -0.4332 -0.4603  2.2659
 6869SOL    HW232244   0.947   3.361   6.014 -0.5494  0.1514  1.5956
 6870SOL     OW32245   2.688   0.153   8.103  0.2208  0.4508 -0.3134
 6870SOL    HW132246   2.672   0.134   8.010 -0.2774 -1.9065  0.2624
 6870SOL    HW232247   2.604   0.132   8.144  0.7972 -0.2866  0.4651
 6871SOL     OW32248   1.766   4.039   8.024  0.2089 -0.2307 -0.2473
 6871SOL    HW132249   1.831   3.988   8.072 -1.4584 -2.4847 -0.4126
 6871SOL    HW232250   1.684   4.014   8.067  0.5262  1.3366  1.2721
 6872SOL     OW32251   2.359   0.685   0.270  0.1209  1.0358  0.5544
 6872SOL    HW132252   2.335   0.595   0.250 -1.6873  1.6613 -0.0350
 6872SOL    HW232253   2.283   0.716   0.318 -1.5903 -1.1733 -0.7508
 6873SOL     OW32254   3.682   2.308   9.387 -0.2365 -0.4844 -0.3626
 6873SOL    HW132255   3.670   2.356   9.469 -2.4586  0.8268 -1.4585
 6873SOL    HW232256   3.623   2.233   9.384 -1.1600  0.1999  0.4783
 6874SOL     OW32257   0.611   0.475   4.701 -0.5070 -0.0080  0.2681
 6874SOL    HW132258   0.552   0.519   4.762 -1.5038 -0.8608 -0.0836
 6874SOL    HW232259   0.550   0.411   4.664  1.0847 -0.8318 -0.9449
 6875SOL     OW32260   1.140   3.838   0.738 -0.0297 -0.0461 -0.2974
 6875SOL    HW132261   1.109   3.750   0.761  0.3552  0.5970  2.7357
 6875SOL    HW232262   1.132   3.892   0.816  1.5144 -0.5282  0.1944
 6876SOL     OW32263   4.376   1.257   7.249 -0.2407  0.0419  0.2727
 6876SOL    HW132264   4.458   1.307   7.248 -0.8967  1.1228  2.3566
 6876SOL    HW232265   4.309   1.324   7.233  0.6101  0.7827 -0.2115
 6877SOL     OW32266   3.770   0.391   0.685 -0.3352 -0.7409 -0.2194
 6877SOL    HW132267   3.785   0.445   0.762 -0.7715 -0.3091 -0.4358
 6877SOL    HW232268   3.804   0.445   0.614 -2.1403 -1.4200 -1.6003
 6878SOL     OW32269   0.807   3.582   8.439  0.0662  0.3825  0.3070
 6878SOL    HW132270   0.877   3.628   8.484 -0.9338 -0.0566  2.2902
 6878SOL    HW232271   0.758   3.566   8.520 -1.1422  4.5140  0.4001
 6879SOL     OW32272   1.206   2.295   9.752  0.1451 -0.3327 -0.7994
 6879SOL    HW132273   1.299   2.315   9.751 -0.3816  2.2582  1.2127
 6879SOL    HW232274   1.185   2.297   9.845  0.9452  3.4764 -0.7010
 6880SOL     OW32275   2.396   1.165   6.953  0.4870 -0.2201 -0.1793
 6880SOL    HW132276   2.335   1.093   6.971  0.0515 -0.2087 -1.5860
 6880SOL    HW232277   2.477   1.114   6.956  1.7564  1.9199  1.8643
 6881SOL     OW32278   2.595   0.126   7.267  0.4208  0.9274  0.7302
 6881SOL    HW132279   2.582   0.087   7.354 -0.6782  0.7009  0.4546
 6881SOL    HW232280   2.545   0.206   7.280  0.2961  0.5253  2.7857
 6882SOL     OW32281   0.621   0.876   8.847  0.0390 -0.0151  0.4687
 6882SOL    HW132282   0.564   0.883   8.924 -0.3240 -0.8693  0.2816
 6882SOL    HW232283   0.556   0.871   8.777 -1.4051 -1.1011  1.8727
 6883SOL     OW32284   0.938   4.583  10.279  0.1993 -1.0417 -0.5946
 6883SOL    HW132285   0.907   4.656  10.226  1.2696 -0.0870  0.1096
 6883SOL    HW232286   0.951   4.510  10.218 -0.0930 -0.1404 -1.7404
 6884SOL     OW32287   3.136   0.941  13.162 -0.0196 -0.6123 -0.5757
 6884SOL    HW132288   3.218   0.940  13.211 -0.4498  3.3188  0.2293
 6884SOL    HW232289   3.153   1.013  13.102  0.1616  0.8228  1.1973
 6885SOL     OW32290   0.768   0.918  10.369 -0.4360 -0.1935  0.3798
 6885SOL    HW132291   0.697   0.871  10.325 -2.5151  1.5556  1.8427
 6885SOL    HW232292   0.730   0.921  10.457 -0.8069  0.8199  0.1806
 6886SOL     OW32293   1.986   3.092   9.717 -0.3854  0.4623  0.1814
 6886SOL    HW132294   1.989   3.071   9.810  1.3540  2.0479  0.4742
 6886SOL    HW232295   2.076   3.072   9.692 -0.5150 -0.6453  0.6009
 6887SOL     OW32296   1.816   0.845   4.261 -0.2434 -0.0623 -0.0272
 6887SOL    HW132297   1.741   0.829   4.318  0.3563  1.1137  1.1046
 6887SOL    HW232298   1.784   0.917   4.207  0.1814 -0.5062 -0.8615
 6888SOL     OW32299   4.110   1.032   6.529 -0.2774  0.0518  0.3048
 6888SOL    HW132300   4.144   1.107   6.578  0.6298 -0.1181 -0.0671
 6888SOL    HW232301   4.029   1.017   6.579 -1.2892  1.2641 -0.9507
 6889SOL     OW32302   3.206   0.430  13.065 -0.6255  0.3487  0.2204
 6889SOL    HW132303   3.266   0.429  12.990 -1.6168  0.5200 -0.5762
 6889SOL    HW232304   3.167   0.517  13.073 -1.0915  0.0285  1.3763
 6890SOL     OW32305   0.715   2.445  10.967  0.7725  0.4285  0.1502
 6890SOL    HW132306   0.726   2.494  11.048 -0.0328  1.8218 -0.5759
 6890SOL    HW232307   0.802   2.453  10.929 -0.4501 -0.7005 -2.9093
 6891SOL     OW32308   0.388   1.209   9.283 -0.5941 -0.6018  0.1705
 6891SOL    HW132309   0.366   1.296   9.248  0.6091 -0.1454  0.5437
 6891SOL    HW232310   0.359   1.220   9.374  1.0023 -0.5414  0.6884
 6892SOL     OW32311   0.095   1.777   5.987  0.3456 -0.8176  0.9380
 6892SOL    HW132312   0.029   1.766   6.056 -1.9254 -0.6274 -1.2055
 6892SOL    HW232313   0.176   1.767   6.036  0.0135  0.7421  1.7947
 6893SOL     OW32314   3.172   0.021   4.973  0.0581  0.0576 -0.4221
 6893SOL    HW132315   3.130   0.050   5.054  0.5312  0.3172 -0.2643
 6893SOL    HW232316   3.211   0.106   4.948 -1.0732  0.7812  0.2828
 6894SOL     OW32317   0.061   3.988   7.611 -0.5712 -0.2424 -0.0488
 6894SOL    HW132318   4.723   4.035   7.580 -1.0249 -1.8341 -1.3171
 6894SOL    HW232319   0.051   3.907   7.561 -2.9401  0.6659 -1.0803
 6895SOL     OW32320   2.682   0.724   3.654  0.6806  0.4895  0.1748
 6895SOL    HW132321   2.771   0.695   3.633 -0.5561 -2.2432 -1.3061
 6895SOL    HW232322   2.694   0.762   3.741  3.2064 -0.5138  0.2677
 6896SOL     OW32323   1.181   3.852   2.923 -1.0056  0.1593 -0.5680
 6896SOL    HW132324   1.183   3.935   2.876 -0.1539  0.3002 -0.2777
 6896SOL    HW232325   1.201   3.883   3.011 -0.0728  1.2128 -1.1565
 6897SOL     OW32326   1.584   1.171  17.008 -0.0471 -0.0174  0.5309
 6897SOL    HW132327   1.585   1.257  17.050  0.1804  1.6940 -3.0003
 6897SOL    HW232328   1.561   1.110  17.078 -0.9776 -3.1338 -2.4967
 6898SOL     OW32329   2.902   0.523   5.814  0.7581  0.6963  0.2236
 6898SOL    HW132330   2.989   0.513   5.850  0.8538  1.2630  0.1529
 6898SOL    HW232331   2.898   0.451   5.751 -1.3100 -0.4379  1.6409
 6899SOL     OW32332   1.565   1.487   1.596 -0.5363 -0.4749 -0.3470
 6899SOL    HW132333   1.470   1.476   1.599 -0.9114  2.9578  0.6532
 6899SOL    HW232334   1.567   1.554   1.528  2.8834  2.9512  3.0877
 6900SOL     OW32335   4.466   3.631   2.166  0.1930 -0.4683 -0.5255
 6900SOL    HW132336   4.424   3.549   2.140 -2.2956  1.0982 -1.4611
 6900SOL    HW232337   4.425   3.687   2.100  0.6008  0.7135  0.2333
 6901SOL     OW32338   3.051   3.145  15.392 -0.5589 -0.4325  0.3167
 6901SOL    HW132339   2.989   3.093  15.341 -0.4550 -2.4699  2.2437
 6901SOL    HW232340   3.112   3.171  15.323 -1.6626 -1.1303 -0.8905
 6902SOL     OW32341   0.458   4.633   8.618 -0.4765  0.2733  0.5383
 6902SOL    HW132342   0.531   4.620   8.679  1.3191  1.3278 -1.3934
 6902SOL    HW232343   0.501   4.612   8.535 -2.2560  1.9378 -0.7832
 6903SOL     OW32344   2.032   3.761   1.895 -0.2226  0.3067 -0.3108
 6903SOL    HW132345   1.978   3.752   1.974  1.2584 -1.6430  0.4858
 6903SOL    HW232346   1.973   3.813   1.841  1.9691  0.1956 -2.8037
 6904SOL     OW32347   4.729   0.832   3.165 -0.0813  0.6545 -1.6781
 6904SOL    HW132348   4.703   0.908   3.218  1.0453  1.0807 -1.7143
 6904SOL    HW232349   4.645   0.799   3.135 -1.8467  1.2880  2.4942
 6905SOL     OW32350   4.719   3.973   3.037 -0.0736 -0.0563  0.2681
 6905SOL    HW132351   4.657   3.927   2.981 -0.4025 -1.8978  2.1266
 6905SOL    HW232352   4.726   3.922   3.118 -0.2784  1.5915  1.3255
 6906SOL     OW32353   4.247   3.801   3.850  0.1518  0.9091 -0.0545
 6906SOL    HW132354   4.174   3.753   3.887  0.3004 -0.4697 -1.5243
 6906SOL    HW232355   4.210   3.844   3.773  0.3824  0.9090 -0.1677
 6907SOL     OW32356   0.851   4.612  13.646  0.1856 -0.2147 -0.0515
 6907SOL    HW132357   0.775   4.586  13.700 -0.1110  0.6737 -0.0463
 6907SOL    HW232358   0.911   4.552  13.690  0.3878 -1.6349 -2.2715
 6908SOL     OW32359   0.415   1.988   4.996 -0.2127  0.4042 -0.3671
 6908SOL    HW132360   0.372   1.905   5.018 -0.8317  0.3431 -1.8284
 6908SOL    HW232361   0.430   2.027   5.082 -3.2834 -1.4698  1.0381
 6909SOL     OW32362   2.515   3.568  16.638 -0.0746 -0.0069  0.4402
 6909SOL    HW132363   2.459   3.541  16.711 -1.7711  1.9077 -0.1417
 6909SOL    HW232364   2.533   3.662  16.646 -2.3217  0.5143 -0.6307
 6910SOL     OW32365   0.250   1.725   4.281  0.0946  0.1090 -0.0519
 6910SOL    HW132366   0.314   1.655   4.271  2.4168  1.8610  2.6512
 6910SOL    HW232367   0.201   1.717   4.199  3.6953 -0.1966 -2.1515
 6911SOL     OW32368   3.677   3.208   4.546 -0.2776  0.7112 -0.0561
 6911SOL    HW132369   3.704   3.291   4.508 -0.5651  1.3556  1.1677
 6911SOL    HW232370   3.760   3.171   4.578  0.0774  3.1820  1.8193
 6912SOL     OW32371   2.797   3.888   2.986 -0.0872  0.6258  0.2619
 6912SOL    HW132372   2.801   3.922   3.076 -1.6427 -0.0002  0.5694
 6912SOL    HW232373   2.804   3.969   2.936  0.1939  1.1300  1.1128
 6913SOL     OW32374   1.934   1.262  17.404 -0.3484  0.6467 -0.1241
 6913SOL    HW132375   1.942   1.166  17.405  1.1315  0.7733 -0.1942
 6913SOL    HW232376   2.026   1.286  17.397 -0.1349 -0.4208 -1.0549
 6914SOL     OW32377   1.595   2.514   8.343  0.1016  0.0885 -0.4216
 6914SOL    HW132378   1.672   2.560   8.311 -0.5626  1.0031 -0.6900
 6914SOL    HW232379   1.538   2.587   8.368 -0.9657 -0.3893 -1.4350
 6915SOL     OW32380   1.267   4.318  13.467  0.4214 -0.2505  0.2557
 6915SOL    HW132381   1.256   4.293  13.375 -0.2334  1.9382 -0.2660
 6915SOL    HW232382   1.184   4.293  13.509  1.0017  0.2929  1.7242
 6916SOL     OW32383   4.342   1.442  11.492 -0.0660 -0.6524 -0.4795
 6916SOL    HW132384   4.267   1.483  11.536  1.3115  0.0842  1.1369
 6916SOL    HW232385   4.382   1.389  11.560  0.7371  1.0043  0.3317
 6917SOL     OW32386   3.518   2.590   4.244 -0.4910 -0.0194  0.3863
 6917SOL    HW132387   3.559   2.504   4.251 -0.3462 -0.1366 -1.7737
 6917SOL    HW232388   3.569   2.616   4.167 -0.5904 -0.4113  0.1907
 6918SOL     OW32389   2.299   2.286   8.996 -0.2901  0.6128 -0.6514
 6918SOL    HW132390   2.209   2.285   8.963 -0.8622 -0.7146  0.9415
 6918SOL    HW232391   2.354   2.336   8.937  0.5904  2.4796  1.7682
 6919SOL     OW32392   0.708   2.964   1.775 -0.0289 -0.0301  0.1656
 6919SOL    HW132393   0.739   2.998   1.859  0.6367 -1.0301  0.3208
 6919SOL    HW232394   0.687   2.872   1.788 -1.9782  0.8190  3.0240
 6920SOL     OW32395   0.784   4.117   9.450 -0.1487 -0.0938  0.4167
 6920SOL    HW132396   0.758   4.120   9.542  0.6775 -0.9700  0.6760
 6920SOL    HW232397   0.698   4.092   9.414 -0.8194  3.4536 -0.5706
 6921SOL     OW32398   4.001   1.144   4.671  0.5383  0.4129 -0.1060
 6921SOL    HW132399   3.930   1.207   4.656  2.0309  2.1657  0.2583
 6921SOL    HW232400   4.075   1.205   4.670 -0.3123  1.4342 -1.7947
 6922SOL     OW32401   0.857   0.230   2.550 -0.5358  0.3311  0.2613
 6922SOL    HW132402   0.928   0.219   2.613 -0.8058  1.9201  0.8219
 6922SOL    HW232403   0.788   0.259   2.611 -1.5079  0.7047 -1.0217
 6923SOL     OW32404   0.442   3.601   4.648 -0.8932  0.1002  0.5439
 6923SOL    HW132405   0.445   3.686   4.603  0.5080  0.1212  0.6732
 6923SOL    HW232406   0.379   3.624   4.716 -0.1876 -0.7577  1.4874
 6924SOL     OW32407   3.885   3.382   9.039  0.5260  0.2504  0.3315
 6924SOL    HW132408   3.854   3.383   9.129  0.0021  0.2685  0.1480
 6924SOL    HW232409   3.814   3.424   8.990  0.0397  0.6746  1.4102
 6925SOL     OW32410   0.647   3.709  12.798  0.0201 -0.4060 -0.2720
 6925SOL    HW132411   0.561   3.740  12.771  0.0995 -0.7272 -0.8804
 6925SOL    HW232412   0.628   3.615  12.798  1.4905 -0.7105 -0.7040
 6926SOL     OW32413   2.147   3.178  16.518 -0.4391  0.3826  0.4208
 6926SOL    HW132414   2.129   3.089  16.487 -0.5625  0.2331  0.9113
 6926SOL    HW232415   2.228   3.201  16.473 -0.2922 -0.5381  0.2040
 6927SOL     OW32416   1.199   2.080   1.284  0.8522  0.8190 -0.1739
 6927SOL    HW132417   1.121   2.026   1.294  0.4908  1.6261  1.3989
 6927SOL    HW232418   1.214   2.124   1.368 -0.6168  1.4650 -0.2449
 6928SOL     OW32419   0.963   1.302  12.413  0.0154 -0.9878 -0.3245
 6928SOL    HW132420   0.995   1.285  12.325  1.4915 -1.6165  0.3433
 6928SOL    HW232421   1.042   1.308  12.466 -0.5753  0.8839  0.3364
 6929SOL     OW32422   0.099   3.860   8.329  0.0111  0.0013 -0.1713
 6929SOL    HW132423   0.032   3.795   8.306 -1.1822  0.4357  2.1018
 6929SOL    HW232424   0.178   3.831   8.282 -0.8902  0.1131 -1.7776
 6930SOL     OW32425   3.563   3.202   2.383 -0.2624 -0.3460  0.1472
 6930SOL    HW132426   3.590   3.178   2.294 -0.8853 -0.7301  0.0572
 6930SOL    HW232427   3.590   3.121   2.427  0.5345  0.6034  1.4374
 6931SOL     OW32428   4.616   1.013   9.125 -0.3928  0.0101  0.1757
 6931SOL    HW132429   4.612   0.945   9.193 -0.8165  0.2788  0.4145
 6931SOL    HW232430   4.712   1.016   9.123 -0.2492 -2.3961  2.1084
 6932SOL     OW32431   3.878   0.844  17.691  0.2475  0.5270 -0.1500
 6932SOL    HW132432   3.875   0.912   0.002  0.3578 -0.1533  0.5422
 6932SOL    HW232433   3.818   0.784  17.735 -1.0356  1.2190 -0.9526
 6933SOL     OW32434   3.240   2.235   8.500  0.3032  0.2355 -0.3326
 6933SOL    HW132435   3.205   2.280   8.576 -0.0375  0.0962 -0.4024
 6933SOL    HW232436   3.244   2.312   8.444  1.6476 -0.5011 -1.2447
 6934SOL     OW32437   3.291   1.670  17.642 -0.5402  0.1613 -0.2205
 6934SOL    HW132438   3.273   1.618  17.720  0.9927 -1.0213 -0.6501
 6934SOL    HW232439   3.248   1.755  17.651  0.3840  0.6118 -0.0163
 6935SOL     OW32440   1.625   4.020   7.334 -0.0343 -0.6140 -0.5293
 6935SOL    HW132441   1.672   4.008   7.416 -2.1235  0.5875  0.8558
 6935SOL    HW232442   1.630   4.114   7.319  1.6024 -0.6547 -0.2432
 6936SOL     OW32443   0.233   1.781  17.333  0.0988 -0.3013 -1.0221
 6936SOL    HW132444   0.246   1.688  17.315 -0.6506 -0.4957 -0.5785
 6936SOL    HW232445   0.188   1.815  17.257  1.5782 -1.4667 -2.4180
 6937SOL     OW32446   2.921   1.161   1.746  0.0771 -0.0380 -0.1428
 6937SOL    HW132447   2.964   1.075   1.747 -0.9392 -0.5420 -0.0095
 6937SOL    HW232448   2.987   1.217   1.704  0.6768  0.6163  1.6329
 6938SOL     OW32449   2.667   4.149   9.047  0.1756 -0.0607 -0.9897
 6938SOL    HW132450   2.700   4.070   9.091  1.2920 -0.1486 -1.9893
 6938SOL    HW232451   2.630   4.105   8.971  0.0067 -0.4079 -0.7104
 6939SOL     OW32452   2.382   2.820   5.552  0.2034 -0.2857  0.2663
 6939SOL    HW132453   2.413   2.744   5.502  0.8612  0.3535 -0.2851
 6939SOL    HW232454   2.320   2.772   5.607 -0.7911 -0.5594 -1.0890
 6940SOL     OW32455   0.582   2.471   6.626  0.4416  0.6002 -0.4574
 6940SOL    HW132456   0.576   2.455   6.720  0.7138  2.9600 -0.0393
 6940SOL    HW232457   0.490   2.461   6.599  0.2718 -0.1028  0.3732
 6941SOL     OW32458   0.089   4.355   6.256  0.5370  0.0073  0.2865
 6941SOL    HW132459   0.049   4.367   6.170  4.9673  0.0297 -1.7791
 6941SOL    HW232460   0.172   4.400   6.238  0.2570  0.4196  0.0208
 6942SOL     OW32461   0.447   0.512   5.884 -0.0664  0.0815  0.1571
 6942SOL    HW132462   0.409   0.481   5.802  0.9497 -2.2313  0.5482
 6942SOL    HW232463   0.371   0.551   5.927  0.0210  1.1385 -0.6644
 6943SOL     OW32464   2.104   0.214   5.652  0.1450 -0.3069  0.0620
 6943SOL    HW132465   2.193   0.239   5.678 -0.3257  2.1019 -0.6597
 6943SOL    HW232466   2.090   0.274   5.579 -0.5101 -0.9057 -0.3147
 6944SOL     OW32467   1.704   1.811  16.541  0.3047 -0.2106  0.2060
 6944SOL    HW132468   1.745   1.802  16.455 -0.8682  1.4046 -0.5389
 6944SOL    HW232469   1.784   1.826  16.591 -0.1656  1.0005  0.6150
 6945SOL     OW32470   1.603   2.765   6.367  0.5886 -0.3545 -0.0119
 6945SOL    HW132471   1.672   2.704   6.341 -0.4465 -1.5648  0.0682
 6945SOL    HW232472   1.654   2.844   6.385  0.5562 -0.2078 -0.5602
 6946SOL     OW32473   2.717   1.198  11.150  0.2500 -0.2073 -0.1833
 6946SOL    HW132474   2.810   1.221  11.146  0.8876 -2.3993  1.5157
 6946SOL    HW232475   2.691   1.249  11.074  0.6339 -0.0833 -0.2277
 6947SOL     OW32476   2.503   1.218  17.594  0.2816  0.0408 -0.0190
 6947SOL    HW132477   2.411   1.222  17.568  0.5857  1.0816 -0.9397
 6947SOL    HW232478   2.528   1.146  17.537  2.9921  0.3146  0.7996
 6948SOL     OW32479   4.155   3.722   6.003 -0.1124 -0.3489 -0.3207
 6948SOL    HW132480   4.141   3.631   6.029 -2.3298  0.4294  1.1601
 6948SOL    HW232481   4.065   3.753   6.004 -0.5655 -1.6669 -1.8659
 6949SOL     OW32482   3.610   3.714   5.899  0.1751  0.1069 -0.5726
 6949SOL    HW132483   3.607   3.629   5.855 -0.3698  0.2961 -0.8986
 6949SOL    HW232484   3.530   3.756   5.867  0.2677  0.6340 -0.1153
 6950SOL     OW32485   0.358   3.709   6.349  1.0704 -0.1940 -0.3078
 6950SOL    HW132486   0.377   3.791   6.395  0.8647  0.2918 -1.1054
 6950SOL    HW232487   0.275   3.682   6.388  0.6254 -0.2192 -1.2939
 6951SOL     OW32488   0.944   1.154   2.944  0.1409 -0.3123  0.5479
 6951SOL    HW132489   0.913   1.064   2.934 -0.4790  0.2478 -2.3566
 6951SOL    HW232490   1.001   1.167   2.869 -2.3358  1.9417 -0.9242
 6952SOL     OW32491   0.446   4.308   5.308  0.3141  0.5123  0.1394
 6952SOL    HW132492   0.371   4.340   5.358 -0.3361  1.4472 -1.4266
 6952SOL    HW232493   0.510   4.369   5.346  0.2741  1.0306 -0.6198
 6953SOL     OW32494   3.114   2.110   3.887  0.2029 -0.4248  0.1026
 6953SOL    HW132495   3.127   2.111   3.792 -0.0859  0.1062  0.0672
 6953SOL    HW232496   3.107   2.016   3.904 -1.4571 -0.7761 -2.4006
 6954SOL     OW32497   3.281   4.616  11.809 -0.3226  0.7835  0.7194
 6954SOL    HW132498   3.293   4.668  11.730  0.5542  0.1981  0.4595
 6954SOL    HW232499   3.263   4.684  11.873 -0.7440  1.3556 -0.0194
 6955SOL     OW32500   3.643   2.967   2.883 -0.1079 -0.0735 -0.1081
 6955SOL    HW132501   3.728   2.949   2.841  0.5445 -0.3536  1.3335
 6955SOL    HW232502   3.669   3.056   2.906 -1.0877  0.9512 -2.9576
 6956SOL     OW32503   0.241   3.184  15.274 -0.0647 -0.5354 -0.1585
 6956SOL    HW132504   0.252   3.275  15.300 -2.0950 -0.8178  1.6726
 6956SOL    HW232505   0.315   3.141  15.316 -0.0079  0.9288  1.2239
 6957SOL     OW32506   4.194   2.915   9.092 -0.3079  0.5757  0.0461
 6957SOL    HW132507   4.267   2.897   9.151 -0.3537 -1.9629 -0.6907
 6957SOL    HW232508   4.156   2.828   9.084 -0.1209  0.6657 -1.6667
 6958SOL     OW32509   2.235   3.338   3.888  0.3473 -0.5720 -0.6607
 6958SOL    HW132510   2.296   3.290   3.943 -1.9773 -2.7038  0.0330
 6958SOL    HW232511   2.267   3.428   3.894  0.1685 -0.5213 -0.4889
 6959SOL     OW32512   3.677   0.118  13.575  0.3709 -0.5541 -0.1969
 6959SOL    HW132513   3.584   0.099  13.561 -0.4416  1.3488  2.7277
 6959SOL    HW232514   3.670   0.197  13.628  1.4932 -0.5970  0.0287
 6960SOL     OW32515   3.764   0.420  16.592 -0.0414  0.1835  0.1334
 6960SOL    HW132516   3.840   0.474  16.614 -0.5081  0.6372  0.6230
 6960SOL    HW232517   3.714   0.428  16.673 -0.9633  0.3966 -0.4622
 6961SOL     OW32518   1.226   3.652   6.696 -0.4859  0.1896 -0.0273
 6961SOL    HW132519   1.221   3.559   6.715 -3.2015 -0.2340 -2.8217
 6961SOL    HW232520   1.321   3.665   6.706 -0.3398 -0.1369 -0.9072
 6962SOL     OW32521   2.672   1.189   7.219  0.7013  0.5924  0.0615
 6962SOL    HW132522   2.751   1.198   7.272  1.7170 -1.4325 -1.1328
 6962SOL    HW232523   2.636   1.277   7.207  0.0452  0.1063 -1.5171
 6963SOL     OW32524   2.064   1.629   0.047 -0.2568 -0.3448 -0.8642
 6963SOL    HW132525   2.117   1.619   0.127 -0.8919  4.2207  0.1190
 6963SOL    HW232526   2.011   1.706   0.067 -2.5476 -2.3623  0.8709
 6964SOL     OW32527   0.654   0.548  15.375  0.5972  0.6608  0.1978
 6964SOL    HW132528   0.715   0.559  15.301  0.5982  0.0830  0.1065
 6964SOL    HW232529   0.573   0.593  15.350  1.1317  0.5202 -1.8248
 6965SOL     OW32530   1.680   0.544   9.950  0.1851  0.1670 -0.3334
 6965SOL    HW132531   1.690   0.583   9.863 -1.8440 -1.1245 -1.1535
 6965SOL    HW232532   1.765   0.501   9.959  0.9290  1.3878 -1.4710
 6966SOL     OW32533   3.757   3.231  11.324 -0.0495  0.2394 -0.3640
 6966SOL    HW132534   3.708   3.166  11.274 -2.5439  0.5696  1.6269
 6966SOL    HW232535   3.691   3.282  11.371  3.0453  3.2924  0.6868
 6967SOL     OW32536   3.580   3.162  16.224  0.6929  0.3852 -0.4659
 6967SOL    HW132537   3.496   3.198  16.193  1.0675 -0.0193 -1.9427
 6967SOL    HW232538   3.600   3.228  16.291  0.2364 -0.9398  0.9819
 6968SOL     OW32539   0.400   2.850  17.150  0.2176 -0.0868 -0.7339
 6968SOL    HW132540   0.381   2.759  17.125  1.9099 -1.0055  1.3333
 6968SOL    HW232541   0.472   2.827  17.209  0.3899 -1.2538 -1.3987
 6969SOL     OW32542   3.787   3.198   3.174  0.3082  0.4806  0.3941
 6969SOL    HW132543   3.727   3.224   3.105 -0.7871 -0.7797  0.8696
 6969SOL    HW232544   3.861   3.159   3.128  0.6052  1.5912 -0.0786
 6970SOL     OW32545   2.514   0.725   7.464  0.0114 -0.2050 -0.4175
 6970SOL    HW132546   2.511   0.821   7.456  1.4444  0.2110  3.6818
 6970SOL    HW232547   2.563   0.717   7.546 -2.7008 -1.2882  1.0903
 6971SOL     OW32548   3.531   4.578  10.062  0.1368  0.0079  0.0495
 6971SOL    HW132549   3.569   4.588  10.150  0.2374 -1.9308  0.2326
 6971SOL    HW232550   3.466   4.509  10.076  0.2753 -0.1917 -0.2914
 6972SOL     OW32551   3.926   4.672   7.208 -0.6007 -0.0015  0.5181
 6972SOL    HW132552   3.848   4.700   7.256 -1.5156 -0.7926 -0.4803
 6972SOL    HW232553   3.893   4.712   7.127 -1.9852 -2.3489 -0.1137
 6973SOL     OW32554   4.675   0.191   5.088 -0.3443 -0.5180 -0.0261
 6973SOL    HW132555   4.666   0.190   5.183 -2.1829  0.7933 -0.1774
 6973SOL    HW232556   4.655   0.282   5.068 -0.2288 -0.6977 -0.9769
 6974SOL     OW32557   3.940   1.319   7.126 -0.7585 -0.4073 -0.5039
 6974SOL    HW132558   3.922   1.290   7.037 -1.2528 -0.0079 -0.5411
 6974SOL    HW232559   3.928   1.233   7.167  0.4378 -1.1847 -1.8244
 6975SOL     OW32560   3.575   4.687   7.650  0.1438 -0.0236 -0.5250
 6975SOL    HW132561   3.613   0.026   7.691 -0.3688 -0.3210  0.5388
 6975SOL    HW232562   3.644   4.622   7.659  0.0142 -0.1847 -0.6864
 6976SOL     OW32563   1.200   4.158  11.661 -0.1447 -0.0793  0.5240
 6976SOL    HW132564   1.189   4.221  11.590 -0.2922  0.1047  0.7081
 6976SOL    HW232565   1.116   4.111  11.660 -0.3884  0.3975 -2.6224
 6977SOL     OW32566   3.510   2.708   5.148  0.1308  0.3119  0.4380
 6977SOL    HW132567   3.443   2.644   5.123  0.3211  0.9529 -1.6938
 6977SOL    HW232568   3.482   2.709   5.239 -1.0092 -0.0386  0.0932
 6978SOL     OW32569   3.620   2.734   7.153 -0.2426  0.9445 -0.6212
 6978SOL    HW132570   3.645   2.649   7.116 -2.3441  0.2308 -0.4068
 6978SOL    HW232571   3.638   2.794   7.080 -1.5676  0.4816 -1.3408
 6979SOL     OW32572   2.494   1.661   6.546  0.0579  0.3305 -0.2179
 6979SOL    HW132573   2.457   1.741   6.508 -0.6558 -0.3360 -0.9211
 6979SOL    HW232574   2.549   1.632   6.474  0.5003  0.3235  0.1239
 6980SOL     OW32575   2.213   1.132   7.388  0.5359  0.1664  0.1672
 6980SOL    HW132576   2.128   1.104   7.424 -0.9697  0.4265 -3.1899
 6980SOL    HW232577   2.193   1.196   7.320 -1.6206  0.9873  1.5723
 6981SOL     OW32578   4.132   1.833   2.739  0.0494  0.1062  0.3046
 6981SOL    HW132579   4.077   1.758   2.718  1.2660 -0.4203 -1.0746
 6981SOL    HW232580   4.154   1.852   2.647 -0.1985 -1.7486 -0.1345
 6982SOL     OW32581   1.546   3.486   3.281  0.1520  0.5440  0.7596
 6982SOL    HW132582   1.635   3.452   3.275 -0.1711 -0.1160 -0.2152
 6982SOL    HW232583   1.541   3.523   3.193 -2.1155 -0.6219  0.3953
 6983SOL     OW32584   2.038   2.313  11.063  0.0560 -0.1651  0.4584
 6983SOL    HW132585   1.944   2.314  11.050 -0.1820 -1.8769  1.9877
 6983SOL    HW232586   2.066   2.340  10.976  3.0716  1.0241  1.7951
 6984SOL     OW32587   0.123   4.266   8.369  0.2154  0.8189 -0.0135
 6984SOL    HW132588   0.196   4.321   8.337  0.0540 -0.0832 -1.9133
 6984SOL    HW232589   0.134   4.275   8.464  1.4541 -1.2464  0.0278
 6985SOL     OW32590   0.286   3.453   8.582 -0.3741  0.4926  0.2609
 6985SOL    HW132591   0.298   3.534   8.631 -2.1395  2.0048 -1.7765
 6985SOL    HW232592   0.352   3.399   8.624  0.4413  0.9830 -0.3940
 6986SOL     OW32593   2.405   0.906  14.467 -0.1060 -0.2325 -0.5144
 6986SOL    HW132594   2.451   0.975  14.419 -0.3325 -0.2113 -0.6971
 6986SOL    HW232595   2.477   0.855  14.504  0.1736  0.9984  0.6401
 6987SOL     OW32596   2.476   3.094   3.420  0.5721  0.0729 -0.2189
 6987SOL    HW132597   2.551   3.070   3.475  1.2754  0.0127 -1.2028
 6987SOL    HW232598   2.460   3.010   3.377  0.0003  0.7110 -1.2443
 6988SOL     OW32599   3.291   2.036   9.455  0.2514 -0.7666 -0.1414
 6988SOL    HW132600   3.274   1.942   9.465  1.3645 -0.7051  2.4424
 6988SOL    HW232601   3.200   2.062   9.447 -0.2976 -2.4147  0.7715
 6989SOL     OW32602   3.693   2.520  10.735  0.3410  0.1121 -0.1363
 6989SOL    HW132603   3.727   2.609  10.728 -2.2419  1.2947  2.4400
 6989SOL    HW232604   3.657   2.520  10.823  4.1231 -2.4259  1.4421
 6990SOL     OW32605   1.975   4.334   5.117  0.8866  0.0489 -0.2221
 6990SOL    HW132606   2.014   4.418   5.144  3.0329 -0.9648 -0.1652
 6990SOL    HW232607   2.003   4.343   5.026 -2.4230 -0.5456 -1.2879
 6991SOL     OW32608   2.700   2.448   9.220 -0.4071 -0.1441  0.0482
 6991SOL    HW132609   2.683   2.369   9.272 -1.0068  0.1806  0.3510
 6991SOL    HW232610   2.675   2.508   9.291 -2.1624  1.5588 -2.0051
 6992SOL     OW32611   1.714   1.359  16.421 -0.3472  0.3721  0.2040
 6992SOL    HW132612   1.637   1.388  16.371 -1.8293 -0.1410  2.1474
 6992SOL    HW232613   1.688   1.270  16.443  0.5834  0.2235  0.6955
 6993SOL     OW32614   3.669   1.210   2.077 -0.3530  0.2451  0.3277
 6993SOL    HW132615   3.649   1.159   2.156  2.8554  0.9053  1.5665
 6993SOL    HW232616   3.688   1.138   2.017 -1.6114 -0.2142  0.4858
 6994SOL     OW32617   3.274   0.568   6.773  0.4289 -0.4455  0.3489
 6994SOL    HW132618   3.224   0.645   6.803 -1.3433 -1.6587  0.5069
 6994SOL    HW232619   3.346   0.577   6.836 -0.8966  2.3147  1.4872
 6995SOL     OW32620   3.792   2.154   3.817  0.9395 -0.0093 -0.3731
 6995SOL    HW132621   3.714   2.204   3.842 -0.1621 -2.3413  0.9569
 6995SOL    HW232622   3.861   2.218   3.803  0.0047  1.1080  0.1820
 6996SOL     OW32623   0.698   2.473   8.997 -0.4431 -0.4533  0.2130
 6996SOL    HW132624   0.729   2.525   9.071  2.5347 -1.8901 -0.0185
 6996SOL    HW232625   0.770   2.483   8.934 -0.2456  0.2835  0.5542
 6997SOL     OW32626   2.435   3.880   3.046  0.9791  0.2695  0.2749
 6997SOL    HW132627   2.347   3.889   3.009  1.3054 -1.4220 -0.8828
 6997SOL    HW232628   2.474   3.836   2.970 -0.3124 -2.2832  1.1143
 6998SOL     OW32629   0.395   3.402   1.357 -0.0325  0.1908 -0.2400
 6998SOL    HW132630   0.377   3.320   1.312  2.6636 -1.0784  1.0016
 6998SOL    HW232631   0.471   3.445   1.319 -1.5451  1.7643 -1.5246
 6999SOL     OW32632   0.011   1.201   5.623  0.0340 -0.1226 -0.1310
 6999SOL    HW132633   0.042   1.269   5.563 -0.7665  0.2176 -0.1607
 6999SOL    HW232634   0.088   1.186   5.678  0.2606 -0.5626 -0.5796
 7000SOL     OW32635   3.530   0.991   4.884  0.4388 -0.1037  0.2200
 7000SOL    HW132636   3.566   1.078   4.870  2.7627 -1.3140 -1.4073
 7000SOL    HW232637   3.591   0.970   4.955  1.1226 -0.2289 -0.4047
 7001SOL     OW32638   0.658   3.867  16.419  0.0828  0.2438  0.4840
 7001SOL    HW132639   0.741   3.859  16.373 -1.7936 -0.5356 -2.7338
 7001SOL    HW232640   0.598   3.906  16.356  0.6324 -0.5235 -0.4985
 7002SOL     OW32641   2.561   0.436   5.609  0.3106 -0.5207 -0.8034
 7002SOL    HW132642   2.560   0.503   5.541 -0.0157 -0.4327 -0.7092
 7002SOL    HW232643   2.655   0.418   5.618  0.1757  0.0644  1.7266
 7003SOL     OW32644   4.101   4.421   4.066 -0.3143  0.0615  0.2609
 7003SOL    HW132645   4.038   4.372   4.120 -2.7826  1.5702 -1.2466
 7003SOL    HW232646   4.080   4.387   3.979  1.3549 -0.4674  0.0645
 7004SOL     OW32647   3.926   1.228   5.609 -0.4512 -0.0045  0.0185
 7004SOL    HW132648   3.973   1.224   5.526  0.7382 -0.7898  0.7304
 7004SOL    HW232649   3.971   1.163   5.663  0.8651 -0.4416 -1.6135
 7005SOL     OW32650   3.048   4.648   5.564 -0.5777 -0.2070  0.0385
 7005SOL    HW132651   3.043   4.646   5.659 -0.8541 -0.9486  0.0074
 7005SOL    HW232652   3.075   4.561   5.535 -1.9132 -0.3973 -0.6226
 7006SOL     OW32653   2.924   1.820   0.655  0.1918  0.2749 -0.0642
 7006SOL    HW132654   2.916   1.905   0.698  1.9076 -0.6031  1.9471
 7006SOL    HW232655   2.833   1.793   0.641  0.4639 -0.4419 -0.4338
 7007SOL     OW32656   0.678   1.283   2.963  0.0669 -0.2946 -0.0838
 7007SOL    HW132657   0.767   1.248   2.967  0.1336  0.2883  3.5145
 7007SOL    HW232658   0.632   1.205   2.933  3.0080 -1.1755 -2.3564
 7008SOL     OW32659   2.705   1.360   8.382  0.3051 -0.6354  0.7413
 7008SOL    HW132660   2.693   1.266   8.389 -2.0585 -0.4224 -0.6457
 7008SOL    HW232661   2.625   1.383   8.335  0.3302 -0.2662  0.8794
 7009SOL     OW32662   3.524   3.220   8.434  0.3522  0.7247  0.1291
 7009SOL    HW132663   3.603   3.179   8.399 -1.1078 -1.4586 -0.5908
 7009SOL    HW232664   3.466   3.212   8.358  2.7408 -2.2471 -1.3620
 7010SOL     OW32665   4.075   4.212   6.501  0.0889  0.0084 -0.1900
 7010SOL    HW132666   3.992   4.243   6.538 -0.1826  0.5183 -1.1975
 7010SOL    HW232667   4.105   4.156   6.572  1.4898 -0.9415 -1.5300
 7011SOL     OW32668   2.232   3.614   1.803  0.2615 -0.2461  0.5527
 7011SOL    HW132669   2.187   3.565   1.734 -0.4899  0.7177  0.3424
 7011SOL    HW232670   2.160   3.671   1.830  0.6492  0.4972  0.0191
 7012SOL     OW32671   1.571   2.072   3.204 -0.1644 -0.0254  0.2053
 7012SOL    HW132672   1.527   2.157   3.196  1.0598  0.6796  1.0080
 7012SOL    HW232673   1.575   2.076   3.300  0.4652 -0.4910  0.1944
 7013SOL     OW32674   3.281   1.104  17.639  0.3783 -0.2134 -0.0821
 7013SOL    HW132675   3.356   1.060  17.599  1.1186 -0.7860  1.9280
 7013SOL    HW232676   3.324   1.118  17.724  0.7811  1.5114 -0.5590
 7014SOL     OW32677   0.627   1.013   6.713  0.2560  0.6649  0.1418
 7014SOL    HW132678   0.542   1.052   6.687 -0.1893  0.4805  1.3367
 7014SOL    HW232679   0.650   1.056   6.795  0.6805 -1.3715  1.0629
 7015SOL     OW32680   2.828   1.441   6.942 -0.6239 -0.2802  0.0135
 7015SOL    HW132681   2.799   1.491   6.865 -0.2256 -0.9591 -0.5798
 7015SOL    HW232682   2.758   1.466   7.001  0.2066  1.7182  0.1337
 7016SOL     OW32683   4.173   3.463   6.049  0.4147 -0.1128 -0.1360
 7016SOL    HW132684   4.253   3.449   6.101 -0.9511 -1.1096  1.6839
 7016SOL    HW232685   4.167   3.383   5.997 -0.5614 -0.0236 -0.1506
 7017SOL     OW32686   0.567   1.842   2.897  0.5360  0.0819 -0.2964
 7017SOL    HW132687   0.492   1.853   2.839 -0.2062 -0.3520  0.5817
 7017SOL    HW232688   0.634   1.787   2.857 -0.4273 -0.8459 -0.6125
 7018SOL     OW32689   0.141   2.024   6.674  0.0042  0.1736 -0.7070
 7018SOL    HW132690   0.111   1.979   6.753  0.7455 -1.1133 -1.1522
 7018SOL    HW232691   0.208   2.070   6.723  2.0800 -2.3220 -1.1936
 7019SOL     OW32692   4.429   3.198   2.506 -0.6169 -0.6976  0.2315
 7019SOL    HW132693   4.376   3.156   2.439 -2.6679 -1.0414  2.0544
 7019SOL    HW232694   4.385   3.174   2.587  1.8028  1.4854  2.1980
 7020SOL     OW32695   2.388   4.288   0.521 -0.0986 -0.2803 -0.3974
 7020SOL    HW132696   2.354   4.275   0.433  1.0461 -0.7933 -0.7549
 7020SOL    HW232697   2.474   4.322   0.496  0.3843 -1.7065 -0.6542
 7021SOL     OW32698   3.908   1.005  14.646  0.2137 -0.7868 -0.4178
 7021SOL    HW132699   3.830   1.017  14.591 -0.7491  1.6357  1.4791
 7021SOL    HW232700   3.879   1.014  14.737 -0.7439  3.7902 -1.2106
 7022SOL     OW32701   4.610   1.984  12.609  0.2562 -0.1831 -0.2780
 7022SOL    HW132702   4.550   1.927  12.658  1.6218 -0.3182  1.2153
 7022SOL    HW232703   4.567   2.019  12.531 -1.6967 -2.4608 -0.2107
 7023SOL     OW32704   1.973   3.025  17.732  0.0556  0.1382 -0.0912
 7023SOL    HW132705   1.954   3.075  17.653 -2.0018  0.6466  0.7307
 7023SOL    HW232706   1.898   2.966  17.729  0.1020  0.0573  0.2886
 7024SOL     OW32707   2.942   0.433   9.207 -0.1860  0.1100  0.1549
 7024SOL    HW132708   2.944   0.434   9.111  0.2968 -0.9119  0.1657
 7024SOL    HW232709   2.851   0.461   9.221 -0.8319 -0.9448 -1.9850
 7025SOL     OW32710   0.825   2.244   7.541  0.0167 -0.0767  0.1930
 7025SOL    HW132711   0.827   2.339   7.556  1.5394 -0.1833  0.7032
 7025SOL    HW232712   0.834   2.209   7.630 -0.8088  1.3888  0.8635
 7026SOL     OW32713   2.088   1.579   9.650 -0.2425  0.0704  0.0482
 7026SOL    HW132714   2.086   1.618   9.563 -1.3999 -2.3426 -1.0059
 7026SOL    HW232715   1.998   1.579   9.683  0.1101  0.0417  1.0331
 7027SOL     OW32716   1.304   3.659   3.708 -0.5531 -0.0069 -0.4159
 7027SOL    HW132717   1.238   3.603   3.669  0.2127 -0.8398 -0.5360
 7027SOL    HW232718   1.383   3.604   3.703 -1.6039 -1.3529 -1.8428
 7028SOL     OW32719   3.516   3.355   1.780 -0.0995  0.6256  0.3537
 7028SOL    HW132720   3.526   3.443   1.742  0.9720 -0.0898 -1.0330
 7028SOL    HW232721   3.553   3.363   1.867 -0.2969  0.0588  0.4857
 7029SOL     OW32722   0.357   1.079   2.133 -0.0447 -0.4479  0.1512
 7029SOL    HW132723   0.452   1.081   2.121  0.4177 -0.7407  3.9251
 7029SOL    HW232724   0.329   1.149   2.074 -1.1018 -0.4428  0.6503
 7030SOL     OW32725   3.558   0.078   7.131  0.4621 -0.3234 -1.0473
 7030SOL    HW132726   3.615   0.133   7.077 -0.6342  1.5844 -0.2411
 7030SOL    HW232727   3.619   0.027   7.185 -1.2639  0.0904  1.2913
 7031SOL     OW32728   3.779   1.420   8.969  0.1344 -0.0118  0.3168
 7031SOL    HW132729   3.831   1.349   9.007  0.7321 -0.2818 -0.9920
 7031SOL    HW232730   3.848   1.468   8.923 -0.3578 -0.0967 -0.5114
 7032SOL     OW32731   1.916   2.269   6.113 -0.2353  0.1658 -0.0855
 7032SOL    HW132732   1.851   2.313   6.058 -1.7844 -0.8985  0.8960
 7032SOL    HW232733   1.866   2.242   6.189  0.1139 -2.4618 -0.8010
 7033SOL     OW32734   4.282   1.681   2.226  0.1042  0.1580 -0.8069
 7033SOL    HW132735   4.312   1.764   2.262  0.2578 -0.0761 -0.3866
 7033SOL    HW232736   4.367   1.647   2.197  1.2554  1.4560  1.0790
 7034SOL     OW32737   3.518   3.865   2.522 -0.1230  0.1082  0.3717
 7034SOL    HW132738   3.440   3.848   2.470  0.2119 -0.2254 -0.0204
 7034SOL    HW232739   3.571   3.796   2.482  0.6045  1.8338 -1.6217
 7035SOL     OW32740   0.433   4.298   2.150 -0.0047 -1.0592 -0.0909
 7035SOL    HW132741   0.347   4.257   2.158 -0.2858 -0.3743  0.4134
 7035SOL    HW232742   0.439   4.338   2.237  0.5993 -2.4735  0.5089
 7036SOL     OW32743   2.748   1.189   8.120 -0.3552  0.6222  0.5508
 7036SOL    HW132744   2.695   1.133   8.177 -1.3119  1.6145  0.6446
 7036SOL    HW232745   2.750   1.274   8.164  3.3258  0.9616 -0.2261
 7037SOL     OW32746   1.826   3.495  13.667 -0.5379  0.3256  0.2341
 7037SOL    HW132747   1.912   3.531  13.689 -0.0395  0.0824 -1.3445
 7037SOL    HW232748   1.840   3.406  13.698 -0.6532  0.7721  1.5679
 7038SOL     OW32749   0.779   1.909   6.635 -0.5151 -0.1895  0.4367
 7038SOL    HW132750   0.731   1.842   6.684  1.5656 -0.8004  1.6183
 7038SOL    HW232751   0.712   1.976   6.623 -0.3678 -0.0762  0.2451
 7039SOL     OW32752   0.997   2.979   8.526 -0.4845  0.1952 -0.9118
 7039SOL    HW132753   0.966   3.069   8.537 -0.6629  0.0837 -0.4975
 7039SOL    HW232754   0.998   2.959   8.432 -1.8008  1.2994 -1.1676
 7040SOL     OW32755   1.530   2.024  16.559  0.1208  0.8292 -0.1439
 7040SOL    HW132756   1.588   1.948  16.556 -1.7408 -0.6877  2.0276
 7040SOL    HW232757   1.496   2.014  16.470 -0.1965 -0.8001  0.1691
 7041SOL     OW32758   2.570   3.070   4.961 -0.4562  0.0540 -0.1868
 7041SOL    HW132759   2.517   2.994   4.988  0.7976 -0.4193  0.9501
 7041SOL    HW232760   2.577   3.109   5.047 -0.4146 -0.1373 -0.1027
 7042SOL     OW32761   4.400   1.275   6.847  0.2531 -0.1317  0.3555
 7042SOL    HW132762   4.477   1.329   6.833 -1.8411  2.1557 -2.3780
 7042SOL    HW232763   4.432   1.199   6.896  2.1252 -0.1145 -0.8556
 7043SOL     OW32764   3.753   1.883  10.271  0.1015 -0.5852 -0.4928
 7043SOL    HW132765   3.682   1.833  10.310  0.5845 -0.4321  0.5720
 7043SOL    HW232766   3.737   1.871  10.177  1.0266  1.3354 -0.8988
 7044SOL     OW32767   3.333   0.335   2.800  0.5759 -0.3030 -0.0053
 7044SOL    HW132768   3.423   0.334   2.768  0.4574  1.3524 -0.3520
 7044SOL    HW232769   3.314   0.428   2.812  0.0056 -0.4199 -0.0117
 7045SOL     OW32770   3.604   3.965   4.854  0.4068 -0.7026 -0.4684
 7045SOL    HW132771   3.509   3.962   4.865  0.3624 -1.3018 -0.9705
 7045SOL    HW232772   3.633   3.979   4.944  0.2754 -0.4607 -0.4648
 7046SOL     OW32773   1.376   1.480  10.905 -0.3280 -0.1386 -0.2775
 7046SOL    HW132774   1.369   1.405  10.963  0.3033 -0.8113 -1.0651
 7046SOL    HW232775   1.357   1.552  10.965 -0.2485  0.0899 -0.5255
 7047SOL     OW32776   0.643   3.656   4.299 -0.0054  0.1985  0.1177
 7047SOL    HW132777   0.607   3.583   4.350 -0.9569  0.3344 -0.3611
 7047SOL    HW232778   0.713   3.689   4.354 -2.7002  2.7421  2.0428
 7048SOL     OW32779   3.391   1.163  10.177 -0.0447  0.1128 -0.0562
 7048SOL    HW132780   3.409   1.132  10.265 -0.7150 -2.1052 -0.6940
 7048SOL    HW232781   3.306   1.208  10.184 -0.2618 -0.3723  0.3513
 7049SOL     OW32782   0.985   4.579   5.116 -0.1899  0.0977 -0.2321
 7049SOL    HW132783   0.963   4.521   5.190  1.4071  0.4842  0.5445
 7049SOL    HW232784   1.081   4.577   5.110 -0.2945  0.4873 -1.8064
 7050SOL     OW32785   0.605   0.132   5.894 -0.3511 -0.1238  0.1328
 7050SOL    HW132786   0.581   0.219   5.928  0.0079 -0.1487  0.4472
 7050SOL    HW232787   0.671   0.090   5.948 -0.4450 -0.0478  0.3074
 7051SOL     OW32788   2.764   1.318   3.022  0.0315 -0.1894 -0.5218
 7051SOL    HW132789   2.847   1.345   3.061  0.1130  1.0679 -1.5677
 7051SOL    HW232790   2.788   1.332   2.931 -0.4086  1.9581 -0.3001
 7052SOL     OW32791   4.433   3.945   1.639 -0.9732 -0.1529  0.2454
 7052SOL    HW132792   4.410   3.985   1.723 -0.8040 -0.0132  0.2246
 7052SOL    HW232793   4.455   3.855   1.666  0.3670  0.0500 -0.1484
 7053SOL     OW32794   2.503   2.274  10.148 -0.0984 -0.9279  0.1560
 7053SOL    HW132795   2.574   2.279  10.212 -0.8183  0.0548  0.8652
 7053SOL    HW232796   2.448   2.351  10.164 -0.9156 -1.1188 -1.7037
 7054SOL     OW32797   4.658   3.982   6.963  0.3029  0.0985  0.0380
 7054SOL    HW132798   4.595   4.022   6.904 -0.2834  0.7845  1.1303
 7054SOL    HW232799   4.648   3.891   6.935  0.3469 -0.3150  1.3523
 7055SOL     OW32800   3.040   0.984  12.675  0.3905  0.0100  0.0975
 7055SOL    HW132801   3.005   1.037  12.603  0.0853  0.1368  0.3399
 7055SOL    HW232802   2.953   0.972  12.713  0.1158  1.6581 -0.0235
 7056SOL     OW32803   2.884   4.678   3.850 -0.6610 -0.2442  0.8399
 7056SOL    HW132804   2.854   0.019   3.807  1.8930  0.7707  0.9778
 7056SOL    HW232805   2.899   4.619   3.777 -4.1625  1.4319 -1.2793
 7057SOL     OW32806   0.782   2.266  17.256 -0.2742 -0.5291  0.8160
 7057SOL    HW132807   0.812   2.191  17.205  0.6746  0.5984 -0.2974
 7057SOL    HW232808   0.702   2.229  17.293 -1.0861 -0.7804 -1.1821
 7058SOL     OW32809   4.517   1.179   1.945  0.2407 -0.1420  0.3627
 7058SOL    HW132810   4.553   1.120   2.011 -1.8621  0.7359  2.2936
 7058SOL    HW232811   4.447   1.221   1.995 -0.1463 -0.1212 -0.2030
 7059SOL     OW32812   4.187   2.298   3.327  0.3812  0.3763  0.1708
 7059SOL    HW132813   4.114   2.283   3.388 -0.5177  0.4660 -0.8764
 7059SOL    HW232814   4.173   2.388   3.299  1.3212  1.0855  1.9679
 7060SOL     OW32815   3.787   2.988  13.181  0.1232 -0.6247  0.2512
 7060SOL    HW132816   3.776   3.078  13.212  0.8699  0.0026 -1.3098
 7060SOL    HW232817   3.783   3.003  13.087 -1.3477  0.8563  0.5439
 7061SOL     OW32818   3.695   0.897  13.850  0.3180 -0.5580  0.0585
 7061SOL    HW132819   3.712   0.885  13.943 -4.1009 -0.0933  0.9706
 7061SOL    HW232820   3.610   0.857  13.829  1.1388 -2.2397 -0.0066
 7062SOL     OW32821   2.977   3.673   2.992 -0.7287  0.0750  0.0844
 7062SOL    HW132822   2.937   3.756   3.014  1.7828  1.3189 -0.0516
 7062SOL    HW232823   3.034   3.670   3.069 -0.6596  1.7044  0.0789
 7063SOL     OW32824   2.888   0.031  12.956 -0.5637 -0.2699 -0.3869
 7063SOL    HW132825   2.893   0.027  12.860  0.8629  2.5842 -0.4554
 7063SOL    HW232826   2.944   0.107  12.972 -0.8517 -0.0162 -0.5824
 7064SOL     OW32827   0.759   1.620   5.440  0.1255  0.7432 -0.2329
 7064SOL    HW132828   0.664   1.624   5.442  0.0736 -1.6470  1.2789
 7064SOL    HW232829   0.767   1.598   5.533  1.5558  1.1839 -0.2400
 7065SOL     OW32830   3.033   3.363   3.431 -0.3214  0.3521  0.7252
 7065SOL    HW132831   3.084   3.289   3.464 -1.2511 -0.6285 -0.0216
 7065SOL    HW232832   2.964   3.313   3.387  0.4458 -0.5328  0.5206
 7066SOL     OW32833   2.872   3.402  10.514  0.0524 -0.3106 -0.2913
 7066SOL    HW132834   2.792   3.412  10.462  0.8796 -0.8612 -1.6571
 7066SOL    HW232835   2.866   3.312  10.547 -0.4040 -0.3209 -0.3929
 7067SOL     OW32836   2.777   4.441   2.839 -0.1578 -0.4937  0.1331
 7067SOL    HW132837   2.780   4.534   2.818  2.0593 -1.2560 -3.0266
 7067SOL    HW232838   2.708   4.412   2.780 -0.4754  0.4208  0.0701
 7068SOL     OW32839   0.104   3.134   2.044  0.3215  0.1741 -0.1900
 7068SOL    HW132840   0.190   3.153   2.007 -0.3201  0.8408 -1.3171
 7068SOL    HW232841   0.130   3.055   2.092  3.3113  1.0442 -0.3831
 7069SOL     OW32842   2.924   1.183   9.580 -0.0388 -0.0016 -0.5796
 7069SOL    HW132843   2.911   1.202   9.487 -0.1158 -0.7760 -0.7262
 7069SOL    HW232844   2.837   1.210   9.609 -0.6513 -0.7570 -1.7067
 7070SOL     OW32845   0.120   0.375   2.770  0.4194  0.2446  0.6009
 7070SOL    HW132846   0.120   0.279   2.774  1.9068  0.1919 -0.3405
 7070SOL    HW232847   0.211   0.388   2.742  0.9830 -1.6808  1.4986
 7071SOL     OW32848   4.239   4.493  15.374 -0.1754 -0.1316 -0.0483
 7071SOL    HW132849   4.309   4.466  15.434 -0.7172 -0.1108  0.5911
 7071SOL    HW232850   4.171   4.515  15.438  0.0955 -0.3635  0.3156
 7072SOL     OW32851   0.653   0.060   5.637  0.0912  0.1928  0.1379
 7072SOL    HW132852   0.565   0.064   5.600 -0.5831  1.9189  1.9223
 7072SOL    HW232853   0.642   0.117   5.713  1.4380 -0.4339  0.8145
 7073SOL     OW32854   0.772   4.060   5.806  0.5988 -0.0225 -0.3361
 7073SOL    HW132855   0.717   4.101   5.872 -1.0669 -0.6583 -1.3361
 7073SOL    HW232856   0.700   4.051   5.744  1.5110 -1.8787 -1.1246
 7074SOL     OW32857   2.856   1.569  10.215 -0.1697 -0.2817  0.5069
 7074SOL    HW132858   2.769   1.608  10.208 -0.5401 -0.8663  1.9285
 7074SOL    HW232859   2.893   1.560  10.127 -1.0909 -1.8929  0.2824
 7075SOL     OW32860   1.230   2.902   2.809 -0.2210 -0.3392 -0.9035
 7075SOL    HW132861   1.270   2.987   2.792 -2.0775  0.9875  1.5100
 7075SOL    HW232862   1.140   2.917   2.781 -0.4911  1.8726  1.2012
 7076SOL     OW32863   2.522   1.579  17.390 -0.1354  0.4566  0.3452
 7076SOL    HW132864   2.465   1.527  17.333  1.9622 -0.1700 -1.1527
 7076SOL    HW232865   2.565   1.641  17.331 -2.7911  0.5866 -1.4418
 7077SOL     OW32866   3.241   4.184  14.598  0.3439  0.0091  0.4123
 7077SOL    HW132867   3.294   4.115  14.559 -1.5646 -1.9501  1.2723
 7077SOL    HW232868   3.208   4.227  14.519  1.1267  0.0256  0.1023
 7078SOL     OW32869   4.358   0.236  16.596 -0.3659 -0.1692 -0.3424
 7078SOL    HW132870   4.442   0.260  16.635 -0.2569 -1.4462  0.2406
 7078SOL    HW232871   4.310   0.221  16.678  0.4635  4.8498  1.0366
 7079SOL     OW32872   3.812   0.164   0.807  0.5218 -0.3753 -0.0599
 7079SOL    HW132873   3.821   0.228   0.878  1.9388  1.6036 -2.0151
 7079SOL    HW232874   3.818   0.226   0.734  0.6981 -0.9850 -0.5646
 7080SOL     OW32875   0.093   0.181   4.446 -0.9074 -0.4819  1.0423
 7080SOL    HW132876   0.182   0.216   4.442 -1.3435  0.5235 -0.3756
 7080SOL    HW232877   0.050   0.232   4.376 -1.0007 -2.1967 -0.1521
 7081SOL     OW32878   0.629   0.157   6.847  0.7146 -0.1415  0.5218
 7081SOL    HW132879   0.695   0.110   6.899  1.2065  1.5358  1.4206
 7081SOL    HW232880   0.627   0.104   6.768 -0.7809  1.8007 -0.7176
 7082SOL     OW32881   0.047   3.376  11.046  0.4227  0.5930  0.2180
 7082SOL    HW132882   0.097   3.304  11.009  1.0791  0.8615  0.5873
 7082SOL    HW232883   4.721   3.326  11.095 -0.2655 -0.8197 -2.1587
 7083SOL     OW32884   1.159   3.440  12.301  0.6108  0.0784  0.2944
 7083SOL    HW132885   1.221   3.374  12.269 -0.8663 -1.5693  0.7945
 7083SOL    HW232886   1.105   3.373  12.344 -3.0416  1.0672 -2.6314
 7084SOL     OW32887   0.653   2.003   4.373 -0.4178 -0.2884 -0.0574
 7084SOL    HW132888   0.643   1.921   4.421 -0.8589  0.3873  1.0213
 7084SOL    HW232889   0.602   2.065   4.425  0.6083  0.0603  0.5227
 7085SOL     OW32890   2.509   1.355   7.971  0.6333  0.1199 -0.2651
 7085SOL    HW132891   2.519   1.263   7.999 -1.4648  0.0794  0.3063
 7085SOL    HW232892   2.451   1.390   8.039 -0.1429  0.0673 -0.9047
 7086SOL     OW32893   4.376   0.897   3.279  0.0520  0.2403 -0.3758
 7086SOL    HW132894   4.383   0.986   3.315  0.0277  0.8756 -1.9208
 7086SOL    HW232895   4.285   0.878   3.298  0.6374 -2.8369 -0.6836
 7087SOL     OW32896   1.734   1.476   4.521  0.3730 -0.2133 -0.2474
 7087SOL    HW132897   1.667   1.506   4.460 -0.6830  3.2026  2.5736
 7087SOL    HW232898   1.755   1.561   4.560 -0.0921 -0.6842  1.0263
 7088SOL     OW32899   2.006   1.808   8.508  0.0158  0.2239  0.2171
 7088SOL    HW132900   1.943   1.755   8.460  1.0590 -0.9655  0.1422
 7088SOL    HW232901   2.047   1.860   8.439 -1.0592  1.5348  0.5844
 7089SOL     OW32902   0.485   0.986   9.551 -0.5597  0.5141 -0.6035
 7089SOL    HW132903   0.395   0.984   9.583 -1.2814  3.1931 -2.3943
 7089SOL    HW232904   0.519   1.069   9.584 -0.7811  0.0240  0.8390
 7090SOL     OW32905   0.550   2.496   7.636  0.0810  0.2804 -0.1470
 7090SOL    HW132906   0.485   2.555   7.598  0.7185 -0.4137 -2.3227
 7090SOL    HW232907   0.511   2.462   7.717 -0.3116 -0.0116 -0.4588
 7091SOL     OW32908   3.999   3.038   9.257 -0.0287  0.8060  0.5467
 7091SOL    HW132909   4.049   3.104   9.304 -0.8838  0.4381  1.9711
 7091SOL    HW232910   4.064   2.989   9.205 -0.5837  0.3283  0.3091
 7092SOL     OW32911   2.798   3.594   3.259  1.1148  0.0714 -0.3298
 7092SOL    HW132912   2.789   3.589   3.164 -1.8560  1.6759 -0.1573
 7092SOL    HW232913   2.730   3.535   3.291  0.4371  1.4819  0.8459
 7093SOL     OW32914   3.885   1.867  15.522  0.2076  0.2091 -0.6165
 7093SOL    HW132915   3.980   1.872  15.511  0.1204 -0.8952 -1.9357
 7093SOL    HW232916   3.859   1.852  15.431 -2.1186  1.2655 -0.1138
 7094SOL     OW32917   1.149   1.167  15.862  0.0612 -0.1359 -0.1014
 7094SOL    HW132918   1.157   1.150  15.769 -1.0795  1.5037 -0.5097
 7094SOL    HW232919   1.234   1.208  15.881 -0.4007  2.2337 -3.2032
 7095SOL     OW32920   3.285   2.177   6.490 -0.1901 -0.4455 -0.9229
 7095SOL    HW132921   3.232   2.229   6.430 -1.0511  0.9802  1.0868
 7095SOL    HW232922   3.368   2.164   6.445 -0.4607 -1.2258 -1.1831
 7096SOL     OW32923   4.199   4.213   8.393  0.3664 -0.1881 -0.4518
 7096SOL    HW132924   4.161   4.160   8.464 -0.6726  0.6768 -0.3639
 7096SOL    HW232925   4.291   4.198   8.415  0.2598 -1.1667 -0.6461
 7097SOL     OW32926   3.655   4.066   7.278  0.1540 -0.3128 -0.4543
 7097SOL    HW132927   3.594   3.998   7.307 -0.4712  0.9379  1.1841
 7097SOL    HW232928   3.673   4.103   7.365  1.1156  2.3626 -1.7905
 7098SOL     OW32929   0.623   3.570   8.649  0.2923 -0.0552 -0.3489
 7098SOL    HW132930   0.559   3.635   8.621 -1.0169 -0.3528  1.9450
 7098SOL    HW232931   0.654   3.608   8.731  0.3120  0.0109 -0.3870
 7099SOL     OW32932   1.929   1.346   8.758 -0.4873  0.5822 -0.4504
 7099SOL    HW132933   1.877   1.275   8.720 -0.3994 -0.1212  0.7538
 7099SOL    HW232934   1.942   1.399   8.679 -0.6107 -1.0036 -1.5220
 7100SOL     OW32935   3.573   0.195  10.340  0.1018  0.2148  0.1203
 7100SOL    HW132936   3.625   0.273  10.361 -1.7727  1.0879  1.5017
 7100SOL    HW232937   3.569   0.164  10.431 -1.3072 -0.0231 -0.0182
 7101SOL     OW32938   4.283   1.820   6.441  0.3858  0.1382 -0.2068
 7101SOL    HW132939   4.232   1.747   6.476 -0.4124  1.6511  1.8423
 7101SOL    HW232940   4.361   1.832   6.496  0.3966 -0.7551 -0.0352
 7102SOL     OW32941   1.804   2.320  12.778  0.5844 -0.1387 -0.0899
 7102SOL    HW132942   1.754   2.247  12.742  0.6809 -0.7904  1.1154
 7102SOL    HW232943   1.850   2.358  12.703 -1.4920 -1.1296 -1.8586
 7103SOL     OW32944   3.835   3.265  10.189  0.0336  0.2161  0.1335
 7103SOL    HW132945   3.921   3.305  10.174 -1.4340  2.3714 -2.4453
 7103SOL    HW232946   3.796   3.273  10.102  1.4864  1.1544 -0.4350
 7104SOL     OW32947   3.284   1.654  10.102  0.1810  0.0698  0.1147
 7104SOL    HW132948   3.242   1.731  10.064 -1.1110 -2.5439 -3.7756
 7104SOL    HW232949   3.280   1.677  10.195  0.2058  0.4426  0.0205
 7105SOL     OW32950   0.096   3.651  11.117 -0.0106 -0.6227 -0.2279
 7105SOL    HW132951   0.182   3.691  11.127 -0.8593  1.1645 -0.0493
 7105SOL    HW232952   0.124   3.561  11.102 -0.0533 -0.8075  0.8124
 7106SOL     OW32953   4.589   2.274   5.241 -0.2111 -0.1722  0.1244
 7106SOL    HW132954   4.495   2.278   5.224 -0.2277 -0.7809  0.0537
 7106SOL    HW232955   4.594   2.224   5.323 -2.0879 -0.7236 -0.0757
 7107SOL     OW32956   4.240   1.021  15.855  0.2994  0.0920 -0.2900
 7107SOL    HW132957   4.229   1.086  15.924  1.3205  0.1763 -0.2134
 7107SOL    HW232958   4.322   1.056  15.819 -0.3313  2.2663  0.4164
 7108SOL     OW32959   4.542   1.137   5.943  0.8478  0.7170 -0.3491
 7108SOL    HW132960   4.487   1.067   5.978 -0.3303  1.0196 -1.5717
 7108SOL    HW232961   4.592   1.086   5.879  0.7507 -0.7522  0.7579
 7109SOL     OW32962   0.490   4.200  11.435  0.4757 -0.2063 -0.7943
 7109SOL    HW132963   0.443   4.163  11.361  1.3673 -0.1781 -1.3710
 7109SOL    HW232964   0.575   4.199  11.390  1.8202 -0.8981  1.7398
 7110SOL     OW32965   3.310   1.721   7.453  0.2080 -0.2130 -0.0535
 7110SOL    HW132966   3.264   1.802   7.475  2.0894  0.8630 -0.0844
 7110SOL    HW232967   3.238   1.674   7.411  1.2433  0.5964 -2.7173
 7111SOL     OW32968   0.295   3.182   3.305 -0.2096 -0.0826  0.6351
 7111SOL    HW132969   0.267   3.119   3.371 -0.9126  0.1636  0.5721
 7111SOL    HW232970   0.339   3.245   3.363 -0.6490  0.4539  0.3903
 7112SOL     OW32971   3.852   1.713  13.372  0.8643 -0.1826 -0.0132
 7112SOL    HW132972   3.779   1.735  13.314 -0.1970 -1.9801  0.6182
 7112SOL    HW232973   3.798   1.662  13.433 -0.8562 -1.0677 -2.3035
 7113SOL     OW32974   0.871   0.467  11.360  0.1091 -0.0122 -0.3490
 7113SOL    HW132975   0.883   0.431  11.448  0.8746  2.0542  0.4118
 7113SOL    HW232976   0.927   0.423  11.296  1.6674  0.6195  0.5592
 7114SOL     OW32977   1.912   4.048   5.002 -0.1029 -0.5694 -0.0973
 7114SOL    HW132978   1.828   4.080   5.036 -0.1297  1.1404 -1.8171
 7114SOL    HW232979   1.942   3.995   5.076  0.4107 -2.2227 -1.5026
 7115SOL     OW32980   2.418   2.410   7.711  0.2446 -0.0077 -0.3968
 7115SOL    HW132981   2.428   2.410   7.806  0.2380 -1.8608 -0.3860
 7115SOL    HW232982   2.502   2.370   7.688 -0.1093  0.3733 -2.3826
 7116SOL     OW32983   2.354   0.361  17.041 -0.4117  0.0025  0.4716
 7116SOL    HW132984   2.261   0.338  17.039 -0.5412  0.4138  2.4163
 7116SOL    HW232985   2.375   0.376  16.949 -0.5359 -1.1712  0.2409
 7117SOL     OW32986   0.375   4.192   5.621 -0.1892  0.1850  0.0349
 7117SOL    HW132987   0.412   4.278   5.643  1.5058  0.0761 -2.4185
 7117SOL    HW232988   0.443   4.129   5.645 -1.7003 -0.9649  1.2541
 7118SOL     OW32989   1.010   2.167   8.935  0.4977 -0.1764  0.1304
 7118SOL    HW132990   1.019   2.165   8.840 -0.2783 -2.0959  0.1053
 7118SOL    HW232991   1.094   2.203   8.965  1.1774 -0.8464 -0.9721
 7119SOL     OW32992   3.747   2.472   3.550  0.3457  0.3025 -0.4035
 7119SOL    HW132993   3.700   2.390   3.561 -0.6533  0.7705 -1.1682
 7119SOL    HW232994   3.675   2.535   3.546 -1.3586 -1.6769 -0.9193
 7120SOL     OW32995   1.066   2.207   2.372 -0.1037 -0.1356  0.1500
 7120SOL    HW132996   1.148   2.161   2.388  1.8524  2.9999 -0.8917
 7120SOL    HW232997   1.064   2.266   2.447  1.3649 -0.3951  0.3866
 7121SOL     OW32998   1.017   1.120   5.919  0.4428 -0.7525 -0.3803
 7121SOL    HW132999   1.013   1.092   5.827  1.2489 -1.4399 -0.2017
 7121SOL    HW233000   0.966   1.201   5.926 -1.9581 -2.3153  0.3188
 7122SOL     OW33001   2.055   0.431  17.195 -0.1010  0.0414 -0.1690
 7122SOL    HW133002   2.028   0.476  17.114 -0.1741 -0.2687 -0.3157
 7122SOL    HW233003   1.976   0.435  17.249 -0.3452  0.6387 -0.5659
 7123SOL     OW33004   0.400   1.369   5.570  0.7629  0.2852 -0.5141
 7123SOL    HW133005   0.415   1.287   5.617  2.6421  0.8732 -0.0834
 7123SOL    HW233006   0.417   1.425   5.645 -1.2258  0.6989 -0.3695
 7124SOL     OW33007   3.336   2.989   2.934 -0.2599  0.6181  0.1158
 7124SOL    HW133008   3.351   3.038   3.015  0.7133  0.6058 -0.0558
 7124SOL    HW233009   3.386   2.909   2.948 -1.5052 -0.2435 -0.3696
 7125SOL     OW33010   0.219   4.341   9.645  0.2323 -0.4985  0.2992
 7125SOL    HW133011   0.186   4.426   9.676 -1.1641 -1.4826  1.5105
 7125SOL    HW233012   0.293   4.332   9.705  0.1869  1.0471  0.6105
 7126SOL     OW33013   0.932   4.733  12.490 -0.1424 -0.5394 -0.5687
 7126SOL    HW133014   0.909   4.643  12.468 -2.1057 -0.5352  1.4403
 7126SOL    HW233015   0.891   0.051  12.425  1.6419  2.6302  1.1235
 7127SOL     OW33016   3.893   2.377   6.274  0.5948 -0.1615  0.1067
 7127SOL    HW133017   3.944   2.325   6.212  1.7695  0.3295  0.6654
 7127SOL    HW233018   3.973   2.422   6.301 -0.9385  2.5560  0.0405
 7128SOL     OW33019   3.903   3.035   5.804  0.0712 -0.0109  0.0376
 7128SOL    HW133020   3.833   3.067   5.863 -0.8955  1.2588 -1.7821
 7128SOL    HW233021   3.890   2.943   5.823 -2.7915  0.1007 -1.3938
 7129SOL     OW33022   2.579   1.065   8.296 -0.1241  0.1209  0.4809
 7129SOL    HW133023   2.488   1.037   8.302  0.0097 -0.4865 -0.3805
 7129SOL    HW233024   2.606   1.060   8.388 -0.2770  0.5658  0.5507
 7130SOL     OW33025   4.522   1.513   0.915 -0.3114  0.3188  0.4607
 7130SOL    HW133026   4.440   1.505   0.964 -0.4980 -0.9548 -0.0789
 7130SOL    HW233027   4.533   1.607   0.897  0.9771  0.6464  2.9412
 7131SOL     OW33028   0.633   2.351   5.086 -0.2471  0.3181  0.2327
 7131SOL    HW133029   0.547   2.347   5.043  0.1930 -0.9232 -0.5185
 7131SOL    HW233030   0.624   2.265   5.127  1.8128 -0.0545 -0.0954
 7132SOL     OW33031   2.565   2.247   3.852  0.6161 -0.0990 -0.0361
 7132SOL    HW133032   2.471   2.262   3.860  0.3515 -1.2347 -0.9814
 7132SOL    HW233033   2.576   2.238   3.757  0.2317 -1.2205  0.0235
 7133SOL     OW33034   2.023   0.689   0.816 -0.1450 -0.1478 -0.5237
 7133SOL    HW133035   1.957   0.624   0.840  1.5424 -0.6587  2.8039
 7133SOL    HW233036   2.045   0.652   0.731  1.2075  3.6018 -1.7914
 7134SOL     OW33037   2.155   4.055   2.596 -0.1412 -0.2887  0.2565
 7134SOL    HW133038   2.095   4.106   2.542 -0.2260 -2.3550 -1.5879
 7134SOL    HW233039   2.210   4.019   2.527  0.2112  1.2944 -0.2769
 7135SOL     OW33040   0.541   0.970   5.474 -0.1683  0.3525  0.4202
 7135SOL    HW133041   0.558   1.018   5.392  2.1503  1.5028  1.5792
 7135SOL    HW233042   0.446   0.980   5.474 -0.1432  0.6006  0.2967
 7136SOL     OW33043   1.772   4.389   1.491  0.1109 -0.1683  0.0701
 7136SOL    HW133044   1.845   4.447   1.469 -0.2766 -0.1908 -1.2718
 7136SOL    HW233045   1.772   4.392   1.587  0.0897 -0.0741  0.0673
 7137SOL     OW33046   2.424   2.644   8.176  0.2610 -0.6357 -0.2030
 7137SOL    HW133047   2.464   2.648   8.262 -0.1609  2.7107 -0.1638
 7137SOL    HW233048   2.351   2.704   8.191 -0.9999 -1.5969 -2.4722
 7138SOL     OW33049   0.974   3.084   5.643  0.3813 -0.2854 -0.0263
 7138SOL    HW133050   1.023   3.104   5.722 -0.0919 -0.0080  0.1957
 7138SOL    HW233051   1.012   3.145   5.579 -2.2882 -0.0435 -1.4130
 7139SOL     OW33052   1.776   4.714   3.059  0.3816 -0.1927 -0.9003
 7139SOL    HW133053   1.709   4.654   3.025 -1.1704  0.0537  1.6842
 7139SOL    HW233054   1.728   0.017   3.131 -1.4439 -0.9099 -1.6957
 7140SOL     OW33055   2.594   4.639   4.559 -0.7539 -0.1998 -0.5109
 7140SOL    HW133056   2.635   4.715   4.599 -2.8522  0.0018  1.2565
 7140SOL    HW233057   2.620   4.646   4.467 -0.4280  0.0885 -0.3965
 7141SOL     OW33058   3.889   4.608   2.256 -0.2263  0.3311  0.2190
 7141SOL    HW133059   3.950   4.535   2.255 -0.7393 -0.0906 -0.2123
 7141SOL    HW233060   3.809   4.568   2.221 -0.8348  0.5634  1.3375
 7142SOL     OW33061   2.279   3.073   8.212 -0.5979  0.0796 -0.3047
 7142SOL    HW133062   2.357   3.126   8.198  0.3811 -1.0166  0.9437
 7142SOL    HW233063   2.216   3.104   8.148 -0.5273 -1.3561 -1.0728
 7143SOL     OW33064   1.004   3.747   1.924 -0.1708  0.0175 -0.0071
 7143SOL    HW133065   1.062   3.673   1.944 -0.1978 -0.1310 -0.4707
 7143SOL    HW233066   0.932   3.723   1.983  0.8566  0.1259  1.2792
 7144SOL     OW33067   2.563   0.907   1.623 -0.6895 -0.6795 -0.4048
 7144SOL    HW133068   2.474   0.873   1.630 -1.4576  1.1877 -1.1834
 7144SOL    HW233069   2.547   0.993   1.585  0.1130 -0.0623  0.6498
 7145SOL     OW33070   2.993   0.336   5.342  0.1594  0.0989 -0.0291
 7145SOL    HW133071   2.907   0.338   5.300 -0.4118  0.3332  1.1421
 7145SOL    HW233072   3.016   0.427   5.326 -1.4039  0.4962 -0.0104
 7146SOL     OW33073   2.979   4.285   3.942  0.4200  0.2396 -0.1344
 7146SOL    HW133074   3.051   4.227   3.919 -0.1647 -0.7454  0.5055
 7146SOL    HW233075   2.923   4.225   3.991  1.9086 -1.4041 -0.4674
 7147SOL     OW33076   1.232   3.319  13.122 -0.3679  0.4340 -0.5719
 7147SOL    HW133077   1.291   3.393  13.105 -0.9962  0.9998 -0.2909
 7147SOL    HW233078   1.161   3.359  13.173 -1.3281 -1.4183 -0.4705
 7148SOL     OW33079   0.336   0.278   7.186 -0.6412 -1.1381 -0.1866
 7148SOL    HW133080   0.296   0.333   7.253 -1.6640 -0.8487 -1.0359
 7148SOL    HW233081   0.370   0.212   7.247  0.6208  2.0111  2.5647
 7149SOL     OW33082   1.843   1.238   4.442  0.4714 -0.3290  0.0718
 7149SOL    HW133083   1.763   1.185   4.445 -0.3918  0.8632 -1.3771
 7149SOL    HW233084   1.809   1.315   4.489 -0.8620 -0.7687 -0.1849
 7150SOL     OW33085   1.690   1.331   9.341  0.2082 -0.5943 -0.1127
 7150SOL    HW133086   1.709   1.422   9.366  2.5783 -1.2052  0.2948
 7150SOL    HW233087   1.671   1.341   9.248  1.8766  1.1979 -0.2625
 7151SOL     OW33088   0.341   0.711   8.556 -0.1573  0.6584  0.5284
 7151SOL    HW133089   0.431   0.734   8.577  0.8995 -1.3172 -1.8552
 7151SOL    HW233090   0.337   0.618   8.536 -0.8701  0.6733  0.5904
 7152SOL     OW33091   1.792   0.314  13.816 -0.1989  0.4660  0.1060
 7152SOL    HW133092   1.826   0.318  13.905  0.3564  0.6457 -0.1115
 7152SOL    HW233093   1.708   0.359  13.827  0.7104  2.0743  0.5074
 7153SOL     OW33094   4.335   0.719   9.000  0.4790  0.3241  0.0705
 7153SOL    HW133095   4.403   0.658   8.969  1.6311  1.5631  0.1449
 7153SOL    HW233096   4.362   0.804   8.965  0.4573  0.4986  0.4793
 7154SOL     OW33097   2.457   3.979   6.410  0.1997  0.0026 -0.0600
 7154SOL    HW133098   2.423   4.025   6.488  0.3018  0.3100 -0.1952
 7154SOL    HW233099   2.404   3.901   6.403 -1.1147  0.9540 -0.6427
 7155SOL     OW33100   3.852   1.203   8.042 -0.2036  0.5262  0.1112
 7155SOL    HW133101   3.853   1.127   8.100 -1.2395 -0.2669 -0.9023
 7155SOL    HW233102   3.938   1.208   8.000 -0.9868  1.6293 -1.3677
 7156SOL     OW33103   1.415   4.245  11.082  1.0462 -0.1392 -0.2800
 7156SOL    HW133104   1.406   4.154  11.110 -3.2674 -0.0102 -1.3100
 7156SOL    HW233105   1.454   4.228  10.997  0.6809  1.6177 -0.7904
 7157SOL     OW33106   1.753   2.507  13.826  0.6777 -0.0678  0.0013
 7157SOL    HW133107   1.803   2.516  13.908 -0.5920 -1.3381  0.9128
 7157SOL    HW233108   1.732   2.598  13.804 -0.7585 -0.0360  1.5289
 7158SOL     OW33109   1.568   3.886   4.783  0.0577  0.3387 -0.1759
 7158SOL    HW133110   1.552   3.810   4.838 -1.0944  0.5779 -0.1920
 7158SOL    HW233111   1.485   3.931   4.769 -0.4766 -0.1877  1.3324
 7159SOL     OW33112   0.252   3.519   2.395 -0.7063  0.1026  0.0163
 7159SOL    HW133113   0.188   3.527   2.325  1.2772 -0.0199 -1.8150
 7159SOL    HW233114   0.299   3.442   2.362  0.8798  0.4560  1.4455
 7160SOL     OW33115   1.624   2.405   2.734  0.4795 -0.2459  0.1699
 7160SOL    HW133116   1.533   2.375   2.738  0.8831 -1.6026 -0.5664
 7160SOL    HW233117   1.617   2.469   2.663  1.0011 -0.3294  0.0437
 7161SOL     OW33118   3.690   1.561   8.628 -0.5853 -0.2676  0.1545
 7161SOL    HW133119   3.603   1.521   8.627 -0.4527 -0.4167 -3.0995
 7161SOL    HW233120   3.742   1.499   8.578 -1.2782 -0.2352 -0.5946
 7162SOL     OW33121   3.169   2.711  16.949 -0.7853 -0.2879 -0.6660
 7162SOL    HW133122   3.210   2.692  16.865 -0.1595  2.0296 -0.8940
 7162SOL    HW233123   3.245   2.696  17.004 -2.3366 -2.6502  0.8271
 7163SOL     OW33124   3.238   1.484  15.689 -0.2373  0.5600  0.2217
 7163SOL    HW133125   3.163   1.540  15.704  0.1902  0.7570  1.5714
 7163SOL    HW233126   3.290   1.530  15.623 -0.3196 -0.3742 -0.5047
 7164SOL     OW33127   4.100   2.932   8.598 -0.1918 -0.0591 -0.5643
 7164SOL    HW133128   4.137   2.957   8.683  0.0676  2.1313 -1.3319
 7164SOL    HW233129   4.099   3.017   8.554 -1.7787 -0.2354 -0.8562
 7165SOL     OW33130   1.770   1.122   7.988 -0.1049 -0.0769 -0.4717
 7165SOL    HW133131   1.762   1.053   8.054 -0.3986  0.9499  0.5636
 7165SOL    HW233132   1.731   1.201   8.024 -0.3270 -0.9541  1.1772
 7166SOL     OW33133   1.266   0.259  13.522  0.3610  0.0706 -0.8586
 7166SOL    HW133134   1.350   0.298  13.543  0.9020 -0.7588 -1.4750
 7166SOL    HW233135   1.263   0.280  13.429  2.3509  1.3071 -0.6308
 7167SOL     OW33136   0.953   0.703  14.539 -0.6488  0.3722  0.1954
 7167SOL    HW133137   1.028   0.680  14.593  0.5711 -0.2147 -1.7414
 7167SOL    HW233138   0.897   0.628  14.554  0.4544 -0.1356  1.7515
 7168SOL     OW33139   2.081   2.288   8.796 -0.5720 -0.0214 -0.0265
 7168SOL    HW133140   2.019   2.317   8.730 -1.2434 -0.5377  0.3735
 7168SOL    HW233141   2.157   2.334   8.759 -0.3218 -1.1881 -0.9922
 7169SOL     OW33142   2.997   2.837   4.694 -0.1015  0.1511 -0.2326
 7169SOL    HW133143   3.017   2.927   4.718  1.7588 -0.0432 -1.0630
 7169SOL    HW233144   2.951   2.857   4.613 -0.1403 -0.2162 -0.3041
 7170SOL     OW33145   3.941   0.717   6.127 -0.0440  0.1021  0.0688
 7170SOL    HW133146   3.955   0.811   6.137 -0.4409  0.2639 -1.0208
 7170SOL    HW233147   3.855   0.724   6.086  0.2112  1.6258 -0.2075
 7171SOL     OW33148   4.216   2.195   9.216 -0.6319  0.4701 -0.7974
 7171SOL    HW133149   4.138   2.213   9.269 -0.2197  0.5201 -0.2096
 7171SOL    HW233150   4.184   2.111   9.183  0.5506  0.6694 -2.4602
 7172SOL     OW33151   2.684   0.010  10.127  0.1350 -0.1873  0.3300
 7172SOL    HW133152   2.733   4.675  10.162  2.9020  1.8796  0.7807
 7172SOL    HW233153   2.703   0.083  10.185 -0.8356 -0.3815  0.8929
 7173SOL     OW33154   4.137   2.406  14.609  0.2355  0.5267 -0.2137
 7173SOL    HW133155   4.114   2.492  14.572  0.9225  1.6519  2.0262
 7173SOL    HW233156   4.099   2.342  14.548 -1.6619  2.3015 -0.9157
 7174SOL     OW33157   2.733   2.525   2.751 -0.2095 -0.0620  0.2350
 7174SOL    HW133158   2.755   2.615   2.775 -0.8603 -0.4249  2.2448
 7174SOL    HW233159   2.774   2.514   2.666  0.1495 -2.2344  0.6806
 7175SOL     OW33160   4.497   4.115  16.911 -0.0294 -0.2783  0.0628
 7175SOL    HW133161   4.415   4.153  16.944 -0.1107 -1.7392  1.5388
 7175SOL    HW233162   4.477   4.022  16.902  0.7870 -0.1789 -2.7675
 7176SOL     OW33163   3.237   1.839  17.113  0.4392  0.3393 -0.6182
 7176SOL    HW133164   3.202   1.899  17.178  1.5326  0.1389  0.1587
 7176SOL    HW233165   3.169   1.844  17.046  0.0997  1.2432 -0.2040
 7177SOL     OW33166   4.714   4.330   2.409  0.2539 -0.4411 -0.0108
 7177SOL    HW133167   4.630   4.375   2.401 -0.9021 -2.6217 -0.1594
 7177SOL    HW233168   4.712   4.295   2.498  0.7088  1.1176  0.6193
 7178SOL     OW33169   2.818   2.448   4.154  0.1455 -0.3736  0.5339
 7178SOL    HW133170   2.904   2.417   4.185  0.3441 -0.6052 -0.2416
 7178SOL    HW233171   2.834   2.538   4.125 -0.5675 -0.7726 -1.0758
 7179SOL     OW33172   2.306   0.812   1.579 -0.2385 -0.3833  0.5976
 7179SOL    HW133173   2.334   0.732   1.535  0.5857  0.7694 -0.9985
 7179SOL    HW233174   2.229   0.836   1.527 -0.3529 -0.9680  0.4944
 7180SOL     OW33175   4.030   3.689   5.733 -0.0052 -0.3880  0.0358
 7180SOL    HW133176   3.972   3.701   5.808 -1.9861  1.7537 -1.8489
 7180SOL    HW233177   4.118   3.716   5.760 -0.7944  1.5790  0.6665
 7181SOL     OW33178   1.473   0.035   7.358  0.0814 -0.0864 -0.3761
 7181SOL    HW133179   1.544   0.037   7.423 -1.1015  1.2154  0.8766
 7181SOL    HW233180   1.439   0.125   7.362 -1.0131 -0.4519 -1.6302
 7182SOL     OW33181   1.596   0.098   4.471 -0.1021  0.5303  0.2704
 7182SOL    HW133182   1.635   0.158   4.408 -0.6981  0.6953  0.0616
 7182SOL    HW233183   1.523   0.063   4.421  0.6239 -1.1473  0.3741
 7183SOL     OW33184   4.092   0.878   0.141 -0.2605 -0.3861 -0.5343
 7183SOL    HW133185   4.028   0.937   0.181  0.1499  0.0284 -0.4887
 7183SOL    HW233186   4.138   0.856   0.221 -0.0992 -0.6377 -0.6980
 7184SOL     OW33187   3.236   3.468  14.725 -0.3572  0.4813 -0.2397
 7184SOL    HW133188   3.156   3.418  14.743  0.7203 -1.1830 -0.0373
 7184SOL    HW233189   3.215   3.495  14.635 -0.3917  0.3129 -0.2823
 7185SOL     OW33190   0.918   2.539   4.820 -0.4088 -0.0272  0.5028
 7185SOL    HW133191   0.980   2.483   4.868  0.6931 -0.1816 -1.0812
 7185SOL    HW233192   0.897   2.600   4.891  1.2464 -0.0740  1.0567
 7186SOL     OW33193   2.288   3.158   6.288 -0.2998 -0.2840 -0.0016
 7186SOL    HW133194   2.224   3.105   6.335  0.0063 -1.9662 -1.4698
 7186SOL    HW233195   2.303   3.227   6.353 -0.3492 -0.3147  0.0425
 7187SOL     OW33196   4.135   1.993   2.311 -0.0583 -0.6066 -0.0133
 7187SOL    HW133197   4.112   1.904   2.286  0.8892 -1.3017  1.5200
 7187SOL    HW233198   4.073   2.044   2.260 -0.3169 -0.1165  0.7929
 7188SOL     OW33199   1.951   3.796   2.195 -0.2038 -0.3317  0.0114
 7188SOL    HW133200   1.886   3.842   2.249 -2.0990 -1.6649 -1.1169
 7188SOL    HW233201   1.902   3.714   2.189 -2.5925  1.1357 -0.6213
 7189SOL     OW33202   4.107   2.838   6.698 -0.3241 -0.0972 -0.2734
 7189SOL    HW133203   4.059   2.765   6.658 -1.7975 -0.2360  1.7395
 7189SOL    HW233204   4.105   2.897   6.623  1.8930  1.0652  0.5912
 7190SOL     OW33205   0.963   0.310   3.477  0.3063  0.1702  0.2577
 7190SOL    HW133206   1.014   0.258   3.415 -0.9411 -0.6591 -0.0641
 7190SOL    HW233207   0.881   0.261   3.478  1.0576 -1.1175 -1.4616
 7191SOL     OW33208   3.856   3.028   7.383  0.0524 -0.1082  0.1445
 7191SOL    HW133209   3.935   3.053   7.430  0.3496 -0.9535  0.0884
 7191SOL    HW233210   3.842   3.110   7.335  0.5564  0.3225  0.7353
 7192SOL     OW33211   1.897   0.877   7.667 -0.0737  0.0349  0.0836
 7192SOL    HW133212   1.856   0.802   7.709  0.4140 -0.3446 -0.1212
 7192SOL    HW233213   1.982   0.839   7.689  0.1858 -0.5972 -2.0845
 7193SOL     OW33214   4.052   0.782   3.673 -0.5485 -0.4804 -0.0358
 7193SOL    HW133215   4.047   0.718   3.744 -0.3048 -1.3107 -0.7650
 7193SOL    HW233216   3.962   0.781   3.640  0.0083  0.3751 -1.5438
 7194SOL     OW33217   3.618   1.706  10.455 -0.1411  0.2716  0.2860
 7194SOL    HW133218   3.615   1.679  10.363 -0.1155 -0.2988  0.4507
 7194SOL    HW233219   3.548   1.660  10.502 -0.6241 -0.2742 -0.9586
 7195SOL     OW33220   0.302   1.997  16.739  0.2041 -0.4671  0.6231
 7195SOL    HW133221   0.286   1.912  16.780  1.0436 -0.6823  0.5171
 7195SOL    HW233222   0.343   1.959  16.660  1.0049  1.5032  0.0882
 7196SOL     OW33223   4.208   1.256   9.778 -0.6183 -0.3856  0.1638
 7196SOL    HW133224   4.256   1.212   9.848 -0.3072 -0.1133  0.1175
 7196SOL    HW233225   4.153   1.308   9.837 -2.0132 -2.5220  0.7638
 7197SOL     OW33226   0.971   4.017   7.109 -0.1023 -0.2501 -0.4063
 7197SOL    HW133227   0.971   3.965   7.189  2.5596  0.3760 -0.0003
 7197SOL    HW233228   1.005   4.099   7.145  0.7161 -1.5432  1.7819
 7198SOL     OW33229   3.751   3.924   1.223  0.0898  0.1841 -0.3634
 7198SOL    HW133230   3.784   3.859   1.286  0.0436 -0.5087 -1.0552
 7198SOL    HW233231   3.777   4.014   1.242 -2.3005  0.9414 -0.7872
 7199SOL     OW33232   2.081   0.980   8.809  0.2081 -0.4437  0.4778
 7199SOL    HW133233   2.022   0.956   8.737  0.3897  1.7064 -0.3830
 7199SOL    HW233234   2.102   1.072   8.791 -1.1555 -0.5207 -1.5324
 7200SOL     OW33235   0.135   2.402   6.766  0.0542  0.4518 -0.2926
 7200SOL    HW133236   0.118   2.492   6.738 -2.1107  0.0740 -0.2392
 7200SOL    HW233237   0.109   2.400   6.858  1.5904  1.8180  0.1521
 7201SOL     OW33238   2.034   0.312   0.249 -0.0373 -0.1753 -0.1802
 7201SOL    HW133239   2.105   0.343   0.193  0.7506 -0.4290  0.6889
 7201SOL    HW233240   2.012   0.391   0.299  0.7108 -1.1003  1.5919
 7202SOL     OW33241   3.823   2.238  16.635  0.3594 -0.4249 -0.4703
 7202SOL    HW133242   3.810   2.333  16.636  0.5740 -0.4126  1.0972
 7202SOL    HW233243   3.836   2.225  16.541  1.0132 -1.7690 -0.1939
 7203SOL     OW33244   1.736   0.756   6.129  0.3616  0.7887  0.4333
 7203SOL    HW133245   1.691   0.682   6.170 -1.3336  0.7049 -1.5780
 7203SOL    HW233246   1.776   0.809   6.198  0.9443 -0.5593  1.1333
 7204SOL     OW33247   3.887   2.472   0.646  0.4119 -0.1181  0.4899
 7204SOL    HW133248   3.955   2.538   0.633 -0.5545  0.6879 -0.5037
 7204SOL    HW233249   3.913   2.392   0.599  1.3204  0.7766 -0.5158
 7205SOL     OW33250   0.101   3.763   5.442 -0.4486  0.4523  0.8440
 7205SOL    HW133251   0.129   3.851   5.466 -2.0994  2.0331 -2.9752
 7205SOL    HW233252   0.130   3.712   5.517  1.5174  1.4300  0.7676
 7206SOL     OW33253   3.708   2.521  15.253 -0.1716  0.1862  0.2767
 7206SOL    HW133254   3.747   2.597  15.296  0.4307  1.4806 -2.5934
 7206SOL    HW233255   3.772   2.455  15.278 -1.1959 -0.2029  1.8909
 7207SOL     OW33256   0.178   2.390   7.429 -0.3314  0.6018  0.1985
 7207SOL    HW133257   0.180   2.323   7.361  0.5613  0.4313  0.3983
 7207SOL    HW233258   0.267   2.424   7.421  0.9710 -2.4391  1.9444
 7208SOL     OW33259   2.008   0.682   0.310 -0.1386  0.0258 -0.5208
 7208SOL    HW133260   2.004   0.666   0.216  0.4064 -1.0329 -0.3746
 7208SOL    HW233261   1.966   0.768   0.314 -3.8575 -1.6182 -4.1061
 7209SOL     OW33262   4.557   0.465   5.325  0.2962 -0.3903  0.1555
 7209SOL    HW133263   4.542   0.488   5.233 -0.0008 -0.9198  0.0734
 7209SOL    HW233264   4.511   0.382   5.337 -3.3795  1.6280  0.0123
 7210SOL     OW33265   4.162   3.021   2.958  0.2691  0.0683 -0.1504
 7210SOL    HW133266   4.081   2.991   3.000  0.6944 -2.5785 -1.2282
 7210SOL    HW233267   4.218   3.045   3.032 -0.6634  1.0138  0.2500
 7211SOL     OW33268   3.293   0.730   5.121 -0.2941  0.2488 -0.4374
 7211SOL    HW133269   3.382   0.718   5.087 -0.6091 -0.9433 -0.8498
 7211SOL    HW233270   3.259   0.785   5.051  1.7706  0.2375 -1.4534
 7212SOL     OW33271   2.373   3.769  12.429  0.3905 -0.0683  0.5220
 7212SOL    HW133272   2.355   3.680  12.459 -0.9516 -0.3432 -1.0743
 7212SOL    HW233273   2.382   3.760  12.334 -1.4603 -1.3438  0.4632
 7213SOL     OW33274   1.537   4.262   5.352  0.0555  0.7914 -0.1971
 7213SOL    HW133275   1.511   4.297   5.437 -0.9591 -3.1084  1.0823
 7213SOL    HW233276   1.632   4.274   5.358  0.1020 -0.6457  1.8793
 7214SOL     OW33277   2.595   1.350   0.857  0.5193 -0.2950 -0.5992
 7214SOL    HW133278   2.550   1.265   0.854 -0.2250  0.1231 -1.4415
 7214SOL    HW233279   2.619   1.347   0.764  1.0022 -1.6748 -0.4308
 7215SOL     OW33280   0.087   2.284  13.468  0.3063  0.5986 -0.6765
 7215SOL    HW133281   0.017   2.242  13.417 -0.1237 -1.5041  1.6017
 7215SOL    HW233282   0.143   2.210  13.492 -2.1360 -1.6265 -1.8598
 7216SOL     OW33283   3.595   2.337   7.519 -0.2536  0.4297  0.5317
 7216SOL    HW133284   3.602   2.431   7.503 -0.1207  0.2482 -0.4791
 7216SOL    HW233285   3.603   2.325   7.613 -0.5901 -4.0055 -0.0219
 7217SOL     OW33286   3.061   1.502   0.769 -0.1414  0.6800  0.1854
 7217SOL    HW133287   2.987   1.530   0.823 -3.1130 -1.5373 -2.6831
 7217SOL    HW233288   2.999   1.445   0.724 -0.3335  1.3578 -0.3994
 7218SOL     OW33289   2.122   0.880  16.735  0.1886  0.1075 -0.2073
 7218SOL    HW133290   2.094   0.812  16.797 -1.1144  0.5416 -0.3149
 7218SOL    HW233291   2.180   0.934  16.787 -0.3681 -0.0835  0.6196
 7219SOL     OW33292   2.074   1.886   6.885 -0.1185 -0.1834 -0.8118
 7219SOL    HW133293   2.095   1.870   6.977 -2.7712  0.3335 -0.1376
 7219SOL    HW233294   2.028   1.805   6.862  0.1624 -0.6117  0.1418
 7220SOL     OW33295   3.788   3.613   9.807 -0.0731 -0.5034 -0.3667
 7220SOL    HW133296   3.706   3.632   9.851 -1.1252 -0.4390 -2.3421
 7220SOL    HW233297   3.835   3.575   9.881 -1.2553  1.5342  1.4082
 7221SOL     OW33298   3.842   3.622  13.027  0.1965 -0.1478  0.6644
 7221SOL    HW133299   3.887   3.554  12.976  0.1845 -0.0707  0.5523
 7221SOL    HW233300   3.766   3.644  12.973  0.0501 -0.9887  0.5233
 7222SOL     OW33301   2.897   2.141   3.339  0.4718 -0.1622  0.8169
 7222SOL    HW133302   2.812   2.098   3.343  0.2713  0.1331 -0.3972
 7222SOL    HW233303   2.924   2.137   3.431 -1.7737 -2.2141  1.3725
 7223SOL     OW33304   3.633   4.271   3.140 -0.0091 -0.3833  0.0539
 7223SOL    HW133305   3.552   4.252   3.093  0.5799  0.1014 -1.1668
 7223SOL    HW233306   3.605   4.256   3.231 -1.8433 -1.1002 -0.6268
 7224SOL     OW33307   3.792   1.809   2.853 -0.8314  0.0616 -0.3446
 7224SOL    HW133308   3.742   1.823   2.773 -0.3486  2.5411 -0.2092
 7224SOL    HW233309   3.842   1.728   2.842  0.7669  1.0273 -0.1802
 7225SOL     OW33310   4.362   0.188   9.521  0.1492 -0.2886  0.3345
 7225SOL    HW133311   4.313   0.220   9.598  0.3278  1.1070 -0.1265
 7225SOL    HW233312   4.295   0.170   9.456 -0.3648  0.4158  0.6637
 7226SOL     OW33313   3.927   0.354   5.236 -0.2611 -0.0682  0.4225
 7226SOL    HW133314   3.976   0.323   5.160 -1.1493  0.6019 -0.4147
 7226SOL    HW233315   3.911   0.265   5.266 -1.8524  0.9852  2.7254
 7227SOL     OW33316   2.149   4.677  13.252  0.0448 -0.6213  0.4343
 7227SOL    HW133317   2.057   4.651  13.261 -0.0967  0.2368  1.5171
 7227SOL    HW233318   2.174   4.633  13.171  2.3515  1.6180 -0.0570
 7228SOL     OW33319   4.197   3.476  13.325  0.5386 -0.4340  0.1745
 7228SOL    HW133320   4.161   3.388  13.319  0.9819 -0.5183 -1.1041
 7228SOL    HW233321   4.119   3.528  13.303  1.8181  0.5922 -1.8913
 7229SOL     OW33322   1.126   0.124   5.972 -0.1786 -0.4581  0.1523
 7229SOL    HW133323   1.114   0.204   6.021  0.4610 -0.5132  0.3877
 7229SOL    HW233324   1.194   0.143   5.907 -0.7741 -0.8745 -0.6058
 7230SOL     OW33325   1.047   1.139   3.193 -0.1912 -0.1405 -0.2098
 7230SOL    HW133326   1.012   1.223   3.224 -1.4567 -1.4661  1.9172
 7230SOL    HW233327   1.019   1.158   3.103 -1.8405 -1.0295  0.1119
 7231SOL     OW33328   1.543   0.016   8.697 -0.5325 -0.2834  0.1027
 7231SOL    HW133329   1.608   0.081   8.726  0.1073 -0.0734 -1.8130
 7231SOL    HW233330   1.503   0.056   8.621  0.0951 -0.1276 -0.1494
 7232SOL     OW33331   4.362   3.210   2.097 -0.1490  0.3271 -0.8353
 7232SOL    HW133332   4.363   3.122   2.134 -1.6323  0.9267  0.6114
 7232SOL    HW233333   4.452   3.238   2.112 -0.3285  0.5235 -0.1527
 7233SOL     OW33334   3.177   2.795   5.212  0.6460 -0.2144  0.4822
 7233SOL    HW133335   3.088   2.771   5.186  0.6112  1.4465 -0.9079
 7233SOL    HW233336   3.197   2.869   5.155 -1.1258  0.9354  1.3349
 7234SOL     OW33337   3.677   3.943   8.882 -0.0216  0.5168  0.7077
 7234SOL    HW133338   3.658   3.850   8.884 -0.6448  0.6610  1.4496
 7234SOL    HW233339   3.752   3.945   8.822 -1.4021  1.4325 -0.9962
 7235SOL     OW33340   2.168   0.901   7.796 -0.5629 -0.1386 -0.1257
 7235SOL    HW133341   2.232   0.962   7.833  0.9863 -0.8776 -1.5800
 7235SOL    HW233342   2.222   0.858   7.730 -0.4970  3.1798 -2.2375
 7236SOL     OW33343   0.938   3.508   4.147 -0.2863  0.4846 -0.0387
 7236SOL    HW133344   0.872   3.445   4.176 -0.3135  0.2111 -0.6919
 7236SOL    HW233345   1.018   3.456   4.149 -0.1393  0.8000  2.1860
 7237SOL     OW33346   2.956   4.115  16.874  0.5160  0.0170  0.4648
 7237SOL    HW133347   2.917   4.202  16.882 -0.2862 -0.2095 -1.0206
 7237SOL    HW233348   2.872   4.070  16.883 -0.0119  0.6370 -1.4389
 7238SOL     OW33349   3.336   3.492   3.190  0.4142 -0.0967  0.0399
 7238SOL    HW133350   3.350   3.486   3.096  0.9658 -0.1499  0.1214
 7238SOL    HW233351   3.275   3.565   3.193  1.2935  0.6671 -0.6914
 7239SOL     OW33352   2.183   4.128   5.966 -0.1392  0.1430  0.6394
 7239SOL    HW133353   2.185   4.041   6.006  0.5874  0.1181  0.5620
 7239SOL    HW233354   2.145   4.104   5.882  1.2840 -2.6760  0.7877
 7240SOL     OW33355   1.710   0.431  17.554 -0.1590 -0.2069  0.2266
 7240SOL    HW133356   1.707   0.519  17.515 -0.8721 -0.6540 -0.7477
 7240SOL    HW233357   1.632   0.388  17.520  0.2668 -1.5788  1.0047
 7241SOL     OW33358   4.399   2.718  13.417 -0.0191  1.0631 -0.0612
 7241SOL    HW133359   4.316   2.715  13.368  0.2585 -0.0306 -0.4543
 7241SOL    HW233360   4.375   2.797  13.467 -0.8090 -0.8934  2.6480
 7242SOL     OW33361   0.207   0.910   5.930 -0.1147  0.1219 -0.0601
 7242SOL    HW133362   0.258   0.912   6.011 -0.0666 -0.1182 -0.0839
 7242SOL    HW233363   0.130   0.859   5.955 -0.0204 -0.2149 -0.4494
 7243SOL     OW33364   4.593   0.306   9.677 -0.1436  0.0936  0.4948
 7243SOL    HW133365   4.523   0.254   9.638  0.2466 -1.3950  1.8157
 7243SOL    HW233366   4.638   0.256   9.745  0.0943 -1.2385 -0.6508
 7244SOL     OW33367   3.332   4.117   0.806 -0.2707 -0.3963  0.4257
 7244SOL    HW133368   3.311   4.107   0.713  1.5500  2.3725 -0.2720
 7244SOL    HW233369   3.247   4.120   0.850 -0.7509 -4.2739 -0.2285
 7245SOL     OW33370   4.029   1.433   4.519  0.1893  0.0805 -0.1792
 7245SOL    HW133371   4.104   1.388   4.557 -0.2344 -0.0601  0.4967
 7245SOL    HW233372   4.067   1.473   4.441 -1.4200  2.8387  0.4333
 7246SOL     OW33373   1.786   4.253   6.038  0.2072 -0.0596 -0.0473
 7246SOL    HW133374   1.743   4.179   6.080 -0.1494  0.2509  0.1387
 7246SOL    HW233375   1.804   4.218   5.951  1.6715 -0.5683  0.4596
 7247SOL     OW33376   0.044   0.613   6.900  0.0465 -0.4649  0.3121
 7247SOL    HW133377   0.005   0.525   6.897  4.2985 -2.2044 -3.9749
 7247SOL    HW233378   0.109   0.600   6.969 -0.2950 -0.6459  0.5978
 7248SOL     OW33379   3.202   4.126  15.265  0.2789 -0.0987 -0.0417
 7248SOL    HW133380   3.163   4.056  15.213  2.0920 -1.5524  0.5571
 7248SOL    HW233381   3.292   4.132  15.231 -0.0781  0.2073 -0.9423
 7249SOL     OW33382   3.349   1.855  10.676 -0.5496  0.2590 -0.6927
 7249SOL    HW133383   3.273   1.813  10.635 -1.2486  0.2395  0.6239
 7249SOL    HW233384   3.311   1.908  10.746 -0.8687 -0.8992  0.0169
 7250SOL     OW33385   0.120   4.227   5.674  0.2474 -0.1245  0.4892
 7250SOL    HW133386   0.199   4.190   5.635  1.2353  1.8834  0.5569
 7250SOL    HW233387   0.124   4.319   5.647 -0.5867 -0.7663 -1.8090
 7251SOL     OW33388   0.398   4.314   4.805 -0.0501 -0.6603 -1.0984
 7251SOL    HW133389   0.369   4.328   4.715  1.2523 -0.6628 -1.5223
 7251SOL    HW233390   0.485   4.355   4.807 -0.1785 -0.4876  0.7520
 7252SOL     OW33391   1.167   1.075   9.738  0.0062  0.0319  0.0398
 7252SOL    HW133392   1.136   1.132   9.668 -1.4133  1.8425  2.1660
 7252SOL    HW233393   1.156   0.988   9.699  0.7146  0.7144 -1.6941
 7253SOL     OW33394   2.966   3.069   1.221 -0.1462 -0.1124  0.4948
 7253SOL    HW133395   2.891   3.028   1.266 -0.8232  0.4227 -0.1601
 7253SOL    HW233396   2.924   3.153   1.203 -1.7155 -0.6665  1.5466
 7254SOL     OW33397   1.937   1.188  15.226 -0.4014  0.4599  0.0744
 7254SOL    HW133398   1.986   1.175  15.144  0.5486 -1.7838  0.9859
 7254SOL    HW233399   1.949   1.103  15.268  3.5627  1.2592  0.5701
 7255SOL     OW33400   4.271   0.762   0.352 -0.2721  0.3777 -0.3469
 7255SOL    HW133401   4.301   0.674   0.330  1.4133  1.2748 -1.6476
 7255SOL    HW233402   4.182   0.752   0.384 -0.6086 -0.6715 -1.5995
 7256SOL     OW33403   3.248   4.517  10.797 -0.1121  0.6542  0.0215
 7256SOL    HW133404   3.197   4.452  10.845  0.6785  0.6310  0.8459
 7256SOL    HW233405   3.330   4.470  10.781  0.4358  2.2268 -1.6880
 7257SOL     OW33406   0.325   4.071   1.972  0.2912  0.3392 -0.5838
 7257SOL    HW133407   0.288   4.082   1.885  0.1722 -0.6173 -0.6491
 7257SOL    HW233408   0.253   4.103   2.026 -0.7830 -2.6767 -0.2529
 7258SOL     OW33409   1.423   1.319   3.505  0.5657 -0.5902  0.4423
 7258SOL    HW133410   1.423   1.226   3.484 -1.7966 -0.4584 -0.1736
 7258SOL    HW233411   1.422   1.354   3.417 -2.8632 -0.3800  0.5769
 7259SOL     OW33412   4.112   3.349   5.668 -0.4886  0.7335  0.8453
 7259SOL    HW133413   4.163   3.317   5.743 -1.3322 -0.3051  0.9771
 7259SOL    HW233414   4.109   3.271   5.613 -0.7700  0.1438  1.6864
 7260SOL     OW33415   3.931   2.511   7.682 -0.1915  0.0955 -0.8776
 7260SOL    HW133416   3.896   2.423   7.696  1.3202 -0.1988  0.9957
 7260SOL    HW233417   3.903   2.556   7.762  1.5689 -1.1708  0.4351
 7261SOL     OW33418   2.520   1.967   6.771 -0.1949 -0.0337 -0.3181
 7261SOL    HW133419   2.583   1.917   6.720  2.7633  2.0459  1.3420
 7261SOL    HW233420   2.579   2.016   6.827 -1.8215  0.1572  1.2234
 7262SOL     OW33421   0.195   4.342   2.843 -0.3532 -0.2008 -0.0013
 7262SOL    HW133422   0.248   4.322   2.766  0.4564 -0.9900  0.7674
 7262SOL    HW233423   0.119   4.379   2.797  0.7455  0.8568 -0.9579
 7263SOL     OW33424   3.618   0.421   7.670 -0.7440  0.2169  0.0267
 7263SOL    HW133425   3.639   0.408   7.763 -2.1257 -0.8270  0.1984
 7263SOL    HW233426   3.697   0.469   7.644 -1.7917  1.4912 -0.7774
 7264SOL     OW33427   1.086   3.046   0.333  0.5559  0.6933 -0.4291
 7264SOL    HW133428   1.067   2.952   0.332 -0.0846  0.8247 -0.5295
 7264SOL    HW233429   1.065   3.070   0.243 -3.0262 -0.9857 -0.0613
 7265SOL     OW33430   2.530   0.226   5.900 -0.2620  0.4375 -0.5008
 7265SOL    HW133431   2.587   0.250   5.826  0.9287 -2.2984 -0.4402
 7265SOL    HW233432   2.528   0.131   5.905 -2.9215  0.4577 -1.1141
 7266SOL     OW33433   1.832   1.083   2.318  0.3905  0.1632  0.0448
 7266SOL    HW133434   1.838   1.056   2.410  1.3879  2.4477  0.6777
 7266SOL    HW233435   1.850   1.177   2.322  0.7574  0.1002 -0.1198
 7267SOL     OW33436   3.602   3.332   5.073 -0.3052 -0.2194 -0.4015
 7267SOL    HW133437   3.554   3.367   4.997  0.2782 -2.6213 -1.8959
 7267SOL    HW233438   3.525   3.291   5.111 -1.3593  2.6709  0.5684
 7268SOL     OW33439   0.606   1.841   3.675  0.7748 -0.3446 -0.6691
 7268SOL    HW133440   0.701   1.838   3.663  0.3173 -2.9341 -3.6057
 7268SOL    HW233441   0.585   1.774   3.610  2.6907 -2.0158  0.4659
 7269SOL     OW33442   1.740   4.406   8.427  0.6038 -0.4331  0.1572
 7269SOL    HW133443   1.779   4.364   8.504 -0.3285  1.3812  1.6079
 7269SOL    HW233444   1.799   4.373   8.358 -0.8833 -2.3469 -0.2066
 7270SOL     OW33445   3.023   4.562   5.843 -0.5803  0.0101 -0.1317
 7270SOL    HW133446   3.012   4.554   5.937  2.2488 -1.7784  0.0539
 7270SOL    HW233447   3.086   4.491   5.826 -0.3238  0.0797  0.5615
 7271SOL     OW33448   0.346   0.190  11.670  0.3248  0.3641  0.4293
 7271SOL    HW133449   0.403   0.224  11.601 -0.3769 -1.5333 -1.0981
 7271SOL    HW233450   0.332   0.100  11.639 -0.9729  0.0977  1.7592
 7272SOL     OW33451   0.276   1.470  14.931 -0.1084 -0.2248  0.4477
 7272SOL    HW133452   0.248   1.379  14.923 -0.3137  0.1109 -2.6059
 7272SOL    HW233453   0.340   1.481  14.861  2.3533  2.2707  3.0655
 7273SOL     OW33454   4.578   2.011   2.312 -0.6182  0.4210  0.4213
 7273SOL    HW133455   4.628   2.046   2.386 -1.0219 -0.8201  1.2796
 7273SOL    HW233456   4.528   1.940   2.353  1.4096 -0.6658  1.0029
 7274SOL     OW33457   4.147   1.917   3.307  0.0782 -0.3968 -0.3279
 7274SOL    HW133458   4.183   1.977   3.241 -0.4616  0.5604  0.2466
 7274SOL    HW233459   4.150   1.833   3.261 -0.9069 -0.0925 -0.9314
 7275SOL     OW33460   1.206   2.663   4.928 -0.3278  0.1500  0.0663
 7275SOL    HW133461   1.221   2.570   4.913 -0.4367  0.5424 -2.3827
 7275SOL    HW233462   1.215   2.671   5.023  1.9932 -0.2182 -0.1315
 7276SOL     OW33463   3.135   4.364   2.382  0.0287 -0.0320 -0.1963
 7276SOL    HW133464   3.185   4.426   2.435 -0.3861  1.1088 -1.1649
 7276SOL    HW233465   3.206   4.320   2.334  1.1184 -1.5396  2.7286
 7277SOL     OW33466   0.448   2.560   4.060  1.0002 -0.5036 -0.2878
 7277SOL    HW133467   0.488   2.473   4.068  0.8853 -0.5633 -0.3533
 7277SOL    HW233468   0.362   2.539   4.024  1.1768  0.3840 -1.2205
 7278SOL     OW33469   1.425   4.179   3.176  0.3146  0.1512 -0.0527
 7278SOL    HW133470   1.515   4.192   3.146  0.6983 -2.7251 -0.0757
 7278SOL    HW233471   1.411   4.086   3.163  1.5204  0.0351 -0.5408
 7279SOL     OW33472   0.831   1.463  16.766 -0.8637  0.5943 -0.4667
 7279SOL    HW133473   0.755   1.515  16.791 -0.0349  1.3744  0.4543
 7279SOL    HW233474   0.777   1.397  16.722 -1.2250 -0.4628  1.5820
 7280SOL     OW33475   3.849   2.262   8.235  0.2413  0.6712 -0.1268
 7280SOL    HW133476   3.774   2.294   8.286 -0.2556  0.3285 -0.6328
 7280SOL    HW233477   3.889   2.193   8.287 -2.0689  1.0092  2.1130
 7281SOL     OW33478   2.456   2.382   7.423 -0.1038  0.8985 -0.4423
 7281SOL    HW133479   2.366   2.404   7.402 -1.0541  0.0856  2.7377
 7281SOL    HW233480   2.476   2.448   7.490 -0.4181  0.0980  0.4484
 7282SOL     OW33481   2.930   2.286  13.063 -0.3440  0.1006  0.0322
 7282SOL    HW133482   2.995   2.341  13.108 -0.5262  0.7877 -0.5468
 7282SOL    HW233483   2.855   2.346  13.069 -0.5892 -0.0216 -1.9248
 7283SOL     OW33484   3.823   2.587   5.407  0.2882 -0.2933  0.0638
 7283SOL    HW133485   3.758   2.635   5.459  0.8832  2.1995 -1.4687
 7283SOL    HW233486   3.885   2.560   5.475  0.7832  0.6897  0.0067
 7284SOL     OW33487   0.859   3.388   9.216  0.5149 -0.5350 -0.0803
 7284SOL    HW133488   0.937   3.349   9.177  0.2274  1.5552 -2.7080
 7284SOL    HW233489   0.889   3.479   9.218 -2.0480  0.2723  2.1416
 7285SOL     OW33490   0.009   2.712  12.156  0.1227  0.1693 -0.1821
 7285SOL    HW133491   4.666   2.683  12.117  0.3780 -0.3917 -0.2915
 7285SOL    HW233492   0.066   2.636  12.151 -0.0772  0.1914 -2.3966
 7286SOL     OW33493   1.322   3.543   7.897  0.0003  0.2933 -0.4075
 7286SOL    HW133494   1.355   3.481   7.832 -0.7164 -0.1092 -0.3953
 7286SOL    HW233495   1.226   3.543   7.895  0.0334  0.0266 -1.7212
 7287SOL     OW33496   4.461   2.276   8.075  0.4754 -0.3119 -0.1335
 7287SOL    HW133497   4.472   2.328   8.155  1.1258  1.0321 -1.0869
 7287SOL    HW233498   4.549   2.283   8.036  0.9678 -1.9543  0.6929
 7288SOL     OW33499   2.837   0.849  15.772 -0.1639  0.0622 -0.0135
 7288SOL    HW133500   2.916   0.811  15.810 -1.9299 -1.8593  1.6709
 7288SOL    HW233501   2.880   0.915  15.718  0.2640 -1.2693 -1.2975
 7289SOL     OW33502   4.044   4.736   9.078  0.1250 -0.6030 -0.5101
 7289SOL    HW133503   3.984   0.067   9.104  0.1363 -0.5087 -0.7354
 7289SOL    HW233504   3.987   4.690   9.016 -2.0756  1.2021  0.1670
 7290SOL     OW33505   2.617   1.187   5.100  0.6422  0.4926  0.4629
 7290SOL    HW133506   2.606   1.222   5.011  3.2020  2.1548  0.8052
 7290SOL    HW233507   2.534   1.139   5.092  1.3982 -0.5445 -1.1173
 7291SOL     OW33508   3.952   2.388   8.580  0.2680  0.2625 -0.7124
 7291SOL    HW133509   3.969   2.468   8.530 -2.0552  1.0040 -0.3345
 7291SOL    HW233510   3.953   2.319   8.514 -0.4056 -1.8349  1.4496
 7292SOL     OW33511   2.323   2.850  16.447 -0.3901  0.4423  0.2008
 7292SOL    HW133512   2.325   2.851  16.543  0.6956  1.4938  0.1745
 7292SOL    HW233513   2.228   2.850  16.443 -0.3866 -0.8731 -0.0223
 7293SOL     OW33514   1.212   0.515   7.476 -0.4744  0.4750  0.0853
 7293SOL    HW133515   1.143   0.453   7.502 -0.6775  0.3189 -0.8453
 7293SOL    HW233516   1.244   0.538   7.564  0.4923 -2.6569  0.5912
 7294SOL     OW33517   1.115   1.843   8.363  0.3242 -0.1479  0.0581
 7294SOL    HW133518   1.072   1.760   8.383  0.3527 -0.2990 -0.5313
 7294SOL    HW233519   1.109   1.864   8.270 -0.8956 -1.0419 -0.0527
 7295SOL     OW33520   0.209   2.669   6.048 -0.6832 -0.2945  0.1075
 7295SOL    HW133521   0.257   2.598   6.006  0.1205  0.0095  0.5139
 7295SOL    HW233522   0.151   2.707   5.981  0.1894  3.0978  1.2538
 7296SOL     OW33523   1.646   4.296   8.055  0.5732 -0.7284  0.0864
 7296SOL    HW133524   1.674   4.205   8.042  1.4655 -0.2893 -1.0650
 7296SOL    HW233525   1.570   4.298   7.996  0.9431  2.6689 -0.2894
 7297SOL     OW33526   3.134   0.889   3.821 -0.0716  0.6973  0.0173
 7297SOL    HW133527   3.214   0.864   3.775  2.1300  1.1848  3.5403
 7297SOL    HW233528   3.157   0.887   3.914 -0.6507 -0.1791  0.1448
 7298SOL     OW33529   4.404   1.851  15.577 -0.4918 -0.1815 -0.5637
 7298SOL    HW133530   4.330   1.791  15.589 -1.1193  0.9210  1.1356
 7298SOL    HW233531   4.438   1.835  15.665 -1.5657  2.0123  0.2449
 7299SOL     OW33532   0.104   0.738   3.804  0.3569 -0.3258 -0.0432
 7299SOL    HW133533   0.100   0.691   3.887 -2.0969  0.9713  0.5797
 7299SOL    HW233534   0.058   0.678   3.746  2.7311 -0.8992 -1.3279
 7300SOL     OW33535   4.149   2.948   2.409  0.7874  0.2030  0.3880
 7300SOL    HW133536   4.108   2.884   2.467  0.1161  0.2315 -0.0582
 7300SOL    HW233537   4.124   3.024   2.462 -2.8828 -1.1462  0.5964
 7301SOL     OW33538   2.683   1.200   6.507  0.0391  0.0574 -0.2380
 7301SOL    HW133539   2.626   1.249   6.566 -1.3028 -1.1403 -0.5528
 7301SOL    HW233540   2.641   1.114   6.509 -0.8683  0.5325  0.8689
 7302SOL     OW33541   0.259   1.954   5.702  0.7721  0.1854 -0.1725
 7302SOL    HW133542   0.310   1.961   5.783  2.5176  0.5407 -1.2960
 7302SOL    HW233543   0.178   1.919   5.739  1.2735 -1.2517 -0.4445
 7303SOL     OW33544   1.336   3.063   0.551 -0.1069  0.1470 -0.1248
 7303SOL    HW133545   1.268   3.055   0.618 -0.9614  1.9113 -0.7955
 7303SOL    HW233546   1.333   3.157   0.536  2.3998  0.2255 -0.1066
 7304SOL     OW33547   0.106   0.606   8.019 -0.0795  0.3177  0.1277
 7304SOL    HW133548   0.132   0.669   7.952 -0.6416  1.1544  0.6927
 7304SOL    HW233549   0.080   0.531   7.967 -0.8013 -0.2216  1.2636
 7305SOL     OW33550   4.514   0.888   1.575  0.5178 -0.2425  0.3599
 7305SOL    HW133551   4.553   0.967   1.613 -0.3441  0.4108 -0.1127
 7305SOL    HW233552   4.560   0.888   1.490 -0.1216  2.4804  0.0017
 7306SOL     OW33553   3.805   0.776   7.161  0.1894  0.2649 -0.2425
 7306SOL    HW133554   3.790   0.870   7.170 -2.0890 -0.0985 -0.1361
 7306SOL    HW233555   3.891   0.773   7.203  0.0823 -2.2941 -0.1853
 7307SOL     OW33556   2.106   4.437   8.760 -0.0541 -0.5546  0.1400
 7307SOL    HW133557   2.042   4.402   8.823  1.0827  0.3658  1.7819
 7307SOL    HW233558   2.145   4.504   8.815 -0.9308 -0.7492  1.0125
 7308SOL     OW33559   0.841   0.389   9.713  0.2235  0.3753  0.0739
 7308SOL    HW133560   0.876   0.310   9.754  0.5304  0.4145 -0.1158
 7308SOL    HW233561   0.822   0.368   9.622 -0.5525  1.7545 -0.0845
 7309SOL     OW33562   3.842   2.164  14.184  0.0933  0.0984  0.0233
 7309SOL    HW133563   3.761   2.173  14.135  0.5498 -0.1471 -0.7782
 7309SOL    HW233564   3.834   2.219  14.262 -0.9594 -0.2512  0.1548
 7310SOL     OW33565   0.785   3.339   5.010  0.1431 -0.1564  0.3911
 7310SOL    HW133566   0.712   3.396   4.984 -0.4626 -1.8166 -1.5897
 7310SOL    HW233567   0.751   3.251   4.994 -1.0144 -0.0830  2.4820
 7311SOL     OW33568   3.522   1.538   3.374 -0.1138  0.3091 -0.0552
 7311SOL    HW133569   3.466   1.607   3.409 -1.1975  0.0629 -1.3009
 7311SOL    HW233570   3.562   1.588   3.304  1.6396 -0.3045  0.5146
 7312SOL     OW33571   3.579   1.467  11.302 -0.6937  0.2087  0.5333
 7312SOL    HW133572   3.638   1.488  11.374 -0.6496  2.6753 -0.2376
 7312SOL    HW233573   3.648   1.459  11.236 -1.8692  1.9992 -0.9196
 7313SOL     OW33574   1.959   1.436   2.650  0.4124  0.1838 -0.4158
 7313SOL    HW133575   1.870   1.425   2.616  0.2687  0.0538  0.0049
 7313SOL    HW233576   1.934   1.412   2.739  2.0901  0.2895  0.0748
 7314SOL     OW33577   2.018   0.782  10.680 -0.0624  0.4411 -0.3118
 7314SOL    HW133578   1.958   0.851  10.652  0.1405  0.1831 -1.3631
 7314SOL    HW233579   2.100   0.826  10.658  0.8332 -0.4186  1.3012
 7315SOL     OW33580   1.289   0.166  10.237 -0.1873 -0.6167 -0.5114
 7315SOL    HW133581   1.244   0.110  10.175 -1.3036  1.0048 -1.1508
 7315SOL    HW233582   1.221   0.232  10.247  1.3424  0.8409  0.2728
 7316SOL     OW33583   3.312   2.398   9.940  0.6772  0.1112  0.0989
 7316SOL    HW133584   3.308   2.457   9.865  2.1533 -0.9396 -0.8248
 7316SOL    HW233585   3.402   2.423   9.963  0.7432 -1.0039  1.0668
 7317SOL     OW33586   2.650   0.960   8.957 -0.4678 -0.1097 -0.3054
 7317SOL    HW133587   2.591   0.892   8.988 -0.7985 -0.3512 -1.4743
 7317SOL    HW233588   2.634   1.023   9.027  2.1161  0.4459 -0.2106
 7318SOL     OW33589   4.286   4.171   2.631 -0.1249  0.1901 -0.1720
 7318SOL    HW133590   4.245   4.233   2.691 -2.9028 -2.4858  0.6956
 7318SOL    HW233591   4.314   4.105   2.694 -2.4187 -0.9096 -0.3089
 7319SOL     OW33592   4.400   1.282  17.011 -0.3307 -0.0071  0.2118
 7319SOL    HW133593   4.392   1.232  17.092  0.3808 -0.3730  0.0572
 7319SOL    HW233594   4.427   1.370  17.040  1.9076  0.3222 -2.9213
 7320SOL     OW33595   2.846   0.634   8.910 -0.0645 -0.5311 -0.1200
 7320SOL    HW133596   2.851   0.719   8.954  0.2158 -0.1939 -0.8082
 7320SOL    HW233597   2.926   0.631   8.858  1.1164 -1.4170  1.7697
 7321SOL     OW33598   2.232   1.045   4.721 -0.0429  0.3386 -0.0942
 7321SOL    HW133599   2.165   1.008   4.664  0.7923 -2.2525  0.6009
 7321SOL    HW233600   2.181   1.124   4.739  0.7149  1.4534 -2.8436
 7322SOL     OW33601   0.274   1.904   8.977 -1.4650  0.6073  0.1412
 7322SOL    HW133602   0.356   1.944   9.005 -0.5192 -0.3493 -1.2832
 7322SOL    HW233603   0.292   1.816   9.007  0.2465  1.2143  0.8786
 7323SOL     OW33604   0.919   2.023   4.418 -0.0241 -0.0456  0.1410
 7323SOL    HW133605   0.825   2.034   4.432 -0.0641  2.1892 -1.8257
 7323SOL    HW233606   0.924   1.929   4.433  1.6396  0.2154  1.1586
 7324SOL     OW33607   0.047   4.034   2.358  0.2988  0.3180 -0.2002
 7324SOL    HW133608   4.705   4.073   2.390  0.0667  0.4580 -0.9395
 7324SOL    HW233609   0.040   3.940   2.372 -0.3061  0.3764 -0.1104
 7325SOL     OW33610   0.454   3.107   1.762 -0.4155 -0.3294  0.3065
 7325SOL    HW133611   0.479   3.162   1.687 -0.8313 -2.6860 -1.5731
 7325SOL    HW233612   0.538   3.064   1.777 -0.9371 -1.6459 -0.6015
 7326SOL     OW33613   4.122   4.382  17.647  0.6333  0.1232 -0.1994
 7326SOL    HW133614   4.139   4.474  17.667  1.2600 -0.1992  0.7234
 7326SOL    HW233615   4.071   4.387  17.566  0.9169  1.7357 -0.2806
 7327SOL     OW33616   1.426   1.832   3.134  0.0603  0.3859 -0.5040
 7327SOL    HW133617   1.481   1.910   3.141 -0.7513  0.8718  0.4553
 7327SOL    HW233618   1.467   1.778   3.202  0.0370  0.4290 -0.4552
 7328SOL     OW33619   2.276   2.810  10.030  0.5131  0.1848  0.2621
 7328SOL    HW133620   2.193   2.762  10.028  0.1000  0.8962  0.2702
 7328SOL    HW233621   2.328   2.738  10.065  0.7307  0.8380  1.2958
 7329SOL     OW33622   2.504   4.340  15.990  0.3528  0.4602 -0.1236
 7329SOL    HW133623   2.449   4.381  15.923 -0.7025 -0.8876 -0.0847
 7329SOL    HW233624   2.433   4.303  16.043  1.3303  1.3172  1.7708
 7330SOL     OW33625   4.010   2.033   6.471  0.3369 -0.5207  0.1250
 7330SOL    HW133626   3.979   2.037   6.380  2.1286  1.3013 -0.4027
 7330SOL    HW233627   3.948   1.974   6.514  1.0006 -0.4019  1.2266
 7331SOL     OW33628   0.386   0.122  14.154 -0.2955  0.3746  0.6431
 7331SOL    HW133629   0.332   0.111  14.076  1.5662  1.3880 -0.8158
 7331SOL    HW233630   0.419   0.212  14.141 -0.8978  0.6101  0.7729
 7332SOL     OW33631   2.015   1.543   0.829 -0.4293 -0.0478 -0.3350
 7332SOL    HW133632   2.094   1.503   0.795 -0.8819 -1.7727  0.6436
 7332SOL    HW233633   2.008   1.621   0.774 -1.9736  1.1698  1.5356
 7333SOL     OW33634   1.373   4.626  11.926  0.6140  0.4073  0.1868
 7333SOL    HW133635   1.462   4.633  11.959  0.8194  2.1534 -0.6994
 7333SOL    HW233636   1.316   4.620  12.003 -0.0174  4.6192  0.0822
 7334SOL     OW33637   2.492   4.402   8.941 -0.0348 -0.2040 -0.2675
 7334SOL    HW133638   2.504   4.377   8.849 -0.0678  1.1033 -0.6385
 7334SOL    HW233639   2.508   4.320   8.987  0.7690  0.1308  0.0470
 7335SOL     OW33640   3.091   2.326   3.226 -0.3250 -0.3051 -0.1418
 7335SOL    HW133641   3.091   2.317   3.131 -1.0410  1.7111 -0.3371
 7335SOL    HW233642   3.018   2.267   3.245 -0.0169 -0.2785  1.1439
 7336SOL     OW33643   0.181   2.910  16.812  1.0279  0.0154  0.2778
 7336SOL    HW133644   0.221   2.992  16.842 -1.0164  1.5978 -1.3183
 7336SOL    HW233645   0.261   2.859  16.799 -0.3541 -3.2406  4.6807
 7337SOL     OW33646   1.495   0.192   2.323  0.2836 -0.0544 -0.0654
 7337SOL    HW133647   1.453   0.121   2.275 -0.7824  0.1904  0.5126
 7337SOL    HW233648   1.532   0.141   2.395 -1.3069  0.0932  0.8628
 7338SOL     OW33649   4.729   3.414   6.029 -0.2197 -0.2550 -0.1373
 7338SOL    HW133650   4.714   3.491   5.974  2.0445  0.1287 -0.2326
 7338SOL    HW233651   0.019   3.344   5.970  0.1829  1.9051 -2.5188
 7339SOL     OW33652   2.747   3.331   0.587  0.6603 -0.1263 -0.2195
 7339SOL    HW133653   2.778   3.391   0.520 -1.4243  2.4911  1.1257
 7339SOL    HW233654   2.738   3.390   0.662  0.6615  0.5353 -0.7389
 7340SOL     OW33655   0.388   3.443   8.337  0.6937  0.1284 -0.2796
 7340SOL    HW133656   0.391   3.532   8.302 -1.8616  0.8898  1.5080
 7340SOL    HW233657   0.359   3.453   8.427  0.4146 -0.1589 -0.3389
 7341SOL     OW33658   1.953   4.521  15.968  0.6312 -0.0457  0.0679
 7341SOL    HW133659   1.981   4.562  15.886 -1.9511  0.8994 -0.3363
 7341SOL    HW233660   2.034   4.523  16.020  0.2884 -0.0134  0.5925
 7342SOL     OW33661   1.481   1.021   7.990  0.3492  0.1137  0.5909
 7342SOL    HW133662   1.558   1.078   7.982  0.6046 -0.2314  0.5671
 7342SOL    HW233663   1.429   1.080   8.043 -0.2702  0.1473 -0.0433
 7343SOL     OW33664   3.905   2.620  14.940  0.2047  0.1832  0.3621
 7343SOL    HW133665   3.991   2.661  14.936 -0.0695  0.9143  2.0661
 7343SOL    HW233666   3.877   2.625  14.849  0.7450 -2.2364  0.0663
 7344SOL     OW33667   2.504   2.148   5.082  0.1584 -0.1449 -0.5969
 7344SOL    HW133668   2.553   2.070   5.054  0.8298  0.8509 -2.1890
 7344SOL    HW233669   2.424   2.100   5.104  1.5172 -2.1113  0.0962
 7345SOL     OW33670   3.641   4.055  14.189  0.6490 -0.2513  0.1726
 7345SOL    HW133671   3.670   4.044  14.098 -1.5484  0.0412 -0.5825
 7345SOL    HW233672   3.700   3.997  14.237  0.5834 -2.1851 -2.0718
 7346SOL     OW33673   3.907   3.805   6.753 -0.3272 -0.1333  0.2699
 7346SOL    HW133674   3.850   3.848   6.816 -1.4944 -0.1609 -0.7675
 7346SOL    HW233675   3.982   3.792   6.812 -0.9712  0.4385  1.2222
 7347SOL     OW33676   3.336   1.007   4.070  0.7507  0.0393 -0.3305
 7347SOL    HW133677   3.357   0.953   3.994  0.3127  2.3312 -2.0942
 7347SOL    HW233678   3.421   1.050   4.071  0.5148  0.5069  0.0346
 7348SOL     OW33679   3.665   2.715  17.702  0.1826 -0.2275  0.2624
 7348SOL    HW133680   3.620   2.782  17.755  0.0398 -0.6465  0.6663
 7348SOL    HW233681   3.695   2.772  17.631  2.6296  0.2938  1.7062
 7349SOL     OW33682   4.434   3.900   8.841  0.1503  0.0233 -0.6843
 7349SOL    HW133683   4.512   3.955   8.848 -0.5049  0.9393 -0.7075
 7349SOL    HW233684   4.376   3.972   8.817  1.3339  0.6152 -1.7536
 7350SOL     OW33685   4.726   1.450   9.287 -0.4359  0.2097  0.0669
 7350SOL    HW133686   4.643   1.405   9.278  0.3292 -1.2705  0.3402
 7350SOL    HW233687   0.010   1.475   9.198 -1.5447 -2.6619 -1.0181
 7351SOL     OW33688   0.357   0.679   9.424 -0.2241  0.0446  0.1302
 7351SOL    HW133689   0.377   0.772   9.412  0.6796 -0.1579  0.1188
 7351SOL    HW233690   0.317   0.652   9.341  1.9302  1.4524 -1.3536
 7352SOL     OW33691   1.959   1.840   2.695 -0.1660  0.0116  0.3831
 7352SOL    HW133692   1.990   1.868   2.782  0.8142  0.2911 -0.0538
 7352SOL    HW233693   1.937   1.929   2.667 -0.8268  0.4810  2.3465
 7353SOL     OW33694   4.082   2.680   2.782  0.6684  0.3635  0.0193
 7353SOL    HW133695   4.002   2.634   2.810  1.5404 -1.4442 -0.4523
 7353SOL    HW233696   4.146   2.647   2.845  0.9721 -0.2618 -0.6189
 7354SOL     OW33697   0.378   0.904  13.233  0.0301 -0.4713  0.3756
 7354SOL    HW133698   0.338   0.965  13.171  0.2382  0.1868  0.8868
 7354SOL    HW233699   0.466   0.895  13.198 -0.7294  1.6955 -2.0586
 7355SOL     OW33700   0.700   1.729   2.694 -0.1006 -0.1075  0.7033
 7355SOL    HW133701   0.789   1.727   2.659 -0.3346  0.5685  0.0608
 7355SOL    HW233702   0.675   1.644   2.657  0.3252  0.3632 -0.6677
 7356SOL     OW33703   4.675   2.998   1.765 -0.1245 -0.1878  0.4780
 7356SOL    HW133704   4.704   3.032   1.850  1.0013  0.4322 -0.1547
 7356SOL    HW233705   4.649   3.078   1.720 -1.7334 -1.7628 -1.3791
 7357SOL     OW33706   2.227   4.099   5.669 -0.0033 -0.3907 -0.6823
 7357SOL    HW133707   2.289   4.027   5.672  1.9963  1.3613  0.1370
 7357SOL    HW233708   2.145   4.050   5.662 -1.0166  1.2748 -0.5291
 7358SOL     OW33709   0.871   3.943   3.238  0.4871  0.1002 -0.1711
 7358SOL    HW133710   0.789   3.983   3.209  0.2163  2.2677  3.6742
 7358SOL    HW233711   0.916   4.011   3.288  0.4252 -0.7426  1.0229
 7359SOL     OW33712   3.025   0.957   2.591  0.0240  0.2701  0.5612
 7359SOL    HW133713   3.100   0.999   2.635  1.5916 -1.6544 -0.2637
 7359SOL    HW233714   3.026   0.994   2.503  0.8694  1.4023  1.0407
 7360SOL     OW33715   0.439   3.511   3.156 -0.2172 -0.0856  0.7930
 7360SOL    HW133716   0.460   3.550   3.241  0.8714 -0.5217  0.7193
 7360SOL    HW233717   0.394   3.583   3.112 -1.7234 -0.7251  1.3001
 7361SOL     OW33718   2.288   2.037   3.460  0.2437 -0.2732 -0.1442
 7361SOL    HW133719   2.265   1.944   3.465 -0.8430 -0.0857 -1.4882
 7361SOL    HW233720   2.320   2.048   3.370  0.4658 -1.1905 -0.1740
 7362SOL     OW33721   2.277   3.479   3.531 -0.3745 -0.3303  0.2495
 7362SOL    HW133722   2.286   3.386   3.513  0.5016 -0.5322  1.6902
 7362SOL    HW233723   2.199   3.517   3.489  0.9212 -0.2661 -2.0889
 7363SOL     OW33724   0.250   2.537   1.203  0.0912  0.3439  0.1224
 7363SOL    HW133725   0.305   2.506   1.274  0.4183 -1.8913 -1.0817
 7363SOL    HW233726   0.216   2.448   1.190  0.4063  0.2066  0.2145
 7364SOL     OW33727   1.293   3.340   9.786  0.4346  0.2236 -0.0026
 7364SOL    HW133728   1.296   3.432   9.758 -1.4271  0.2856  0.0361
 7364SOL    HW233729   1.256   3.303   9.705 -0.7864  1.3507  0.0394
 7365SOL     OW33730   2.773   1.735  10.724  0.0705 -0.0260 -0.2117
 7365SOL    HW133731   2.854   1.773  10.691 -0.5861 -1.0834 -2.9691
 7365SOL    HW233732   2.798   1.671  10.791  0.0983 -0.1964 -0.3855
 7366SOL     OW33733   0.638   2.701   1.823 -0.2372  0.5570 -0.3142
 7366SOL    HW133734   0.598   2.615   1.832 -0.4950  0.8705  1.6348
 7366SOL    HW233735   0.555   2.747   1.808  0.7416  1.3608 -3.1958
 7367SOL     OW33736   0.320   0.050   4.064  0.2064 -0.8450 -0.8749
 7367SOL    HW133737   0.395   0.076   4.011 -0.9923  0.9009 -1.6674
 7367SOL    HW233738   0.263   0.030   3.990 -1.1962  0.0810 -0.0478
 7368SOL     OW33739   1.276   2.736   1.637 -0.3470  0.0463  0.5619
 7368SOL    HW133740   1.212   2.795   1.676 -0.5148 -0.5232  1.1540
 7368SOL    HW233741   1.327   2.708   1.713  0.4829  0.3311  0.1189
 7369SOL     OW33742   2.353   0.879   6.789  0.3948  0.4864 -0.1502
 7369SOL    HW133743   2.302   0.907   6.866 -1.5646 -0.1234 -1.2127
 7369SOL    HW233744   2.376   0.795   6.828  1.8035  0.7875 -0.3574
 7370SOL     OW33745   0.283   1.003  13.015  0.2790  0.6019  0.0631
 7370SOL    HW133746   0.311   1.050  12.937 -0.5812 -0.8984 -1.1556
 7370SOL    HW233747   0.242   0.925  12.976 -0.8983  0.4265  1.6709
 7371SOL     OW33748   0.334   2.507   1.695 -0.6355 -0.2458  0.1051
 7371SOL    HW133749   0.241   2.494   1.715 -0.5353 -0.2415  0.5764
 7371SOL    HW233750   0.376   2.455   1.763 -0.1661 -1.2141 -0.9215
 7372SOL     OW33751   1.032   0.025   2.014  0.9346  0.4127 -0.4035
 7372SOL    HW133752   0.950   4.724   2.043  1.5153 -1.3676 -1.2550
 7372SOL    HW233753   1.076   0.053   2.094  0.0687 -0.7564  0.4865
 7373SOL     OW33754   3.618   1.583   6.421 -0.1349 -0.4347  0.5831
 7373SOL    HW133755   3.533   1.540   6.410 -0.4505  0.8336 -1.8296
 7373SOL    HW233756   3.588   1.632   6.497  1.7047 -0.3373  1.2428
 7374SOL     OW33757   1.220   3.740   3.989  0.0495 -0.2898 -0.2857
 7374SOL    HW133758   1.166   3.809   3.952  2.0018  0.7372 -1.1914
 7374SOL    HW233759   1.253   3.704   3.907 -0.2217  0.9642 -0.9510
 7375SOL     OW33760   0.823   4.356   7.873 -0.0443 -0.0557 -1.4198
 7375SOL    HW133761   0.868   4.430   7.913  0.2382 -1.8725  1.5885
 7375SOL    HW233762   0.743   4.388   7.832  0.0161  0.3453 -1.2214
 7376SOL     OW33763   2.228   4.251   3.589  0.0754  0.0066  0.0147
 7376SOL    HW133764   2.266   4.286   3.508  1.6748  1.3527  1.3547
 7376SOL    HW233765   2.240   4.158   3.573 -4.5302 -0.4073 -1.1662
 7377SOL     OW33766   1.390   0.613   7.675  0.1802 -0.2504 -0.1294
 7377SOL    HW133767   1.418   0.704   7.663  1.0648 -0.7787 -2.0278
 7377SOL    HW233768   1.315   0.621   7.734 -1.2864 -0.2561 -2.0075
 7378SOL     OW33769   3.479   0.269  12.223 -0.6001  0.6758 -0.3979
 7378SOL    HW133770   3.407   0.220  12.262  0.4350 -0.0135  0.6761
 7378SOL    HW233771   3.527   0.309  12.295  0.5850 -0.9553 -0.2632
 7379SOL     OW33772   1.887   0.903  11.134  0.4981 -0.1300 -0.2511
 7379SOL    HW133773   1.946   0.897  11.208  0.0357  2.3557  0.3333
 7379SOL    HW233774   1.843   0.985  11.157 -1.1406 -1.1509  0.2753
 7380SOL     OW33775   3.945   4.523   6.781 -0.0131  0.1484 -0.8888
 7380SOL    HW133776   3.965   4.550   6.691  1.5157 -0.1914 -0.6478
 7380SOL    HW233777   3.862   4.569   6.794 -1.0712 -1.5935 -1.5033
 7381SOL     OW33778   4.411   1.260   3.925 -0.4869  0.0394 -0.0949
 7381SOL    HW133779   4.378   1.314   3.853 -0.2298 -0.1127 -0.3264
 7381SOL    HW233780   4.335   1.236   3.978  1.9582 -2.0017  2.5287
 7382SOL     OW33781   3.382   2.946   0.710  0.5805 -0.5084  0.8061
 7382SOL    HW133782   3.416   2.884   0.774  0.8094  0.6311  1.7936
 7382SOL    HW233783   3.450   2.919   0.649 -0.6517  0.3646 -0.9600
 7383SOL     OW33784   4.524   3.908  15.521  0.2030  0.0179 -0.0768
 7383SOL    HW133785   4.596   3.914  15.459  0.7203 -0.1013  0.5154
 7383SOL    HW233786   4.448   3.888  15.466 -0.8905  0.0537  1.4197
 7384SOL     OW33787   4.420   1.879   1.603 -0.2156  0.3232  0.1626
 7384SOL    HW133788   4.363   1.951   1.630 -0.1236 -0.3830  2.1948
 7384SOL    HW233789   4.414   1.809   1.668  0.0585 -1.5219 -1.7501
 7385SOL     OW33790   3.367   3.020  17.093  0.1270 -0.2248 -0.1432
 7385SOL    HW133791   3.393   2.934  17.126  2.3581  1.0407  1.3694
 7385SOL    HW233792   3.405   3.031  17.006  1.6301  1.7410  0.7795
 7386SOL     OW33793   2.217   4.713   2.715  0.2972  0.7849 -0.3935
 7386SOL    HW133794   2.203   0.012   2.801 -2.1348 -1.5304  0.2565
 7386SOL    HW233795   2.233   0.052   2.663 -0.3582  1.2321  0.0784
 7387SOL     OW33796   0.653   4.043   3.406  0.0678 -0.6169  0.2928
 7387SOL    HW133797   0.641   4.125   3.455 -1.3384 -2.6516  3.3586
 7387SOL    HW233798   0.628   4.064   3.316  0.6108  0.2760  0.3521
 7388SOL     OW33799   2.823   2.863   4.478 -0.1162 -0.4569  1.0497
 7388SOL    HW133800   2.807   2.774   4.448  1.3011 -0.9241  1.7014
 7388SOL    HW233801   2.730   2.885   4.473  0.3826  1.5177  0.4468
 7389SOL     OW33802   3.455   2.967  16.077 -0.4552  0.0111 -0.3664
 7389SOL    HW133803   3.493   3.039  16.126 -0.6612  1.0282 -1.6790
 7389SOL    HW233804   3.367   2.960  16.114 -0.1832  1.7542  0.5654
 7390SOL     OW33805   0.646   4.588   9.809 -0.1289  0.2033  0.3608
 7390SOL    HW133806   0.645   4.675   9.849 -0.0652  0.8718 -1.0663
 7390SOL    HW233807   0.694   4.534   9.871  1.7373  0.8785 -0.4915
 7391SOL     OW33808   4.065   2.324   2.912  1.0508  0.0321 -0.3355
 7391SOL    HW133809   3.995   2.383   2.886  1.1546  0.5797  0.6179
 7391SOL    HW233810   4.148   2.373   2.909 -0.7079  3.0928  0.6003
 7392SOL     OW33811   2.467   3.423  10.603 -0.2609  0.5663  0.5141
 7392SOL    HW133812   2.390   3.374  10.574  1.1575 -1.7064  0.5971
 7392SOL    HW233813   2.432   3.466  10.681 -1.0109 -1.7589  1.4632
 7393SOL     OW33814   1.314   2.859   6.796  0.1669  0.5066  0.1465
 7393SOL    HW133815   1.279   2.770   6.789  1.6693  0.0532 -1.6635
 7393SOL    HW233816   1.350   2.851   6.708 -1.4906  0.6614 -0.5236
 7394SOL     OW33817   3.865   0.123   7.021  0.3672 -0.2754 -0.5292
 7394SOL    HW133818   3.959   0.121   7.003  0.6235  1.6391  0.6059
 7394SOL    HW233819   3.837   0.112   6.930 -2.1196  0.2154  0.1794
 7395SOL     OW33820   1.913   2.314   0.251 -0.4758  0.1231 -0.4270
 7395SOL    HW133821   1.866   2.294   0.332  0.9395 -1.9882 -0.1147
 7395SOL    HW233822   1.851   2.358   0.193 -2.1108  1.7099  2.5336
 7396SOL     OW33823   0.101   3.043  10.606  0.5502  0.2188 -0.0068
 7396SOL    HW133824   0.122   2.971  10.666 -0.9568 -1.6300 -1.7146
 7396SOL    HW233825   0.176   3.099  10.626 -0.5831  1.5573  0.4530
 7397SOL     OW33826   2.753   1.249  13.890 -0.1664 -0.5429 -0.3055
 7397SOL    HW133827   2.840   1.261  13.930  0.1648 -0.0862 -1.1483
 7397SOL    HW233828   2.759   1.157  13.865  0.3031 -0.7108  0.3911
 7398SOL     OW33829   4.543   2.927  13.148  0.0965  0.5027 -0.0290
 7398SOL    HW133830   4.476   2.944  13.081  2.2403  3.1139 -1.4877
 7398SOL    HW233831   4.536   2.831  13.152  0.2683  0.4861 -0.1102
 7399SOL     OW33832   2.811   0.874   7.353  0.6397  0.0010 -0.1294
 7399SOL    HW133833   2.793   0.815   7.426 -0.2142 -0.8205 -1.0018
 7399SOL    HW233834   2.881   0.931   7.385  1.7353 -1.5518  0.2575
 7400SOL     OW33835   0.577   2.864  16.050  0.0960 -0.6434 -0.3534
 7400SOL    HW133836   0.547   2.849  16.140 -1.5416  3.5014 -0.1888
 7400SOL    HW233837   0.515   2.936  16.037 -0.4748 -0.8981  0.9005
 7401SOL     OW33838   0.589   3.941  16.655 -0.4329 -0.4378 -0.3650
 7401SOL    HW133839   0.499   3.925  16.627 -1.1648  0.8596  1.2562
 7401SOL    HW233840   0.632   3.923  16.572 -1.2368  1.4136 -1.1768
 7402SOL     OW33841   3.028   2.845   2.705 -0.0489  0.2367 -0.2663
 7402SOL    HW133842   3.012   2.914   2.769 -1.4938 -3.6161  3.5053
 7402SOL    HW233843   2.969   2.778   2.738  2.2889 -1.5703  0.2715
 7403SOL     OW33844   1.385   2.397   2.044  0.4311  0.1580  0.1998
 7403SOL    HW133845   1.419   2.317   2.004  2.0476  1.5097 -1.1138
 7403SOL    HW233846   1.397   2.386   2.138  2.8406  3.8443  0.3028
 7404SOL     OW33847   1.611   3.649   5.328 -0.3440  0.1560 -0.0628
 7404SOL    HW133848   1.658   3.622   5.249  1.4426  1.4133  0.5720
 7404SOL    HW233849   1.582   3.563   5.359  1.3904  0.3478  2.0836
 7405SOL     OW33850   1.801   3.180   8.658  0.2060 -0.2899  0.1093
 7405SOL    HW133851   1.809   3.143   8.746 -0.9846  0.5711  0.5913
 7405SOL    HW233852   1.742   3.256   8.668  1.5973  0.9062 -0.8498
 7406SOL     OW33853   0.737   3.917  11.852  0.2272  0.1999  0.4126
 7406SOL    HW133854   0.806   3.983  11.851 -2.5118  3.0198  1.1972
 7406SOL    HW233855   0.663   3.976  11.865  0.3911  0.1037  1.7459
 7407SOL     OW33856   0.464   1.132  15.095  0.1278  0.3126  0.6531
 7407SOL    HW133857   0.490   1.052  15.049  2.1716  1.9219 -1.0111
 7407SOL    HW233858   0.507   1.199  15.042  0.9396 -0.1001  0.7799
 7408SOL     OW33859   4.679   0.541  11.555 -0.0750 -0.5845 -0.1365
 7408SOL    HW133860   0.025   0.532  11.599 -2.4565 -0.2799  4.6104
 7408SOL    HW233861   4.704   0.510  11.469  0.1921  1.6023 -0.8531
 7409SOL     OW33862   3.957   0.385   9.211 -0.8272  0.4728  0.5820
 7409SOL    HW133863   3.969   0.425   9.125  2.0413 -3.0865 -0.6613
 7409SOL    HW233864   3.927   0.455   9.269 -3.3107  0.8295 -1.1394
 7410SOL     OW33865   1.814   3.095   7.434  0.7121  0.8041 -0.2558
 7410SOL    HW133866   1.755   3.129   7.501 -0.0730 -0.9773 -0.0355
 7410SOL    HW233867   1.848   3.013   7.471  0.6956  0.1885 -1.5803
 7411SOL     OW33868   3.113   4.463  10.090  0.2810 -0.8855  0.5207
 7411SOL    HW133869   3.091   4.555  10.105  1.0353 -0.4215 -1.3024
 7411SOL    HW233870   3.059   4.437  10.016 -0.8478 -0.1018  1.0623
 7412SOL     OW33871   3.314   0.530   0.025  0.2783  0.5402  0.7918
 7412SOL    HW133872   3.368   0.462   0.066 -3.5084 -3.5586 -1.0812
 7412SOL    HW233873   3.306   0.499  17.690  0.6313 -0.5553  1.1350
 7413SOL     OW33874   4.355   3.083   6.931 -0.6447 -0.2779  0.1349
 7413SOL    HW133875   4.262   3.088   6.908 -0.1360  0.3360 -1.7528
 7413SOL    HW233876   4.359   3.179   6.935 -1.2060 -0.2381 -0.1875
 7414SOL     OW33877   2.999   1.884  11.273 -0.3524 -0.0174  0.2641
 7414SOL    HW133878   3.027   1.794  11.290  0.8419  0.2924 -0.0524
 7414SOL    HW233879   2.910   1.887  11.307 -0.0599  1.8292  0.8896
 7415SOL     OW33880   4.215   4.328   4.320  0.3684  0.2515 -0.3662
 7415SOL    HW133881   4.131   4.297   4.286  1.3280 -0.0499 -2.4856
 7415SOL    HW233882   4.198   4.421   4.337  2.5711  0.3346  1.3725
 7416SOL     OW33883   3.677   3.250  12.466  0.3311 -0.5120 -0.4134
 7416SOL    HW133884   3.672   3.256  12.371  0.3754  0.2810 -0.3661
 7416SOL    HW233885   3.679   3.155  12.478 -1.2691 -0.4269  0.5887
 7417SOL     OW33886   3.618   4.553   2.049  0.1041 -0.3947 -0.3878
 7417SOL    HW133887   3.549   4.601   2.001  0.6136 -1.4011 -2.1340
 7417SOL    HW233888   3.586   4.463   2.043  0.7897 -0.5991 -0.9860
 7418SOL     OW33889   1.462   0.835   9.220  0.3065  0.4051 -0.4720
 7418SOL    HW133890   1.475   0.851   9.314  0.5816 -1.7625 -0.1369
 7418SOL    HW233891   1.370   0.862   9.215 -0.5876 -3.1107 -2.4463
 7419SOL     OW33892   0.095   3.093   4.295  0.0823  0.2763 -0.1878
 7419SOL    HW133893   0.054   3.164   4.345 -2.6561 -1.0478 -0.5468
 7419SOL    HW233894   0.188   3.114   4.291 -0.2636  1.6659 -0.8764
 7420SOL     OW33895   2.027   2.964   0.381 -0.3169 -0.7750 -0.8122
 7420SOL    HW133896   2.075   3.010   0.312  0.5006  2.6300  2.0678
 7420SOL    HW233897   1.940   3.000   0.367  0.0545 -0.5218 -2.5075
 7421SOL     OW33898   4.534   1.789   2.884 -0.4340 -0.0015  0.3039
 7421SOL    HW133899   4.622   1.805   2.919 -1.2503  0.0294  2.3292
 7421SOL    HW233900   4.487   1.872   2.886 -1.4401 -0.4724 -3.8876
 7422SOL     OW33901   3.974   4.728   9.770  0.1404 -0.0315 -0.3438
 7422SOL    HW133902   3.910   4.713   9.839  0.5874 -1.0396 -0.1466
 7422SOL    HW233903   3.952   0.067   9.721 -0.4776 -0.9799 -1.5858
 7423SOL     OW33904   4.737   0.543   1.202 -0.3092 -0.1246  0.0792
 7423SOL    HW133905   0.033   0.625   1.167  1.6391 -1.5263 -1.2319
 7423SOL    HW233906   0.013   0.565   1.294 -2.3810  0.3885  0.3015
 7424SOL     OW33907   0.178   2.051  11.072 -0.1916 -0.3682  0.1117
 7424SOL    HW133908   0.177   2.021  11.163 -0.8103 -2.4428 -0.5844
 7424SOL    HW233909   0.180   1.964  11.032  0.3898 -0.3508  0.1090
 7425SOL     OW33910   1.577   0.083   9.716  0.2140  0.8558 -0.4548
 7425SOL    HW133911   1.643   0.112   9.779  1.1265 -2.2070 -0.0269
 7425SOL    HW233912   1.503   0.141   9.734  0.2070  0.8449 -0.4479
 7426SOL     OW33913   2.567   0.017   9.550 -0.0185  0.2967 -0.2915
 7426SOL    HW133914   2.472   0.025   9.557  0.1532  1.0848  1.0410
 7426SOL    HW233915   2.571   4.672   9.503  0.7357  1.3371 -2.1037
 7427SOL     OW33916   0.271   1.602   8.973 -0.6270 -0.3835  0.4531
 7427SOL    HW133917   0.200   1.539   8.964 -1.6447  0.5798  1.8358
 7427SOL    HW233918   0.290   1.619   8.881 -0.7100 -1.0471  0.3141
 7428SOL     OW33919   2.623   1.138   2.008 -0.3776 -0.0644  0.3231
 7428SOL    HW133920   2.648   1.065   2.065 -0.0576  0.1884  0.5072
 7428SOL    HW233921   2.686   1.204   2.036 -1.9681  1.1941  0.8747
 7429SOL     OW33922   3.607   2.222   3.535 -0.1467  0.2158  0.0469
 7429SOL    HW133923   3.594   2.130   3.561  1.7548 -0.3935 -1.1591
 7429SOL    HW233924   3.653   2.210   3.452 -1.7662 -1.2176 -0.6266
 7430SOL     OW33925   2.989   1.735   1.561 -0.0817  0.1490 -0.2159
 7430SOL    HW133926   3.027   1.814   1.600 -2.2206  0.5725  1.0226
 7430SOL    HW233927   2.910   1.728   1.614 -0.0580  0.0694 -0.1916
 7431SOL     OW33928   0.499   4.375   8.738  0.5331 -0.1027 -0.4072
 7431SOL    HW133929   0.585   4.368   8.779  0.8742  3.5089 -0.4989
 7431SOL    HW233930   0.480   4.282   8.730  0.6024 -0.2534  1.2254
 7432SOL     OW33931   1.426   2.766  11.558  0.2744  0.2328 -0.1794
 7432SOL    HW133932   1.465   2.683  11.531 -0.2864  0.4529 -1.6867
 7432SOL    HW233933   1.505   2.814  11.585  0.9294 -3.0383  3.6707
 7433SOL     OW33934   0.432   0.561   7.930  0.0344  0.1331  0.0354
 7433SOL    HW133935   0.434   0.590   8.021  0.4299 -1.3450  0.4911
 7433SOL    HW233936   0.414   0.468   7.941 -1.8644  0.6973  1.8063
 7434SOL     OW33937   2.850   1.411  10.654 -0.3604 -0.1002  0.0806
 7434SOL    HW133938   2.789   1.340  10.675 -0.4366 -0.1825 -0.4252
 7434SOL    HW233939   2.859   1.453  10.740 -5.8166 -1.2240  1.2223
 7435SOL     OW33940   0.190   1.041  16.036 -0.2657 -0.0619  0.0920
 7435SOL    HW133941   0.265   1.083  15.995 -1.9056  0.0550 -2.7467
 7435SOL    HW233942   0.152   0.987  15.967  0.7621  0.1550 -0.6425
 7436SOL     OW33943   4.291   4.121   7.313 -0.7248  0.1693  0.3367
 7436SOL    HW133944   4.331   4.045   7.355  2.0935  1.1916 -0.5371
 7436SOL    HW233945   4.344   4.197   7.333 -1.1797  0.3884  0.7204
 7437SOL     OW33946   2.890   0.357   8.926  0.1721 -0.4232 -0.3343
 7437SOL    HW133947   2.880   0.452   8.916  1.8125  0.0050  2.0627
 7437SOL    HW233948   2.811   0.326   8.882 -2.1560  3.1935  1.2566
 7438SOL     OW33949   1.779   2.183  16.539 -0.0677  0.1409 -0.4522
 7438SOL    HW133950   1.834   2.106  16.552 -1.3534 -0.4714  1.4276
 7438SOL    HW233951   1.694   2.137  16.532  0.4540 -0.9491  0.2632
 7439SOL     OW33952   4.279   0.769   1.679  0.1088 -0.3233  0.3143
 7439SOL    HW133953   4.373   0.785   1.680  0.1414 -0.5700  0.9690
 7439SOL    HW233954   4.257   0.832   1.610  2.1078  0.0321  0.0037
 7440SOL     OW33955   2.158   1.988   7.163 -0.0667 -0.0620  0.3664
 7440SOL    HW133956   2.143   1.920   7.229  0.7347  0.2147  0.8226
 7440SOL    HW233957   2.175   2.058   7.226  3.1325 -1.5118  1.1094
 7441SOL     OW33958   1.593   0.610  11.412  0.1961 -0.0410  0.4558
 7441SOL    HW133959   1.688   0.603  11.424  0.4919  2.7766 -0.4254
 7441SOL    HW233960   1.567   0.682  11.469  1.3725 -0.5913  1.6949
 7442SOL     OW33961   2.103   4.713   3.235 -0.2176 -0.5608  0.0620
 7442SOL    HW133962   2.058   0.053   3.265 -1.6640 -0.6642 -1.8209
 7442SOL    HW233963   2.036   4.646   3.216  0.2671 -1.2076  0.6416
 7443SOL     OW33964   2.376   3.982   4.928 -0.0093  0.3731 -0.1704
 7443SOL    HW133965   2.346   3.915   4.989 -0.5321 -0.9272 -1.8774
 7443SOL    HW233966   2.294   4.022   4.901 -0.0756  0.1921 -0.2319
 7444SOL     OW33967   3.484   2.473   6.911  0.5146 -0.6565  0.1888
 7444SOL    HW133968   3.441   2.424   6.841  1.9006 -0.4747 -0.8002
 7444SOL    HW233969   3.562   2.499   6.861  0.1490  1.8057  0.8810
 7445SOL     OW33970   3.732   1.667   6.103 -0.0922  0.0731 -0.2909
 7445SOL    HW133971   3.796   1.602   6.131 -0.6891 -0.8191 -0.9868
 7445SOL    HW233972   3.738   1.662   6.008 -3.3969 -0.2908 -0.4932
 7446SOL     OW33973   3.335   2.382  12.116 -0.0618  0.0311 -0.0134
 7446SOL    HW133974   3.305   2.470  12.142  0.1797 -0.2080  1.0821
 7446SOL    HW233975   3.340   2.346  12.204  0.7127 -0.1584 -0.1413
 7447SOL     OW33976   3.669   1.008   1.593  0.2760  0.7099  0.6121
 7447SOL    HW133977   3.748   1.022   1.541 -0.4957  0.3231 -0.6837
 7447SOL    HW233978   3.679   1.089   1.643 -0.0192 -0.3310  2.3380
 7448SOL     OW33979   0.759   3.249   0.992  0.0531 -0.1963 -0.6915
 7448SOL    HW133980   0.733   3.157   0.991  0.3913 -0.2789 -2.7177
 7448SOL    HW233981   0.780   3.247   1.085  3.0684  0.1153 -1.3459
 7449SOL     OW33982   1.124   2.610   4.045  0.3568  0.0645  0.9056
 7449SOL    HW133983   1.089   2.637   4.130 -2.0094 -0.1863  0.0231
 7449SOL    HW233984   1.203   2.561   4.069 -0.0365 -0.3331  1.4101
 7450SOL     OW33985   2.529   0.071   3.768 -0.1410  0.1737  1.0935
 7450SOL    HW133986   2.457   0.076   3.705  0.2900 -2.6246  0.3792
 7450SOL    HW233987   2.603   0.040   3.716  0.1044  1.9116  0.4120
 7451SOL     OW33988   1.574   3.417   8.149  0.4958  0.0696 -0.0565
 7451SOL    HW133989   1.498   3.462   8.185  0.2852 -1.6375  1.6561
 7451SOL    HW233990   1.530   3.351   8.095 -0.3419  0.7678 -0.2156
 7452SOL     OW33991   0.089   2.635  11.234  0.1273  0.0291 -0.0956
 7452SOL    HW133992   0.051   2.559  11.189  0.2500 -0.9617  1.4846
 7452SOL    HW233993   0.100   2.587  11.316  0.7264  1.6196  0.7726
 7453SOL     OW33994   0.440   3.064  10.496 -0.6141  0.2196 -0.4107
 7453SOL    HW133995   0.442   2.969  10.487 -0.1372  0.3807 -1.9112
 7453SOL    HW233996   0.520   3.092  10.452 -0.3388  0.5055  0.2707
 7454SOL     OW33997   1.384   0.576   7.000  0.3274  0.6932 -0.0312
 7454SOL    HW133998   1.405   0.579   7.094  1.0372 -1.7972 -0.1324
 7454SOL    HW233999   1.442   0.509   6.966  1.0317  0.5002  1.5590
 7455SOL     OW34000   2.592   0.642   3.973  0.1121 -0.3206 -0.0589
 7455SOL    HW134001   2.669   0.696   3.987  1.2191 -1.7535 -0.5372
 7455SOL    HW234002   2.583   0.583   4.048 -1.4806 -0.4753 -0.3869
 7456SOL     OW34003   3.965   4.381   3.747 -0.7228 -0.3730 -0.0936
 7456SOL    HW134004   3.909   4.366   3.671  0.7049 -0.1050 -1.2058
 7456SOL    HW234005   3.944   4.298   3.789 -1.4248 -0.2411 -0.1885
 7457SOL     OW34006   0.874   2.671   1.650 -0.0905  0.5931 -0.3382
 7457SOL    HW134007   0.818   2.664   1.728  1.7634 -0.5141  0.8983
 7457SOL    HW234008   0.806   2.649   1.587 -0.9096  2.4719 -0.0959
 7458SOL     OW34009   4.056   2.282   8.046 -0.7516 -0.1851  0.2977
 7458SOL    HW134010   3.997   2.276   8.121  0.6043  2.9809  1.6458
 7458SOL    HW234011   3.989   2.263   7.981  0.4458  0.0949 -1.0230
 7459SOL     OW34012   1.568   1.307   2.861  0.0658  0.6905  0.2848
 7459SOL    HW134013   1.489   1.361   2.855 -0.0020  0.8904  2.8057
 7459SOL    HW234014   1.531   1.219   2.860  0.0986  0.6914 -0.7907
 7460SOL     OW34015   4.673   1.448   1.908  0.8347 -0.0384  0.4128
 7460SOL    HW134016   4.729   1.408   1.974  1.6686 -0.1076 -0.3337
 7460SOL    HW234017   4.607   1.380   1.894 -1.8910  2.3258  1.8129
 7461SOL     OW34018   2.133   3.723   5.816  0.6879  0.0422 -0.1727
 7461SOL    HW134019   2.118   3.751   5.726 -3.0367  0.2115  0.4898
 7461SOL    HW234020   2.043   3.702   5.844  0.8480 -0.9629 -0.3939
 7462SOL     OW34021   0.629   4.278   9.050  0.4414  0.0548 -0.1909
 7462SOL    HW134022   0.705   4.234   9.087 -1.2288 -0.6828  2.3558
 7462SOL    HW234023   0.668   4.321   8.974  0.6355  0.6285  0.2366
 7463SOL     OW34024   2.553   0.122   3.373  0.2997  0.2197 -0.2903
 7463SOL    HW134025   2.531   0.113   3.280 -2.1874 -2.2431  0.5163
 7463SOL    HW234026   2.480   0.077   3.415  1.7625 -0.7998  1.1085
 7464SOL     OW34027   3.194   4.421   6.627 -0.0405 -0.9875 -0.4491
 7464SOL    HW134028   3.201   4.418   6.723  2.3969 -1.7763 -0.6835
 7464SOL    HW234029   3.288   4.418   6.613  0.0687  0.6122 -0.1626
 7465SOL     OW34030   2.484   4.217   5.901 -0.7075  0.1319 -0.4558
 7465SOL    HW134031   2.404   4.236   5.951  1.2276  0.9941  2.3105
 7465SOL    HW234032   2.459   4.235   5.810 -0.9746 -0.3693 -0.4784
 7466SOL     OW34033   2.388   1.449  17.190  0.1620 -0.4861 -0.3210
 7466SOL    HW134034   2.456   1.405  17.139  1.8836  0.2211  1.3717
 7466SOL    HW234035   2.338   1.375  17.224 -0.6353  0.3377  0.2966
 7467SOL     OW34036   0.756   0.141   3.468 -0.3688  0.2413 -0.0280
 7467SOL    HW134037   0.674   0.117   3.512  0.7169  2.3289  3.0956
 7467SOL    HW234038   0.801   0.057   3.465  1.6434  1.3940 -1.7640
 7468SOL     OW34039   4.122   3.244   9.019 -0.6982 -0.0800 -0.6257
 7468SOL    HW134040   4.051   3.295   9.058 -0.9903 -0.8112 -0.2017
 7468SOL    HW234041   4.188   3.237   9.088  0.6049 -2.0526 -2.0621
 7469SOL     OW34042   1.569   0.625   2.552 -0.2603 -0.6096 -0.0164
 7469SOL    HW134043   1.496   0.574   2.516 -1.4684  0.5698  0.7615
 7469SOL    HW234044   1.648   0.581   2.521  0.9699  0.7637  1.1896
 7470SOL     OW34045   2.051   1.758   7.297 -0.4642 -0.1435  0.4239
 7470SOL    HW134046   1.998   1.726   7.225  1.2911 -1.5380 -0.2469
 7470SOL    HW234047   2.126   1.698   7.302  0.6660  1.1039 -1.4738
 7471SOL     OW34048   2.758   3.847   2.455 -0.2598  0.0782  0.1108
 7471SOL    HW134049   2.767   3.757   2.423 -2.1350  0.2826 -1.0158
 7471SOL    HW234050   2.826   3.885   2.399 -1.2553 -0.3783 -1.4285
 7472SOL     OW34051   4.646   0.941   5.761  0.2333 -0.0568 -0.5442
 7472SOL    HW134052   4.630   0.847   5.755  2.3028 -0.5311  1.0819
 7472SOL    HW234053   4.708   0.950   5.688 -1.2724  1.2720 -1.6590
 7473SOL     OW34054   4.348   0.555   0.743 -0.4652 -0.0872  0.2411
 7473SOL    HW134055   4.391   0.519   0.820  0.5766  0.5340 -0.0483
 7473SOL    HW234056   4.286   0.618   0.779 -1.5487 -1.0765  0.1161
 7474SOL     OW34057   3.942   4.399   8.511  0.1254  0.3741 -0.0760
 7474SOL    HW134058   3.858   4.392   8.468  0.0759 -0.9672  0.2445
 7474SOL    HW234059   3.918   4.407   8.603  0.9976  1.6867  0.0325
 7475SOL     OW34060   2.502   0.958   6.299  0.0826 -0.0521 -0.8525
 7475SOL    HW134061   2.428   0.910   6.261 -0.5570  0.2603  0.0022
 7475SOL    HW234062   2.465   1.045   6.317  0.0628  0.2686 -2.4125
 7476SOL     OW34063   1.344   4.566   7.213  0.0170  0.1155 -0.4013
 7476SOL    HW134064   1.381   4.640   7.262  1.5083 -1.2796  0.5642
 7476SOL    HW234065   1.307   4.605   7.134  0.6643  1.6102  0.0268
 7477SOL     OW34066   3.635   2.685   5.575  0.4198  0.0574 -0.5564
 7477SOL    HW134067   3.617   2.603   5.621  1.1652 -0.5109 -1.2747
 7477SOL    HW234068   3.547   2.722   5.571 -0.3701 -1.7040  0.5266
 7478SOL     OW34069   0.545   2.324   7.425  0.0883 -0.0024  0.0918
 7478SOL    HW134070   0.581   2.245   7.465 -1.5107 -0.1303  1.2631
 7478SOL    HW234071   0.549   2.390   7.494  0.0057  0.3488 -0.2316
 7479SOL     OW34072   1.018   4.667   3.686 -0.3274  0.3008  0.4740
 7479SOL    HW134073   1.111   4.679   3.708 -0.0170  0.8825 -1.1530
 7479SOL    HW234074   0.982   4.648   3.772  1.5633 -0.1378  1.1750
 7480SOL     OW34075   0.346   4.679   2.255  0.2902 -0.0231 -0.1553
 7480SOL    HW134076   0.292   4.601   2.261 -0.3251  0.6195  2.7002
 7480SOL    HW234077   0.395   4.674   2.173  1.6978 -1.7033  0.7908
 7481SOL     OW34078   1.825   4.081  16.708 -0.1700 -0.3751 -0.2093
 7481SOL    HW134079   1.742   4.103  16.665 -1.3111  2.7877  3.6044
 7481SOL    HW234080   1.841   3.994  16.671  1.2992 -0.4346  0.5886
 7482SOL     OW34081   1.531   0.427   6.786  0.4845  0.6823  0.4577
 7482SOL    HW134082   1.540   0.459   6.697  0.1596 -0.5685 -0.0349
 7482SOL    HW234083   1.619   0.390   6.800 -0.3286 -0.4866  2.5099
 7483SOL     OW34084   3.134   4.441  16.861  0.1576 -0.6723  0.1932
 7483SOL    HW134085   3.208   4.499  16.843  0.2429 -0.0728  2.5606
 7483SOL    HW234086   3.132   4.440  16.956 -1.8970 -0.7838  0.1519
 7484SOL     OW34087   3.163   4.491   6.342  0.4770 -0.0070 -0.1594
 7484SOL    HW134088   3.184   4.585   6.344  1.3120 -0.1927 -0.2765
 7484SOL    HW234089   3.180   4.460   6.431  1.1403  0.1057 -0.2472
 7485SOL     OW34090   3.561   1.138  15.959  0.0066  0.3467  0.7297
 7485SOL    HW134091   3.507   1.175  16.029  1.3312  2.4396  0.6276
 7485SOL    HW234092   3.521   1.170  15.879  0.9641  0.1991  0.1949
 7486SOL     OW34093   3.666   0.648   1.473 -0.0201 -0.4454 -0.2994
 7486SOL    HW134094   3.742   0.703   1.456 -0.9471  0.3330 -1.8845
 7486SOL    HW234095   3.709   0.563   1.485  0.7849  0.0626  0.3504
 7487SOL     OW34096   0.836   3.170  11.017  0.1044 -0.5899 -0.4265
 7487SOL    HW134097   0.930   3.155  11.024 -0.2303 -2.9372 -0.7977
 7487SOL    HW234098   0.812   3.187  11.108 -1.3989 -0.9900 -0.7496
 7488SOL     OW34099   3.183   3.753   6.266  0.2021 -0.0463  0.4341
 7488SOL    HW134100   3.156   3.765   6.357 -0.3214  0.1183  0.2579
 7488SOL    HW234101   3.102   3.715   6.234 -0.3257  1.9902 -0.6602
 7489SOL     OW34102   1.075   0.927   2.763 -0.1036  0.0475  0.1955
 7489SOL    HW134103   1.115   1.005   2.800  2.4520 -1.9513  1.6655
 7489SOL    HW234104   1.074   0.947   2.670  1.2040  0.2754  0.2304
 7490SOL     OW34105   4.648   1.631   8.393  0.1839 -0.4520  0.1745
 7490SOL    HW134106   4.731   1.679   8.394  0.2999 -0.6474  0.0998
 7490SOL    HW234107   4.661   1.555   8.449  1.0883 -0.9974 -0.7593
 7491SOL     OW34108   0.100   2.300   1.108 -0.8535  0.0137  0.0784
 7491SOL    HW134109   0.019   2.249   1.102 -1.6820  1.0399  2.4159
 7491SOL    HW234110   0.123   2.285   1.017  0.6517 -1.1104  0.6536
 7492SOL     OW34111   4.475   1.368   8.197 -0.3727  0.6734  0.0156
 7492SOL    HW134112   4.511   1.280   8.209 -1.1910  0.4936  1.2514
 7492SOL    HW234113   4.389   1.339   8.165 -0.1835 -0.3317  0.4185
 7493SOL     OW34114   2.642   1.211   4.072 -0.0067 -0.0525 -0.0959
 7493SOL    HW134115   2.621   1.129   4.028  0.7689 -0.8349  0.9937
 7493SOL    HW234116   2.715   1.184   4.128 -0.2653 -0.1574  0.1905
 7494SOL     OW34117   1.798   3.089   8.387 -0.0827 -0.1589  0.3082
 7494SOL    HW134118   1.742   3.140   8.328  1.1416  1.5545  0.6219
 7494SOL    HW234119   1.777   3.134   8.468  1.1614  0.3962  0.3286
 7495SOL     OW34120   4.632   0.829  13.398  0.4520 -0.3402  0.0503
 7495SOL    HW134121   4.705   0.818  13.337  1.3704  1.3479  0.8367
 7495SOL    HW234122   4.642   0.749  13.449  1.5535 -0.6459 -0.6649
 7496SOL     OW34123   3.317   3.338   9.232  0.0482 -0.2268 -0.3612
 7496SOL    HW134124   3.375   3.394   9.284  1.6789 -1.7530 -0.5607
 7496SOL    HW234125   3.379   3.273   9.201  0.5537  0.1099 -0.0463
 7497SOL     OW34126   0.278   4.731   6.309  0.3167  0.4188 -0.4090
 7497SOL    HW134127   0.260   4.644   6.273 -0.6465  0.5063 -0.1482
 7497SOL    HW234128   0.362   0.021   6.275 -0.2282  1.0159 -1.2320
 7498SOL     OW34129   3.568   3.405   6.280 -0.6900 -0.6031 -0.7304
 7498SOL    HW134130   3.552   3.481   6.225  0.5561 -1.5882 -2.4749
 7498SOL    HW234131   3.635   3.363   6.225 -0.1972 -1.6202  0.6443
 7499SOL     OW34132   1.648   3.001   4.665  0.0256  0.0693  0.1237
 7499SOL    HW134133   1.583   2.995   4.595  0.8677 -1.3395 -0.5164
 7499SOL    HW234134   1.654   3.097   4.661 -4.3424  0.3457 -0.0940
 7500SOL     OW34135   3.661   1.456   9.550 -0.1712 -0.0634  0.1690
 7500SOL    HW134136   3.623   1.408   9.476 -0.7893  1.6593 -0.6201
 7500SOL    HW234137   3.626   1.544   9.547 -3.1062 -1.2917 -1.5906
 7501SOL     OW34138   1.645   0.900  15.698  0.2569  0.1280  0.0719
 7501SOL    HW134139   1.615   0.949  15.622  0.9474  1.2329  0.5066
 7501SOL    HW234140   1.596   0.941  15.769 -0.2683  1.6319 -1.1591
 7502SOL     OW34141   4.600   0.314   6.608  0.1510 -0.0046  0.0301
 7502SOL    HW134142   4.598   0.407   6.631  0.4801  0.7596 -3.0957
 7502SOL    HW234143   4.673   0.290   6.665 -1.0029  0.0015  1.5102
 7503SOL     OW34144   1.175   0.945   6.841  0.0742  0.2552 -0.0724
 7503SOL    HW134145   1.095   0.893   6.836  0.2785  0.0293 -1.0232
 7503SOL    HW234146   1.221   0.928   6.758  0.9804 -3.5836  1.2312
 7504SOL     OW34147   4.644   4.540   1.454 -0.6629 -0.1027  0.1367
 7504SOL    HW134148   4.552   4.549   1.427 -0.4674 -0.4158 -0.6528
 7504SOL    HW234149   4.670   4.609   1.392  1.2346  0.4438  1.5696
 7505SOL     OW34150   0.510   3.952   5.623 -0.5327 -0.5326  0.1567
 7505SOL    HW134151   0.469   3.866   5.609 -1.0633 -0.2856  0.2313
 7505SOL    HW234152   0.562   3.956   5.542  1.4664  0.5708  1.5058
 7506SOL     OW34153   0.143   1.165   6.476  0.1412  0.4007 -0.0525
 7506SOL    HW134154   0.064   1.192   6.429 -0.3464 -1.0328 -0.0365
 7506SOL    HW234155   0.109   1.144   6.563  0.7544  0.7015  0.2602
 7507SOL     OW34156   2.269   0.060   9.148  0.2760 -0.2418  0.0558
 7507SOL    HW134157   2.229   0.006   9.216  0.9439  0.0791  0.6998
 7507SOL    HW234158   2.217   0.137   9.170  3.0701  1.0174  2.1403
 7508SOL     OW34159   0.485   0.788   7.353  0.3739 -0.4274  0.3027
 7508SOL    HW134160   0.459   0.835   7.274  0.5469 -1.3039 -0.2823
 7508SOL    HW234161   0.579   0.788   7.335  0.1487 -2.4466 -0.9306
 7509SOL     OW34162   2.303   0.499  12.890 -0.7850  0.5960 -0.0615
 7509SOL    HW134163   2.348   0.479  12.808  1.1624  0.8971  0.9296
 7509SOL    HW234164   2.254   0.418  12.903  1.6314 -0.5530  1.9223
 7510SOL     OW34165   0.500   0.754   4.069 -0.2149 -0.1950 -0.3436
 7510SOL    HW134166   0.452   0.674   4.093 -0.6552 -0.1401 -1.0453
 7510SOL    HW234167   0.487   0.763   3.974  0.4196 -1.8542 -0.5806
 7511SOL     OW34168   2.514   3.062   8.497 -0.1685  0.3573  0.0673
 7511SOL    HW134169   2.603   3.037   8.474 -0.0216  1.7411 -0.9072
 7511SOL    HW234170   2.530   3.096   8.585 -1.8236 -2.7343  1.5218
 7512SOL     OW34171   0.675   3.704  11.471 -0.2769  0.4583 -0.0484
 7512SOL    HW134172   0.625   3.784  11.486  1.1110  1.1991  0.6448
 7512SOL    HW234173   0.741   3.699  11.541 -3.7326 -0.5458  3.1444
 7513SOL     OW34174   1.023   0.801  10.763 -0.1035  0.1552  0.2177
 7513SOL    HW134175   1.005   0.727  10.821  0.3245 -0.0854  0.0420
 7513SOL    HW234176   1.114   0.799  10.733 -0.3118  1.1117 -0.4902
 7514SOL     OW34177   1.776   3.259   7.935  0.0848 -0.2766  0.3093
 7514SOL    HW134178   1.808   3.284   8.021  0.4788  0.7069 -0.1279
 7514SOL    HW234179   1.737   3.173   7.955  2.0282 -1.0677  0.7046
 7515SOL     OW34180   3.660   3.978  15.157  0.2410  0.0343 -0.4685
 7515SOL    HW134181   3.702   3.892  15.154  0.4924  0.0970  1.0471
 7515SOL    HW234182   3.606   3.977  15.078  0.4170 -0.2143 -0.5845
 7516SOL     OW34183   1.523   1.446   7.785 -0.8094 -0.2126 -0.0828
 7516SOL    HW134184   1.483   1.484   7.707 -0.5117 -1.2477 -0.7417
 7516SOL    HW234185   1.618   1.448   7.776 -0.8662  2.1402 -0.1092
 7517SOL     OW34186   0.415   3.393  14.412 -0.1766  0.2305 -0.4957
 7517SOL    HW134187   0.432   3.448  14.336 -0.1542  0.7681 -0.1012
 7517SOL    HW234188   0.409   3.311  14.364  2.0588  0.6115 -1.4118
 7518SOL     OW34189   3.351   1.858   8.628  0.0958 -0.2033 -0.1601
 7518SOL    HW134190   3.392   1.772   8.623 -1.5603 -0.9551 -0.9984
 7518SOL    HW234191   3.399   1.907   8.561  0.0761 -2.1400 -1.5811
 7519SOL     OW34192   1.083   0.658   9.412 -0.7058 -0.3503  0.4509
 7519SOL    HW134193   1.088   0.724   9.481 -0.3462 -0.2656  0.3447
 7519SOL    HW234194   0.988   0.655   9.412 -0.7475  1.1511  0.0418
 7520SOL     OW34195   3.892   3.498   5.427 -0.5772 -0.3365  0.1165
 7520SOL    HW134196   3.917   3.453   5.508 -1.3981  2.7525  2.1051
 7520SOL    HW234197   3.803   3.463   5.415 -0.4196 -0.3537 -0.9985
 7521SOL     OW34198   3.827   2.940   8.084 -0.3179 -0.0231 -0.0422
 7521SOL    HW134199   3.796   2.891   8.007  0.2196 -2.4763  1.2894
 7521SOL    HW234200   3.922   2.928   8.081 -0.4485 -0.6335 -1.8133
 7522SOL     OW34201   4.555   3.546  11.044 -0.1037 -0.1315 -0.1234
 7522SOL    HW134202   4.646   3.514  11.041  0.5087  1.5481  0.5226
 7522SOL    HW234203   4.511   3.485  10.985  2.2677 -2.7171  0.7817
 7523SOL     OW34204   1.864   3.837   4.030 -0.3782 -0.3626  0.4718
 7523SOL    HW134205   1.936   3.777   4.048  0.8032  1.1553  0.7839
 7523SOL    HW234206   1.897   3.902   3.968  1.5404  1.3820  3.3581
 7524SOL     OW34207   1.268   4.620   6.451  0.1724  0.2690  0.3516
 7524SOL    HW134208   1.277   4.697   6.395  2.4901 -0.7611 -0.6953
 7524SOL    HW234209   1.242   4.661   6.534 -1.5485  0.9344 -0.5170
 7525SOL     OW34210   4.496   1.844  15.868 -0.1918 -0.0014 -0.3888
 7525SOL    HW134211   4.592   1.848  15.870 -0.3245  3.1109  0.0480
 7525SOL    HW234212   4.469   1.935  15.863  0.9841  0.4911  2.4233
 7526SOL     OW34213   2.387   1.744  14.638  0.0182 -0.1737 -0.0264
 7526SOL    HW134214   2.473   1.708  14.615 -0.3359  0.0215 -1.7087
 7526SOL    HW234215   2.383   1.800  14.560 -4.0318 -0.2354  0.1284
 7527SOL     OW34216   3.077   2.697   9.644 -0.4694 -0.5413  0.0764
 7527SOL    HW134217   3.154   2.651   9.679  0.5899  0.6867 -0.6198
 7527SOL    HW234218   3.117   2.777   9.609 -2.2380 -1.0265 -3.0579
 7528SOL     OW34219   3.684   0.248  17.753 -0.0649 -0.1289  0.3372
 7528SOL    HW134220   3.663   0.231  17.661 -2.1169 -0.2786  0.8359
 7528SOL    HW234221   3.604   0.252   0.049  1.9100  4.1444  3.0829
 7529SOL     OW34222   2.135   4.092   8.284  0.4003 -0.5038 -0.5892
 7529SOL    HW134223   2.098   4.103   8.196  0.8455 -1.3311 -0.8838
 7529SOL    HW234224   2.136   4.183   8.312 -1.1837 -0.4212 -0.7922
 7530SOL     OW34225   2.023   2.692  10.049 -0.7540 -0.2643  0.5775
 7530SOL    HW134226   2.026   2.612   9.997  3.0468 -0.4634  1.0737
 7530SOL    HW234227   1.948   2.687  10.108 -0.0822 -0.8207  1.3887
 7531SOL     OW34228   0.489   2.314   9.100  0.4240 -0.2945 -0.2056
 7531SOL    HW134229   0.491   2.259   9.022 -0.2272 -2.8321  1.5504
 7531SOL    HW234230   0.554   2.382   9.082  0.1399 -0.1846 -0.8085
 7532SOL     OW34231   3.109   1.898   9.055 -0.0353 -0.2122 -0.1301
 7532SOL    HW134232   3.069   1.816   9.025  1.1373 -0.9877  0.4582
 7532SOL    HW234233   3.199   1.877   9.033  0.3645  0.9018  0.4821
 7533SOL     OW34234   0.200   1.214   7.399 -0.6457 -0.3212  0.0303
 7533SOL    HW134235   0.139   1.273   7.444 -0.3840  1.0736 -1.4414
 7533SOL    HW234236   0.263   1.278   7.366  1.5260 -1.5610  1.8336
 7534SOL     OW34237   1.191   3.060   1.480  0.3388  0.2901 -0.0257
 7534SOL    HW134238   1.112   3.111   1.497  0.8277  1.0270  0.0285
 7534SOL    HW234239   1.228   3.054   1.569  0.8629 -0.5365 -0.2973
 7535SOL     OW34240   4.544   0.877   8.467  0.5720  0.6572  0.2339
 7535SOL    HW134241   4.619   0.855   8.413 -0.6373  1.4983 -1.7678
 7535SOL    HW234242   4.480   0.817   8.429  1.7847  1.1075 -2.4870
 7536SOL     OW34243   1.280   1.242   8.531 -0.1071  0.3250  0.0659
 7536SOL    HW134244   1.294   1.182   8.605 -1.1890  0.5859  0.4830
 7536SOL    HW234245   1.367   1.270   8.505  0.3840 -0.3687  0.9400
 7537SOL     OW34246   2.289   2.506   2.484  0.2112  0.2620  0.1631
 7537SOL    HW134247   2.324   2.504   2.573 -1.0924  0.5070  0.6914
 7537SOL    HW234248   2.309   2.420   2.447  2.1078  0.0753  1.6186
 7538SOL     OW34249   1.827   1.577  12.678  0.9925 -0.3560  0.1123
 7538SOL    HW134250   1.781   1.493  12.668  0.8624 -0.3090  0.3175
 7538SOL    HW234251   1.914   1.559  12.712  1.4175  1.3022 -0.1174
 7539SOL     OW34252   3.373   1.273  14.566  0.6183  0.2613 -0.5858
 7539SOL    HW134253   3.412   1.203  14.619 -0.6369  0.4479  0.5912
 7539SOL    HW234254   3.282   1.246  14.569  0.5346  0.6962  1.1590
 7540SOL     OW34255   4.503   4.101   9.756  0.0688 -0.1311 -0.5326
 7540SOL    HW134256   4.533   4.153   9.681  0.9170 -2.0244 -1.5107
 7540SOL    HW234257   4.589   4.089   9.795 -0.5252 -2.4538  0.0830
 7541SOL     OW34258   3.327   3.911   1.858 -0.0911  0.1664 -0.2892
 7541SOL    HW134259   3.369   3.980   1.806  2.0502  0.6576  2.1525
 7541SOL    HW234260   3.413   3.884   1.891 -0.0738 -0.5156 -0.8923
 7542SOL     OW34261   1.293   2.882  17.503 -0.3483  0.2671 -0.5074
 7542SOL    HW134262   1.310   2.943  17.574 -1.2369 -1.3012  1.0654
 7542SOL    HW234263   1.375   2.886  17.453  0.4888 -0.9955  0.7675
 7543SOL     OW34264   4.548   1.234  13.885  0.3713  0.0567 -0.8019
 7543SOL    HW134265   4.547   1.142  13.858  1.1101  0.0778 -0.9084
 7543SOL    HW234266   4.598   1.244  13.965  0.3175  1.5435 -0.9537
 7544SOL     OW34267   3.646   1.371   6.189 -0.4805  0.4613  0.1972
 7544SOL    HW134268   3.557   1.375   6.154 -0.5791 -0.1471  0.3857
 7544SOL    HW234269   3.636   1.401   6.280 -0.8274  1.0869 -0.0490
 7545SOL     OW34270   0.900   1.015   4.602 -0.1739 -0.2805  0.1454
 7545SOL    HW134271   0.905   1.018   4.506 -1.6478 -0.6732  0.0583
 7545SOL    HW234272   0.811   1.037   4.627 -0.1337 -1.1434  1.0169
 7546SOL     OW34273   1.722   3.547   7.901  0.4112 -0.2253  0.5239
 7546SOL    HW134274   1.817   3.540   7.890 -0.0831 -2.9997 -1.8051
 7546SOL    HW234275   1.702   3.459   7.930 -0.4964 -0.2889 -0.2842
 7547SOL     OW34276   0.366   4.680  11.537 -0.1846 -0.1545 -0.2584
 7547SOL    HW134277   0.425   4.671  11.612 -1.3068 -0.9972  0.5217
 7547SOL    HW234278   0.388   4.616  11.469  0.1753  0.3042 -0.5700
 7548SOL     OW34279   3.882   3.466   5.035  0.4280  0.0376  0.6767
 7548SOL    HW134280   3.959   3.499   4.988  0.4061 -0.9646 -0.0636
 7548SOL    HW234281   3.916   3.399   5.094 -1.1423 -0.9700  0.4374
 7549SOL     OW34282   3.824   4.735  15.416  0.1852 -0.1519  0.2773
 7549SOL    HW134283   3.915   0.005  15.388 -0.5751  3.0985 -1.1153
 7549SOL    HW234284   3.795   4.649  15.386  1.2462 -0.7511  0.9753
 7550SOL     OW34285   0.578   4.081  10.943  0.0776 -0.1522  0.9580
 7550SOL    HW134286   0.641   4.141  10.902 -0.0320  1.1273  2.6634
 7550SOL    HW234287   0.636   4.009  10.969  2.1771  1.1962  0.0735
 7551SOL     OW34288   0.685   0.645   5.802  0.0103  0.3251 -0.2958
 7551SOL    HW134289   0.692   0.564   5.751  0.5006 -0.2637  0.7004
 7551SOL    HW234290   0.604   0.630   5.851  0.2413  0.5661  0.1606
 7552SOL     OW34291   2.121   0.546   5.906  0.5475  0.1126  0.0826
 7552SOL    HW134292   2.078   0.505   5.831  0.1989  2.1160 -0.8085
 7552SOL    HW234293   2.089   0.636   5.895  0.8770  0.2239  0.0437
 7553SOL     OW34294   2.763   1.896   8.144  0.0682  0.6564  0.3073
 7553SOL    HW134295   2.692   1.960   8.153  1.0814  1.7032  0.8460
 7553SOL    HW234296   2.751   1.832   8.214 -4.0982  0.2803 -0.7465
 7554SOL     OW34297   2.911   3.418   6.030  0.4461  0.0827  0.0670
 7554SOL    HW134298   2.871   3.351   5.974  1.7483  1.3297 -2.3910
 7554SOL    HW234299   2.843   3.431   6.096  0.3958  0.1740 -0.0029
 7555SOL     OW34300   4.275   3.094   7.229  0.3316 -0.6172 -0.0771
 7555SOL    HW134301   4.304   3.184   7.242  0.7939 -0.7643 -0.0845
 7555SOL    HW234302   4.315   3.071   7.144  0.6125 -0.5036  0.0241
 7556SOL     OW34303   3.854   0.369   4.660  0.0060  0.6802  0.4934
 7556SOL    HW134304   3.885   0.421   4.734  0.4318  1.0877  0.0324
 7556SOL    HW234305   3.768   0.409   4.642 -1.2569 -3.7644 -3.3256
 7557SOL     OW34306   0.709   3.752   9.302  0.3819 -0.1478 -0.3121
 7557SOL    HW134307   0.788   3.697   9.304 -0.1499 -0.7843  2.8641
 7557SOL    HW234308   0.722   3.800   9.221 -3.1444  0.4455 -0.5237
 7558SOL     OW34309   0.869   2.710   8.678  0.2705 -0.3356  0.5378
 7558SOL    HW134310   0.773   2.703   8.675  0.3540 -1.7152  0.9188
 7558SOL    HW234311   0.875   2.805   8.670 -1.2360 -0.0752  2.4975
 7559SOL     OW34312   3.674   3.997   3.041  0.9384  0.4727  0.0544
 7559SOL    HW134313   3.581   4.014   3.058  0.9862 -1.0955  1.8814
 7559SOL    HW234314   3.675   4.035   2.953 -2.1035 -0.6272 -0.4545
 7560SOL     OW34315   1.303   2.556  11.747 -0.1595  0.2187  0.4403
 7560SOL    HW134316   1.229   2.495  11.744  0.2446 -0.2458 -0.0287
 7560SOL    HW234317   1.256   2.635  11.721  0.9314  1.1403  1.2871
 7561SOL     OW34318   3.525   0.428   6.858 -0.2342  0.2612 -0.2273
 7561SOL    HW134319   3.605   0.468   6.824  0.6056 -2.7432 -1.7605
 7561SOL    HW234320   3.525   0.462   6.948  0.7548 -0.8851  0.2094
 7562SOL     OW34321   2.928   3.417   6.383 -0.8516  0.1537 -0.2365
 7562SOL    HW134322   2.859   3.357   6.352 -0.4406  0.9828 -2.7270
 7562SOL    HW234323   2.918   3.487   6.318  0.4849  0.6622  0.1223
 7563SOL     OW34324   1.544   3.751   7.839  0.9198  0.0537 -0.2469
 7563SOL    HW134325   1.516   3.762   7.930 -0.8385  0.6264 -0.8574
 7563SOL    HW234326   1.595   3.670   7.843  0.7716 -0.0317 -0.0822
 7564SOL     OW34327   3.691   1.817   8.664  0.0620 -0.2692 -0.4793
 7564SOL    HW134328   3.669   1.814   8.757  0.8692 -1.8152 -0.3445
 7564SOL    HW234329   3.721   1.726   8.660  0.0507 -0.2390 -1.2204
 7565SOL     OW34330   0.794   1.906   3.115 -0.4336  0.2293 -0.0049
 7565SOL    HW134331   0.835   1.989   3.090  0.5756 -0.8781 -1.9712
 7565SOL    HW234332   0.829   1.848   3.047 -1.5017  0.7503 -0.9980
 7566SOL     OW34333   3.125   0.164   7.209  0.4271  0.3230  0.1653
 7566SOL    HW134334   3.151   0.074   7.192 -0.3561  0.2745 -0.7903
 7566SOL    HW234335   3.185   0.212   7.151 -0.0098  0.3195 -0.2955
 7567SOL     OW34336   0.724   1.963  12.371 -0.1321  0.4768 -0.3887
 7567SOL    HW134337   0.719   1.942  12.465  0.3622  2.5002  0.0940
 7567SOL    HW234338   0.813   1.934  12.352  0.2496  1.5933 -0.3040
 7568SOL     OW34339   3.057   1.630   5.459  0.8925  0.0162 -0.2770
 7568SOL    HW134340   2.994   1.578   5.509  1.4019  0.3696  0.7225
 7568SOL    HW234341   3.134   1.636   5.516  1.3717 -0.6001 -0.8573
 7569SOL     OW34342   0.933   2.486   8.833 -0.3764  0.0735 -0.4727
 7569SOL    HW134343   0.960   2.457   8.746  0.8288 -2.1767  0.6551
 7569SOL    HW234344   0.913   2.579   8.822  0.9521  0.5862  1.4757
 7570SOL     OW34345   3.752   4.330   8.835  0.2474  0.2795 -0.1544
 7570SOL    HW134346   3.725   4.256   8.781 -1.3028 -0.2916  1.3661
 7570SOL    HW234347   3.669   4.363   8.869 -0.4763 -1.4245 -0.2519
 7571SOL     OW34348   1.734   2.149   8.449 -0.3680 -0.2784  0.2379
 7571SOL    HW134349   1.805   2.112   8.501 -0.4956  0.6055  1.0568
 7571SOL    HW234350   1.743   2.115   8.360 -0.0197  0.1351  0.1148
 7572SOL     OW34351   4.575   4.321   7.783  0.4665 -0.8182 -0.8401
 7572SOL    HW134352   4.504   4.377   7.813  0.6369 -0.9361 -0.2273
 7572SOL    HW234353   4.573   4.246   7.842 -0.8769  0.1487  0.3487
 7573SOL     OW34354   3.307   2.016   4.615  0.4175 -0.6051 -0.5797
 7573SOL    HW134355   3.280   2.076   4.545  1.5321  1.0583  0.4136
 7573SOL    HW234356   3.237   2.012   4.679  2.1322  0.7259  1.3634
 7574SOL     OW34357   2.655   3.583   3.978  0.1008  0.3653  0.1361
 7574SOL    HW134358   2.689   3.619   4.060 -0.1733  1.6421 -0.3164
 7574SOL    HW234359   2.612   3.505   4.013  0.0813  1.5896  2.8090
 7575SOL     OW34360   2.482   3.159   5.236 -0.3039 -0.7391  0.3455
 7575SOL    HW134361   2.457   3.066   5.238 -0.4798 -0.6865  0.7078
 7575SOL    HW234362   2.543   3.162   5.310  0.2193  0.2772 -0.1369
 7576SOL     OW34363   0.660   0.310   0.032  0.7520  0.0445 -0.0762
 7576SOL    HW134364   0.744   0.357   0.037  0.5945  0.4231 -1.0448
 7576SOL    HW234365   0.602   0.371  17.743 -0.3387 -0.3569  0.7935
 7577SOL     OW34366   3.066   1.111   3.385  0.2596  0.7147 -0.4331
 7577SOL    HW134367   3.045   1.023   3.415 -0.3024  0.4009 -1.7864
 7577SOL    HW234368   2.983   1.156   3.403 -0.3429 -1.3429  1.9616
 7578SOL     OW34369   3.718   4.677   6.799 -0.4161 -0.0063  0.0231
 7578SOL    HW134370   3.655   4.607   6.783  3.6030 -4.0525  1.6119
 7578SOL    HW234371   3.680   0.004   6.742 -0.6143 -0.9735 -0.9790
 7579SOL     OW34372   2.982   2.632   7.220  0.1808  0.9586 -0.5301
 7579SOL    HW134373   3.075   2.649   7.234  0.3326 -0.6767  0.5198
 7579SOL    HW234374   2.953   2.715   7.258 -0.0523  0.3748  0.5706
 7580SOL     OW34375   2.367   2.930   7.573 -0.5389  0.1291 -0.9515
 7580SOL    HW134376   2.424   2.984   7.629  1.0241 -2.1966 -0.3092
 7580SOL    HW234377   2.348   2.861   7.636 -0.0287  0.2091 -0.7072
 7581SOL     OW34378   1.117   4.504   4.390  0.2247  0.2163 -0.2807
 7581SOL    HW134379   1.188   4.466   4.339 -0.5810 -1.1300 -0.4132
 7581SOL    HW234380   1.151   4.500   4.479 -0.1019  2.1813 -0.0667
 7582SOL     OW34381   3.396   2.523  12.825 -0.6695  0.0431 -0.1284
 7582SOL    HW134382   3.332   2.475  12.877  0.7098 -2.0528 -0.3771
 7582SOL    HW234383   3.476   2.498  12.870 -0.6776  1.4812  0.6990
 7583SOL     OW34384   3.949   2.041   1.421  0.2411 -0.4844 -0.1061
 7583SOL    HW134385   4.033   1.997   1.407  0.9394 -0.1156  3.0040
 7583SOL    HW234386   3.907   2.017   1.338 -1.0423  2.8752 -0.4494
 7584SOL     OW34387   0.654   1.533   7.971 -0.6457  0.3316  0.3671
 7584SOL    HW134388   0.637   1.589   7.895 -0.0864 -2.4764 -1.8305
 7584SOL    HW234389   0.565   1.533   8.005 -1.4347  0.6930 -1.7018
 7585SOL     OW34390   0.170   2.024  13.480 -0.3007 -0.5105  0.0275
 7585SOL    HW134391   0.149   1.952  13.540 -0.9083 -3.0373 -3.2030
 7585SOL    HW234392   0.109   1.997  13.411 -1.1325  1.9978 -0.1969
 7586SOL     OW34393   0.552   3.320   0.615  0.1518 -0.3384 -0.0552
 7586SOL    HW134394   0.471   3.331   0.566  0.0458  0.6981  0.3600
 7586SOL    HW234395   0.517   3.239   0.653 -0.3641 -0.8464 -1.6129
 7587SOL     OW34396   1.948   3.043   3.852 -0.1564  0.1081 -0.4220
 7587SOL    HW134397   1.929   2.981   3.922 -1.3821 -0.1508 -0.9854
 7587SOL    HW234398   1.908   3.126   3.878  1.5009  0.6708  0.3136
 7588SOL     OW34399   3.067   0.893   5.917 -0.2912  0.3839 -0.2846
 7588SOL    HW134400   3.134   0.825   5.904 -2.2956 -1.9807  1.8818
 7588SOL    HW234401   3.055   0.876   6.010  1.6487  0.5494  0.0073
 7589SOL     OW34402   1.922   2.626   7.359 -0.1181 -0.2185 -0.4020
 7589SOL    HW134403   1.844   2.653   7.406 -0.4272 -2.9935  0.6232
 7589SOL    HW234404   1.951   2.546   7.402  2.5875  1.6399  1.2646
 7590SOL     OW34405   4.271   3.550  11.155  0.5000  0.6696 -0.3218
 7590SOL    HW134406   4.189   3.524  11.199  0.4843  1.4503  0.1185
 7590SOL    HW234407   4.257   3.522  11.065 -1.3549  1.6226 -0.3305
 7591SOL     OW34408   1.828   2.130   3.820 -0.4100  0.4351 -0.0905
 7591SOL    HW134409   1.736   2.135   3.794 -0.5968  0.0795  0.4869
 7591SOL    HW234410   1.844   2.038   3.799  0.1843  1.3671 -3.6818
 7592SOL     OW34411   2.480   3.141  15.140  0.2721 -0.1874 -0.1326
 7592SOL    HW134412   2.435   3.071  15.188  1.0387 -0.3237  0.3843
 7592SOL    HW234413   2.570   3.111  15.155  0.6554  0.8712 -0.3541
 7593SOL     OW34414   3.518   1.890   3.982  0.6222  0.4556  0.5862
 7593SOL    HW134415   3.584   1.889   3.913  0.1633 -0.9779  0.1779
 7593SOL    HW234416   3.439   1.870   3.932 -0.4230  2.7175  1.3036
 7594SOL     OW34417   2.345   1.439  10.825 -0.2586 -0.1946  0.1398
 7594SOL    HW134418   2.384   1.512  10.777 -0.9476 -0.3636 -0.6728
 7594SOL    HW234419   2.371   1.360  10.777 -0.0392  0.5317 -0.9241
 7595SOL     OW34420   1.423   4.524   4.791  0.3792  0.1059 -0.2805
 7595SOL    HW134421   1.406   4.431   4.779  0.0858  0.0974  0.2081
 7595SOL    HW234422   1.505   4.543   4.744  0.5686  0.0542  0.0297
 7596SOL     OW34423   0.060   2.029   5.040  0.5004 -0.3381 -0.0171
 7596SOL    HW134424   4.733   2.079   5.087 -1.3830 -3.3480  0.4456
 7596SOL    HW234425   0.137   2.078   5.070  0.6422 -1.1484  0.9422
 7597SOL     OW34426   2.091   1.545   2.033  0.1485 -0.1117  0.3001
 7597SOL    HW134427   2.144   1.494   1.972 -0.8105  0.0575 -0.6774
 7597SOL    HW234428   2.159   1.573   2.094  1.5498 -3.0385  0.0515
 7598SOL     OW34429   2.817   2.391   8.755  0.7129 -0.6252 -0.3001
 7598SOL    HW134430   2.787   2.377   8.845 -1.4708  1.5701 -0.6798
 7598SOL    HW234431   2.828   2.298   8.738  0.7235 -0.4968 -1.0013
 7599SOL     OW34432   1.194   4.451   4.022  0.1772 -0.0591 -0.0392
 7599SOL    HW134433   1.279   4.467   4.063  1.0255 -0.4480 -1.6429
 7599SOL    HW234434   1.211   4.478   3.931 -0.7768 -0.5297 -0.3621
 7600SOL     OW34435   2.152   0.618   5.155 -0.0582 -0.7506  0.0968
 7600SOL    HW134436   2.237   0.576   5.166  0.3226 -0.2416 -0.8580
 7600SOL    HW234437   2.156   0.699   5.206 -2.4741  0.5776 -1.7989
 7601SOL     OW34438   0.232   4.539   5.872 -0.2578 -0.0370 -0.4910
 7601SOL    HW134439   0.196   4.535   5.783 -3.0015  0.5934  0.5891
 7601SOL    HW234440   0.264   4.627   5.890  0.7152 -0.0004 -2.3243
 7602SOL     OW34441   2.177   1.672   2.666 -0.4729 -0.5844  0.3922
 7602SOL    HW134442   2.159   1.584   2.634  1.9598 -0.2052 -2.0508
 7602SOL    HW234443   2.090   1.711   2.661 -1.0619 -1.7135  1.8176
 7603SOL     OW34444   4.091   1.216  14.764 -0.4323 -0.0175  0.1158
 7603SOL    HW134445   4.052   1.145  14.714  0.8557  0.9535 -2.2773
 7603SOL    HW234446   4.019   1.273  14.791 -1.0694 -0.5212 -0.5240
 7604SOL     OW34447   4.033   1.200   8.332  0.0197 -0.4992  0.0281
 7604SOL    HW134448   3.962   1.176   8.272  0.4895  0.0312 -0.7500
 7604SOL    HW234449   4.055   1.117   8.375 -0.4623  0.1516  1.5257
 7605SOL     OW34450   4.517   3.346   6.656  0.5940  0.0305 -0.3140
 7605SOL    HW134451   4.487   3.273   6.602  1.2648 -0.0575 -0.5728
 7605SOL    HW234452   4.592   3.307   6.702  1.2450  1.2295 -0.3583
 7606SOL     OW34453   2.900   3.012   7.861 -0.0804  0.4341  0.1229
 7606SOL    HW134454   2.911   3.106   7.844 -0.7121  0.5773  0.4993
 7606SOL    HW234455   2.944   2.979   7.783 -3.4753 -1.3106 -1.0232
 7607SOL     OW34456   0.581   2.776   7.195  0.0044 -0.3845 -0.0241
 7607SOL    HW134457   0.603   2.762   7.103 -0.9399  3.0228 -0.7426
 7607SOL    HW234458   0.486   2.787   7.201  0.1874  0.4783  1.1932
 7608SOL     OW34459   2.534   2.722   6.004 -0.1826  0.3102 -0.4265
 7608SOL    HW134460   2.544   2.785   6.076  2.1371  2.5973 -2.7642
 7608SOL    HW234461   2.439   2.734   6.005 -0.0582  1.2746  1.2752
 7609SOL     OW34462   3.377   0.208   6.188 -0.8719 -0.3086 -0.1845
 7609SOL    HW134463   3.450   0.267   6.207 -0.0545 -1.7743  1.1385
 7609SOL    HW234464   3.417   0.181   6.105 -1.7742  3.8105 -1.9384
 7610SOL     OW34465   2.297   0.541   7.497  0.4099  0.7275 -0.3794
 7610SOL    HW134466   2.329   0.505   7.579  1.9960  2.0804 -0.4090
 7610SOL    HW234467   2.366   0.601   7.469 -0.2591  1.3147 -0.7820
 7611SOL     OW34468   3.641   1.533  17.423 -0.0901  0.2592 -0.7573
 7611SOL    HW134469   3.668   1.590  17.351  3.9372 -1.2200 -0.3649
 7611SOL    HW234470   3.618   1.596  17.491  1.5680 -1.5663  1.5077
 7612SOL     OW34471   0.458   1.933   7.352  0.3733 -0.2008 -0.2443
 7612SOL    HW134472   0.394   1.946   7.283  2.0840  2.0859 -1.4267
 7612SOL    HW234473   0.458   1.839   7.370 -0.4302  0.1008  1.3013
 7613SOL     OW34474   1.260   0.681   9.733 -0.4495 -0.1159 -0.2121
 7613SOL    HW134475   1.246   0.586   9.726  1.7406 -0.3129 -1.8645
 7613SOL    HW234476   1.181   0.706   9.780 -0.5086 -0.0031 -0.3745
 7614SOL     OW34477   3.380   1.950   5.705 -0.3274  0.7760  0.2433
 7614SOL    HW134478   3.468   1.976   5.679 -0.2790 -0.0480 -0.3879
 7614SOL    HW234479   3.335   2.035   5.704 -0.5762  0.6338 -0.3768
 7615SOL     OW34480   3.537   0.515   7.108 -0.1651 -0.1451 -0.2791
 7615SOL    HW134481   3.527   0.609   7.097 -0.9495 -0.2385 -0.3254
 7615SOL    HW234482   3.568   0.506   7.198 -1.1307 -1.7553 -0.0946
 7616SOL     OW34483   1.285   1.314  14.680 -0.6027 -0.1454 -0.1997
 7616SOL    HW134484   1.224   1.297  14.609 -1.0631 -3.0000  0.8911
 7616SOL    HW234485   1.250   1.251  14.743  0.1187  0.5457  0.8949
 7617SOL     OW34486   0.565   0.972  16.257 -0.2158  0.2101  0.5555
 7617SOL    HW134487   0.596   0.908  16.193  1.7222  1.0053  0.6909
 7617SOL    HW234488   0.613   0.945  16.335 -0.8729 -2.2025  0.1056
 7618SOL     OW34489   3.758   0.553   4.065  0.5577  0.1037  0.1754
 7618SOL    HW134490   3.781   0.524   4.153 -0.2650  0.8893  0.6548
 7618SOL    HW234491   3.714   0.634   4.092  1.1572  1.9797 -4.4129
 7619SOL     OW34492   1.599   4.591   2.277  0.4063 -0.4164  0.3560
 7619SOL    HW134493   1.660   4.558   2.212  1.0549 -2.0198  1.7756
 7619SOL    HW234494   1.655   4.624   2.348 -0.5770 -0.1744  1.0147
 7620SOL     OW34495   2.815   4.176   6.471  0.4850  0.3015  0.2296
 7620SOL    HW134496   2.811   4.165   6.566  1.0453  1.0187  0.3399
 7620SOL    HW234497   2.857   4.261   6.480  0.3710  0.3424  0.3716
 7621SOL     OW34498   4.355   3.667   9.447 -0.2790 -0.0065 -0.4528
 7621SOL    HW134499   4.372   3.727   9.520 -1.6421  0.4943 -0.5424
 7621SOL    HW234500   4.370   3.586   9.495 -0.5784  0.9698  1.3133
 7622SOL     OW34501   3.774   0.982  15.740 -0.0444 -0.0108  0.5084
 7622SOL    HW134502   3.745   1.016  15.655 -1.0095  1.1401  1.3080
 7622SOL    HW234503   3.859   0.955  15.704 -0.9160 -2.9170  0.5814
 7623SOL     OW34504   2.861   0.815   3.325  0.4312  0.3612 -0.1634
 7623SOL    HW134505   2.817   0.882   3.377 -0.8011  0.1761 -0.9579
 7623SOL    HW234506   2.879   0.753   3.395  0.5183  1.5582  0.8591
 7624SOL     OW34507   2.956   0.903   1.572 -0.3019 -0.2087 -0.2202
 7624SOL    HW134508   2.975   0.987   1.530  0.2742  0.1183  0.6998
 7624SOL    HW234509   2.961   0.842   1.499  1.1862  1.2511 -1.3371
 7625SOL     OW34510   0.782   2.409   3.764  0.1803  0.2876  0.4942
 7625SOL    HW134511   0.861   2.371   3.725 -1.5686 -0.1051 -2.6014
 7625SOL    HW234512   0.713   2.346   3.746  1.0976  0.7973 -4.7802
 7626SOL     OW34513   4.540   3.957   8.420  0.0062  0.1383  0.1402
 7626SOL    HW134514   4.458   3.926   8.459 -0.0090  1.7774  1.4103
 7626SOL    HW234515   4.602   3.900   8.464  1.5508  1.6453 -0.1103
 7627SOL     OW34516   4.001   0.394  15.221  0.4004 -0.0607  0.4379
 7627SOL    HW134517   4.060   0.358  15.288 -0.0763  1.9681  1.9456
 7627SOL    HW234518   3.913   0.372  15.254  0.1430  0.8760  0.3565
 7628SOL     OW34519   2.988   4.153   5.353 -0.8238 -0.1030 -0.0065
 7628SOL    HW134520   2.966   4.236   5.312  1.1552  1.1623  1.4901
 7628SOL    HW234521   3.037   4.109   5.283 -1.4982 -2.0191  0.7202
 7629SOL     OW34522   2.185   1.157   2.578  0.0440  0.5922  0.2542
 7629SOL    HW134523   2.215   1.104   2.505  0.8953 -0.1961  1.1681
 7629SOL    HW234524   2.114   1.105   2.617 -0.6049 -0.1795 -1.9861
 7630SOL     OW34525   2.816   3.920   6.990 -0.2596  0.1397  0.1146
 7630SOL    HW134526   2.744   3.951   7.045 -0.5518 -0.1524 -0.1095
 7630SOL    HW234527   2.773   3.866   6.924  0.6692  1.8239 -1.9070
 7631SOL     OW34528   4.404   2.843   4.407 -0.0273 -0.7173  0.1225
 7631SOL    HW134529   4.494   2.812   4.414  0.2911 -0.1598 -1.4082
 7631SOL    HW234530   4.385   2.889   4.489 -2.2036 -2.4596  0.5923
 7632SOL     OW34531   2.682   0.355   1.056  0.1314 -0.0086 -0.4324
 7632SOL    HW134532   2.715   0.444   1.042 -0.2012  0.2511  0.4369
 7632SOL    HW234533   2.679   0.322   0.966  0.3403 -0.9568 -0.0895
 7633SOL     OW34534   0.780   2.947   2.042 -0.1725  0.0585  0.2707
 7633SOL    HW134535   0.845   2.885   2.010 -1.4535  0.1449 -2.4562
 7633SOL    HW234536   0.814   2.953   2.131 -0.4972 -0.3126  0.4172
 7634SOL     OW34537   3.493   1.957  12.055  0.5350 -0.8590  0.4646
 7634SOL    HW134538   3.556   1.974  12.125  2.9936 -0.9262 -1.7461
 7634SOL    HW234539   3.413   1.957  12.108 -0.9032  1.0246 -1.7132
 7635SOL     OW34540   3.669   2.660   8.528  0.1855 -0.1712  0.1571
 7635SOL    HW134541   3.612   2.717   8.580  0.3802 -1.9970  2.3645
 7635SOL    HW234542   3.742   2.718   8.507 -0.5047  0.8407  0.5849
 7636SOL     OW34543   2.140   2.409   8.006 -0.6827 -0.2724 -0.3042
 7636SOL    HW134544   2.104   2.418   8.094 -0.3575  1.3017 -0.3401
 7636SOL    HW234545   2.136   2.313   8.008 -1.9211 -0.2089  0.6469
 7637SOL     OW34546   3.622   3.034   7.632 -0.4655 -0.2857  0.0418
 7637SOL    HW134547   3.582   2.963   7.583 -0.7756 -0.4176  0.4860
 7637SOL    HW234548   3.703   3.045   7.582 -1.7014 -0.7448 -2.0199
 7638SOL     OW34549   0.439   2.783  12.171  0.1526 -0.0366  0.5638
 7638SOL    HW134550   0.365   2.823  12.128  1.2102  2.5469  1.1790
 7638SOL    HW234551   0.439   2.706  12.113  0.4153 -0.7397  1.4852
 7639SOL     OW34552   3.620   2.785   3.822  0.0162  0.2166  0.3847
 7639SOL    HW134553   3.531   2.800   3.853 -0.2032 -0.8303  0.2925
 7639SOL    HW234554   3.614   2.731   3.743 -0.0589  1.0730 -0.1940
 7640SOL     OW34555   3.133   0.486  16.226 -0.1429 -0.2053  0.0812
 7640SOL    HW134556   3.177   0.413  16.183  1.5484  0.6195  0.4357
 7640SOL    HW234557   3.193   0.552  16.193  0.1988 -1.8131 -2.5256
 7641SOL     OW34558   1.218   0.142   6.569  0.2372 -0.3243  0.1077
 7641SOL    HW134559   1.128   0.175   6.570 -0.5600 -2.5412  0.8430
 7641SOL    HW234560   1.246   0.146   6.661 -0.2531 -2.7894  0.3687
 7642SOL     OW34561   1.931   2.556   1.243 -0.3145  0.3117 -0.0149
 7642SOL    HW134562   1.992   2.580   1.312  0.9833  0.2228 -1.1294
 7642SOL    HW234563   1.991   2.538   1.171  3.0020  1.5074  2.4653
 7643SOL     OW34564   2.959   3.409   0.925 -0.3346 -0.3336 -0.3719
 7643SOL    HW134565   2.897   3.358   0.977 -0.3610 -0.1256 -0.1926
 7643SOL    HW234566   2.890   3.447   0.870  0.5164 -0.5252 -1.5686
 7644SOL     OW34567   0.317   3.407  16.473 -0.3444  0.2203 -0.1202
 7644SOL    HW134568   0.308   3.392  16.379 -0.4546 -1.4059  0.1437
 7644SOL    HW234569   0.405   3.442  16.483  0.0821 -1.0919  0.7114
 7645SOL     OW34570   3.288   2.885   7.669 -0.4780  0.3013  0.4555
 7645SOL    HW134571   3.194   2.899   7.675 -0.4222  0.7772  0.1773
 7645SOL    HW234572   3.331   2.968   7.691 -0.2428  0.6688 -1.4438
 7646SOL     OW34573   3.604   2.482   5.772  0.4151  0.2120 -0.9299
 7646SOL    HW134574   3.680   2.486   5.831 -2.1800 -1.6150  2.5915
 7646SOL    HW234575   3.593   2.388   5.755 -2.1773 -0.0307  2.0412
 7647SOL     OW34576   2.924   2.889   7.339  0.1600 -0.7924  0.0133
 7647SOL    HW134577   2.908   2.983   7.344  1.8699 -0.4296 -1.3196
 7647SOL    HW234578   3.016   2.895   7.312  0.3875 -2.0521  0.5139
 7648SOL     OW34579   4.457   2.317   6.428 -0.4335  0.2563 -0.8937
 7648SOL    HW134580   4.479   2.229   6.458 -4.4676  0.1560  1.7149
 7648SOL    HW234581   4.510   2.368   6.490  0.2396 -2.2151  0.5536
 7649SOL     OW34582   4.463   1.222   7.730 -0.2654 -0.4880  0.1866
 7649SOL    HW134583   4.436   1.161   7.799 -2.4975  0.1516 -0.1398
 7649SOL    HW234584   4.547   1.188   7.697  1.4975  1.5929  2.4914
 7650SOL     OW34585   4.471   3.403   7.353 -0.1142  0.0214  0.0511
 7650SOL    HW134586   4.519   3.359   7.283  0.0660 -0.8464  0.7031
 7650SOL    HW234587   4.530   3.369   7.421 -0.4290 -0.2712  0.1781
 7651SOL     OW34588   2.915   2.064   0.251  0.0434  0.2158  0.1664
 7651SOL    HW134589   2.836   2.012   0.264 -0.7925  1.3587 -0.3467
 7651SOL    HW234590   2.956   2.060   0.337  2.5042 -0.7927 -1.0500
 7652SOL     OW34591   2.441   1.977   7.139 -0.1190 -0.2452 -0.8183
 7652SOL    HW134592   2.358   1.948   7.102  0.2182 -1.7871 -0.3667
 7652SOL    HW234593   2.486   2.023   7.068  1.9701 -1.3100 -0.1868
 7653SOL     OW34594   4.541   4.090   2.482 -0.2340  0.0417 -0.7199
 7653SOL    HW134595   4.481   4.084   2.408 -0.2380  0.5913 -0.7609
 7653SOL    HW234596   4.489   4.055   2.555 -0.4625  1.7717 -0.0638
 7654SOL     OW34597   0.184   2.214   5.448 -0.5853 -0.7187  0.0226
 7654SOL    HW134598   0.190   2.272   5.524 -0.1511 -1.3227  0.4496
 7654SOL    HW234599   0.089   2.206   5.441 -0.3821 -2.5281 -0.6470
 7655SOL     OW34600   1.889   3.026   4.796  0.0290 -0.4244  0.4330
 7655SOL    HW134601   1.931   2.959   4.742 -0.8260  0.1644 -0.9724
 7655SOL    HW234602   1.798   3.012   4.771 -0.1291  0.7786  0.3080
 7656SOL     OW34603   0.900   4.367   3.542  0.1339  0.0990 -0.9822
 7656SOL    HW134604   0.916   4.312   3.465 -1.2953  0.8341 -1.8187
 7656SOL    HW234605   0.839   4.312   3.592  1.3386  0.2075  0.6019
 7657SOL     OW34606   4.448   2.052   5.939  0.2969 -0.2353 -0.0088
 7657SOL    HW134607   4.463   2.132   5.889 -2.9763  1.7680  2.1958
 7657SOL    HW234608   4.519   1.994   5.911  1.6077  1.3844 -0.0964
 7658SOL     OW34609   1.328   3.536  15.754  0.0862  0.2165  0.2439
 7658SOL    HW134610   1.397   3.561  15.816 -0.2295  3.4809 -0.7452
 7658SOL    HW234611   1.288   3.620  15.733  0.7157  0.4817  0.0803
 7659SOL     OW34612   0.202   3.674   1.871 -0.2857 -0.2321 -0.0857
 7659SOL    HW134613   0.230   3.728   1.944 -0.1273 -0.3836 -0.0340
 7659SOL    HW234614   0.285   3.637   1.839 -0.7129 -0.5036 -0.8726
 7660SOL     OW34615   1.042   3.914   7.346  0.1422  0.2124  0.1281
 7660SOL    HW134616   1.075   3.983   7.404 -0.5037 -0.9186  1.8434
 7660SOL    HW234617   1.018   3.842   7.405  0.7563 -0.2794 -0.2207
 7661SOL     OW34618   4.262   3.090   3.200  0.1346  0.3616  0.1933
 7661SOL    HW134619   4.229   3.180   3.198  1.9178  1.0159 -0.5010
 7661SOL    HW234620   4.230   3.048   3.279  1.4633  0.7827  0.9563
 7662SOL     OW34621   2.568   0.688   5.520  0.3611  0.6774  0.1564
 7662SOL    HW134622   2.651   0.724   5.487  0.4427 -1.2795 -1.7985
 7662SOL    HW234623   2.518   0.766   5.495 -2.3249 -1.8030 -2.2967
 7663SOL     OW34624   0.358   0.387  11.862  0.0660 -0.2701 -0.4045
 7663SOL    HW134625   0.316   0.310  11.823  0.3908 -1.6096  1.8972
 7663SOL    HW234626   0.294   0.448  11.825  1.2036 -0.0050 -1.9490
 7664SOL     OW34627   1.075   2.883   4.820  0.1688  0.1632  0.3710
 7664SOL    HW134628   1.072   2.960   4.878  1.4436  0.7834 -0.3957
 7664SOL    HW234629   1.132   2.825   4.870  0.6182 -0.3688 -0.7613
 7665SOL     OW34630   4.084   1.020   4.382  0.8654  0.6343  0.2238
 7665SOL    HW134631   4.071   1.089   4.448  0.1517  1.4792 -0.8008
 7665SOL    HW234632   4.023   1.049   4.314  1.5636 -1.0025 -1.0995
 7666SOL     OW34633   2.505   2.946  14.395  0.2180 -0.6510 -0.0024
 7666SOL    HW134634   2.552   2.903  14.467  0.3702  0.0973  0.3464
 7666SOL    HW234635   2.522   3.036  14.421 -2.8685 -1.0151  3.2645
 7667SOL     OW34636   1.954   1.030  16.550  0.1793 -0.3886  0.2468
 7667SOL    HW134637   2.029   0.983  16.586  1.5515  0.5353 -1.3248
 7667SOL    HW234638   1.918   1.055  16.635  2.3912  1.6343  0.6043
 7668SOL     OW34639   3.417   4.053   3.960 -0.7261 -0.0398  0.1847
 7668SOL    HW134640   3.484   4.117   3.933  0.1040 -1.4305 -1.0384
 7668SOL    HW234641   3.457   3.971   3.932 -0.8273 -0.2905  0.7754
 7669SOL     OW34642   3.977   0.804   7.454 -0.5671  0.0761 -0.3307
 7669SOL    HW134643   4.056   0.768   7.413  0.8430  1.5173  1.1567
 7669SOL    HW234644   3.995   0.896   7.436  3.6417 -0.5390  0.8151
 7670SOL     OW34645   0.708   4.520   6.786  0.5666  0.7076 -0.1624
 7670SOL    HW134646   0.635   4.462   6.808 -0.5105  1.1593 -2.4847
 7670SOL    HW234647   0.783   4.461   6.796  0.8602  1.1220  0.0771
 7671SOL     OW34648   1.288   4.737  13.870  0.2372  0.3867 -0.3216
 7671SOL    HW134649   1.358   4.686  13.911 -1.8446 -0.2749  2.4055
 7671SOL    HW234650   1.225   0.012  13.940 -0.1185  2.2414 -1.0387
 7672SOL     OW34651   1.649   2.641  14.254  0.4438  0.7525 -0.0064
 7672SOL    HW134652   1.653   2.732  14.283  1.8771  0.2840  1.2629
 7672SOL    HW234653   1.630   2.595  14.336 -1.6258 -0.1108 -0.9488
 7673SOL     OW34654   2.785   0.017   7.110  0.1954  0.2869 -0.2132
 7673SOL    HW134655   2.824   4.683   7.159 -0.2626 -0.0591 -0.3693
 7673SOL    HW234656   2.715   0.051   7.165  0.2758 -0.4382  0.3376
 7674SOL     OW34657   0.327   2.974   5.142  0.3409 -0.2399  0.0610
 7674SOL    HW134658   0.353   2.951   5.053 -1.7445  0.4686 -0.7450
 7674SOL    HW234659   0.332   2.893   5.194 -1.1922 -1.6057 -1.8665
 7675SOL     OW34660   3.218   4.041   8.996 -0.0861 -0.5992  0.0355
 7675SOL    HW134661   3.302   4.028   9.040 -0.5901 -0.9483  0.9175
 7675SOL    HW234662   3.213   4.135   8.978 -0.8687 -0.5742  0.3469
 7676SOL     OW34663   1.610   0.443   6.300 -0.1651 -0.2345  0.2732
 7676SOL    HW134664   1.615   0.367   6.358 -0.9186  1.9317  3.2074
 7676SOL    HW234665   1.598   0.402   6.214 -0.8384 -0.3019  0.3957
 7677SOL     OW34666   0.253   1.754  11.537  0.5573  0.3122  0.2057
 7677SOL    HW134667   0.319   1.755  11.606  0.3591  0.4298  0.3948
 7677SOL    HW234668   0.196   1.823  11.571  1.0815  0.4317  0.8402
 7678SOL     OW34669   4.556   2.390   7.455  0.1864 -0.2689 -0.5617
 7678SOL    HW134670   4.592   2.477   7.468  3.0188 -1.7088  1.3281
 7678SOL    HW234671   4.498   2.376   7.530  1.4468 -0.5772  0.3620
 7679SOL     OW34672   0.032   0.817  15.227  0.4479 -0.6574 -0.0126
 7679SOL    HW134673   4.704   0.809  15.160 -0.2459  0.3248  0.5719
 7679SOL    HW234674   0.003   0.900  15.265 -1.5375 -1.2140 -0.3020
 7680SOL     OW34675   4.696   1.566   4.415 -0.2791  0.2635 -0.7471
 7680SOL    HW134676   4.634   1.634   4.393  2.0501  2.6421  0.0762
 7680SOL    HW234677   0.034   1.594   4.365  0.7296 -1.1979 -0.0177
 7681SOL     OW34678   0.209   1.399   0.169  0.6015  0.3926  0.1608
 7681SOL    HW134679   0.301   1.372   0.165  0.6018  0.7149 -1.7658
 7681SOL    HW234680   0.159   1.318   0.160  1.0210  0.1963 -0.3652
 7682SOL     OW34681   1.467   4.210   8.897  0.8307 -0.2406 -0.1682
 7682SOL    HW134682   1.510   4.232   8.815  0.5657 -3.0072 -1.0512
 7682SOL    HW234683   1.538   4.159   8.938  1.8480  2.0008  0.8297
 7683SOL     OW34684   3.331   0.767   4.531  0.0845  0.0653 -0.3692
 7683SOL    HW134685   3.347   0.722   4.448 -0.1889  0.8881 -0.8723
 7683SOL    HW234686   3.236   0.779   4.529  0.2277  1.3896  0.5942
 7684SOL     OW34687   3.439   1.137   0.089 -0.1233 -0.2106  0.0434
 7684SOL    HW134688   3.449   1.232   0.082 -2.0192 -0.0409 -0.5607
 7684SOL    HW234689   3.459   1.108   0.178 -1.1556 -1.1129 -0.0161
 7685SOL     OW34690   1.284   1.661   0.993 -0.2606 -0.2204 -0.4481
 7685SOL    HW134691   1.227   1.736   1.009 -3.0323 -2.5542  0.5684
 7685SOL    HW234692   1.222   1.602   0.952 -0.2000  0.2963 -1.2855
 7686SOL     OW34693   4.448   3.604   6.824  0.2036  0.1830  0.0743
 7686SOL    HW134694   4.389   3.675   6.800  1.9397  1.1043 -1.4393
 7686SOL    HW234695   4.457   3.561   6.739 -0.4172 -0.9294  0.5691
 7687SOL     OW34696   2.434   1.063  17.380 -0.2227 -0.0978 -0.3171
 7687SOL    HW134697   2.462   1.094  17.294  2.9884 -0.8809  0.4422
 7687SOL    HW234698   2.505   1.002  17.398 -0.4455 -0.4615 -0.6799
 7688SOL     OW34699   0.049   2.085   6.370 -0.2346  0.7784  0.0805
 7688SOL    HW134700   0.002   2.148   6.424  0.8995  2.0153 -0.3790
 7688SOL    HW234701   0.025   1.998   6.401  2.8997 -1.2928 -3.3646
 7689SOL     OW34702   1.220   0.272  11.506  0.3081 -0.1863 -0.4199
 7689SOL    HW134703   1.219   0.190  11.458 -0.9004  0.4080 -1.4109
 7689SOL    HW234704   1.272   0.334  11.455 -2.3590  3.1497  0.8985
 7690SOL     OW34705   2.744   3.761   8.881 -0.1497 -0.2367  0.5220
 7690SOL    HW134706   2.745   3.665   8.886 -3.0133 -0.3200 -0.7533
 7690SOL    HW234707   2.832   3.785   8.910 -0.5065  1.0250  0.5441
 7691SOL     OW34708   2.179   2.510   1.151 -0.0851  0.1448  0.1492
 7691SOL    HW134709   2.240   2.569   1.196  0.2791  0.4114 -0.6864
 7691SOL    HW234710   2.216   2.521   1.063 -1.4834 -0.7780 -0.5407
 7692SOL     OW34711   2.834   0.721   6.564 -1.0361  0.2615 -0.1936
 7692SOL    HW134712   2.882   0.802   6.580  0.6372 -0.9093  0.7802
 7692SOL    HW234713   2.744   0.750   6.552 -1.0523  0.3596  0.1945
 7693SOL     OW34714   2.140   3.770   3.675  0.0439  0.1627 -0.2462
 7693SOL    HW134715   2.063   3.714   3.675 -0.3615  0.6866  1.7502
 7693SOL    HW234716   2.109   3.852   3.636 -1.8253 -1.7532 -2.7203
 7694SOL     OW34717   2.711   0.626   1.007 -0.1351 -0.1719 -0.2583
 7694SOL    HW134718   2.710   0.646   0.913 -2.5244  0.1359 -0.1556
 7694SOL    HW234719   2.691   0.714   1.037  0.2722 -0.9097  2.2244
 7695SOL     OW34720   4.298   3.235   4.350 -0.2765  0.0744 -0.0564
 7695SOL    HW134721   4.353   3.294   4.298 -0.2770  2.5195  2.7147
 7695SOL    HW234722   4.319   3.283   4.430 -0.2711  0.9860 -0.5998
 7696SOL     OW34723   3.924   3.412   3.752 -0.4504 -0.2784  0.8711
 7696SOL    HW134724   3.843   3.446   3.716  0.4310  1.4786  0.5453
 7696SOL    HW234725   3.947   3.331   3.705 -0.2447  0.5203 -0.4109
 7697SOL     OW34726   2.970   2.089   7.460 -0.0785 -0.4091  0.4417
 7697SOL    HW134727   2.920   2.092   7.541  0.7943 -1.1718  1.0069
 7697SOL    HW234728   2.902   2.102   7.394  0.8541 -0.4298 -0.5169
 7698SOL     OW34729   3.059   0.287   9.419 -0.3302 -0.0307 -0.1971
 7698SOL    HW134730   3.012   0.340   9.356 -1.0168 -0.2042  0.1714
 7698SOL    HW234731   2.992   0.272   9.486  1.3998 -2.7672  0.9302
 7699SOL     OW34732   2.965   1.546  11.649  0.1303  0.0291 -0.4588
 7699SOL    HW134733   2.920   1.463  11.634  0.4446  0.0235 -1.3451
 7699SOL    HW234734   3.019   1.553  11.570  1.7753  0.8733  0.7195
 7700SOL     OW34735   3.981   3.585   2.966  0.2975 -0.2906 -0.0115
 7700SOL    HW134736   4.055   3.580   3.028 -0.9431 -0.8901  1.4298
 7700SOL    HW234737   3.953   3.676   2.978 -1.8051 -0.7264 -1.8185
 7701SOL     OW34738   0.684   3.009   3.487  0.1397  0.1738  1.0261
 7701SOL    HW134739   0.726   2.955   3.420  2.9191  2.2730  1.0771
 7701SOL    HW234740   0.730   3.093   3.498  0.3633  0.0766  0.8346
 7702SOL     OW34741   1.338   1.766   9.606 -0.1487 -0.2136 -0.0702
 7702SOL    HW134742   1.265   1.827   9.598  0.2094  0.7340  4.1103
 7702SOL    HW234743   1.353   1.760   9.700 -1.5824 -1.9260  0.0436
 7703SOL     OW34744   4.062   3.965   2.844  0.0392  0.7932 -0.1714
 7703SOL    HW134745   4.045   3.909   2.920 -1.1509  2.0828  0.5107
 7703SOL    HW234746   3.995   4.033   2.854  0.5677  0.7514  3.5988
 7704SOL     OW34747   4.078   1.069   6.036 -0.3649  0.0146  0.8138
 7704SOL    HW134748   4.039   1.021   6.109 -1.8871  0.7106  0.4635
 7704SOL    HW234749   4.039   1.153   6.059 -0.1807  0.0818  0.8775
 7705SOL     OW34750   4.326   3.368   6.887 -0.6361  0.1290  0.3624
 7705SOL    HW134751   4.404   3.423   6.888 -0.8462  0.4493 -0.6154
 7705SOL    HW234752   4.312   3.342   6.796 -0.8192 -1.8757  0.9744
 7706SOL     OW34753   2.843   2.310   0.105  0.5242  0.3753 -0.3893
 7706SOL    HW134754   2.840   2.387   0.161 -0.8646  0.7394 -0.9573
 7706SOL    HW234755   2.873   2.244   0.168 -0.2751 -0.3696 -0.7829
 7707SOL     OW34756   4.412   0.103   8.649  0.3962  0.2384 -0.3886
 7707SOL    HW134757   4.489   0.114   8.593  0.4474 -1.3832 -0.6408
 7707SOL    HW234758   4.420   0.178   8.708 -0.8448  0.5704 -0.6394
 7708SOL     OW34759   0.344   1.398   4.577  0.2297 -0.3776 -0.1739
 7708SOL    HW134760   0.251   1.378   4.573  0.8350 -2.7379 -2.9369
 7708SOL    HW234761   0.383   1.318   4.542  0.1753 -0.4591 -0.0455
 7709SOL     OW34762   2.027   4.090   6.891 -0.1694 -0.1778 -0.0741
 7709SOL    HW134763   2.104   4.099   6.948 -0.7374  1.0578  0.5015
 7709SOL    HW234764   2.046   4.005   6.852 -1.2848 -0.4490 -0.0135
 7710SOL     OW34765   0.182   3.966   5.178  0.0655  0.9711 -0.3352
 7710SOL    HW134766   0.189   3.953   5.272  1.7642 -1.4316 -0.7947
 7710SOL    HW234767   0.190   4.061   5.188 -1.4941  1.0630 -0.0426
 7711SOL     OW34768   3.726   2.345   5.235 -0.4874  0.3830 -0.2737
 7711SOL    HW134769   3.698   2.389   5.154  0.7575  0.0725 -0.8797
 7711SOL    HW234770   3.716   2.251   5.221 -3.4320  0.8612 -1.5978
 7712SOL     OW34771   2.924   4.213   7.299 -0.1940  0.6636 -0.0068
 7712SOL    HW134772   2.880   4.248   7.376  1.6403  1.4497  0.6673
 7712SOL    HW234773   2.942   4.122   7.326  1.7266  0.9077 -0.4638
 7713SOL     OW34774   1.860   4.458  12.993  0.0438  0.3956  0.4631
 7713SOL    HW134775   1.889   4.367  12.988  0.2535  0.2890  3.8337
 7713SOL    HW234776   1.775   4.448  12.951  0.9637 -1.3347 -1.0099
 7714SOL     OW34777   4.716   2.452   6.080 -0.2765  0.3259  0.4371
 7714SOL    HW134778   0.071   2.452   6.066 -0.3421 -2.6610 -0.0055
 7714SOL    HW234779   4.707   2.452   6.176  1.7932 -2.0146  0.6265
 7715SOL     OW34780   1.095   4.011  12.404 -0.2122  0.9097  0.2216
 7715SOL    HW134781   1.119   3.959  12.327 -1.0167 -0.2563  0.7573
 7715SOL    HW234782   1.117   3.938  12.462  0.8526 -0.1812 -1.5464
 7716SOL     OW34783   3.863   2.682   0.956 -0.1497  0.2783 -0.1012
 7716SOL    HW134784   3.898   2.753   0.902  2.3848 -0.8755  0.0136
 7716SOL    HW234785   3.941   2.639   0.991  0.2629 -1.2264 -2.8541
 7717SOL     OW34786   2.392   0.290   7.326 -0.1928 -0.6176 -0.2281
 7717SOL    HW134787   2.384   0.373   7.373  2.8009  0.4196 -1.5218
 7717SOL    HW234788   2.360   0.236   7.398  0.1272 -0.4776  0.0179
 7718SOL     OW34789   1.250   1.564   1.958  0.1915  0.4068  0.3590
 7718SOL    HW134790   1.182   1.523   2.012  1.4007 -1.0980  0.7333
 7718SOL    HW234791   1.221   1.654   1.974 -2.1435 -0.7922  2.8176
 7719SOL     OW34792   0.362   0.108   2.479 -0.2048 -0.6802 -0.3555
 7719SOL    HW134793   0.414   0.039   2.519 -0.7331 -1.7924 -1.6015
 7719SOL    HW234794   0.336   0.056   2.403  0.1587 -0.6840 -0.4759
 7720SOL     OW34795   2.497   2.954   2.160  0.2732  0.1701 -0.2606
 7720SOL    HW134796   2.543   3.017   2.104  1.2009  0.3587  0.7206
 7720SOL    HW234797   2.543   2.969   2.242 -1.4782 -0.1440  0.7843
 7721SOL     OW34798   0.022   0.077   4.844 -0.0052  0.0038  0.3990
 7721SOL    HW134799   4.724   0.114   4.923 -0.9324  1.7738 -0.8621
 7721SOL    HW234800   4.680   0.058   4.796  0.9453 -1.0938 -0.7769
 7722SOL     OW34801   0.143   2.378  12.188 -0.3026  0.3062  0.1744
 7722SOL    HW134802   0.142   2.294  12.234 -0.2127  1.0276  1.4956
 7722SOL    HW234803   0.213   2.415  12.242  0.1257 -2.0606  1.2584
 7723SOL     OW34804   0.858   2.785   7.830 -0.3155 -0.3258 -0.2020
 7723SOL    HW134805   0.875   2.877   7.851  0.1185 -0.4896  0.1634
 7723SOL    HW234806   0.834   2.799   7.738  0.6093  1.7416 -0.1229
 7724SOL     OW34807   2.191   2.236   1.240 -0.0762  0.2977 -0.1256
 7724SOL    HW134808   2.242   2.242   1.321  1.3692 -0.4586 -0.9824
 7724SOL    HW234809   2.151   2.323   1.232 -0.2878  0.1844 -0.3075
 7725SOL     OW34810   0.559   4.043   3.151 -0.2809  0.1448 -0.6968
 7725SOL    HW134811   0.567   4.121   3.096  0.1401  0.5470 -0.0676
 7725SOL    HW234812   0.584   3.985   3.079  2.3884  0.0533  0.3185
 7726SOL     OW34813   1.462   1.072   2.918  0.6756 -0.3689  0.0348
 7726SOL    HW134814   1.433   1.068   3.009 -0.8740  0.6724 -0.4139
 7726SOL    HW234815   1.523   0.998   2.919  0.0770 -0.8578  0.5510
 7727SOL     OW34816   3.060   3.533   4.605  0.0513  0.0109 -0.0550
 7727SOL    HW134817   3.093   3.543   4.516  2.6169  1.4962  1.0479
 7727SOL    HW234818   3.050   3.625   4.632  1.8247 -0.1325  1.1096
 7728SOL     OW34819   1.474   2.727   9.483  0.6016 -0.3932  0.1725
 7728SOL    HW134820   1.412   2.658   9.502  0.4920  0.0003  1.2084
 7728SOL    HW234821   1.520   2.676   9.416 -1.3334 -0.1310 -1.3583
 7729SOL     OW34822   0.138   1.471   2.650  0.7071  0.1202 -0.0068
 7729SOL    HW134823   0.226   1.437   2.669  0.4365 -1.6085 -1.9116
 7729SOL    HW234824   0.100   1.457   2.737 -2.6278 -0.8643 -1.6576
 7730SOL     OW34825   2.960   0.641   3.834 -0.0390  0.0253  0.0328
 7730SOL    HW134826   2.969   0.604   3.922  0.8619 -2.5240 -1.1413
 7730SOL    HW234827   3.023   0.713   3.840  1.4762 -1.5990  3.4657
 7731SOL     OW34828   1.627   0.589   7.916 -0.4616  0.3169  0.2220
 7731SOL    HW134829   1.578   0.656   7.964  0.0690 -1.1853  2.8999
 7731SOL    HW234830   1.584   0.588   7.831 -0.9901 -1.9421  0.4984
 7732SOL     OW34831   2.585   4.030   2.759 -0.3136 -0.5676 -0.0927
 7732SOL    HW134832   2.615   3.941   2.779 -2.2332 -1.2774 -0.4124
 7732SOL    HW234833   2.671   4.070   2.753  0.6205 -2.4705  0.3502
 7733SOL     OW34834   2.102   2.235   1.962 -0.2617 -0.5891 -0.4189
 7733SOL    HW134835   2.069   2.325   1.956 -2.3601 -1.4239 -1.3080
 7733SOL    HW234836   2.016   2.203   1.990 -0.3358 -0.0141  0.0396
 7734SOL     OW34837   2.985   4.395  11.741  0.2437 -0.2735  0.4316
 7734SOL    HW134838   3.051   4.363  11.680  1.9901  3.2137  0.4580
 7734SOL    HW234839   2.909   4.360  11.696  0.6577  1.8259 -1.8832
 7735SOL     OW34840   1.789   0.993  17.230 -0.2625 -0.2350 -0.3691
 7735SOL    HW134841   1.835   0.979  17.313  0.3122 -1.2203 -0.8574
 7735SOL    HW234842   1.846   1.053  17.182  0.1350 -1.0141 -0.8659
 7736SOL     OW34843   3.839   0.858  15.342  0.4343 -0.3182  0.4331
 7736SOL    HW134844   3.871   0.941  15.308  0.4138  0.0133  1.2225
 7736SOL    HW234845   3.918   0.804  15.334  0.4830 -0.5451  2.2454
 7737SOL     OW34846   2.786   0.524   1.293 -0.2854 -0.2026 -0.5749
 7737SOL    HW134847   2.779   0.428   1.295  1.9754 -0.3402  0.6112
 7737SOL    HW234848   2.752   0.543   1.206 -2.1795  1.6982  0.5667
 7738SOL     OW34849   4.477   4.146  15.676 -0.4757 -0.7325  0.3287
 7738SOL    HW134850   4.504   4.067  15.630 -0.9614 -1.4748  1.3144
 7738SOL    HW234851   4.433   4.110  15.753 -1.0262  0.4589  0.5714
 7739SOL     OW34852   1.253   2.430  16.140  0.2189  0.3208  0.0372
 7739SOL    HW134853   1.302   2.406  16.061  0.3393 -0.8363  0.4671
 7739SOL    HW234854   1.205   2.501  16.098 -0.1864 -1.1266 -1.9203
 7740SOL     OW34855   3.677   1.197   7.670  0.4592 -0.5687 -0.3519
 7740SOL    HW134856   3.633   1.220   7.588  1.0916  1.1306 -0.2185
 7740SOL    HW234857   3.754   1.254   7.671  0.0992 -0.0984  0.0522
 7741SOL     OW34858   2.792   1.168   6.908 -0.7356  0.0907 -0.1050
 7741SOL    HW134859   2.784   1.158   7.003 -1.9656 -2.2495 -0.4711
 7741SOL    HW234860   2.760   1.258   6.902 -3.3418 -0.6724  2.1470
 7742SOL     OW34861   2.081   1.794   1.564 -0.3025  0.1164  0.3467
 7742SOL    HW134862   1.994   1.788   1.603 -0.5913  0.2707 -0.2868
 7742SOL    HW234863   2.077   1.882   1.528  1.1993 -0.9646 -2.4377
 7743SOL     OW34864   2.987   0.887   1.963 -0.3896 -0.0365  0.4153
 7743SOL    HW134865   2.996   0.794   1.980  2.2019  0.3894  1.4156
 7743SOL    HW234866   2.922   0.883   1.892 -1.3978 -2.2017  1.4889
 7744SOL     OW34867   1.501   4.589   8.177  0.1389  0.6130 -0.6429
 7744SOL    HW134868   1.489   4.497   8.202 -1.0250  0.9427  0.0104
 7744SOL    HW234869   1.583   4.592   8.129 -1.3552 -1.3590 -3.3228
 7745SOL     OW34870   3.142   4.721  15.906 -0.0905  0.0710 -0.2180
 7745SOL    HW134871   3.104   0.066  15.880 -0.5529 -0.2775 -0.6698
 7745SOL    HW234872   3.085   4.691  15.976 -3.0691  0.5154 -2.4393
 7746SOL     OW34873   2.398   1.991   3.208  0.0379  0.4011  0.2007
 7746SOL    HW134874   2.332   1.926   3.233 -0.2510  1.4947  2.3578
 7746SOL    HW234875   2.347   2.036   3.140 -0.4773  0.1586  0.4258
 7747SOL     OW34876   1.535   1.201  17.401  0.4973 -0.3491 -0.3947
 7747SOL    HW134877   1.524   1.113  17.367 -0.9295 -0.2092 -0.2871
 7747SOL    HW234878   1.541   1.258  17.323 -1.3798  0.5712  0.1287
 7748SOL     OW34879   1.021   4.484   9.660 -0.0459  0.3358 -0.7233
 7748SOL    HW134880   1.085   4.475   9.589 -0.0108 -0.0127 -0.6459
 7748SOL    HW234881   0.947   4.479   9.600 -1.1640  2.7572  0.4598
 7749SOL     OW34882   3.858   2.137  16.887  0.4327 -0.3175 -0.1768
 7749SOL    HW134883   3.827   2.164  16.801 -1.2679  0.2416  0.6277
 7749SOL    HW234884   3.910   2.208  16.925  1.1568 -1.3463  0.7796
 7750SOL     OW34885   4.038   0.091   7.958 -1.0423  0.3326 -0.1227
 7750SOL    HW134886   4.087   0.067   7.879  1.3517  0.4227  1.3112
 7750SOL    HW234887   3.969   0.025   7.964  2.5136 -3.2447  1.3844
 7751SOL     OW34888   2.225   4.608   3.471 -0.0476 -0.3478  0.2944
 7751SOL    HW134889   2.175   4.650   3.401  2.0506 -0.8546 -1.5234
 7751SOL    HW234890   2.308   4.590   3.427 -0.7542  0.0983 -1.2332
 7752SOL     OW34891   3.202   2.896   7.310  0.6197  0.1256 -0.0044
 7752SOL    HW134892   3.248   2.965   7.263 -2.5055  1.7948 -0.5706
 7752SOL    HW234893   3.270   2.843   7.352  1.6155  0.4518 -1.2159
 7753SOL     OW34894   2.540   4.655   5.863 -0.1782  0.0732 -0.1855
 7753SOL    HW134895   2.617   4.620   5.907 -0.4693  0.3984  0.5882
 7753SOL    HW234896   2.469   4.613   5.912  1.0854 -1.3465  0.3981
 7754SOL     OW34897   2.287   4.300   3.010 -0.5543  0.0933 -0.4798
 7754SOL    HW134898   2.295   4.256   2.926  1.0404  1.2568 -0.9304
 7754SOL    HW234899   2.376   4.332   3.023 -0.7841  2.0985 -3.9410
 7755SOL     OW34900   0.112   0.351   5.437 -0.7199  0.3548 -0.2358
 7755SOL    HW134901   0.195   0.314   5.404 -1.2082 -1.3513  0.4568
 7755SOL    HW234902   0.053   0.277   5.423  0.2150 -0.1971 -1.2904
 7756SOL     OW34903   1.079   2.281  15.767  0.8513  0.0433 -0.1604
 7756SOL    HW134904   1.007   2.343  15.775  2.5660  2.1682 -0.9835
 7756SOL    HW234905   1.053   2.209  15.824  2.1826 -0.2383  0.0906
 7757SOL     OW34906   0.395   0.442   2.708 -0.2841 -0.2239  0.8009
 7757SOL    HW134907   0.464   0.383   2.678 -0.5674 -0.0708 -0.1210
 7757SOL    HW234908   0.440   0.481   2.783 -1.6388  0.9764  0.9880
 7758SOL     OW34909   0.741   4.220  10.799 -0.1736  0.2020  0.0050
 7758SOL    HW134910   0.695   4.301  10.775  0.6488  0.1104 -1.8588
 7758SOL    HW234911   0.828   4.243  10.764 -0.1733  1.5606  0.8883
 7759SOL     OW34912   0.514   0.284   2.290  0.2202  0.3713  0.3815
 7759SOL    HW134913   0.497   0.369   2.330 -0.8379 -0.1821  1.1255
 7759SOL    HW234914   0.530   0.231   2.368 -0.9462  0.5431  0.7477
 7760SOL     OW34915   3.636   1.019   6.766 -0.2081  0.3589  0.1765
 7760SOL    HW134916   3.545   0.990   6.761  0.8123 -2.5454 -1.5170
 7760SOL    HW234917   3.641   1.070   6.847 -0.0139 -0.1080  0.4592
 7761SOL     OW34918   1.088   0.360  15.335 -0.1226 -0.0198 -0.5079
 7761SOL    HW134919   1.175   0.366  15.374  0.2400 -3.7485 -0.7202
 7761SOL    HW234920   1.050   0.425  15.393 -1.2941 -0.0205 -1.2788
 7762SOL     OW34921   1.398   2.908   5.337 -0.0116 -0.8426 -0.1637
 7762SOL    HW134922   1.388   2.952   5.422  2.9340 -2.3827  1.0034
 7762SOL    HW234923   1.486   2.870   5.339 -0.5394 -2.0847 -1.2391
 7763SOL     OW34924   2.910   2.344   3.874  0.1671 -0.5710  0.1034
 7763SOL    HW134925   3.001   2.361   3.850  0.6722 -0.6237  1.9739
 7763SOL    HW234926   2.904   2.384   3.961  0.2661 -0.6198  0.1326
 7764SOL     OW34927   3.599   2.252  11.452 -0.0290 -0.7360 -0.2125
 7764SOL    HW134928   3.508   2.221  11.456 -0.3766  0.0981 -1.3492
 7764SOL    HW234929   3.584   2.343  11.479  1.6263 -0.6048  0.2237
 7765SOL     OW34930   3.429   3.426  11.699  0.8673 -0.6252 -0.1145
 7765SOL    HW134931   3.488   3.372  11.751 -0.8792  1.6975  4.2724
 7765SOL    HW234932   3.464   3.514  11.715  1.8531 -1.1464  0.6424
 7766SOL     OW34933   3.789   4.705  10.011  0.0160  0.1668  0.3623
 7766SOL    HW134934   3.790   4.684  10.104 -0.2749 -1.9282 -0.1009
 7766SOL    HW234935   3.733   4.635   9.977  0.5303 -0.0877  0.0349
 7767SOL     OW34936   1.290   4.327   9.980  0.2284 -0.2987  0.3124
 7767SOL    HW134937   1.269   4.277   9.901  0.1543  0.4404 -0.1340
 7767SOL    HW234938   1.314   4.412   9.944 -0.7235  0.8940  2.5303
 7768SOL     OW34939   2.210   0.568   1.959 -0.0393  0.0205 -0.2605
 7768SOL    HW134940   2.304   0.586   1.956  0.0860 -0.8247 -1.3587
 7768SOL    HW234941   2.209   0.476   1.983  1.3476 -0.3482 -1.6031
 7769SOL     OW34942   1.401   2.302   7.957 -0.2280  0.2045  0.2148
 7769SOL    HW134943   1.340   2.239   7.918  1.0221 -0.3956 -0.7980
 7769SOL    HW234944   1.353   2.362   8.014 -1.9025  1.4318 -2.4949
 7770SOL     OW34945   0.043   3.140   3.085 -0.0279 -0.3567  0.5300
 7770SOL    HW134946   4.709   3.152   3.025 -1.1708  0.4334  2.0708
 7770SOL    HW234947   0.071   3.232   3.089  2.8910 -1.0573 -3.1858
 7771SOL     OW34948   2.806   1.941  10.100 -0.5969  0.1671 -0.2589
 7771SOL    HW134949   2.819   1.900  10.186 -0.2573  1.3688  0.2523
 7771SOL    HW234950   2.825   2.032  10.122  1.5031 -0.8321  2.0557
 7772SOL     OW34951   0.319   1.943   0.798  0.1151  0.0645  0.5529
 7772SOL    HW134952   0.243   1.904   0.756  1.7929  0.1358 -2.5410
 7772SOL    HW234953   0.376   1.976   0.728 -0.6880 -0.6317 -0.4157
 7773SOL     OW34954   1.406   3.062   5.563 -0.3547  0.0238  0.4436
 7773SOL    HW134955   1.480   3.122   5.568 -0.5110  0.3320 -1.0243
 7773SOL    HW234956   1.418   3.003   5.637  0.4764 -0.7236 -0.2893
 7774SOL     OW34957   3.914   0.707   4.795 -0.1774 -0.1169  0.1030
 7774SOL    HW134958   3.883   0.795   4.817 -0.1744  0.1737 -1.0509
 7774SOL    HW234959   3.906   0.705   4.700  2.9116 -1.3240 -0.1222
 7775SOL     OW34960   2.450   0.957   4.053 -0.2246 -0.1984  0.5550
 7775SOL    HW134961   2.445   0.890   4.121 -1.4640  0.2143  0.8678
 7775SOL    HW234962   2.364   0.998   4.049 -0.1333 -0.1826 -1.1973
 7776SOL     OW34963   2.546   1.072  14.257 -0.4655 -0.4853  0.2504
 7776SOL    HW134964   2.514   1.012  14.189  0.2032  0.0532 -0.5410
 7776SOL    HW234965   2.498   1.151  14.235  0.7620  0.1551 -0.1587
 7777SOL     OW34966   2.421   2.878   5.063  0.0100  0.7380  0.3851
 7777SOL    HW134967   2.334   2.874   5.103 -0.3005  2.0524 -0.1552
 7777SOL    HW234968   2.461   2.810   5.117  0.0508 -0.4708 -1.1805
 7778SOL     OW34969   0.509   3.574   9.011 -0.1178  0.9862  0.0954
 7778SOL    HW134970   0.418   3.568   8.983 -0.0756  1.8669 -0.2241
 7778SOL    HW234971   0.555   3.556   8.929 -0.9476  1.1075 -0.3944
 7779SOL     OW34972   2.439   0.674   5.747  0.2205 -0.0473 -0.0020
 7779SOL    HW134973   2.486   0.651   5.667 -2.2669 -0.4847 -1.3307
 7779SOL    HW234974   2.502   0.641   5.812  1.0496  0.7432 -0.4003
 7780SOL     OW34975   2.335   2.723   7.740 -0.2677  0.2021 -0.0866
 7780SOL    HW134976   2.320   2.629   7.729 -1.1319  0.2484  0.7135
 7780SOL    HW234977   2.291   2.730   7.825  0.9422 -0.8678  0.6292
 7781SOL     OW34978   0.885   0.636   3.566 -0.0421 -0.1908 -0.1809
 7781SOL    HW134979   0.931   0.563   3.525 -0.8281  0.8781 -2.9855
 7781SOL    HW234980   0.938   0.638   3.645 -1.0462  3.5340  0.4209
 7782SOL     OW34981   2.765   1.960   2.543 -0.3585 -0.1383 -0.0016
 7782SOL    HW134982   2.732   2.001   2.464  0.6503 -0.1810 -0.4479
 7782SOL    HW234983   2.828   1.895   2.513  2.2649  2.1638  0.4859
 7783SOL     OW34984   0.821   1.313   4.680  0.1596 -0.0436 -0.4061
 7783SOL    HW134985   0.895   1.374   4.674  1.1039 -0.8711  2.9362
 7783SOL    HW234986   0.861   1.236   4.639 -0.3163 -0.1596 -0.6560
 7784SOL     OW34987   4.347   4.050   6.453  0.0912  0.3077 -0.0027
 7784SOL    HW134988   4.265   4.079   6.494  0.0899 -2.4271  1.9445
 7784SOL    HW234989   4.311   3.990   6.388  2.1400  0.7696 -1.5669
 7785SOL     OW34990   4.368   3.680   4.957 -0.3764 -0.2588 -0.2400
 7785SOL    HW134991   4.400   3.756   4.909 -1.5256  0.3315 -0.0925
 7785SOL    HW234992   4.445   3.652   5.006  1.1984  2.2439 -1.2850
 7786SOL     OW34993   3.960   0.946   6.981 -0.1021  0.3200  0.2189
 7786SOL    HW134994   3.914   0.956   7.065  0.3190  2.7522  0.1767
 7786SOL    HW234995   4.030   0.886   7.004 -0.7175 -0.6270 -0.3998
 7787SOL     OW34996   3.681   4.739   8.211  0.7131  0.3939 -0.1659
 7787SOL    HW134997   3.703   4.735   8.304 -3.0056 -1.1274  0.6182
 7787SOL    HW234998   3.675   0.094   8.197 -0.0519  0.2671 -0.6750
 7788SOL     OW34999   2.573   0.500   9.990  0.1453 -0.3043  0.4528
 7788SOL    HW135000   2.636   0.546   9.936 -1.1934  1.3801  0.3163
 7788SOL    HW235001   2.566   0.411   9.955 -0.0242 -0.1182  0.0227
 7789SOL     OW35002   0.807   1.872  11.801 -0.5004  0.6421 -0.1153
 7789SOL    HW135003   0.752   1.873  11.879  0.5147  1.7627  0.5830
 7789SOL    HW235004   0.889   1.831  11.828  0.2475  2.1138 -0.1529
 7790SOL     OW35005   1.940   2.799  10.478 -0.1486  0.3074  0.3808
 7790SOL    HW135006   1.853   2.779  10.443 -0.6160  1.3951  0.9190
 7790SOL    HW235007   1.936   2.764  10.567 -0.7699 -2.3002 -0.6745
 7791SOL     OW35008   0.035   2.401   4.343 -0.0878  0.4510  0.2511
 7791SOL    HW135009   0.051   2.343   4.418 -1.2693 -0.6403 -0.3432
 7791SOL    HW235010   0.109   2.462   4.346 -0.0139  0.3895 -0.3496
 7792SOL     OW35011   2.514   2.539   1.841  0.3361 -0.1984 -0.9789
 7792SOL    HW135012   2.426   2.506   1.824  0.3598 -0.5998 -0.3308
 7792SOL    HW235013   2.498   2.633   1.851  1.3979 -0.1671  0.3675
 7793SOL     OW35014   4.718   0.605   0.152  0.0061  0.0792  0.7238
 7793SOL    HW135015   0.011   0.532   0.204 -0.4363  0.5772  1.7001
 7793SOL    HW235016   4.627   0.580   0.168 -0.2768  0.1196 -0.8218
 7794SOL     OW35017   4.075   1.343  12.144  0.2512 -0.7193 -0.3257
 7794SOL    HW135018   4.057   1.323  12.236 -0.6344 -2.2521 -0.8460
 7794SOL    HW235019   3.986   1.372  12.124  0.9059  1.5089 -0.0228
 7795SOL     OW35020   0.114   0.911   7.270 -0.4595  0.4069 -0.4914
 7795SOL    HW135021   0.192   0.928   7.322 -1.1686 -1.7303  1.2523
 7795SOL    HW235022   0.043   0.961   7.311 -0.9149 -1.1650  0.6229
 7796SOL     OW35023   2.747   4.165   6.050 -0.7503  0.5920 -0.4922
 7796SOL    HW135024   2.696   4.124   5.980 -2.0720  0.1569  0.7277
 7796SOL    HW235025   2.676   4.226   6.070  0.0652  1.2194  0.4694
 7797SOL     OW35026   3.986   3.124   1.840 -0.5902  0.7680 -0.5706
 7797SOL    HW135027   3.918   3.182   1.805 -1.6564  0.6195  1.2518
 7797SOL    HW235028   3.930   3.057   1.879  1.5908 -1.7943 -1.8062
 7798SOL     OW35029   0.991   0.990   7.446 -0.1882  0.2934 -0.3361
 7798SOL    HW135030   1.068   1.047   7.445 -1.8781  2.5929 -1.2233
 7798SOL    HW235031   0.977   0.963   7.355 -3.5872 -0.7230  0.4735
 7799SOL     OW35032   1.271   4.083   8.760 -0.1999 -0.3532  0.0432
 7799SOL    HW135033   1.301   4.173   8.770 -0.6767 -0.1133 -0.7435
 7799SOL    HW235034   1.351   4.038   8.789  0.5997  1.0224 -0.0176
 7800SOL     OW35035   1.868   2.004   5.301 -0.0497  0.3720  0.1079
 7800SOL    HW135036   1.777   2.033   5.299 -1.0225 -2.8570 -2.2365
 7800SOL    HW235037   1.909   2.058   5.368 -0.6660 -0.1117  0.8715
 7801SOL     OW35038   2.820   0.764  11.027 -0.3916 -0.0498  0.7269
 7801SOL    HW135039   2.843   0.843  10.978  0.0828 -0.5866  0.1042
 7801SOL    HW235040   2.903   0.717  11.032  0.4106  1.1480 -1.5333
 7802SOL     OW35041   2.495   1.323   9.082  0.4680  0.6077  0.2420
 7802SOL    HW135042   2.521   1.380   9.155 -0.0744  2.3486 -0.9216
 7802SOL    HW235043   2.549   1.250   9.112  1.5746  1.9184  1.4923
 7803SOL     OW35044   3.713   0.268  13.196 -0.3947  0.5093  0.0888
 7803SOL    HW135045   3.666   0.351  13.190 -2.9722 -1.0713 -1.8878
 7803SOL    HW235046   3.706   0.241  13.105 -0.2419  2.6406 -0.5512
 7804SOL     OW35047   2.851   2.529  10.421  0.1151  0.0094  0.1151
 7804SOL    HW135048   2.912   2.563  10.485  0.7217  1.9362 -1.5061
 7804SOL    HW235049   2.815   2.460  10.477  0.7556 -1.2540 -1.0251
 7805SOL     OW35050   1.653   3.211   4.393 -0.3915  0.1577 -0.6976
 7805SOL    HW135051   1.622   3.265   4.320 -1.3901  1.9761  1.0712
 7805SOL    HW235052   1.627   3.263   4.469  1.7998  1.2239 -0.6883
 7806SOL     OW35053   2.025   2.558   6.621  0.1907 -0.1126 -0.2326
 7806SOL    HW135054   1.938   2.580   6.588 -0.0411  0.3887  0.7121
 7806SOL    HW235055   2.021   2.589   6.712  1.4169  3.1021 -1.2816
 7807SOL     OW35056   0.080   3.889   6.578  0.3367 -0.0739 -0.2718
 7807SOL    HW135057   0.125   3.973   6.572 -0.4781  0.3238 -0.8727
 7807SOL    HW235058   0.004   3.899   6.520 -2.3243 -1.8033  2.8671
 7808SOL     OW35059   3.911   1.647   8.012 -0.6773  0.2405 -0.4932
 7808SOL    HW135060   3.893   1.703   8.087 -1.4293 -0.7042  0.0307
 7808SOL    HW235061   4.005   1.633   8.016 -0.6215  0.3860 -1.3322
 7809SOL     OW35062   3.893   2.163   4.795 -0.3288 -0.3216  0.2838
 7809SOL    HW135063   3.812   2.207   4.770 -0.9948 -1.4529  0.4365
 7809SOL    HW235064   3.938   2.237   4.836  2.5391 -1.9249  0.0510
 7810SOL     OW35065   0.485   3.013   3.674 -0.1620 -0.5507 -0.1484
 7810SOL    HW135066   0.468   3.104   3.648  2.0758 -0.4512 -1.2500
 7810SOL    HW235067   0.567   2.995   3.628  0.2233 -1.6888  0.9945
 7811SOL     OW35068   3.667   4.617  10.295  0.8236  0.1784 -0.6684
 7811SOL    HW135069   3.723   4.574  10.359 -0.3775  2.4564  1.9104
 7811SOL    HW235070   3.592   4.632  10.352  1.1219 -1.9173  0.2564
 7812SOL     OW35071   3.753   1.811   3.493  0.5024  0.2143  0.5571
 7812SOL    HW135072   3.824   1.872   3.512  0.1160  1.0240 -0.5821
 7812SOL    HW235073   3.783   1.736   3.544  1.3743  1.5613  2.0316
 7813SOL     OW35074   3.106   4.003   5.152  0.4673 -0.3130 -0.1961
 7813SOL    HW135075   3.137   3.915   5.174  0.3448  0.2613  2.2870
 7813SOL    HW235076   3.026   3.989   5.102  1.5242  1.2935 -2.3549
 7814SOL     OW35077   3.187   0.959   8.674 -0.2416 -0.9141 -0.4529
 7814SOL    HW135078   3.258   0.983   8.735 -2.9273  1.9580  1.5071
 7814SOL    HW235079   3.225   0.902   8.608  1.3112  0.6459 -0.9132
 7815SOL     OW35080   1.158   2.763   9.954  0.5910 -0.1351 -0.7994
 7815SOL    HW135081   1.117   2.843   9.922  0.2925 -0.6158 -1.6183
 7815SOL    HW235082   1.252   2.780   9.965  0.7343 -1.3847 -0.0400
 7816SOL     OW35083   2.435   3.682  15.680  0.6775 -0.1672 -0.6283
 7816SOL    HW135084   2.433   3.634  15.763 -0.0468  0.7914 -0.0915
 7816SOL    HW235085   2.393   3.610  15.632  3.0724 -1.1695 -1.2675
 7817SOL     OW35086   2.155   1.264   6.397 -0.0634 -0.3961  0.0203
 7817SOL    HW135087   2.125   1.345   6.357 -2.1814 -0.9879  0.4205
 7817SOL    HW235088   2.132   1.269   6.490  1.1561  0.8865  0.2455
 7818SOL     OW35089   0.912   2.420   6.780  0.0202 -0.1459 -0.0964
 7818SOL    HW135090   0.853   2.428   6.856  0.5842 -2.5567  0.5877
 7818SOL    HW235091   0.853   2.397   6.708 -0.3542 -0.6918  0.3850
 7819SOL     OW35092   1.640   2.699   7.427 -0.1039 -0.5874  0.5254
 7819SOL    HW135093   1.651   2.711   7.332 -0.2834  0.4003  0.6359
 7819SOL    HW235094   1.548   2.723   7.431  0.6444  1.9709  1.8472
 7820SOL     OW35095   2.118   2.390  17.020  0.4914  0.5028 -0.1941
 7820SOL    HW135096   2.153   2.352  17.100 -1.4829  0.0992  0.4663
 7820SOL    HW235097   2.070   2.309  17.000  0.5116  0.2679  0.7235
 7821SOL     OW35098   3.699   4.072   2.499 -0.6167  0.1329 -0.1845
 7821SOL    HW135099   3.658   3.988   2.521  1.6413 -0.9046  0.1700
 7821SOL    HW235100   3.743   4.090   2.582 -0.2562 -0.6694 -0.2020
 7822SOL     OW35101   2.197   2.693   7.974 -0.1538 -0.2900  0.4378
 7822SOL    HW135102   2.158   2.741   8.047  0.3994  0.8722 -0.0333
 7822SOL    HW235103   2.140   2.616   7.972 -1.8990  0.9757  1.3716
 7823SOL     OW35104   0.633   1.651   4.104  0.2780 -0.2930  0.5080
 7823SOL    HW135105   0.614   1.616   4.191 -0.4672  0.2864  0.5747
 7823SOL    HW235106   0.576   1.600   4.046 -0.3311  0.4537  0.4522
 7824SOL     OW35107   0.218   0.340   4.043  0.0887  0.2894  0.0913
 7824SOL    HW135108   0.250   0.250   4.033  0.7854  0.5351  0.1525
 7824SOL    HW235109   0.125   0.319   4.035  0.2725 -0.5877  0.2223
 7825SOL     OW35110   3.818   1.570  10.842  0.9131  0.1094  0.0487
 7825SOL    HW135111   3.853   1.642  10.790 -2.0711  0.8925 -0.8153
 7825SOL    HW235112   3.856   1.499  10.789 -1.7478  0.2436 -2.0491
 7826SOL     OW35113   0.269   2.203   9.230 -0.1903  0.4332 -0.5800
 7826SOL    HW135114   0.325   2.261   9.178  1.9040  0.4803  1.7464
 7826SOL    HW235115   0.232   2.162   9.151 -2.1126 -1.6221  1.3897
 7827SOL     OW35116   0.804   3.891  15.566  0.0274 -0.4100  0.1383
 7827SOL    HW135117   0.812   3.939  15.649  0.6001  0.9979 -0.7281
 7827SOL    HW235118   0.718   3.916  15.531 -0.1059  0.7547  1.2893
 7828SOL     OW35119   0.937   3.519   1.020  0.4263  0.2608  0.0825
 7828SOL    HW135120   0.918   3.462   1.095  0.7248  0.5419  0.3758
 7828SOL    HW235121   0.846   3.536   0.996  0.6021  1.3148  0.1699
 7829SOL     OW35122   0.128   3.162  14.670 -0.0728 -0.5870  0.0396
 7829SOL    HW135123   0.092   3.102  14.604 -1.6121 -0.2060  0.5199
 7829SOL    HW235124   0.223   3.162  14.668 -0.0869  0.2630 -0.5370
 7830SOL     OW35125   2.415   1.788   8.479  0.0551  0.5837  0.5027
 7830SOL    HW135126   2.473   1.726   8.524 -1.2994  0.2223  1.7725
 7830SOL    HW235127   2.347   1.793   8.546 -0.0161 -1.0993  0.5666
 7831SOL     OW35128   2.019   3.163  10.708 -0.3900 -0.0321 -0.6315
 7831SOL    HW135129   2.107   3.126  10.709  0.7219  2.6523  3.8253
 7831SOL    HW235130   1.973   3.090  10.748 -0.9553  1.3585  1.2561
 7832SOL     OW35131   1.750   0.646   5.886  0.0325 -0.2620  0.8612
 7832SOL    HW135132   1.747   0.709   5.814  1.1653  1.9843  2.7700
 7832SOL    HW235133   1.723   0.696   5.963  2.0503  0.6411  0.9897
 7833SOL     OW35134   0.003   0.227   2.494  0.4085 -0.0795  0.3290
 7833SOL    HW135135   0.049   0.206   2.413 -0.2887 -2.8892  0.6917
 7833SOL    HW235136   4.732   0.322   2.481  0.8201 -0.2228 -0.9986
 7834SOL     OW35137   1.764   1.743   2.503 -0.4630  0.1334  1.0262
 7834SOL    HW135138   1.807   1.689   2.437 -1.4224  2.2870 -1.3844
 7834SOL    HW235139   1.832   1.797   2.544 -0.6066  3.6522 -3.4175
 7835SOL     OW35140   0.707   3.447   0.791 -0.2836 -0.0904 -0.1476
 7835SOL    HW135141   0.662   3.401   0.720  0.1225 -0.0049 -0.4608
 7835SOL    HW235142   0.760   3.383   0.838 -1.0488 -1.6864 -1.4722
 7836SOL     OW35143   1.383   1.216  10.522  0.3219 -0.0620  0.0021
 7836SOL    HW135144   1.430   1.273  10.461  1.0495 -1.0574 -0.3721
 7836SOL    HW235145   1.301   1.198  10.477  0.4223  0.0592 -0.2310
 7837SOL     OW35146   4.234   1.534   1.580  0.0920  0.7067  0.5211
 7837SOL    HW135147   4.316   1.530   1.629  0.0004 -1.4739  0.5008
 7837SOL    HW235148   4.187   1.468   1.631  1.5239 -0.9183 -0.2618
 7838SOL     OW35149   3.710   2.578   3.072 -0.3147  0.5426  0.7289
 7838SOL    HW135150   3.647   2.507   3.065  0.3502 -0.0686  0.8886
 7838SOL    HW235151   3.782   2.534   3.118  0.4695  0.1089 -0.9261
 7839SOL     OW35152   4.124   1.745   0.913  0.5999  0.0114 -0.0497
 7839SOL    HW135153   4.057   1.807   0.945  0.6730  0.1833 -0.2269
 7839SOL    HW235154   4.074   1.692   0.851  0.0707 -0.0458  0.4220
 7840SOL     OW35155   3.286   2.597   7.734  0.0230 -0.4301  0.3957
 7840SOL    HW135156   3.379   2.590   7.756 -0.1640 -1.5335  0.8302
 7840SOL    HW235157   3.276   2.692   7.739  1.4075 -0.3700  1.8189
 7841SOL     OW35158   2.254   3.690   7.923  0.0394 -0.1783 -0.1034
 7841SOL    HW135159   2.240   3.687   8.018 -0.6444 -0.9580 -0.2298
 7841SOL    HW235160   2.241   3.785   7.918  0.4360 -0.2414 -2.4013
 7842SOL     OW35161   2.457   4.584   8.231  0.2196 -0.0366 -0.8459
 7842SOL    HW135162   2.548   4.605   8.251  0.6443 -2.4854 -0.2360
 7842SOL    HW235163   2.423   4.573   8.320 -0.3918  2.2074 -0.7779
 7843SOL     OW35164   3.008   2.059   5.269  0.8481  0.3772  0.1753
 7843SOL    HW135165   2.932   2.095   5.223 -0.6147  0.9281  3.0406
 7843SOL    HW235166   3.065   2.130   5.298 -1.7814  2.5924 -0.0700
 7844SOL     OW35167   0.530   3.809   7.808  0.1452 -0.0570  0.2028
 7844SOL    HW135168   0.440   3.804   7.776  0.4514 -0.4135 -0.6044
 7844SOL    HW235169   0.555   3.717   7.801  1.8171  0.4897 -1.0070
 7845SOL     OW35170   1.104   0.940  13.993 -0.3878 -0.3082 -0.1715
 7845SOL    HW135171   1.063   1.017  14.033 -1.4142 -1.5085  1.0633
 7845SOL    HW235172   1.112   0.961  13.900  3.3470 -0.9323  0.0028
 7846SOL     OW35173   4.096   1.768   8.796  0.1077 -0.0465 -0.4034
 7846SOL    HW135174   4.040   1.764   8.874 -0.2648 -2.1591 -0.8006
 7846SOL    HW235175   4.151   1.691   8.798  2.6843  1.8405  1.2162
 7847SOL     OW35176   0.918   4.178   4.790  0.2068  0.0012  0.0176
 7847SOL    HW135177   0.983   4.115   4.820  0.7121  0.3043 -0.4551
 7847SOL    HW235178   0.938   4.261   4.833  0.2240  1.0807 -2.0753
 7848SOL     OW35179   1.286   3.859   8.410 -0.4324  0.6136  0.5161
 7848SOL    HW135180   1.371   3.831   8.442 -0.8640 -3.4328 -1.8970
 7848SOL    HW235181   1.316   3.949   8.395 -0.4730  0.2571 -1.7539
 7849SOL     OW35182   4.536   3.071   0.950  0.4436 -0.1520  0.2503
 7849SOL    HW135183   4.494   2.987   0.933  1.8584 -0.6562 -0.7587
 7849SOL    HW235184   4.453   3.117   0.944 -0.7581 -2.2173  1.0475
 7850SOL     OW35185   3.006   3.158   5.664  0.1580 -0.4567 -0.6062
 7850SOL    HW135186   2.989   3.139   5.756  1.9850  1.4740  0.1366
 7850SOL    HW235187   3.018   3.252   5.681  0.8774 -0.1316 -2.8442
 7851SOL     OW35188   4.536   1.255   3.498 -0.2082 -0.2523  0.1071
 7851SOL    HW135189   4.517   1.342   3.533 -1.4225 -0.7361  0.6578
 7851SOL    HW235190   4.578   1.276   3.415  0.8403  0.4121  0.8028
 7852SOL     OW35191   1.415   2.959  13.370  0.0983  0.1751  0.1776
 7852SOL    HW135192   1.480   2.889  13.379  0.9612  0.8915 -0.4326
 7852SOL    HW235193   1.400   2.982  13.461  1.5156  2.1184 -0.0551
 7853SOL     OW35194   1.703   3.253   5.642 -0.3249 -0.6615 -0.2656
 7853SOL    HW135195   1.705   3.321   5.574 -0.0274 -1.3539 -0.9549
 7853SOL    HW235196   1.658   3.305   5.708  2.0324 -1.7375  2.1717
 7854SOL     OW35197   3.470   1.257  11.753  0.0068 -0.6159 -0.3101
 7854SOL    HW135198   3.510   1.319  11.692 -1.5044  0.4040 -0.2706
 7854SOL    HW235199   3.376   1.275  11.746 -0.1063 -1.6288 -1.2950
 7855SOL     OW35200   3.894   2.506   4.936  0.4184  0.3042 -0.1968
 7855SOL    HW135201   3.825   2.493   4.871  0.6785  3.0210 -1.0080
 7855SOL    HW235202   3.839   2.531   5.011 -1.9171  0.6541 -2.0250
 7856SOL     OW35203   2.619   1.829   9.380 -0.1204 -0.6474 -0.3968
 7856SOL    HW135204   2.702   1.808   9.422  0.6332  1.6176 -0.7536
 7856SOL    HW235205   2.666   1.836   9.296 -0.1540 -2.0950 -0.5341
 7857SOL     OW35206   0.248   3.718   9.220  0.2017  0.1451 -0.6051
 7857SOL    HW135207   0.166   3.763   9.199  0.2098  1.1427  1.5557
 7857SOL    HW235208   0.224   3.630   9.189 -2.1255  0.5091  0.1328
 7858SOL     OW35209   1.806   0.261  17.285 -0.2035  0.0405  0.2179
 7858SOL    HW135210   1.794   0.355  17.272 -1.4943  0.1096  1.8074
 7858SOL    HW235211   1.734   0.228  17.340 -0.0664  0.9120  0.9283
 7859SOL     OW35212   3.357   3.988   4.976 -0.5062  0.5228 -0.3929
 7859SOL    HW135213   3.365   4.073   5.020 -1.3519  1.2396 -1.6221
 7859SOL    HW235214   3.261   3.978   4.978 -0.6779  1.8805 -1.2914
 7860SOL     OW35215   4.317   0.692   8.408  0.3434 -0.3919  0.6584
 7860SOL    HW135216   4.313   0.662   8.498 -2.3757 -0.7441  0.4406
 7860SOL    HW235217   4.227   0.666   8.389  0.9483 -2.2868  0.3545
 7861SOL     OW35218   4.323   2.339   5.230  0.2852  0.6647 -0.5331
 7861SOL    HW135219   4.339   2.416   5.175 -2.0524  0.9472 -0.8538
 7861SOL    HW235220   4.229   2.348   5.246  0.2126  0.1450 -0.6489
 7862SOL     OW35221   1.157   4.385   9.455 -0.1154  0.8003 -0.5058
 7862SOL    HW135222   1.108   4.412   9.377 -0.6486 -2.2841 -1.2470
 7862SOL    HW235223   1.218   4.325   9.412 -0.2967 -0.3268  0.8144
 7863SOL     OW35224   1.918   3.373  16.483 -0.3993  0.1669 -0.5751
 7863SOL    HW135225   1.994   3.320  16.458  0.7065  1.2090  0.5871
 7863SOL    HW235226   1.861   3.310  16.527 -1.1884  1.0397 -0.3403
 7864SOL     OW35227   2.388   3.248  16.380  0.6578  0.0144 -0.2849
 7864SOL    HW135228   2.439   3.174  16.348 -0.7246 -0.6035 -1.0413
 7864SOL    HW235229   2.463   3.297  16.414 -1.1160  2.2011  0.4992
 7865SOL     OW35230   0.516   0.655   0.771 -0.6055 -0.5146  0.0517
 7865SOL    HW135231   0.587   0.623   0.717 -0.4112  0.4019 -0.2348
 7865SOL    HW235232   0.448   0.587   0.775 -0.1859 -0.8628  1.5118
 7866SOL     OW35233   2.984   3.446  15.704 -0.3777  0.4227 -0.1444
 7866SOL    HW135234   2.992   3.527  15.655  0.0769 -0.9360 -2.3059
 7866SOL    HW235235   2.938   3.467  15.785  3.0830  1.3427  1.5992
 7867SOL     OW35236   4.736   1.785   4.920  0.2203 -0.1656 -0.4689
 7867SOL    HW135237   4.699   1.757   5.003  0.4424  0.2371 -0.2358
 7867SOL    HW235238   0.035   1.864   4.958  1.2466 -0.2236 -1.3803
 7868SOL     OW35239   1.485   3.067   0.192  0.3005 -0.5326  0.5466
 7868SOL    HW135240   1.497   3.139   0.253  0.6610  0.5423 -0.8007
 7868SOL    HW235241   1.441   3.010   0.255  1.9022  0.3776  2.4770
 7869SOL     OW35242   0.387   3.180  10.724  0.0395  0.7671 -0.1318
 7869SOL    HW135243   0.388   3.140  10.637  0.4532 -1.5942  0.9348
 7869SOL    HW235244   0.464   3.143  10.768 -1.0266 -1.3151 -0.0308
 7870SOL     OW35245   4.231   4.295   4.886 -0.2692  1.2236 -0.3620
 7870SOL    HW135246   4.304   4.305   4.825 -0.4569 -0.6298 -0.9025
 7870SOL    HW235247   4.197   4.384   4.887 -2.6503  0.3390 -1.6768
 7871SOL     OW35248   0.994   4.323   5.947 -0.2123  0.5092  0.0486
 7871SOL    HW135249   1.001   4.414   5.977  2.4024 -0.2062  1.6108
 7871SOL    HW235250   0.911   4.301   5.988  0.6196 -0.8498  0.9907
 7872SOL     OW35251   0.820   0.340  17.319  0.1010  0.2465  0.4015
 7872SOL    HW135252   0.797   0.275  17.386  3.7273 -1.1782  0.3174
 7872SOL    HW235253   0.774   0.301  17.246 -0.0245 -2.8718  2.1284
 7873SOL     OW35254   1.714   1.338   4.992  0.2609  0.2096  0.6985
 7873SOL    HW135255   1.660   1.407   4.953 -0.8589 -0.3038  1.3145
 7873SOL    HW235256   1.753   1.304   4.911 -0.6979 -0.8282  0.6599
 7874SOL     OW35257   1.133   4.572   1.547  0.0273 -0.1154 -0.5378
 7874SOL    HW135258   1.097   4.653   1.583 -2.7774 -0.8299 -1.7579
 7874SOL    HW235259   1.090   4.511   1.607  0.6503 -0.1180 -0.0952
 7875SOL     OW35260   4.249   3.153   3.964 -0.2369  0.3592  0.5575
 7875SOL    HW135261   4.287   3.171   4.050 -0.6569  2.1789  0.3637
 7875SOL    HW235262   4.247   3.242   3.930  1.3551  0.1383 -0.1435
 7876SOL     OW35263   0.561   2.099   3.603 -0.5456 -0.4778 -0.2484
 7876SOL    HW135264   0.595   2.125   3.688  0.4284 -0.4456 -0.6427
 7876SOL    HW235265   0.552   2.005   3.619 -1.2245 -0.4778 -0.6039
 7877SOL     OW35266   2.833   2.552   8.204 -0.4377  0.7032  0.3779
 7877SOL    HW135267   2.925   2.542   8.227 -0.3790 -0.5199 -0.3618
 7877SOL    HW235268   2.836   2.623   8.139 -2.1134 -0.6466 -1.1848
 7878SOL     OW35269   3.393   0.329  13.247  0.3904 -0.1442  0.2143
 7878SOL    HW135270   3.324   0.379  13.204  3.1202  0.8207 -2.9992
 7878SOL    HW235271   3.467   0.390  13.240 -0.7758  1.1351 -0.8902
 7879SOL     OW35272   0.809   0.362   5.632 -0.4141 -0.1521 -0.0622
 7879SOL    HW135273   0.737   0.325   5.581 -0.4740  2.0054 -1.5701
 7879SOL    HW235274   0.850   0.280   5.659 -0.3031  0.0659  0.4254
 7880SOL     OW35275   3.224   3.361  17.410 -0.5521  0.5036  0.0728
 7880SOL    HW135276   3.294   3.423  17.389  0.5516 -0.8388 -0.1381
 7880SOL    HW235277   3.212   3.307  17.333 -1.2789 -1.4295  1.5333
 7881SOL     OW35278   1.859   1.713   3.217 -0.1604 -0.3341  0.0964
 7881SOL    HW135279   1.899   1.639   3.264  1.4689 -0.6401 -1.7791
 7881SOL    HW235280   1.789   1.666   3.172 -0.9318  1.4015 -0.4882
 7882SOL     OW35281   1.054   3.267   6.873  0.3817  0.4122  0.0687
 7882SOL    HW135282   1.065   3.172   6.867  1.2195  0.6297 -2.0113
 7882SOL    HW235283   1.082   3.291   6.784  0.3304 -0.1866 -0.1062
 7883SOL     OW35284   2.562   2.094   8.164 -0.0339 -0.5061  0.3015
 7883SOL    HW135285   2.582   2.059   8.251  1.5153  1.2190  0.6391
 7883SOL    HW235286   2.567   2.188   8.183  3.5522 -0.8209  0.9664
 7884SOL     OW35287   3.437   1.763   5.375  0.4918  0.2626 -0.0221
 7884SOL    HW135288   3.367   1.743   5.313 -0.3317 -1.6345  1.5251
 7884SOL    HW235289   3.435   1.858   5.388 -0.8954  0.1459  0.5995
 7885SOL     OW35290   3.527   4.326   1.160 -0.1792 -0.2525  0.4268
 7885SOL    HW135291   3.547   4.269   1.086 -0.8488 -0.6492  0.5480
 7885SOL    HW235292   3.526   4.411   1.117 -0.0817  0.2716  1.4584
 7886SOL     OW35293   2.111   2.263   5.743 -0.5662  0.4328 -0.1686
 7886SOL    HW135294   2.024   2.297   5.762 -1.2662 -3.2229  3.2294
 7886SOL    HW235295   2.167   2.311   5.804 -0.9710  0.1656  0.4116
 7887SOL     OW35296   1.160   4.427   1.300  0.1422  0.3473 -0.2643
 7887SOL    HW135297   1.100   4.458   1.232 -0.2220  1.1397  0.4222
 7887SOL    HW235298   1.139   4.471   1.382 -1.0192 -0.1073 -0.3186
 7888SOL     OW35299   1.493   4.544   9.694 -0.3573 -0.4914  0.1310
 7888SOL    HW135300   1.545   4.512   9.768  1.7679 -0.3142 -1.2707
 7888SOL    HW235301   1.516   4.637   9.700 -0.4443 -0.2799 -2.8591
 7889SOL     OW35302   0.617   3.786   4.921 -0.2447  0.0029  0.2926
 7889SOL    HW135303   0.597   3.704   4.967 -0.0951 -0.3854 -0.3404
 7889SOL    HW235304   0.546   3.849   4.936 -1.1485 -1.2930  1.4454
 7890SOL     OW35305   2.379   0.400  17.701 -0.0137  0.5024  0.2681
 7890SOL    HW135306   2.399   0.477  17.647 -2.7601  2.0319  1.4505
 7890SOL    HW235307   2.290   0.386  17.671  0.5357  1.8177 -1.9938
 7891SOL     OW35308   4.314   3.220   7.696 -0.3414  0.2247  0.5572
 7891SOL    HW135309   4.409   3.229   7.698 -0.4102  1.3980 -0.9154
 7891SOL    HW235310   4.278   3.303   7.728  2.4259  1.2431  0.9889
 7892SOL     OW35311   1.622   1.312   3.737  0.1094 -0.2417  0.0382
 7892SOL    HW135312   1.575   1.237   3.775 -0.2922 -1.0572 -2.0748
 7892SOL    HW235313   1.564   1.322   3.662  1.8711 -0.3219 -1.3321
 7893SOL     OW35314   3.663   0.546   3.517  0.6321  0.2807  0.1797
 7893SOL    HW135315   3.733   0.604   3.546  0.9903 -0.9111  1.6842
 7893SOL    HW235316   3.669   0.477   3.583 -0.4305  0.2426  0.2398
 7894SOL     OW35317   3.433   1.831  15.394  0.7427  0.3810 -0.0184
 7894SOL    HW135318   3.408   1.916  15.356 -0.8531  0.8809  2.1072
 7894SOL    HW235319   3.344   1.803  15.418  0.7071  0.5776  0.0874
 7895SOL     OW35320   2.408   1.755   7.316  0.3277  0.0684  0.0536
 7895SOL    HW135321   2.394   1.750   7.411  2.8274  0.5733  0.4460
 7895SOL    HW235322   2.437   1.846   7.310  3.4905 -0.8802  0.8141
 7896SOL     OW35323   1.733   4.554  14.417 -0.5762 -0.1927  0.1887
 7896SOL    HW135324   1.788   4.632  14.411  0.5539 -1.2007 -2.6970
 7896SOL    HW235325   1.650   4.600  14.429  0.3216  1.5936 -0.4585
 7897SOL     OW35326   3.870   0.832   9.493  0.0061 -0.3149  0.2835
 7897SOL    HW135327   3.872   0.928   9.497  0.1572 -0.4017  2.2849
 7897SOL    HW235328   3.779   0.826   9.522 -0.2191 -3.1643 -1.0450
 7898SOL     OW35329   3.179   0.907   1.767  0.2563  0.0588  0.4112
 7898SOL    HW135330   3.121   0.867   1.703 -1.9003  1.9094  1.2382
 7898SOL    HW235331   3.126   0.885   1.844  0.1216  1.7708  0.8161
 7899SOL     OW35332   3.591   4.634   5.096 -0.4305  0.4744 -0.0237
 7899SOL    HW135333   3.539   4.554   5.094  0.6974 -0.2397 -1.5421
 7899SOL    HW235334   3.619   4.656   5.007 -0.7707 -0.8763 -0.4551
 7900SOL     OW35335   3.360   4.433   4.222  0.2096 -0.5454  0.4638
 7900SOL    HW135336   3.398   4.491   4.156 -1.3237  0.6445  0.6185
 7900SOL    HW235337   3.269   4.444   4.192 -0.6677 -2.7366  2.3147
 7901SOL     OW35338   2.728   0.029   9.762 -0.3377 -0.3828  0.2731
 7901SOL    HW135339   2.662   0.025   9.692  1.1269 -1.3343 -1.0402
 7901SOL    HW235340   2.694   4.692   9.808 -0.4085 -1.7812 -2.0873
 7902SOL     OW35341   4.009   1.334  16.146  0.0137  0.1747 -0.4383
 7902SOL    HW135342   4.084   1.312  16.091 -0.0929 -1.9436  0.2881
 7902SOL    HW235343   3.946   1.363  16.080  1.5219  0.8932 -1.5610
 7903SOL     OW35344   2.062   3.766  14.705  0.3466  0.1564 -0.5686
 7903SOL    HW135345   2.085   3.685  14.660 -3.9536 -0.9491 -0.7699
 7903SOL    HW235346   2.015   3.818  14.640  0.9926 -1.1605 -2.0805
 7904SOL     OW35347   2.905   0.021   6.168  0.2978  0.2267 -0.2451
 7904SOL    HW135348   2.829   0.073   6.196 -0.4334 -1.0088  0.0627
 7904SOL    HW235349   2.970   0.083   6.199 -1.3312  1.7392  0.1317
 7905SOL     OW35350   3.353   0.680   5.406  0.1015 -0.0396 -0.0036
 7905SOL    HW135351   3.269   0.634   5.402  0.1916 -0.3820  1.7705
 7905SOL    HW235352   3.347   0.720   5.320  3.7663  0.0890 -0.1884
 7906SOL     OW35353   0.008   0.737   5.994 -0.0972 -0.1559 -0.0612
 7906SOL    HW135354   4.688   0.715   5.922  0.8228 -1.3854 -0.4484
 7906SOL    HW235355   4.686   0.761   6.062 -0.3708 -1.3758  0.1273
 7907SOL     OW35356   0.211   0.789   4.609 -0.4130 -0.4441 -0.2113
 7907SOL    HW135357   0.223   0.863   4.669  1.1992  0.9901 -2.2897
 7907SOL    HW235358   0.138   0.827   4.559  0.1114  0.2340 -0.4606
 7908SOL     OW35359   3.736   1.443  17.064  0.3797  0.0014  0.1001
 7908SOL    HW135360   3.734   1.400  17.149 -2.3980  0.4490  0.2623
 7908SOL    HW235361   3.812   1.396  17.031 -0.5604 -1.0386 -0.6186
 7909SOL     OW35362   1.179   0.826   8.877  0.6984 -0.1943 -0.4097
 7909SOL    HW135363   1.159   0.800   8.967  0.1775  2.0263  0.1256
 7909SOL    HW235364   1.258   0.880   8.888  1.5767 -1.7896  1.1289
 7910SOL     OW35365   3.123   3.135   3.570 -0.3769 -0.4821  0.1775
 7910SOL    HW135366   3.177   3.171   3.641  1.7331 -0.8862 -1.2408
 7910SOL    HW235367   3.081   3.060   3.613  1.2566 -1.2960  0.3619
 7911SOL     OW35368   1.919   1.043   3.511  0.1047  0.2708  0.1840
 7911SOL    HW135369   2.011   1.031   3.531 -0.2164  0.0197  1.5078
 7911SOL    HW235370   1.926   1.129   3.470  1.1661 -0.5394 -1.3405
 7912SOL     OW35371   0.096   2.884  15.207 -0.4109 -0.1910  0.2236
 7912SOL    HW135372   0.041   2.849  15.277 -0.8362  1.0519  0.5162
 7912SOL    HW235373   0.167   2.923  15.258  0.1034 -1.5034  0.5090
 7913SOL     OW35374   1.587   3.134   6.340  0.4818 -0.0419  0.5999
 7913SOL    HW135375   1.658   3.196   6.323 -0.3493  0.0737 -2.5226
 7913SOL    HW235376   1.579   3.096   6.252 -0.3424  0.8444  0.2908
 7914SOL     OW35377   1.377   4.284   4.640  0.4044  0.0484 -0.2013
 7914SOL    HW135378   1.380   4.188   4.645  1.3389  0.1736  1.7026
 7914SOL    HW235379   1.282   4.295   4.630 -0.0811 -4.6992 -0.8011
 7915SOL     OW35380   1.316   0.863   7.081  0.2277  0.3935  0.7016
 7915SOL    HW135381   1.319   0.777   7.040  0.5963  0.2304  1.0681
 7915SOL    HW235382   1.277   0.916   7.012 -0.5827  0.6996  1.3904
 7916SOL     OW35383   3.907   2.890   2.844  0.4319  0.8115 -0.2388
 7916SOL    HW135384   3.916   2.888   2.939 -1.6909 -1.4593 -0.0766
 7916SOL    HW235385   3.973   2.829   2.814 -0.2057 -0.3419  0.7141
 7917SOL     OW35386   2.188   0.543   1.014 -0.1400 -0.2541 -0.1032
 7917SOL    HW135387   2.230   0.474   0.963  0.9223 -0.0622  0.5101
 7917SOL    HW235388   2.100   0.531   0.978 -0.2381 -0.7608  0.3041
 7918SOL     OW35389   2.627   2.374   1.338  0.0924 -0.5074 -0.1533
 7918SOL    HW135390   2.625   2.468   1.318 -1.6884 -0.2417  1.2565
 7918SOL    HW235391   2.706   2.348   1.291  0.4417  1.6342 -0.7573
 7919SOL     OW35392   1.523   1.636   4.859 -0.3582  0.1602 -0.2908
 7919SOL    HW135393   1.517   1.546   4.828  1.3003 -0.5179  1.3396
 7919SOL    HW235394   1.479   1.684   4.789  0.4141 -0.3585 -1.1275
 7920SOL     OW35395   2.608   1.723   8.880 -0.3108 -0.0482 -0.1174
 7920SOL    HW135396   2.560   1.642   8.862 -1.6473  0.7731 -0.2638
 7920SOL    HW235397   2.563   1.756   8.957  0.5368 -1.2738  0.8932
 7921SOL     OW35398   1.427   0.886   6.372 -0.3782  0.8713  0.0394
 7921SOL    HW135399   1.421   0.918   6.282 -2.5549  1.0736  0.2623
 7921SOL    HW235400   1.335   0.862   6.383  0.0335 -0.7539 -0.0171
 7922SOL     OW35401   1.825   1.597   9.805  0.0330  0.2427  0.5617
 7922SOL    HW135402   1.834   1.691   9.814  0.6128  0.1686  0.7289
 7922SOL    HW235403   1.748   1.595   9.863 -1.4420 -2.5271 -1.4762
 7923SOL     OW35404   1.373   1.003   8.987 -0.4520  0.3731  0.2325
 7923SOL    HW135405   1.435   1.043   9.047  0.5710 -0.7759 -0.0565
 7923SOL    HW235406   1.290   1.032   9.025 -0.1200  2.1869 -0.4543
 7924SOL     OW35407   2.012   4.720   4.345 -0.2222 -0.1410 -0.1986
 7924SOL    HW135408   1.962   4.669   4.281  1.5197 -2.8117  0.5889
 7924SOL    HW235409   2.095   4.726   4.299 -0.3491 -2.2275 -0.6835
 7925SOL     OW35410   1.027   1.408   6.967 -0.1422  0.6396  0.1429
 7925SOL    HW135411   1.121   1.420   6.954  0.3644 -1.4194  1.8870
 7925SOL    HW235412   1.015   1.502   6.954  0.5801  0.5495 -1.2008
 7926SOL     OW35413   1.386   3.124   6.528 -0.3835 -1.2838  0.2419
 7926SOL    HW135414   1.443   3.101   6.454  0.6394 -0.3579  0.7470
 7926SOL    HW235415   1.445   3.092   6.596  0.0884 -1.3393 -0.1913
 7927SOL     OW35416   4.621   3.928   6.399  0.2505  0.1806  0.0738
 7927SOL    HW135417   4.639   3.927   6.305  0.7729  0.8358  0.1770
 7927SOL    HW235418   4.608   4.019   6.423 -2.2260 -0.4012  1.0486
 7928SOL     OW35419   1.507   0.345  11.681  0.6699  0.1192 -0.1805
 7928SOL    HW135420   1.560   0.290  11.623 -0.7527  0.1764 -1.5451
 7928SOL    HW235421   1.448   0.377  11.613 -0.3131 -1.6061 -0.1386
 7929SOL     OW35422   4.098   0.040   7.632  0.2253 -0.3101  0.3295
 7929SOL    HW135423   4.069   4.688   7.633  0.5086 -0.4162 -1.0965
 7929SOL    HW235424   4.018   0.093   7.627 -0.5176 -1.1690  3.3893
 7930SOL     OW35425   0.424   2.051  13.353  0.0449 -0.0458  0.8855
 7930SOL    HW135426   0.340   2.045  13.399  0.0110  0.2290  0.8605
 7930SOL    HW235427   0.440   1.964  13.316  0.6933  0.6597 -0.4842
 7931SOL     OW35428   2.501   2.382   8.829 -0.1685  0.1550  0.1976
 7931SOL    HW135429   2.551   2.445   8.776 -1.6354  1.0993 -0.0453
 7931SOL    HW235430   2.569   2.333   8.877 -2.9979 -1.7800  2.1966
 7932SOL     OW35431   0.100   4.219   3.104 -0.5724 -0.6009 -0.2980
 7932SOL    HW135432   0.123   4.257   3.019  1.6364 -1.4219 -0.0633
 7932SOL    HW235433   0.071   4.130   3.081  0.9644 -0.9310 -0.9395
 7933SOL     OW35434   1.692   0.986   0.467 -0.5504 -0.4489  0.6691
 7933SOL    HW135435   1.723   0.967   0.556 -0.2649 -1.4868  0.3554
 7933SOL    HW235436   1.779   0.973   0.431  0.2073  0.9025  2.0277
 7934SOL     OW35437   2.741   2.408   1.895 -0.1298 -0.0869  0.1650
 7934SOL    HW135438   2.676   2.477   1.888 -0.3011 -0.2734 -0.0682
 7934SOL    HW235439   2.711   2.355   1.969  0.5135 -0.2129  0.3406
 7935SOL     OW35440   0.394   2.740   4.540 -0.3693  0.2218 -0.3730
 7935SOL    HW135441   0.442   2.817   4.509  4.6101 -1.6985  2.5494
 7935SOL    HW235442   0.426   2.735   4.630  0.6213 -1.2251 -0.8084
 7936SOL     OW35443   1.463   2.191  16.775  0.8170  0.0234 -0.6420
 7936SOL    HW135444   1.371   2.210  16.756  0.3373  0.2020  1.8218
 7936SOL    HW235445   1.489   2.132  16.704  0.9868 -2.0613  1.1392
 7937SOL     OW35446   2.158   2.668   5.673  0.3058  0.0569 -0.0197
 7937SOL    HW135447   2.066   2.681   5.652  0.1859  0.5401  0.7927
 7937SOL    HW235448   2.163   2.746   5.728  1.3905 -0.3051  0.3955
 7938SOL     OW35449   4.047   4.044   9.153  0.2213  0.7487  0.3271
 7938SOL    HW135450   4.023   4.105   9.083 -0.6008 -2.5176 -2.2252
 7938SOL    HW235451   4.081   3.967   9.107 -1.0616 -0.2089  1.0088
 7939SOL     OW35452   3.134   1.989   1.033  0.0873 -0.0924 -0.5305
 7939SOL    HW135453   3.189   2.030   0.967 -1.3993  1.1786 -0.9620
 7939SOL    HW235454   3.190   2.019   1.105 -0.3962  1.3991 -0.7832
 7940SOL     OW35455   0.301   0.923   9.305 -0.0928  0.0994  0.1033
 7940SOL    HW135456   0.228   0.909   9.366  1.5982 -2.0469  1.6372
 7940SOL    HW235457   0.335   1.008   9.331  3.0044 -1.1262  0.0168
 7941SOL     OW35458   2.223   1.815   5.265  0.2418  0.3255 -0.4423
 7941SOL    HW135459   2.202   1.743   5.325 -1.4152  0.2846 -1.0594
 7941SOL    HW235460   2.149   1.809   5.204 -0.9544  0.2570  1.0153
 7942SOL     OW35461   3.141   1.583   1.810  0.0016  0.3012  0.7413
 7942SOL    HW135462   3.053   1.548   1.827  0.0749  1.2974  3.2343
 7942SOL    HW235463   3.185   1.508   1.852 -0.5945 -1.0845 -1.1315
 7943SOL     OW35464   2.864   3.301  16.120 -0.2385  0.0933  0.6290
 7943SOL    HW135465   2.890   3.250  16.044  1.5922  1.8456  0.0737
 7943SOL    HW235466   2.769   3.301  16.108 -0.1467  0.3036 -0.0749
 7944SOL     OW35467   3.235   0.404   3.695 -0.4173 -0.0087  0.1518
 7944SOL    HW135468   3.147   0.434   3.675 -1.0103 -1.2125  0.9579
 7944SOL    HW235469   3.271   0.398   3.607  0.8349  1.8715  0.5291
 7945SOL     OW35470   2.060   4.505  13.554  0.3556  0.0738  0.4717
 7945SOL    HW135471   2.023   4.593  13.554  2.0668  0.7826 -0.7918
 7945SOL    HW235472   2.107   4.489  13.472 -0.8803 -2.6442  0.2732
 7946SOL     OW35473   3.879   4.162  11.393  0.4789  0.5158  0.0999
 7946SOL    HW135474   3.966   4.177  11.430 -0.2294  0.2047  1.8905
 7946SOL    HW235475   3.897   4.177  11.300  0.0083 -0.4158 -0.1337
 7947SOL     OW35476   1.145   0.279   4.427  0.7323  0.3551 -0.0726
 7947SOL    HW135477   1.073   0.284   4.490  0.6566  0.7574 -0.1874
 7947SOL    HW235478   1.195   0.353   4.461  0.0435  1.2426 -0.9745
 7948SOL     OW35479   3.133   1.098   5.691  0.2160  0.4268  0.3077
 7948SOL    HW135480   3.086   1.045   5.756 -2.0214  2.1231  0.0924
 7948SOL    HW235481   3.064   1.103   5.625  0.2741 -0.5680  0.1731
 7949SOL     OW35482   1.869   1.221   3.216  0.3616  0.2268 -0.2262
 7949SOL    HW135483   1.798   1.279   3.244 -0.6669 -0.3925 -1.5237
 7949SOL    HW235484   1.948   1.276   3.215  0.9242 -0.5794 -0.1463
 7950SOL     OW35485   0.943   2.152   3.710  0.0656  1.0729 -0.4570
 7950SOL    HW135486   0.907   2.073   3.751 -1.6237  2.8824  1.5612
 7950SOL    HW235487   1.036   2.138   3.723 -0.5141  0.4503  2.9674
 7951SOL     OW35488   1.176   1.176  10.366 -0.5164  0.2621 -0.1906
 7951SOL    HW135489   1.081   1.190  10.363 -0.3087  1.9678  1.3192
 7951SOL    HW235490   1.193   1.189  10.273 -1.2797  1.7114 -0.1210
 7952SOL     OW35491   4.105   1.603   4.292  0.4001 -0.1709  0.5701
 7952SOL    HW135492   4.147   1.685   4.317  0.0808  0.1756 -0.0155
 7952SOL    HW235493   4.179   1.542   4.286  0.5228 -0.0421  0.7998
 7953SOL     OW35494   4.112   1.013   8.968 -0.4374 -0.2889  0.6793
 7953SOL    HW135495   4.166   0.969   9.034 -1.4266  0.2977  1.8700
 7953SOL    HW235496   4.021   0.997   8.991 -0.6921  1.4281  0.8641
 7954SOL     OW35497   3.527   2.172   6.367  0.2310  0.3565 -0.1679
 7954SOL    HW135498   3.570   2.209   6.290  0.0122  0.6306 -0.1573
 7954SOL    HW235499   3.541   2.078   6.355  1.7568  0.6725 -0.9149
 7955SOL     OW35500   1.494   4.550   6.577 -0.2160 -0.1433  0.7853
 7955SOL    HW135501   1.399   4.545   6.571 -0.1160 -0.7519 -0.2331
 7955SOL    HW235502   1.522   4.574   6.489  1.1418 -4.2247  0.0759
 7956SOL     OW35503   2.851   1.582   4.565 -0.8961 -0.0476  0.3038
 7956SOL    HW135504   2.823   1.491   4.560 -0.8921 -0.0965  1.2709
 7956SOL    HW235505   2.841   1.603   4.658  1.4170 -0.7944  0.7366
 7957SOL     OW35506   1.252   2.653  13.603 -0.3805 -0.3799  0.2441
 7957SOL    HW135507   1.223   2.744  13.611 -1.1662 -0.4381 -1.9627
 7957SOL    HW235508   1.212   2.619  13.684 -0.6975 -0.9481 -0.1511
 7958SOL     OW35509   1.636   0.051  15.964 -0.4526  0.1352 -0.3476
 7958SOL    HW135510   1.657   0.143  15.976  0.3346 -0.1749  0.6235
 7958SOL    HW235511   1.580   0.051  15.886  2.4369 -1.9565 -2.4371
 7959SOL     OW35512   1.364   3.527  10.467 -0.2465 -0.0613  0.1506
 7959SOL    HW135513   1.416   3.472  10.409  2.0980  4.2977 -1.9116
 7959SOL    HW235514   1.429   3.592  10.493 -1.5765  2.3560 -2.5407
 7960SOL     OW35515   0.643   0.545   7.621 -0.1483 -0.1521  0.1779
 7960SOL    HW135516   0.684   0.560   7.535 -0.9424 -2.7547 -0.6514
 7960SOL    HW235517   0.635   0.451   7.633  1.7504 -0.4027 -0.4707
 7961SOL     OW35518   2.232   4.559   7.562 -0.4127  0.0146 -0.4885
 7961SOL    HW135519   2.321   4.526   7.551 -0.6815 -0.6970 -0.5752
 7961SOL    HW235520   2.212   4.576   7.470 -1.4166  2.2988  0.1574
 7962SOL     OW35521   4.605   1.955   0.144 -0.0487 -0.2210  0.2556
 7962SOL    HW135522   4.634   1.873   0.104 -0.7088  0.5946 -1.9446
 7962SOL    HW235523   4.564   1.995   0.067 -0.4347  0.3175  0.7357
 7963SOL     OW35524   0.813   2.142   0.565 -0.2929  0.0825  0.5769
 7963SOL    HW135525   0.740   2.197   0.538  0.5927  1.3293  0.7600
 7963SOL    HW235526   0.812   2.088   0.486  0.6475  0.4914  0.2950
 7964SOL     OW35527   0.589   0.503   3.823 -0.4047  0.3144 -0.1627
 7964SOL    HW135528   0.551   0.589   3.804 -1.0430  0.2662  0.9207
 7964SOL    HW235529   0.670   0.516   3.871 -0.6325 -2.7590  1.0759
 7965SOL     OW35530   1.936   3.484   0.020  0.6125 -0.1122 -0.1273
 7965SOL    HW135531   1.849   3.521   0.004  0.4633 -1.3458 -2.3239
 7965SOL    HW235532   1.906   3.421   0.085  0.0207 -0.7877 -1.0549
 7966SOL     OW35533   1.977   2.669  11.771  0.5512  0.5150 -0.0550
 7966SOL    HW135534   1.985   2.609  11.845 -0.4322  1.7506  1.0537
 7966SOL    HW235535   2.051   2.727  11.791  0.1703  0.8803  0.2990
 7967SOL     OW35536   0.845   2.629   2.709 -0.0931 -0.4511  0.2600
 7967SOL    HW135537   0.921   2.640   2.652 -0.4467 -1.9225 -0.4892
 7967SOL    HW235538   0.842   2.711   2.758 -0.8701 -0.1806 -0.2436
 7968SOL     OW35539   1.781   2.952  11.360  0.5663  0.3387 -0.2929
 7968SOL    HW135540   1.799   2.956  11.454  1.8951  0.5075 -0.5505
 7968SOL    HW235541   1.769   2.858  11.349 -1.0383  0.3500  1.4765
 7969SOL     OW35542   0.778   3.217   6.539  0.2514  0.0389 -0.1393
 7969SOL    HW135543   0.687   3.236   6.559  0.0822  0.1183 -1.0162
 7969SOL    HW235544   0.823   3.294   6.574  1.0661 -0.5797  0.1949
 7970SOL     OW35545   1.241   2.750   5.173 -0.1101 -0.6161  0.6418
 7970SOL    HW135546   1.157   2.795   5.169  1.1495  1.6106 -0.4130
 7970SOL    HW235547   1.298   2.817   5.211 -1.8383  0.9427  0.4694
 7971SOL     OW35548   2.627   2.176   6.436 -0.1681 -0.5468 -0.3822
 7971SOL    HW135549   2.718   2.207   6.443 -1.0527  1.8677  0.3463
 7971SOL    HW235550   2.644   2.081   6.435 -0.1860 -0.5560  0.0871
 7972SOL     OW35551   2.920   0.589   0.544  0.5560 -0.1559 -0.0878
 7972SOL    HW135552   2.831   0.559   0.526  0.1352  0.4795  0.8989
 7972SOL    HW235553   2.943   0.612   0.454  0.0503  0.2336 -0.1196
 7973SOL     OW35554   1.054   4.166   8.260  0.2809 -0.3151  0.0623
 7973SOL    HW135555   1.080   4.208   8.342  2.2953 -0.4576 -0.5067
 7973SOL    HW235556   0.984   4.227   8.239 -2.7148 -2.9367  2.4806
 7974SOL     OW35557   4.518   4.409   6.494  0.8225 -0.5201  0.3410
 7974SOL    HW135558   4.600   4.457   6.485  1.0765 -1.3331 -1.5346
 7974SOL    HW235559   4.551   4.321   6.509 -0.0145 -1.4854 -3.4624
 7975SOL     OW35560   1.131   0.480  16.693  0.8991 -0.4200  0.2207
 7975SOL    HW135561   1.077   0.411  16.655  1.7564 -1.4671  0.8793
 7975SOL    HW235562   1.111   0.481  16.786  0.5112 -2.4174  0.1560
 7976SOL     OW35563   2.979   2.110   2.169  0.3996 -0.3859  0.2193
 7976SOL    HW135564   2.949   2.020   2.177 -2.0017  0.4229  0.2304
 7976SOL    HW235565   3.027   2.109   2.085  1.1433  1.4251  0.6070
 7977SOL     OW35566   1.224   4.132   3.358  0.2440  0.4516  0.6042
 7977SOL    HW135567   1.263   4.141   3.271 -1.6341  0.7242 -0.2239
 7977SOL    HW235568   1.294   4.183   3.398  0.5300 -0.7871  1.6976
 7978SOL     OW35569   2.736   2.867   3.702 -0.1383  0.1056 -0.3551
 7978SOL    HW135570   2.648   2.882   3.737  0.3487  1.5588  0.2884
 7978SOL    HW235571   2.707   2.862   3.611 -1.1898  0.6040 -0.0525
 7979SOL     OW35572   3.555   1.785   1.865  0.3376 -0.4423 -0.3146
 7979SOL    HW135573   3.596   1.847   1.805  0.4952  1.1938  1.4769
 7979SOL    HW235574   3.494   1.743   1.804 -0.6557 -0.4937  0.7149
 7980SOL     OW35575   0.175   0.765   3.360  0.0847 -1.0575  0.4692
 7980SOL    HW135576   0.103   0.784   3.300  1.6290 -1.7640 -1.5838
 7980SOL    HW235577   0.199   0.680   3.323 -1.3640 -0.5833 -1.5970
 7981SOL     OW35578   0.376   3.889   1.622 -0.2141  0.5965 -0.1751
 7981SOL    HW135579   0.467   3.917   1.627  0.2056 -0.7661 -0.1694
 7981SOL    HW235580   0.329   3.969   1.597 -1.5091 -0.9259 -2.5658
 7982SOL     OW35581   1.016   3.954  11.680 -0.4379  0.5852  0.1386
 7982SOL    HW135582   0.972   3.880  11.638 -1.8501  1.0597  0.7852
 7982SOL    HW235583   1.052   3.913  11.758 -1.8581 -2.0327 -0.5968
 7983SOL     OW35584   3.402   2.153   7.170 -0.0330 -0.0158 -0.0935
 7983SOL    HW135585   3.366   2.155   7.259  1.8826 -2.9224  0.7522
 7983SOL    HW235586   3.491   2.127   7.192 -0.1092 -1.4370 -1.4541
 7984SOL     OW35587   3.008   1.877  10.983  0.5507 -0.6628  0.1305
 7984SOL    HW135588   3.032   1.892  11.074  2.9605  0.1317 -0.6399
 7984SOL    HW235589   2.921   1.916  10.973  1.7124  2.4091  2.2364
 7985SOL     OW35590   2.043   3.025   7.077 -0.1071 -0.1315 -0.0154
 7985SOL    HW135591   1.980   3.075   7.128 -2.6216 -2.1020 -1.1680
 7985SOL    HW235592   2.060   2.952   7.138 -0.2208 -0.0391  0.1272
 7986SOL     OW35593   2.108   4.454  13.816 -0.1172 -0.3533  0.5201
 7986SOL    HW135594   2.088   4.474  13.724 -1.4523  0.4095  0.9752
 7986SOL    HW235595   2.047   4.516  13.856 -0.9652 -1.0931  0.3628
 7987SOL     OW35596   3.820   2.241  16.371  0.0292  0.3332  0.4835
 7987SOL    HW135597   3.848   2.325  16.334 -0.8082 -0.1852 -1.3256
 7987SOL    HW235598   3.773   2.193  16.303 -0.9869  1.4627  0.3927
 7988SOL     OW35599   3.327   0.090  11.643  0.0960  0.3843 -0.2937
 7988SOL    HW135600   3.416   0.094  11.677 -0.6321  0.2581  1.5917
 7988SOL    HW235601   3.290   0.174  11.669  1.6987  0.5265  1.5184
 7989SOL     OW35602   1.365   2.839   3.846  0.2767 -0.3494  0.2452
 7989SOL    HW135603   1.398   2.766   3.793  1.6808  1.0257 -0.7599
 7989SOL    HW235604   1.338   2.896   3.775 -0.8707 -0.3407  0.6767
 7990SOL     OW35605   1.259   0.629   1.788  0.3105 -0.0258 -0.5891
 7990SOL    HW135606   1.174   0.591   1.809  0.6440 -0.7057 -0.4678
 7990SOL    HW235607   1.314   0.594   1.858  0.7120 -0.8610 -1.3121
 7991SOL     OW35608   3.636   3.939   7.661  0.8080 -0.4765  0.8993
 7991SOL    HW135609   3.675   3.898   7.585  0.3297  0.9507 -0.1099
 7991SOL    HW235610   3.545   3.962   7.641  0.1048 -1.3180  3.0372
 7992SOL     OW35611   1.772   4.373   7.708  0.0907 -0.3580 -0.0721
 7992SOL    HW135612   1.727   4.299   7.749  0.5146  1.8750  4.3711
 7992SOL    HW235613   1.765   4.352   7.615 -2.0615  2.5107 -0.5421
 7993SOL     OW35614   3.827   2.433   5.942  0.0997  0.0745  0.2614
 7993SOL    HW135615   3.884   2.358   5.923 -0.5552  0.2581 -2.5662
 7993SOL    HW235616   3.873   2.505   5.900 -0.6361  0.8097  0.7208
 7994SOL     OW35617   0.963   4.205   3.329  0.0736 -0.0076 -0.0765
 7994SOL    HW135618   1.055   4.181   3.337 -0.4240 -2.3465 -1.3173
 7994SOL    HW235619   0.964   4.260   3.251  1.5113 -0.1505 -0.1472
 7995SOL     OW35620   0.449   2.566   5.767 -0.2679 -0.4661 -0.4396
 7995SOL    HW135621   0.521   2.618   5.731 -0.6396  1.6278  1.8538
 7995SOL    HW235622   0.469   2.480   5.730  2.5962 -0.2549  0.6255
 7996SOL     OW35623   3.320   4.680   7.192  0.1576 -0.2596  0.6935
 7996SOL    HW135624   3.405   4.717   7.167 -1.1851  1.5425 -1.2104
 7996SOL    HW235625   3.338   4.635   7.274  0.9106  0.4970  0.9461
 7997SOL     OW35626   2.662   3.661   4.594  0.3390 -0.2096  0.5031
 7997SOL    HW135627   2.753   3.678   4.568 -0.2440 -0.1824 -1.4829
 7997SOL    HW235628   2.655   3.728   4.663 -0.3328  0.2561 -0.0236
 7998SOL     OW35629   2.102   0.283   1.947 -0.0744 -1.3246  0.1783
 7998SOL    HW135630   2.136   0.196   1.967  1.4900 -1.1193 -1.5971
 7998SOL    HW235631   2.013   0.269   1.981  0.8587 -0.7832  2.8352
 7999SOL     OW35632   4.626   0.657  10.685 -0.1677  0.2386 -0.4079
 7999SOL    HW135633   4.647   0.741  10.644  1.0185 -0.2642 -0.8588
 7999SOL    HW235634   4.569   0.625  10.615 -2.6848  1.4082  1.1461
 8000SOL     OW35635   3.964   0.353   8.042 -0.3213 -0.4558  0.5442
 8000SOL    HW135636   4.014   0.272   8.053  1.6352  0.7126  0.2365
 8000SOL    HW235637   3.966   0.385   8.132  0.2859  2.1216 -0.4073
 8001SOL     OW35638   3.318   2.175   2.075 -0.4150 -0.0106  0.4818
 8001SOL    HW135639   3.328   2.223   2.157 -1.0853 -1.8421  1.6544
 8001SOL    HW235640   3.321   2.084   2.107 -0.2311 -0.6467 -1.3708
 8002SOL     OW35641   1.245   1.308   9.078 -0.1724  0.3273 -0.6331
 8002SOL    HW135642   1.176   1.373   9.091  0.5507  0.4705  2.5773
 8002SOL    HW235643   1.201   1.238   9.126  1.3380  0.1993  0.5620
 8003SOL     OW35644   3.721   0.976   9.921  0.2404  0.2173 -0.0699
 8003SOL    HW135645   3.665   0.989   9.997 -0.1148  0.0148 -0.2947
 8003SOL    HW235646   3.803   1.014   9.953 -0.4818  1.0796  0.7309
 8004SOL     OW35647   2.602   2.000   8.838 -0.6601 -0.6594  1.1384
 8004SOL    HW135648   2.645   1.918   8.863  1.4827  0.6301  1.6262
 8004SOL    HW235649   2.674   2.041   8.791  0.0994 -2.1119  1.0225
 8005SOL     OW35650   1.020   1.961   2.810 -0.0136 -0.4205 -0.4509
 8005SOL    HW135651   1.011   1.878   2.763 -2.7834 -0.1143 -0.5038
 8005SOL    HW235652   0.974   2.017   2.747 -1.4925 -0.7796  0.3188
 8006SOL     OW35653   4.723   3.966   5.741  0.1564  0.3714 -0.1735
 8006SOL    HW135654   0.049   3.910   5.783 -1.1598 -2.3386 -1.7638
 8006SOL    HW235655   0.045   4.029   5.704 -1.4848  0.6315 -2.4509
 8007SOL     OW35656   1.833   1.325  11.713  0.3830 -0.1118  0.3768
 8007SOL    HW135657   1.836   1.371  11.630  3.3377 -0.8318  0.0728
 8007SOL    HW235658   1.927   1.309  11.724  0.2688 -1.8551 -1.1861
 8008SOL     OW35659   3.824   0.459   0.390 -0.0750  0.0217  0.1725
 8008SOL    HW135660   3.842   0.553   0.397 -2.1594  0.4830 -0.5040
 8008SOL    HW235661   3.795   0.456   0.299 -0.5534  1.9696  0.2693
 8009SOL     OW35662   1.693   4.258   7.275 -0.2095  0.0435  0.1092
 8009SOL    HW135663   1.757   4.252   7.205 -1.3541 -2.2766 -0.7429
 8009SOL    HW235664   1.735   4.331   7.320  0.7286  0.4860 -1.5103
 8010SOL     OW35665   2.396   0.071   5.384 -1.1099  0.1438  0.3115
 8010SOL    HW135666   2.450   0.100   5.458 -1.2911 -0.5497  0.7149
 8010SOL    HW235667   2.378   4.720   5.410  1.0229  0.5898  3.3849
 8011SOL     OW35668   3.696   2.203   1.611  0.2437 -0.2493 -0.0830
 8011SOL    HW135669   3.705   2.226   1.704 -1.6214  0.8673 -0.1878
 8011SOL    HW235670   3.734   2.277   1.564 -1.3400  0.1000 -0.8230
 8012SOL     OW35671   1.022   3.902   0.493 -0.1443 -0.5074 -0.2456
 8012SOL    HW135672   0.973   3.984   0.491 -0.2671 -0.5298  1.6813
 8012SOL    HW235673   1.063   3.902   0.580 -2.1628 -0.5914  0.7031
 8013SOL     OW35674   1.336   3.918   3.745  0.0552  0.1736 -0.4252
 8013SOL    HW135675   1.269   3.933   3.678  0.2392 -0.4535 -0.7561
 8013SOL    HW235676   1.327   3.822   3.748  0.3622  0.1424 -0.4997
 8014SOL     OW35677   4.191   1.492   4.891  0.3701 -0.6703  0.1999
 8014SOL    HW135678   4.210   1.430   4.820 -0.1030  0.6188 -1.0410
 8014SOL    HW235679   4.110   1.536   4.864  0.6306  0.5937  1.5061
 8015SOL     OW35680   1.938   2.387   8.568  0.1305 -0.5055 -0.1057
 8015SOL    HW135681   1.844   2.371   8.555 -0.1128  0.1492  0.8611
 8015SOL    HW235682   1.942   2.482   8.562  0.6690 -0.5133  0.1191
 8016SOL     OW35683   0.753   3.427   3.246 -0.3076 -0.4533  0.7680
 8016SOL    HW135684   0.769   3.521   3.233  0.7233 -0.9322 -1.4118
 8016SOL    HW235685   0.838   3.394   3.273 -1.1342 -1.3737  2.2535
 8017SOL     OW35686   0.334   3.167   8.292 -0.1360 -0.5401  0.2132
 8017SOL    HW135687   0.397   3.139   8.225 -2.0836 -2.0382 -0.9861
 8017SOL    HW235688   0.345   3.262   8.283 -1.7779 -0.2929  0.8673
 8018SOL     OW35689   4.210   0.421  16.771 -0.3354 -0.2451 -0.3286
 8018SOL    HW135690   4.291   0.437  16.819  1.5071 -2.7227 -2.6018
 8018SOL    HW235691   4.218   0.473  16.691 -2.6552 -3.4030 -2.6070
 8019SOL     OW35692   4.359   0.996   7.333  0.2385 -0.0478 -0.2602
 8019SOL    HW135693   4.347   1.073   7.278  1.1527  0.8569  0.8029
 8019SOL    HW235694   4.321   1.030   7.414 -0.3383  1.5121 -1.1874
 8020SOL     OW35695   2.054   3.823  15.491  0.1359 -0.0931 -0.3197
 8020SOL    HW135696   2.137   3.870  15.481  0.7152 -1.4690 -2.0864
 8020SOL    HW235697   2.022   3.806  15.402 -1.2504 -1.0737  0.3653
 8021SOL     OW35698   3.240   2.750  15.119  0.6498 -0.0748 -0.1413
 8021SOL    HW135699   3.309   2.700  15.164 -1.2989 -0.0078  2.8901
 8021SOL    HW235700   3.189   2.675  15.091  1.5279 -0.0160 -1.8925
 8022SOL     OW35701   1.112   0.147  10.980  0.0769  1.0723  0.3863
 8022SOL    HW135702   1.055   0.167  10.906 -1.0069 -0.2321  0.8772
 8022SOL    HW235703   1.175   0.096  10.930 -0.3846 -2.4172  3.3846
 8023SOL     OW35704   1.307   2.500   0.675  0.1110  0.1949 -0.7272
 8023SOL    HW135705   1.292   2.587   0.636  2.7743  1.5182  1.2354
 8023SOL    HW235706   1.366   2.460   0.611  0.3342  1.8446 -1.5599
 8024SOL     OW35707   4.435   1.888   2.572 -0.2474 -0.3996 -0.3133
 8024SOL    HW135708   4.469   1.821   2.512  0.2394 -1.0820  0.7174
 8024SOL    HW235709   4.446   1.829   2.647 -0.9077 -1.3733 -0.9842
 8025SOL     OW35710   1.176   1.747   5.490 -0.3766 -0.7091  0.7163
 8025SOL    HW135711   1.266   1.742   5.457 -0.4530  0.3280  0.3453
 8025SOL    HW235712   1.174   1.683   5.561 -0.1019 -1.1648  0.3107
 8026SOL     OW35713   3.875   2.730   3.523 -0.1501  0.2348  0.1706
 8026SOL    HW135714   3.784   2.757   3.528 -0.1895  0.1178  0.0966
 8026SOL    HW235715   3.867   2.635   3.514 -0.5979  0.2846  0.0691
 8027SOL     OW35716   0.178   3.708   1.456  0.0100 -0.0977  0.1516
 8027SOL    HW135717   0.136   3.655   1.524 -1.0931 -1.5812 -1.6879
 8027SOL    HW235718   0.252   3.727   1.513  1.0339  1.1099 -1.5940
 8028SOL     OW35719   1.715   0.253   0.573  0.1858 -0.0422  0.0832
 8028SOL    HW135720   1.712   0.203   0.491 -2.1092 -0.9915  0.7659
 8028SOL    HW235721   1.638   0.310   0.564  0.4164  0.1035 -0.9557
 8029SOL     OW35722   2.870   2.109   1.453  0.4781  0.9183 -0.5263
 8029SOL    HW135723   2.931   2.055   1.505  0.2936 -0.5975 -1.9093
 8029SOL    HW235724   2.827   2.157   1.524  1.2127  0.5500  0.1869
 8030SOL     OW35725   0.385   1.243   2.484 -0.0712  0.0305 -0.2892
 8030SOL    HW135726   0.412   1.153   2.467 -2.8523 -1.1806  1.6769
 8030SOL    HW235727   0.431   1.284   2.411 -0.6567 -1.5665 -1.5446
 8031SOL     OW35728   3.347   4.049   7.130  0.1623 -0.1665 -0.3911
 8031SOL    HW135729   3.346   3.989   7.204  3.9250  0.1102 -0.1216
 8031SOL    HW235730   3.279   4.116   7.143 -0.7194 -0.9436 -1.0327
 8032SOL     OW35731   0.990   1.716   2.646  0.4267  0.5251  0.1925
 8032SOL    HW135732   1.021   1.630   2.675 -0.8263  0.1737  0.4880
 8032SOL    HW235733   1.033   1.722   2.561  0.4966  0.4866  0.2249
 8033SOL     OW35734   1.669   0.591   6.562  0.3133 -0.7627 -0.4000
 8033SOL    HW135735   1.750   0.540   6.569  1.1789  0.5202 -0.9272
 8033SOL    HW235736   1.656   0.579   6.468  0.4918 -0.5173 -0.4580
 8034SOL     OW35737   0.964   4.543  13.405  0.2298  0.1458  0.5391
 8034SOL    HW135738   0.901   4.574  13.469 -1.0887 -2.3257  0.4219
 8034SOL    HW235739   1.004   4.469  13.451 -0.7162 -0.4439  0.4188
 8035SOL     OW35740   0.524   4.016   6.197 -0.5185  0.0220  0.2085
 8035SOL    HW135741   0.429   4.024   6.211 -0.2328  0.6211  1.8067
 8035SOL    HW235742   0.559   4.016   6.286  0.1753 -0.7986 -0.0618
 8036SOL     OW35743   0.390   0.830   2.781  0.2031  0.3215 -0.2036
 8036SOL    HW135744   0.329   0.904   2.782 -2.0906 -1.5741  0.0844
 8036SOL    HW235745   0.395   0.807   2.873 -0.2042  0.6240 -0.1091
 8037SOL     OW35746   3.583   1.087   4.103 -0.2513  0.2094  0.2620
 8037SOL    HW135747   3.560   1.147   4.173 -0.8555 -0.7795  0.9049
 8037SOL    HW235748   3.641   1.139   4.046  0.5321 -0.4187  0.4903
 8038SOL     OW35749   3.934   1.678   4.616 -0.1306 -0.2228 -0.4159
 8038SOL    HW135750   3.843   1.681   4.586 -0.1590  0.4560 -0.2429
 8038SOL    HW235751   3.957   1.590   4.585  1.2917 -0.7042  2.0599
 8039SOL     OW35752   2.657   1.952   0.771  0.0856 -0.3865  0.2186
 8039SOL    HW135753   2.571   1.982   0.799 -0.5612  0.1014 -2.2784
 8039SOL    HW235754   2.657   1.858   0.753  1.8430  0.1995 -2.8871
 8040SOL     OW35755   0.992   3.273   8.497  0.1059 -0.0534  0.0504
 8040SOL    HW135756   1.083   3.256   8.520  0.6858 -1.4922 -3.3283
 8040SOL    HW235757   0.963   3.334   8.565 -0.1026  0.6016 -0.6261
 8041SOL     OW35758   2.515   2.145  11.467  0.2130  0.0255 -0.8686
 8041SOL    HW135759   2.525   2.067  11.412  3.5639 -1.0063  1.1904
 8041SOL    HW235760   2.423   2.171  11.460 -0.2118 -0.9350  1.0745
 8042SOL     OW35761   1.546   3.705   8.127 -0.2677  0.3085  0.2480
 8042SOL    HW135762   1.621   3.654   8.157  3.0810  4.0294 -1.7245
 8042SOL    HW235763   1.473   3.648   8.149 -1.2882  0.4114 -2.7744
 8043SOL     OW35764   3.977   2.783   2.530  0.4556  0.0632 -0.2798
 8043SOL    HW135765   3.908   2.719   2.514  0.6115 -0.0918 -0.3352
 8043SOL    HW235766   3.994   2.763   2.622 -0.6903  1.9483  0.3227
 8044SOL     OW35767   3.367   1.305   5.776 -0.7585  0.4733 -0.0906
 8044SOL    HW135768   3.389   1.398   5.766 -1.4147  0.6423  0.1018
 8044SOL    HW235769   3.279   1.292   5.809 -1.1309 -1.0787 -1.6861
 8045SOL     OW35770   4.612   1.869  14.930 -0.1465  0.0347 -0.2195
 8045SOL    HW135771   4.632   1.960  14.951  0.2207 -0.4611  1.5250
 8045SOL    HW235772   4.578   1.878  14.841  0.1773  2.8229 -0.0507
 8046SOL     OW35773   4.392   4.567  16.137  0.3327  0.1438 -0.5345
 8046SOL    HW135774   4.337   4.643  16.118 -0.6559  0.0165  1.8024
 8046SOL    HW235775   4.435   4.545  16.055  1.1905  0.6884 -0.2323
 8047SOL     OW35776   3.134   4.198  10.737 -0.5327  0.2968  0.2930
 8047SOL    HW135777   3.068   4.267  10.725  0.5308  1.3168  0.2991
 8047SOL    HW235778   3.092   4.176  10.820 -2.3576 -0.2625 -0.7931
 8048SOL     OW35779   2.876   0.218   1.601  0.1337 -0.4543 -0.6286
 8048SOL    HW135780   2.950   0.277   1.616  0.6202 -1.0590 -0.6397
 8048SOL    HW235781   2.923   0.135   1.589 -0.8680 -0.7723 -2.3324
 8049SOL     OW35782   4.353   3.333  16.493 -0.7183  0.0359 -0.3657
 8049SOL    HW135783   4.347   3.256  16.437  2.3654 -1.5915  1.5198
 8049SOL    HW235784   4.390   3.292  16.571  1.4147 -1.4805 -2.1838
 8050SOL     OW35785   4.112   1.407   3.254 -0.2177 -0.3495 -0.1008
 8050SOL    HW135786   4.141   1.323   3.291 -0.6650 -0.6220 -0.3616
 8050SOL    HW235787   4.132   1.407   3.160 -1.8866  0.4570 -0.4552
 8051SOL     OW35788   0.838   3.876   5.163 -0.2008  1.0030  0.0786
 8051SOL    HW135789   0.802   3.946   5.109  2.9047  2.9313  0.4784
 8051SOL    HW235790   0.848   3.934   5.238  0.9797  0.0348  0.6712
 8052SOL     OW35791   4.390   4.517   1.366 -0.0240 -0.4403  0.3229
 8052SOL    HW135792   4.390   4.495   1.273  2.4003  0.2477  0.1641
 8052SOL    HW235793   4.306   4.477   1.388 -0.8800  0.1109 -1.9597
 8053SOL     OW35794   1.871   3.914  11.497  0.2184 -0.0805 -0.2347
 8053SOL    HW135795   1.912   3.871  11.421  1.8439  0.3647  0.3991
 8053SOL    HW235796   1.831   3.995  11.466 -1.8190 -1.4388 -1.1860
 8054SOL     OW35797   3.748   3.749   4.730 -0.0405  0.1742  0.6354
 8054SOL    HW135798   3.726   3.749   4.637 -1.5153 -0.8316  0.9749
 8054SOL    HW235799   3.692   3.821   4.759  0.3237  1.1210 -1.0529
 8055SOL     OW35800   1.558   2.389   7.704 -0.0038 -0.0168 -0.5096
 8055SOL    HW135801   1.538   2.385   7.797  1.1283  0.7331 -0.2259
 8055SOL    HW235802   1.478   2.412   7.657 -0.0296  2.0660  0.5528
 8056SOL     OW35803   1.604   2.782   8.088  0.2774 -0.5659 -0.1025
 8056SOL    HW135804   1.665   2.723   8.132  1.5266  0.9031  0.1365
 8056SOL    HW235805   1.518   2.757   8.121 -0.4389 -0.7221 -2.0938
 8057SOL     OW35806   2.099   1.410  15.707  0.3170 -0.2999 -0.6464
 8057SOL    HW135807   2.036   1.383  15.640 -0.1681 -1.2628  0.2043
 8057SOL    HW235808   2.151   1.466  15.650  1.6418 -0.8664  0.0044
 8058SOL     OW35809   1.402   0.467  10.378 -0.2049 -0.0584  0.1124
 8058SOL    HW135810   1.378   0.560  10.381 -2.4827 -0.6459  0.7601
 8058SOL    HW235811   1.322   0.429  10.340 -1.4405  2.8744 -0.2507
 8059SOL     OW35812   1.736   1.845   3.445  0.5228  0.1232 -0.2453
 8059SOL    HW135813   1.772   1.801   3.367 -1.4322  0.7247 -1.4969
 8059SOL    HW235814   1.818   1.859   3.491  0.4720  1.1154 -0.4628
 8060SOL     OW35815   0.245   2.839   2.199  0.0642  0.0274 -0.0548
 8060SOL    HW135816   0.152   2.822   2.206  0.3538 -0.4862  2.6151
 8060SOL    HW235817   0.274   2.821   2.109  0.1022 -0.4632  0.0551
 8061SOL     OW35818   1.131   0.955   3.595  0.4622 -0.7444  0.3396
 8061SOL    HW135819   1.087   0.974   3.677 -0.9926  0.3289 -0.7047
 8061SOL    HW235820   1.064   0.983   3.533 -0.3550 -1.4966  0.8762
 8062SOL     OW35821   1.414   0.520  16.227  0.1613  0.0704  0.1364
 8062SOL    HW135822   1.398   0.579  16.301  2.2398 -0.0718  0.6903
 8062SOL    HW235823   1.505   0.495  16.239  0.5707  1.3313 -0.3222
 8063SOL     OW35824   2.026   1.268  13.257 -0.2149 -0.4798  0.6269
 8063SOL    HW135825   2.063   1.346  13.216 -3.1649 -0.1752 -1.4980
 8063SOL    HW235826   2.104   1.215  13.272 -0.4885 -1.0876 -0.0663
 8064SOL     OW35827   2.760   1.299  14.223  0.4691 -0.0850 -0.2257
 8064SOL    HW135828   2.714   1.371  14.179 -1.0864  0.2058  1.8305
 8064SOL    HW235829   2.757   1.230  14.157 -0.6104 -1.5448  1.3493
 8065SOL     OW35830   3.063   4.099  11.358 -0.3058  0.3568 -0.2382
 8065SOL    HW135831   3.157   4.094  11.337 -0.1075  0.4720  0.6445
 8065SOL    HW235832   3.038   4.011  11.331 -0.5012 -0.2658  2.0026
 8066SOL     OW35833   3.183   2.271   5.368  0.4414  0.1595  0.4917
 8066SOL    HW135834   3.174   2.347   5.311  0.0902 -0.0302  0.2938
 8066SOL    HW235835   3.192   2.319   5.450  0.4702 -1.2385  1.3156
 8067SOL     OW35836   0.192   0.480   4.614  0.4490 -0.2886 -0.1349
 8067SOL    HW135837   0.161   0.467   4.525 -1.6703  1.2601  0.3760
 8067SOL    HW235838   0.153   0.566   4.632  0.7764  0.0285 -0.9482
 8068SOL     OW35839   0.057   4.681   0.415 -0.1787 -0.2896  0.6108
 8068SOL    HW135840   0.052   0.037   0.419 -0.0734 -0.2676  0.1536
 8068SOL    HW235841   4.711   4.660   0.454 -0.2091 -1.9570 -0.3752
 8069SOL     OW35842   0.348   4.716   7.344 -0.0879 -0.2519  0.4472
 8069SOL    HW135843   0.331   0.035   7.417  2.2095 -0.8549  1.4693
 8069SOL    HW235844   0.342   4.636   7.396  1.1820 -1.4287 -1.2024
 8070SOL     OW35845   3.414   0.825  12.415  0.0152  0.4718  0.3586
 8070SOL    HW135846   3.343   0.819  12.478 -0.8812 -0.8826 -0.7981
 8070SOL    HW235847   3.413   0.918  12.391  0.6763 -0.5259 -3.6013
 8071SOL     OW35848   3.056   1.389   9.694 -0.3006  0.0060  0.1120
 8071SOL    HW135849   3.132   1.349   9.737  0.0632  0.6106  0.0335
 8071SOL    HW235850   3.012   1.309   9.666  0.9181 -0.1277 -1.4236
 8072SOL     OW35851   3.027   1.892   4.756  0.0867 -0.2917 -0.3015
 8072SOL    HW135852   3.022   1.919   4.664 -2.9754 -1.6243 -0.5427
 8072SOL    HW235853   3.091   1.820   4.759 -0.4019 -0.7467 -0.7382
 8073SOL     OW35854   4.390   4.732   5.400  0.2683 -0.0093 -0.0822
 8073SOL    HW135855   4.352   4.688   5.324 -1.9882 -1.5156  1.9445
 8073SOL    HW235856   4.388   4.653   5.453  1.2497  0.4868  0.6873
 8074SOL     OW35857   2.800   3.025  11.874  0.0348 -0.1424 -0.2727
 8074SOL    HW135858   2.772   3.108  11.913  1.8251  1.1449 -1.6940
 8074SOL    HW235859   2.725   3.002  11.820 -0.8228  1.7862  0.0953
 8075SOL     OW35860   1.098   2.742   2.557 -0.3559  0.2665 -0.0296
 8075SOL    HW135861   1.192   2.729   2.541 -0.9768 -1.7020 -1.9910
 8075SOL    HW235862   1.079   2.834   2.535  0.9570  0.6555  0.4202
 8076SOL     OW35863   4.275   2.942  13.020 -0.3022 -0.3248 -0.0539
 8076SOL    HW135864   4.273   2.971  12.929 -1.5074 -0.5729 -0.1131
 8076SOL    HW235865   4.211   2.871  13.014 -1.1014  0.3952 -0.0427
 8077SOL     OW35866   4.216   2.948   1.916  0.3060 -0.5236 -0.2044
 8077SOL    HW135867   4.269   2.892   1.859  1.1145 -0.4426  0.4749
 8077SOL    HW235868   4.152   2.977   1.851  3.0030  3.9765 -0.9335
 8078SOL     OW35869   3.487   4.087  12.116  0.1371  0.2768  0.1820
 8078SOL    HW135870   3.460   4.177  12.100  0.6262  0.2355 -0.8927
 8078SOL    HW235871   3.541   4.086  12.195 -0.9123 -0.1063  0.9120
 8079SOL     OW35872   3.615   0.254  11.989  0.2981 -0.7065  0.7426
 8079SOL    HW135873   3.699   0.242  12.033  0.1615 -1.0677  0.9017
 8079SOL    HW235874   3.560   0.262  12.067 -0.4185  0.8392  0.0767
 8080SOL     OW35875   1.637   3.323   8.432  1.0131  0.1685 -0.2616
 8080SOL    HW135876   1.673   3.377   8.502  1.0248 -1.8810  1.2976
 8080SOL    HW235877   1.620   3.385   8.360  0.8700  0.8522  0.3593
 8081SOL     OW35878   0.731   4.196   9.764 -0.4254 -0.5852 -0.0970
 8081SOL    HW135879   0.720   4.242   9.847 -0.4388  1.3133 -1.1536
 8081SOL    HW235880   0.794   4.127   9.784  0.0844 -0.0972 -0.0225
 8082SOL     OW35881   3.682   2.298   2.839  0.1752 -0.2257 -0.6436
 8082SOL    HW135882   3.695   2.254   2.755 -1.7000 -0.6490 -0.7072
 8082SOL    HW235883   3.696   2.227   2.902 -0.6276  0.4885  0.3346
 8083SOL     OW35884   4.653   1.044   7.388 -0.0413  0.0612 -0.2168
 8083SOL    HW135885   4.568   1.022   7.349 -0.1634  2.2264 -1.1526
 8083SOL    HW235886   4.660   1.127   7.341 -0.7074 -0.4924 -1.3036
 8084SOL     OW35887   2.182   2.998   7.827 -0.0338 -0.6604  0.1908
 8084SOL    HW135888   2.194   2.921   7.883  2.1981 -1.0531 -0.8014
 8084SOL    HW235889   2.137   3.051   7.892  0.1211 -1.0353  0.5986
 8085SOL     OW35890   1.530   2.482   6.933 -0.0405  0.2340 -0.4199
 8085SOL    HW135891   1.470   2.470   7.006  1.6354  1.0187  1.0950
 8085SOL    HW235892   1.468   2.505   6.863 -2.1839 -3.5038  0.2879
 8086SOL     OW35893   2.215   2.586   1.835  0.1959 -0.3490  0.0864
 8086SOL    HW135894   2.166   2.566   1.914 -0.4727  0.0502 -0.2275
 8086SOL    HW235895   2.160   2.541   1.770  0.4024  0.5237 -0.6822
 8087SOL     OW35896   2.726   2.991   1.260 -0.1415 -0.2010  0.0305
 8087SOL    HW135897   2.734   2.936   1.182  1.2736 -0.6231  0.4768
 8087SOL    HW235898   2.632   3.008   1.263 -0.4493 -2.1994  1.5817
 8088SOL     OW35899   3.356   0.984   5.892  0.6273 -0.0574  0.7074
 8088SOL    HW135900   3.272   0.954   5.927  1.7782 -0.3448  3.2540
 8088SOL    HW235901   3.408   0.984   5.973 -0.5352 -0.5352  1.4557
 8089SOL     OW35902   0.007   3.219   6.724  0.2040  0.2270 -0.1343
 8089SOL    HW135903   0.069   3.261   6.784 -0.2135 -1.1333  1.2270
 8089SOL    HW235904   0.069   3.198   6.654 -0.2561  0.3227 -0.5745
 8090SOL     OW35905   2.189   3.381  16.253  0.1045  0.2603  0.0350
 8090SOL    HW135906   2.258   3.334  16.299  0.9478  0.1132 -1.3896
 8090SOL    HW235907   2.210   3.343  16.167  2.2586 -0.8719  1.0733
 8091SOL     OW35908   0.301   1.978   7.115  0.1251  0.3766  0.0275
 8091SOL    HW135909   0.281   2.070   7.099  1.9432  1.0586  1.5860
 8091SOL    HW235910   0.315   1.937   7.030  0.1651  0.5402 -0.0441
 8092SOL     OW35911   1.497   3.097  14.429  0.0414 -0.0885  0.1180
 8092SOL    HW135912   1.572   3.056  14.386  0.2257  0.5439 -0.1676
 8092SOL    HW235913   1.470   3.153  14.357 -0.9672  0.6530  1.0695
 8093SOL     OW35914   1.805   2.042  14.361  0.3201  0.3082  0.0124
 8093SOL    HW135915   1.724   1.996  14.337 -1.0764  0.9972  3.4543
 8093SOL    HW235916   1.834   2.006  14.445  0.9258  0.7924  0.0132
 8094SOL     OW35917   1.176   1.456   3.145 -0.0427 -0.4319  0.4595
 8094SOL    HW135918   1.106   1.469   3.081 -0.2370  0.3481  0.8285
 8094SOL    HW235919   1.155   1.519   3.214  0.1245 -1.2315  1.2403
 8095SOL     OW35920   2.896   0.425   6.642 -0.1379 -0.8895  0.0831
 8095SOL    HW135921   2.807   0.454   6.621  0.3604  0.1465 -0.5942
 8095SOL    HW235922   2.952   0.493   6.604  1.9885 -2.7483 -0.0580
 8096SOL     OW35923   4.300   3.241   9.980  0.2601  0.2803  0.1592
 8096SOL    HW135924   4.320   3.240   9.886 -0.8587  0.6145 -0.0792
 8096SOL    HW235925   4.379   3.276  10.021 -0.0058 -1.0462  1.7652
 8097SOL     OW35926   4.010   0.830  10.448 -0.2032 -0.2805  0.4367
 8097SOL    HW135927   4.050   0.808  10.364  0.7218  0.3775  0.7142
 8097SOL    HW235928   3.952   0.756  10.469 -0.6950  0.4823  1.7787
 8098SOL     OW35929   2.369   0.762   1.032  0.6395 -0.1500  0.0400
 8098SOL    HW135930   2.340   0.796   0.947 -0.5496 -0.2860  0.3973
 8098SOL    HW235931   2.308   0.692   1.054  1.5711 -0.7883  0.6023
 8099SOL     OW35932   3.212   0.940   7.221 -0.3604  0.3020  0.6836
 8099SOL    HW135933   3.157   0.996   7.276  2.0271  1.4431  1.9162
 8099SOL    HW235934   3.220   0.866   7.281  4.2247  0.7034  0.6028
 8100SOL     OW35935   3.196   3.906   2.158  0.1544  0.5060 -0.3718
 8100SOL    HW135936   3.211   3.851   2.081 -0.6614 -0.3357  0.0737
 8100SOL    HW235937   3.104   3.930   2.145 -0.0701 -1.2702 -2.0147
 8101SOL     OW35938   3.888   3.298   8.168  0.0285 -1.1524  0.0661
 8101SOL    HW135939   3.934   3.341   8.241  1.0252  1.6110 -2.1924
 8101SOL    HW235940   3.949   3.326   8.100  1.7663 -1.7538  1.3622
 8102SOL     OW35941   2.277   2.205   8.389 -0.2379  0.5191 -0.4855
 8102SOL    HW135942   2.361   2.160   8.400 -1.1381 -1.6417 -2.5568
 8102SOL    HW235943   2.270   2.238   8.478 -0.5262  1.0986 -0.7217
 8103SOL     OW35944   1.706   1.777   5.057 -0.0486  0.2698  0.2478
 8103SOL    HW135945   1.799   1.801   5.052 -0.2032  0.8641  0.1512
 8103SOL    HW235946   1.680   1.766   4.966  1.6900 -0.5078 -0.1517
 8104SOL     OW35947   3.018   4.127   8.617  0.2680  0.1718 -0.4251
 8104SOL    HW135948   2.998   4.214   8.652 -1.9415 -0.0926 -1.0141
 8104SOL    HW235949   3.047   4.151   8.529  2.1919  0.1623  0.2020
 8105SOL     OW35950   0.698   3.846  12.163 -0.4359 -0.0775 -0.4518
 8105SOL    HW135951   0.773   3.830  12.106 -0.1697  0.7534 -0.3367
 8105SOL    HW235952   0.641   3.771  12.142 -3.5249  1.3915  2.5403
 8106SOL     OW35953   0.840   2.812   7.259 -0.3725  0.1375 -0.2077
 8106SOL    HW135954   0.748   2.817   7.232 -0.7310  0.2519  1.0287
 8106SOL    HW235955   0.864   2.894   7.215  0.9642  0.4460  1.1159
 8107SOL     OW35956   0.233   4.135   7.750 -0.0396 -0.0209  0.1322
 8107SOL    HW135957   0.192   4.116   7.834 -1.5197  0.2031 -0.5214
 8107SOL    HW235958   0.180   4.076   7.696 -0.9075 -0.0496  1.0061
 8108SOL     OW35959   0.467   0.238   9.802 -0.3475 -0.0662 -0.3894
 8108SOL    HW135960   0.402   0.244   9.733  2.0263  1.0552 -2.4936
 8108SOL    HW235961   0.491   0.330   9.792 -0.4399 -0.0428 -0.3916
 8109SOL     OW35962   4.448   4.719   3.050  0.0366  0.5912  0.4463
 8109SOL    HW135963   4.457   0.074   3.043 -0.2700  0.4183 -2.5355
 8109SOL    HW235964   4.364   4.703   3.008  0.6563 -1.1246 -0.1396
 8110SOL     OW35965   4.185   1.709  15.554 -0.2991 -0.8126 -0.5467
 8110SOL    HW135966   4.172   1.714  15.459 -1.0194 -0.4213 -0.4283
 8110SOL    HW235967   4.224   1.624  15.575  1.9930 -0.0128 -1.5976
 8111SOL     OW35968   2.663   0.502   0.424  0.0357 -0.4698  0.2600
 8111SOL    HW135969   2.584   0.448   0.424 -2.2525  2.8633  0.1710
 8111SOL    HW235970   2.713   0.438   0.373  0.8328 -0.4642  1.0347
 8112SOL     OW35971   2.604   4.443   0.462 -0.2294 -0.5358  0.9286
 8112SOL    HW135972   2.558   4.521   0.431 -0.5417 -1.7865 -1.7127
 8112SOL    HW235973   2.661   4.487   0.526  0.4411  1.8439 -1.2928
 8113SOL     OW35974   3.566   2.756  11.872  0.4975 -0.4452  0.1212
 8113SOL    HW135975   3.590   2.705  11.795  3.1234 -0.3311  0.8795
 8113SOL    HW235976   3.490   2.708  11.906  0.4614 -0.1996  0.3903
 8114SOL     OW35977   4.354   1.209   1.706  0.0754  0.2378 -0.5363
 8114SOL    HW135978   4.352   1.168   1.792  1.3357  0.7977 -0.2446
 8114SOL    HW235979   4.262   1.209   1.679 -0.0851 -0.8441  0.0042
 8115SOL     OW35980   0.011   1.672   6.422  0.0240  0.1884 -0.2650
 8115SOL    HW135981   4.735   1.681   6.328 -1.3119  1.0159  0.0425
 8115SOL    HW235982   0.100   1.637   6.425  0.3602  1.0458 -0.4419
 8116SOL     OW35983   3.866   1.828   8.201  0.7184  0.8357  0.3133
 8116SOL    HW135984   3.779   1.853   8.234  0.0156 -0.0285 -0.9139
 8116SOL    HW235985   3.898   1.918   8.192  0.6167  0.7852 -0.4966
 8117SOL     OW35986   4.275   1.686   6.196  0.0236  0.2953 -0.4063
 8117SOL    HW135987   4.256   1.742   6.271  0.7055 -1.5069  1.1206
 8117SOL    HW235988   4.205   1.720   6.140 -1.9262 -3.0519  0.0141
 8118SOL     OW35989   3.937   3.596   7.397  0.0473  0.2848  0.0844
 8118SOL    HW135990   3.909   3.521   7.344  2.6326 -0.9470  0.4514
 8118SOL    HW235991   3.933   3.559   7.486 -0.2379 -0.6353 -0.3050
 8119SOL     OW35992   4.351   3.331   3.652  0.2234  0.6052 -0.5981
 8119SOL    HW135993   4.431   3.368   3.690 -0.4579  0.9878  0.4355
 8119SOL    HW235994   4.289   3.359   3.719  0.7772 -0.7251  0.4546
 8120SOL     OW35995   0.521   4.586  11.761  0.3218  0.1221  0.4136
 8120SOL    HW135996   0.521   4.653  11.829 -0.5235 -0.1971  0.7313
 8120SOL    HW235997   0.615   4.574  11.747  0.3069  1.8968 -1.2055
 8121SOL     OW35998   4.083   1.262  10.174 -0.0884 -0.4427  0.3676
 8121SOL    HW135999   4.043   1.338  10.217 -0.0817 -0.6398  0.7222
 8121SOL    HW236000   4.174   1.265  10.204 -0.4085  0.5365  1.2679
 8122SOL     OW36001   2.490   3.256   1.847 -0.2998 -0.1943  0.6906
 8122SOL    HW136002   2.576   3.298   1.855 -1.3450  1.9680  0.7628
 8122SOL    HW236003   2.483   3.223   1.936 -2.3422 -1.7127 -0.0301
 8123SOL     OW36004   0.728   4.393  10.019 -0.1148 -0.9105 -0.9459
 8123SOL    HW136005   0.704   4.323  10.080 -0.5159  0.7206  0.7631
 8123SOL    HW236006   0.817   4.402  10.052 -1.4412  0.2591  2.3115
 8124SOL     OW36007   2.366   2.971  17.731  0.1547  0.4246 -0.3311
 8124SOL    HW136008   2.443   2.956  17.676 -0.6669 -0.8571 -1.1274
 8124SOL    HW236009   2.318   3.039  17.683 -0.7474 -0.5039 -0.7301
 8125SOL     OW36010   4.237   0.989   3.704 -0.2058 -0.4242  0.5055
 8125SOL    HW136011   4.176   0.922   3.672 -1.7634  1.2870 -0.0959
 8125SOL    HW236012   4.182   1.065   3.720  1.0050  0.5990 -0.2018
 8126SOL     OW36013   0.847   0.456   4.895  0.2932  0.3244  0.0056
 8126SOL    HW136014   0.819   0.444   4.985  0.6886  0.7247  0.1783
 8126SOL    HW236015   0.766   0.463   4.845 -0.7234 -1.5612  1.4080
 8127SOL     OW36016   2.412   2.804   8.542  0.0203  0.1856  0.1007
 8127SOL    HW136017   2.471   2.877   8.523  2.1906 -1.7562 -0.6827
 8127SOL    HW236018   2.371   2.790   8.457  2.0216  2.0670 -1.1639
 8128SOL     OW36019   4.663   2.590   2.944 -0.1814 -0.4201  0.7000
 8128SOL    HW136020   4.711   2.508   2.935 -0.2704 -0.4915  0.8654
 8128SOL    HW236021   4.727   2.643   2.991  0.6531 -1.7483  1.0883
 8129SOL     OW36022   1.826   1.384   9.014 -0.1982  0.0090  0.0740
 8129SOL    HW136023   1.881   1.361   8.939 -0.3051  1.9715 -0.5900
 8129SOL    HW236024   1.881   1.363   9.089  1.9018  2.0241 -0.8952
 8130SOL     OW36025   3.216   4.008  14.287 -0.5943 -0.1433 -0.1688
 8130SOL    HW136026   3.265   4.029  14.367 -0.2353 -0.9075 -0.1855
 8130SOL    HW236027   3.266   4.039  14.211  1.5320 -0.2017  1.1821
 8131SOL     OW36028   1.656   4.546   3.336  0.2483 -0.4762 -0.2595
 8131SOL    HW136029   1.631   4.590   3.255  1.1866 -0.7196 -0.6764
 8131SOL    HW236030   1.700   4.623   3.371 -0.3429 -1.2668  2.2277
 8132SOL     OW36031   3.891   1.883   4.206 -0.0222 -0.3980 -0.2098
 8132SOL    HW136032   3.985   1.894   4.219  0.2152 -0.6780 -1.7178
 8132SOL    HW236033   3.874   1.962   4.155 -1.3753 -0.6747 -0.1760
 8133SOL     OW36034   4.201   2.944   9.622 -0.5173 -0.3335  0.0457
 8133SOL    HW136035   4.169   2.892   9.696 -1.4553 -0.1351 -0.2265
 8133SOL    HW236036   4.217   2.868   9.567  0.6170 -0.4520  0.5329
 8134SOL     OW36037   3.174   0.097  11.956 -0.2272 -1.0377 -0.3255
 8134SOL    HW136038   3.185   0.179  11.909 -1.2061 -0.8344 -0.2180
 8134SOL    HW236039   3.201   0.137  12.038 -0.6283 -2.8155  0.6853
 8135SOL     OW36040   3.796   1.297  10.724  0.0064  0.7608  0.5373
 8135SOL    HW136041   3.743   1.242  10.666  2.4865  0.5580 -1.4888
 8135SOL    HW236042   3.721   1.332  10.774 -1.5576 -2.0235  0.1676
 8136SOL     OW36043   1.823   0.869  12.101 -0.4431 -0.4175 -0.0651
 8136SOL    HW136044   1.826   0.776  12.123 -0.9806 -0.2263  0.8167
 8136SOL    HW236045   1.728   0.871  12.086 -0.5903 -0.1893  0.8908
 8137SOL     OW36046   0.082   4.415   7.727  0.2881  0.3729 -0.0938
 8137SOL    HW136047   4.731   4.385   7.737  0.1620 -0.2974 -3.1227
 8137SOL    HW236048   0.131   4.333   7.732  2.3418  1.4416 -2.6318
 8138SOL     OW36049   1.525   1.507   4.369 -0.2185 -0.7139 -0.0569
 8138SOL    HW136050   1.449   1.556   4.401  0.8442  0.8855 -0.0080
 8138SOL    HW236051   1.475   1.430   4.341  0.1010 -0.0637 -2.3723
 8139SOL     OW36052   4.085   3.119  17.377  0.3700 -0.3879 -0.2062
 8139SOL    HW136053   4.135   3.200  17.379  1.9171 -1.3179 -0.7580
 8139SOL    HW236054   3.996   3.148  17.358  0.2799  0.4426  1.4806
 8140SOL     OW36055   2.697   0.999   5.565 -0.4963 -0.0503 -0.3887
 8140SOL    HW136056   2.760   0.942   5.520 -0.2718  0.1999 -0.3952
 8140SOL    HW236057   2.621   0.996   5.507 -0.4680  0.1066 -0.4330
 8141SOL     OW36058   2.770   4.330   8.347 -0.9030 -0.0535  0.2326
 8141SOL    HW136059   2.812   4.341   8.262 -2.2845 -0.7630 -0.5372
 8141SOL    HW236060   2.762   4.422   8.375 -1.9294 -0.1092  0.1331
 8142SOL     OW36061   1.992   0.364   4.107 -0.2370 -0.2042  0.2022
 8142SOL    HW136062   1.979   0.457   4.126  0.8437 -0.0565  0.2487
 8142SOL    HW236063   2.084   0.367   4.133 -0.3700  1.9803  0.3964
 8143SOL     OW36064   1.085   1.792   8.667 -0.1780  0.1425  0.8170
 8143SOL    HW136065   1.090   1.738   8.589  1.7120 -0.8959  1.6700
 8143SOL    HW236066   1.168   1.836   8.652 -0.0984 -0.0344  0.7461
 8144SOL     OW36067   2.207   0.643   4.360  0.7457 -0.2351 -0.0527
 8144SOL    HW136068   2.217   0.652   4.265  2.9831 -0.6145  0.1519
 8144SOL    HW236069   2.168   0.728   4.381  0.1378 -0.1416 -1.5873
 8145SOL     OW36070   3.724   2.243   0.141  0.2741  0.4266 -0.1634
 8145SOL    HW136071   3.778   2.310   0.185  2.1733 -1.5101  0.4721
 8145SOL    HW236072   3.641   2.254   0.186  1.2430  0.0500  1.7167
 8146SOL     OW36073   0.963   3.465  17.003  0.4869 -0.4778 -0.1663
 8146SOL    HW136074   0.963   3.528  16.931  1.7149 -0.6235 -0.2993
 8146SOL    HW236075   0.882   3.414  16.998  0.3053 -0.1064 -0.9575
 8147SOL     OW36076   2.073   4.043   7.153  0.1175  0.4491  0.5416
 8147SOL    HW136077   1.992   4.039   7.102  0.5305 -0.6722 -0.0329
 8147SOL    HW236078   2.065   4.128   7.197 -1.0817  0.4435  0.3354
 8148SOL     OW36079   4.035   0.227   5.877 -0.0247  0.0554 -0.3890
 8148SOL    HW136080   3.970   0.182   5.931  0.7007 -1.0475 -0.4320
 8148SOL    HW236081   4.068   0.302   5.925  0.7459 -0.7463  0.3411
 8149SOL     OW36082   3.687   1.207   4.831 -0.0461 -0.1987 -0.4841
 8149SOL    HW136083   3.755   1.245   4.774 -0.2620  0.2848 -0.4218
 8149SOL    HW236084   3.732   1.213   4.915 -0.9076  1.6215 -0.1502
 8150SOL     OW36085   3.243   1.171   8.299 -0.4786 -0.1166 -0.1195
 8150SOL    HW136086   3.269   1.220   8.377  3.2076  0.1699 -1.5411
 8150SOL    HW236087   3.165   1.216   8.266 -0.0604  1.3374  0.8725
 8151SOL     OW36088   0.848   0.593   7.415 -0.4749 -0.8530  0.3844
 8151SOL    HW136089   0.910   0.575   7.344 -0.7203 -0.1578 -0.0011
 8151SOL    HW236090   0.811   0.676   7.386  0.5478 -0.7495 -0.6185
 8152SOL     OW36091   2.212   3.487  15.580  0.1031 -0.1351 -0.2035
 8152SOL    HW136092   2.154   3.555  15.615  2.6329  1.0274  1.7039
 8152SOL    HW236093   2.189   3.412  15.635  0.3971 -0.5091 -0.5974
 8153SOL     OW36094   0.187   2.368   8.742 -0.4908  0.0052  0.0043
 8153SOL    HW136095   0.122   2.298   8.741  0.4275 -0.8547  0.2227
 8153SOL    HW236096   0.139   2.424   8.680 -0.1029  0.8778  0.5008
 8154SOL     OW36097   2.892   1.337   9.085  0.0427  0.1985 -0.5297
 8154SOL    HW136098   2.928   1.251   9.068  2.8933  1.2997  0.0181
 8154SOL    HW236099   2.830   1.349   9.013 -0.6548 -1.8742 -0.2581
 8155SOL     OW36100   1.039   3.626   0.429  0.4802  0.4087  0.2386
 8155SOL    HW136101   0.962   3.638   0.374 -0.4007 -2.1996  0.8968
 8155SOL    HW236102   1.040   3.709   0.476 -1.1454 -0.5444  1.9527
 8156SOL     OW36103   4.737   4.322  14.272 -0.0178  0.0132 -0.0727
 8156SOL    HW136104   0.092   4.333  14.260  0.0706  0.4808  1.1358
 8156SOL    HW236105   4.702   4.386  14.209  1.0961 -1.2861 -2.0036
 8157SOL     OW36106   2.605   4.696  15.347  0.5433 -0.2057 -0.7119
 8157SOL    HW136107   2.654   4.614  15.351  0.0414 -0.2930  3.4377
 8157SOL    HW236108   2.665   0.024  15.380 -0.6247  0.3211  0.3115
 8158SOL     OW36109   0.109   1.191   0.473  0.6222  0.0091 -0.1024
 8158SOL    HW136110   0.147   1.103   0.482 -2.4834 -1.4725 -1.5021
 8158SOL    HW236111   0.102   1.193   0.378 -0.0861 -2.4886 -0.1154
 8159SOL     OW36112   2.188   3.834   2.920  0.5404  0.1760  0.0445
 8159SOL    HW136113   2.163   3.779   2.845  0.5335 -0.1438  0.2823
 8159SOL    HW236114   2.102   3.872   2.939  0.7687  0.5206  0.3815
 8160SOL     OW36115   0.587   4.023   4.385  0.5243  0.1982 -0.3071
 8160SOL    HW136116   0.619   4.038   4.473 -0.9834 -1.7143  0.5856
 8160SOL    HW236117   0.611   4.107   4.348  2.9732 -0.3140  0.1639
 8161SOL     OW36118   1.456   4.178  10.362  0.5492 -0.2075  0.2378
 8161SOL    HW136119   1.383   4.201  10.304 -0.5809  1.2351  2.2391
 8161SOL    HW236120   1.485   4.267  10.386 -2.2462  0.5449  0.8057
 8162SOL     OW36121   1.979   4.553   9.151  0.8585  0.4426  0.0748
 8162SOL    HW136122   1.896   4.557   9.197  0.6368  0.6446 -0.3463
 8162SOL    HW236123   2.042   4.567   9.223  0.3766 -0.8187  0.7467
 8163SOL     OW36124   2.643   3.786   6.343 -0.9907  0.0609  0.3116
 8163SOL    HW136125   2.679   3.799   6.255  2.1402 -1.2191  1.4324
 8163SOL    HW236126   2.586   3.863   6.353 -1.4904 -0.0596 -1.5594
 8164SOL     OW36127   0.923   3.707  12.537 -0.1085  0.1419 -0.5525
 8164SOL    HW136128   0.880   3.689  12.621  0.0584  0.0588 -0.4860
 8164SOL    HW236129   0.989   3.769  12.567 -1.7441  2.4621 -1.7359
 8165SOL     OW36130   2.046   3.455   6.189 -0.6545  0.2430 -0.2844
 8165SOL    HW136131   1.979   3.426   6.250 -0.0589  0.1342  0.3083
 8165SOL    HW236132   1.993   3.441   6.111 -2.6492 -1.3205  1.3844
 8166SOL     OW36133   1.500   0.475   1.837  0.1423  0.3070  0.0621
 8166SOL    HW136134   1.561   0.502   1.906  0.6934  0.3933 -0.4624
 8166SOL    HW236135   1.522   0.531   1.762 -1.7648 -2.3695 -2.4969
 8167SOL     OW36136   4.321   3.763   1.986 -0.5851 -0.1944 -0.2860
 8167SOL    HW136137   4.312   3.691   1.923  1.4317 -2.4801  2.0348
 8167SOL    HW236138   4.334   3.841   1.933  2.7954 -1.8938 -2.0036
 8168SOL     OW36139   0.455   2.097   5.567 -0.0921 -0.0650  0.2485
 8168SOL    HW136140   0.415   2.116   5.482  2.2757 -0.1105 -0.8725
 8168SOL    HW236141   0.378   2.054   5.604  0.6586  2.2997  4.5699
 8169SOL     OW36142   1.456   0.111  11.297  0.1079  0.3216  0.0437
 8169SOL    HW136143   1.521   0.119  11.367  2.3577  1.9780 -2.2208
 8169SOL    HW236144   1.498   0.168  11.232 -0.2892  0.4374 -0.1128
 8170SOL     OW36145   2.037   3.505   6.973 -0.2991  0.6852 -0.2391
 8170SOL    HW136146   2.036   3.464   7.060 -0.2503  1.3227  0.0568
 8170SOL    HW236147   1.946   3.532   6.979 -0.8648 -0.8944 -1.5929
 8171SOL     OW36148   3.425   0.455   7.376 -0.4196  0.4586  0.4707
 8171SOL    HW136149   3.484   0.389   7.411  0.1715  1.7584  1.9413
 8171SOL    HW236150   3.420   0.518   7.448 -1.7549 -0.8001  1.4772
 8172SOL     OW36151   1.641   4.475   8.746 -0.0440 -0.3246  0.1397
 8172SOL    HW136152   1.615   4.564   8.722 -1.1824 -0.7984 -0.4008
 8172SOL    HW236153   1.628   4.466   8.841  1.0376  0.4267  0.3560
 8173SOL     OW36154   1.325   1.753  13.233  0.3502  0.4309 -0.0436
 8173SOL    HW136155   1.352   1.662  13.244  0.9566  0.4014 -1.6857
 8173SOL    HW236156   1.231   1.757  13.252  0.4576  0.8408  0.3829
 8174SOL     OW36157   0.871   0.435   6.513  0.3019  0.0764  0.5161
 8174SOL    HW136158   0.944   0.487   6.546  1.8053 -0.5775 -1.7312
 8174SOL    HW236159   0.907   0.347   6.499 -0.2237 -0.3857  2.1181
 8175SOL     OW36160   1.078   4.072  15.225  0.4145 -0.4084 -0.2284
 8175SOL    HW136161   1.165   4.063  15.185  0.7150 -0.0139  0.3479
 8175SOL    HW236162   1.095   4.067  15.319  0.3965  0.7080 -0.1679
 8176SOL     OW36163   2.286   3.824   5.154 -0.1882 -0.2030 -0.3056
 8176SOL    HW136164   2.299   3.916   5.176  1.5813 -0.1605 -1.4553
 8176SOL    HW236165   2.300   3.781   5.239 -1.2811 -0.7372 -0.3920
 8177SOL     OW36166   3.891   2.312   1.410 -0.1280  0.1865 -0.4339
 8177SOL    HW136167   3.872   2.218   1.414  0.2926  0.1563  0.9071
 8177SOL    HW236168   3.837   2.323   1.332  0.4869 -1.8594 -1.1496
 8178SOL     OW36169   2.614   1.854   3.030  0.2779 -0.0509  0.0518
 8178SOL    HW136170   2.546   1.911   3.065 -0.8695 -1.9333  0.8735
 8178SOL    HW236171   2.668   1.844   3.108 -1.4864 -1.0260  1.1285
 8179SOL     OW36172   3.424   3.033   4.172  0.0872  0.0636 -0.2002
 8179SOL    HW136173   3.431   3.055   4.079 -0.5196  3.3508  0.5690
 8179SOL    HW236174   3.379   2.949   4.162 -1.9492  1.1322  0.1340
 8180SOL     OW36175   4.716   1.438   8.007 -0.5525 -0.4001 -0.3193
 8180SOL    HW136176   4.632   1.424   8.051 -0.1508 -2.3400 -0.1914
 8180SOL    HW236177   0.037   1.409   8.075 -2.4249  0.8958  1.8877
 8181SOL     OW36178   1.840   1.816  16.078  0.0863 -0.3376  0.5264
 8181SOL    HW136179   1.806   1.763  16.150  0.4342 -2.6518 -1.0088
 8181SOL    HW236180   1.888   1.876  16.135  0.2026  2.3459 -2.3575
 8182SOL     OW36181   4.322   4.655   8.225  0.1833 -0.3318  0.5034
 8182SOL    HW136182   4.230   4.673   8.243  0.5290 -0.9299  2.9136
 8182SOL    HW236183   4.341   4.602   8.302 -1.6069 -1.2215  0.3327
 8183SOL     OW36184   4.146   2.369   8.806  0.3239 -0.3702 -0.5749
 8183SOL    HW136185   4.090   2.385   8.730  1.0080 -1.0880 -1.2362
 8183SOL    HW236186   4.142   2.274   8.814  2.7257 -0.2906  1.8037
 8184SOL     OW36187   3.071   0.570   5.210 -0.4347 -0.0131 -0.1341
 8184SOL    HW136188   3.146   0.612   5.169 -0.1785 -0.4016 -0.0603
 8184SOL    HW236189   3.013   0.646   5.215  1.6284  1.4483  1.2125
 8185SOL     OW36190   2.401   2.353  14.787 -0.6849 -0.1694 -0.6622
 8185SOL    HW136191   2.442   2.344  14.873  0.2097 -1.0951 -1.1892
 8185SOL    HW236192   2.434   2.273  14.745  3.4427  0.4857  1.3807
 8186SOL     OW36193   3.803   3.810   7.048 -0.0905 -0.2854 -0.1866
 8186SOL    HW136194   3.895   3.785   7.059 -0.5845 -2.4974 -1.0543
 8186SOL    HW236195   3.803   3.891   7.098 -2.9043  0.2084 -1.0160
 8187SOL     OW36196   2.050   3.243   2.469 -0.2437 -0.0248 -0.0505
 8187SOL    HW136197   2.122   3.235   2.406 -0.6254  0.4794 -0.5485
 8187SOL    HW236198   2.026   3.336   2.467  0.6508  0.2362  1.7686
 8188SOL     OW36199   4.581   0.441   2.858  0.0198 -0.0442 -0.0442
 8188SOL    HW136200   4.578   0.506   2.787 -1.5726  1.1093  1.0616
 8188SOL    HW236201   4.674   0.423   2.852  0.4221  2.0455 -0.2464
 8189SOL     OW36202   4.338   3.858   5.868 -0.1347 -0.2578  0.3514
 8189SOL    HW136203   4.266   3.818   5.916 -0.6123  0.6243  0.3808
 8189SOL    HW236204   4.410   3.827   5.923 -0.4990 -2.2771 -0.3224
 8190SOL     OW36205   2.010   3.352   7.184 -0.5220 -0.0767 -0.1586
 8190SOL    HW136206   1.992   3.374   7.275 -0.9122  0.1809 -0.2971
 8190SOL    HW236207   1.932   3.299   7.164 -0.8233  0.1134  0.5210
 8191SOL     OW36208   3.800   1.913  17.510  0.0209  0.3753  0.2336
 8191SOL    HW136209   3.737   1.842  17.497  0.4510  0.3113 -1.5508
 8191SOL    HW236210   3.777   1.950  17.595 -2.7098  2.5323 -1.4451
 8192SOL     OW36211   4.142   4.011   6.661  0.8821 -0.1377 -0.1527
 8192SOL    HW136212   4.155   3.917   6.647  1.2217  0.1673 -1.8657
 8192SOL    HW236213   4.105   4.013   6.749 -0.4758 -2.4871 -0.6605
 8193SOL     OW36214   0.377   2.843   9.285 -0.1654 -0.0896  0.3670
 8193SOL    HW136215   0.380   2.813   9.194 -0.0437 -1.7254  0.9018
 8193SOL    HW236216   0.298   2.894   9.273 -1.6474 -2.2681  0.8994
 8194SOL     OW36217   3.625   0.970   9.662  0.4714  0.9558 -0.3819
 8194SOL    HW136218   3.663   1.057   9.658 -2.2773  2.0883 -1.9013
 8194SOL    HW236219   3.661   0.933   9.743 -1.3142 -1.5229 -0.7366
 8195SOL     OW36220   3.013   2.308   6.784  0.5246 -0.1075 -0.1054
 8195SOL    HW136221   2.925   2.347   6.783  0.2953 -0.6434 -0.5051
 8195SOL    HW236222   3.007   2.255   6.705 -0.5728 -0.0464 -0.0721
 8196SOL     OW36223   1.720   3.386  14.556 -0.7438 -0.2775  0.1783
 8196SOL    HW136224   1.741   3.390  14.649 -2.5665  0.2196  0.5656
 8196SOL    HW236225   1.626   3.375  14.566 -0.3987 -0.1421  3.5834
 8197SOL     OW36226   2.441   1.183   4.591  0.4953 -0.1623 -0.2761
 8197SOL    HW136227   2.485   1.111   4.545 -0.5310 -1.8342  1.3813
 8197SOL    HW236228   2.365   1.135   4.624 -0.1628  2.0971  1.5008
 8198SOL     OW36229   2.207   1.535   5.661 -0.0545 -0.3588 -0.0933
 8198SOL    HW136230   2.125   1.494   5.689  0.1766 -0.0064  1.1157
 8198SOL    HW236231   2.274   1.488   5.710 -0.8642 -1.5669 -0.1534
 8199SOL     OW36232   1.302   4.549   6.072  0.1493 -0.1280  0.7639
 8199SOL    HW136233   1.220   4.586   6.104  0.4431  0.3436  0.9792
 8199SOL    HW236234   1.375   4.598   6.110 -0.7126  2.3332 -0.7770
 8200SOL     OW36235   2.254   3.225   3.460  0.3548 -0.4092 -0.2393
 8200SOL    HW136236   2.212   3.231   3.374 -1.1727  0.8534  0.5949
 8200SOL    HW236237   2.328   3.166   3.444  1.0502  0.7146 -1.1811
 8201SOL     OW36238   0.281   4.123   4.168 -0.4847 -0.6227  0.6406
 8201SOL    HW136239   0.264   4.061   4.098  0.2902  3.0942 -2.8338
 8201SOL    HW236240   0.337   4.065   4.220  1.8189 -0.3004 -1.5029
 8202SOL     OW36241   2.061   0.123   4.878  0.2253  0.4259  0.3709
 8202SOL    HW136242   2.048   0.116   4.783  1.3372 -2.0404  0.3854
 8202SOL    HW236243   2.101   0.209   4.883  0.1764  0.4848 -0.2638
 8203SOL     OW36244   3.376   4.480   2.512 -0.9019 -0.3048  0.5179
 8203SOL    HW136245   3.455   4.434   2.483  1.6794  2.4571  3.1805
 8203SOL    HW236246   3.383   4.487   2.607  1.7408  1.2907  0.1924
 8204SOL     OW36247   3.637   0.708   2.736  0.0276  0.1502  0.0655
 8204SOL    HW136248   3.654   0.642   2.803  0.7721 -0.6830 -0.9413
 8204SOL    HW236249   3.729   0.719   2.712  0.3807 -3.0183 -0.0504
 8205SOL     OW36250   2.921   4.495  15.697 -0.3317 -0.1254  0.5774
 8205SOL    HW136251   3.012   4.478  15.723 -0.8556 -2.2772  0.9467
 8205SOL    HW236252   2.873   4.451  15.766 -0.1206 -1.2344  0.0194
 8206SOL     OW36253   3.726   0.367   7.917 -0.7995 -0.5167  0.3063
 8206SOL    HW136254   3.816   0.350   7.947 -1.5358 -1.0841  2.2409
 8206SOL    HW236255   3.708   0.436   7.981 -0.4820  1.6968 -2.0000
 8207SOL     OW36256   1.856   4.559   4.622 -0.9888 -0.3796 -0.0622
 8207SOL    HW136257   1.796   4.484   4.618 -0.3490 -0.9253  0.5494
 8207SOL    HW236258   1.829   4.592   4.536 -4.4509 -2.4472  0.2122
 8208SOL     OW36259   0.387   2.499   0.555 -0.4776  0.7315  0.2511
 8208SOL    HW136260   0.428   2.572   0.508 -1.0592  0.7989 -0.1569
 8208SOL    HW236261   0.374   2.529   0.645 -1.3577 -0.3981  0.4933
 8209SOL     OW36262   2.393   1.050   0.582  0.0384  0.1374 -0.7129
 8209SOL    HW136263   2.423   1.113   0.516 -2.0772  0.1055 -1.7205
 8209SOL    HW236264   2.311   1.026   0.540 -0.4469  1.9715 -0.8415
 8210SOL     OW36265   1.744   4.273  15.381 -0.0420 -0.9559 -0.3538
 8210SOL    HW136266   1.770   4.279  15.289 -0.2397 -0.7966 -0.4004
 8210SOL    HW236267   1.655   4.309  15.378  0.2045 -0.5276 -2.6365
 8211SOL     OW36268   3.814   1.310   4.607 -0.5040  0.2347  0.2276
 8211SOL    HW136269   3.795   1.245   4.540 -1.9959  1.4359 -0.4985
 8211SOL    HW236270   3.888   1.354   4.565  0.5592 -2.1965 -0.4308
 8212SOL     OW36271   0.553   2.824  12.823  0.5530 -0.3510 -0.5503
 8212SOL    HW136272   0.616   2.774  12.874 -2.0740 -1.2222  1.8881
 8212SOL    HW236273   0.493   2.753  12.797  1.1035 -0.2831 -1.9944
 8213SOL     OW36274   3.272   0.299   5.392 -0.3124  0.3806 -0.5233
 8213SOL    HW136275   3.188   0.346   5.391 -0.3130  0.4312  3.0263
 8213SOL    HW236276   3.245   0.207   5.397  0.2405  0.3057  1.3259
 8214SOL     OW36277   0.593   1.465   1.750  0.0448  0.4882  0.3039
 8214SOL    HW136278   0.639   1.549   1.749 -1.1817  1.1438 -2.3792
 8214SOL    HW236279   0.547   1.479   1.833 -1.7225 -1.6392 -0.3223
 8215SOL     OW36280   3.332   1.244   5.480 -0.5080 -0.5556  0.0696
 8215SOL    HW136281   3.277   1.318   5.505  2.0213  1.9595 -1.8433
 8215SOL    HW236282   3.394   1.290   5.423  0.0388  0.3269  1.3803
 8216SOL     OW36283   2.217   2.635   6.864  0.5367 -0.1245 -0.3944
 8216SOL    HW136284   2.231   2.547   6.829 -0.9929  0.3076 -2.0658
 8216SOL    HW236285   2.200   2.630   6.958  1.1815 -1.0438 -0.3228
 8217SOL     OW36286   3.727   2.734   4.568  0.3540 -0.3581  0.0226
 8217SOL    HW136287   3.771   2.752   4.485  0.4457  1.0725  0.3865
 8217SOL    HW236288   3.759   2.808   4.620 -0.7338 -1.0968  1.7374
 8218SOL     OW36289   0.178   4.576   4.813  0.1591  0.2417 -0.2780
 8218SOL    HW136290   0.185   4.539   4.725  2.5474 -1.6339  0.7137
 8218SOL    HW236291   0.134   4.660   4.800  0.8758  0.6344 -0.1644
 8219SOL     OW36292   1.675   0.516  14.556  0.3270  0.4404  0.3332
 8219SOL    HW136293   1.614   0.529  14.484 -0.4542 -0.6419  0.7880
 8219SOL    HW236294   1.742   0.461  14.516 -0.7701  0.3612 -1.4047
 8220SOL     OW36295   0.920   0.339   4.575 -0.3322  0.2612  0.3732
 8220SOL    HW136296   0.854   0.378   4.518 -1.9718  0.4896  2.4122
 8220SOL    HW236297   0.954   0.418   4.618  3.2261 -0.7916 -0.5004
 8221SOL     OW36298   1.155   2.168   7.928  0.5704 -0.0100 -0.2261
 8221SOL    HW136299   1.129   2.077   7.918 -0.6901  0.1143  1.9129
 8221SOL    HW236300   1.085   2.218   7.886  2.5632  2.5541 -0.5008
 8222SOL     OW36301   3.870   0.028  17.720  0.5227  0.2100  0.1964
 8222SOL    HW136302   3.835   4.715   0.036  0.9921  0.2269  0.4427
 8222SOL    HW236303   3.815   0.107  17.725  2.5147  1.6173  0.0352
 8223SOL     OW36304   0.664   2.632  15.919 -0.4139  0.3612 -1.0583
 8223SOL    HW136305   0.607   2.574  15.969  0.7413  1.7285  1.8048
 8223SOL    HW236306   0.607   2.709  15.912 -0.7288  0.3716  1.7962
 8224SOL     OW36307   4.301   0.212   7.674 -0.6319  0.5357  1.2382
 8224SOL    HW136308   4.260   0.251   7.751 -0.6139 -0.1281  1.5834
 8224SOL    HW236309   4.230   0.156   7.644 -0.0115 -0.4215  1.5792
 8225SOL     OW36310   0.635   3.275   8.189  0.1841 -0.3588 -0.3131
 8225SOL    HW136311   0.608   3.361   8.224 -0.6692 -0.6050 -0.3642
 8225SOL    HW236312   0.652   3.234   8.274 -0.7993 -0.5168 -0.1937
 8226SOL     OW36313   1.537   3.439  16.730 -0.3043  0.0573 -0.1601
 8226SOL    HW136314   1.486   3.428  16.649 -1.4008 -2.8307  0.9267
 8226SOL    HW236315   1.581   3.355  16.744 -1.6202 -1.0225 -2.3420
 8227SOL     OW36316   4.589   3.082   0.184  0.2625  0.4347  0.5538
 8227SOL    HW136317   4.625   3.164   0.149 -0.6673  1.0485  1.0191
 8227SOL    HW236318   4.590   3.107   0.277 -0.5902  0.2821  0.6036
 8228SOL     OW36319   0.570   3.161  14.283  0.6881  0.3114 -0.4374
 8228SOL    HW136320   0.516   3.083  14.272  0.8894 -0.1613  1.7995
 8228SOL    HW236321   0.637   3.123  14.340  1.7057  0.9240 -1.2218
 8229SOL     OW36322   0.991   4.406   2.324 -0.1222 -0.4519  0.7117
 8229SOL    HW136323   0.940   4.376   2.249 -0.9538  1.6288  0.4420
 8229SOL    HW236324   1.059   4.338   2.323 -0.4223 -0.7423 -1.5859
 8230SOL     OW36325   2.078   2.001   4.558  0.4645 -0.2634  0.0038
 8230SOL    HW136326   2.151   2.057   4.530 -2.0311  2.1787 -1.5668
 8230SOL    HW236327   2.114   1.915   4.537  1.3638 -0.0338  0.5807
 8231SOL     OW36328   0.334   4.290   9.150 -0.0367  0.1103 -0.5469
 8231SOL    HW136329   0.427   4.267   9.144  0.6611  2.1674  2.1678
 8231SOL    HW236330   0.319   4.303   9.244  0.5966 -1.0296 -0.2782
 8232SOL     OW36331   0.943   0.135   6.502  0.6042 -0.5761 -0.0599
 8232SOL    HW136332   0.943   0.059   6.560 -0.9366 -0.4710  0.0644
 8232SOL    HW236333   0.851   0.127   6.477  0.8436 -2.4119 -0.3316
 8233SOL     OW36334   1.584   0.822   2.883 -0.2962 -0.2972 -0.6142
 8233SOL    HW136335   1.642   0.783   2.948 -0.3763 -0.5517 -0.6952
 8233SOL    HW236336   1.505   0.771   2.900  0.5421 -0.6038  2.3303
 8234SOL     OW36337   1.914   2.258   2.709  0.3425 -1.0996 -0.2278
 8234SOL    HW136338   1.942   2.349   2.715 -1.0045 -0.7062  0.1263
 8234SOL    HW236339   1.829   2.274   2.667 -0.4630 -0.7337  1.5643
 8235SOL     OW36340   3.283   1.388   5.082 -0.4683 -0.6065 -0.0205
 8235SOL    HW136341   3.254   1.474   5.049 -1.2942 -0.3706  1.3009
 8235SOL    HW236342   3.235   1.393   5.165  2.8925 -0.9395  1.9684
 8236SOL     OW36343   0.298   4.162  17.588 -0.6571  0.4708  0.4770
 8236SOL    HW136344   0.377   4.152  17.535 -0.6877 -1.6705  0.8349
 8236SOL    HW236345   0.247   4.202  17.518 -2.0540  0.1580  1.3212
 8237SOL     OW36346   1.329   1.414   8.838  0.8935  0.1623 -0.3450
 8237SOL    HW136347   1.319   1.399   8.932 -0.2130  0.1757 -0.4602
 8237SOL    HW236348   1.237   1.415   8.811  0.1586 -1.2989  2.1534
 8238SOL     OW36349   1.021   3.312   0.757  0.4685  0.2796 -0.1380
 8238SOL    HW136350   0.962   3.238   0.773  2.0643 -0.5568  1.8621
 8238SOL    HW236351   1.047   3.285   0.669  1.6747 -0.7933  0.5466
 8239SOL     OW36352   0.987   1.355  15.748 -0.3226  0.1765  0.5082
 8239SOL    HW136353   1.060   1.414  15.731  0.1905 -0.4944  0.3908
 8239SOL    HW236354   1.026   1.291  15.807 -0.2213 -2.6321 -2.6475
 8240SOL     OW36355   1.977   1.836   3.535  0.1157  0.3594 -0.5119
 8240SOL    HW136356   2.007   1.847   3.625 -1.0320  1.3110 -0.2425
 8240SOL    HW236357   2.017   1.750   3.530  0.2102  0.3602  0.2271
 8241SOL     OW36358   2.299   1.859   6.585 -0.0281 -0.2484  1.0073
 8241SOL    HW136359   2.358   1.868   6.660  0.0802  0.7991  0.7933
 8241SOL    HW236360   2.335   1.916   6.517 -0.5024  0.9985  1.7942
 8242SOL     OW36361   2.363   3.633   4.960  0.1683  0.0263  0.0252
 8242SOL    HW136362   2.456   3.613   4.967  0.2374  0.7665  1.1488
 8242SOL    HW236363   2.350   3.683   5.041 -1.0736 -0.1286 -0.0744
 8243SOL     OW36364   0.250   1.280   1.293  0.2140  0.3162 -0.0748
 8243SOL    HW136365   0.159   1.253   1.277  0.7944 -1.1353 -0.9119
 8243SOL    HW236366   0.244   1.329   1.374  1.2604  0.9949 -0.4220
 8244SOL     OW36367   0.881   1.702   1.938  0.8208 -0.1901 -0.2770
 8244SOL    HW136368   0.961   1.752   1.950  1.2488 -1.2293  1.3014
 8244SOL    HW236369   0.910   1.612   1.923  1.3259 -0.0756  0.0096
 8245SOL     OW36370   4.020   2.186   5.464 -0.3963  0.2548  0.6962
 8245SOL    HW136371   4.008   2.101   5.422 -1.2360  0.3022  0.8396
 8245SOL    HW236372   4.110   2.173   5.494 -0.9010 -0.9143  1.7433
 8246SOL     OW36373   1.320   4.009   4.720 -0.0018  0.5138 -0.5538
 8246SOL    HW136374   1.272   4.037   4.798 -1.0613 -0.9131 -0.7119
 8246SOL    HW236375   1.256   3.963   4.667 -0.8467 -0.7760  1.5866
 8247SOL     OW36376   2.373   0.933  12.285  0.0089  0.1222 -0.0140
 8247SOL    HW136377   2.411   0.848  12.307 -2.4518 -1.5163 -1.9861
 8247SOL    HW236378   2.278   0.921  12.282 -0.2542  2.0915  0.0701
 8248SOL     OW36379   4.490   4.273  12.010 -0.4078  0.5282 -0.3047
 8248SOL    HW136380   4.482   4.185  12.047  2.3676 -0.1229 -1.2586
 8248SOL    HW236381   4.473   4.321  12.090  0.7211  0.2533  0.0979
 8249SOL     OW36382   1.321   0.511   2.095 -0.3108  0.3050  0.0745
 8249SOL    HW136383   1.400   0.488   2.143  0.6055  2.0873 -0.5684
 8249SOL    HW236384   1.286   0.429   2.058 -1.6377  1.3710 -1.0532
 8250SOL     OW36385   2.908   4.293   7.749 -0.0210 -0.4468 -0.2083
 8250SOL    HW136386   2.991   4.339   7.762 -0.7103  0.1636  2.0614
 8250SOL    HW236387   2.852   4.320   7.821  0.3582 -0.3310  0.0426
 8251SOL     OW36388   2.228   4.374   2.383  0.2578  0.4473  0.5202
 8251SOL    HW136389   2.134   4.391   2.378  0.5367  1.1384 -2.6187
 8251SOL    HW236390   2.261   4.427   2.455 -1.0439  1.3233  0.4705
 8252SOL     OW36391   4.600   0.516  17.680 -0.3085  0.0242  0.0817
 8252SOL    HW136392   4.531   0.583  17.683 -0.1444  0.1238  1.6093
 8252SOL    HW236393   4.667   0.553  17.738 -1.4906 -0.5063  1.7708
 8253SOL     OW36394   2.893   3.343   9.313 -0.0393  0.0579 -0.1382
 8253SOL    HW136395   2.848   3.346   9.229 -2.1314  3.1584  1.1121
 8253SOL    HW236396   2.980   3.306   9.293 -0.0218 -0.6029  1.0972
 8254SOL     OW36397   3.478   3.017   5.363  0.2329 -0.3874 -0.0084
 8254SOL    HW136398   3.555   2.999   5.309  0.9014 -0.8239  1.0899
 8254SOL    HW236399   3.463   2.941   5.419  3.5951 -1.2081 -0.2309
 8255SOL     OW36400   3.381   0.432  14.310 -0.4778 -0.1243  0.2644
 8255SOL    HW136401   3.390   0.494  14.382  0.1895 -2.1653  1.9316
 8255SOL    HW236402   3.473   0.413  14.295 -1.1112 -1.0058 -2.5374
 8256SOL     OW36403   1.816   1.092   6.318  0.7354 -0.7129  0.2623
 8256SOL    HW136404   1.820   1.112   6.225 -0.1077  0.7434  0.5242
 8256SOL    HW236405   1.842   1.178   6.351  0.8017  0.3707 -2.6110
 8257SOL     OW36406   1.926   3.877   8.183  0.3998 -0.0686 -0.5486
 8257SOL    HW136407   1.871   3.890   8.260 -0.0105 -1.3785 -0.6182
 8257SOL    HW236408   2.001   3.920   8.224  0.0366  1.3775 -1.3925
 8258SOL     OW36409   4.416   4.327   4.715 -0.0110 -0.1258 -0.2972
 8258SOL    HW136410   4.406   4.333   4.620 -1.7092  1.5499 -0.0204
 8258SOL    HW236411   4.510   4.311   4.725 -0.2191 -1.4917 -0.5928
 8259SOL     OW36412   1.635   2.995   4.184 -0.3811  0.0178  0.7714
 8259SOL    HW136413   1.557   2.947   4.155 -1.3130  1.2071  1.3086
 8259SOL    HW236414   1.679   2.931   4.239  0.5063  0.0219  0.0667
 8260SOL     OW36415   3.339   1.335   7.807  0.3238  0.5012  0.4255
 8260SOL    HW136416   3.407   1.347   7.872 -0.3803 -3.6999  1.9552
 8260SOL    HW236417   3.350   1.416   7.756  0.1020 -0.3125 -0.9303
 8261SOL     OW36418   1.449   4.407   1.033  0.6060 -0.0952 -0.0245
 8261SOL    HW136419   1.439   4.494   1.072  2.2854  0.0294  0.1314
 8261SOL    HW236420   1.427   4.350   1.107 -1.0645  1.1334  0.4173
 8262SOL     OW36421   1.862   1.333   2.882  0.3524  1.0605 -0.0863
 8262SOL    HW136422   1.770   1.357   2.873  0.0401  0.2055  0.8130
 8262SOL    HW236423   1.850   1.273   2.955  1.3509  3.6931  2.2413
 8263SOL     OW36424   2.911   1.426   1.837  0.0466  0.8357 -0.0596
 8263SOL    HW136425   2.900   1.336   1.807  0.3701  0.4910  0.8675
 8263SOL    HW236426   2.845   1.467   1.780  0.1421  0.4436 -0.4558
 8264SOL     OW36427   1.289   2.362   7.634  0.4038 -0.2638  0.3643
 8264SOL    HW136428   1.225   2.420   7.675  0.2974 -0.7512  0.8917
 8264SOL    HW236429   1.253   2.279   7.666 -0.3473  0.1035  0.4665
 8265SOL     OW36430   2.207   3.726  11.752 -0.7294  0.5074  0.3335
 8265SOL    HW136431   2.112   3.729  11.749 -0.7776 -1.3763 -0.1476
 8265SOL    HW236432   2.224   3.774  11.833  0.7999 -2.6027  1.8633
 8266SOL     OW36433   1.777   3.329   6.275  0.3425  0.0945  0.1949
 8266SOL    HW136434   1.750   3.391   6.342  0.7812  0.2266  0.2488
 8266SOL    HW236435   1.735   3.359   6.195 -0.3855 -0.3730  0.3916
 8267SOL     OW36436   1.200   1.177   3.829 -0.2310 -0.3915  0.3529
 8267SOL    HW136437   1.170   1.243   3.767  1.0437  0.5939  0.7991
 8267SOL    HW236438   1.285   1.150   3.795 -0.5039  0.0440 -0.6646
 8268SOL     OW36439   4.002   0.257   2.706  0.1741 -0.0275 -0.1505
 8268SOL    HW136440   4.070   0.201   2.668  0.9730 -1.1434  2.8576
 8268SOL    HW236441   4.059   0.334   2.697 -0.1289  0.2087 -0.0445
 8269SOL     OW36442   3.310   0.028   4.678 -0.0484  0.5178 -0.2387
 8269SOL    HW136443   3.320   0.076   4.760  0.1119 -1.7286  1.0627
 8269SOL    HW236444   3.362   4.689   4.694 -1.6195 -0.7421 -1.2518
 8270SOL     OW36445   4.327   0.417  10.698 -0.0743 -0.3023  0.2797
 8270SOL    HW136446   4.318   0.475  10.623  2.0065  1.3527  1.3131
 8270SOL    HW236447   4.335   0.326  10.669 -0.5947 -0.2070 -0.1741
 8271SOL     OW36448   0.746   4.357   6.403  0.0612  0.2569  0.5510
 8271SOL    HW136449   0.782   4.283   6.452  2.4012 -0.0329 -1.6057
 8271SOL    HW236450   0.810   4.422   6.432  1.7548 -2.5835  3.2460
 8272SOL     OW36451   1.482   1.089  15.830  0.2171  0.4550 -0.1290
 8272SOL    HW136452   1.499   1.137  15.911 -0.4550  1.8463 -0.8070
 8272SOL    HW236453   1.455   1.163  15.776 -0.7428 -1.4473 -2.2971
 8273SOL     OW36454   1.978   4.017   5.757  0.5064  0.4072 -0.3135
 8273SOL    HW136455   1.911   4.079   5.789  0.0664  0.8286 -2.0542
 8273SOL    HW236456   1.935   3.934   5.778 -0.2485  0.5548 -1.2775
 8274SOL     OW36457   4.299   3.919  11.800 -0.0087 -0.3548  0.4533
 8274SOL    HW136458   4.238   3.871  11.856  0.6710 -3.0121 -1.1106
 8274SOL    HW236459   4.357   3.944  11.872 -0.7410  3.2480 -0.1584
 8275SOL     OW36460   1.227   2.798   8.598 -0.8784  0.4467 -0.2488
 8275SOL    HW136461   1.145   2.770   8.557 -0.1691 -0.1871 -1.2222
 8275SOL    HW236462   1.199   2.854   8.670  1.1083  0.1377  0.7527
 8276SOL     OW36463   0.774   0.247   8.324 -0.5249  0.0454 -0.4886
 8276SOL    HW136464   0.709   0.210   8.383 -1.2511  3.7625  1.0549
 8276SOL    HW236465   0.718   0.288   8.259  1.3884 -2.1984 -3.5577
 8277SOL     OW36466   4.317   4.187   8.699  0.0793 -0.3699  0.4622
 8277SOL    HW136467   4.357   4.204   8.614 -1.4847  1.4815  0.0953
 8277SOL    HW236468   4.226   4.179   8.673  0.8464 -3.0632 -1.3735
 8278SOL     OW36469   1.419   2.079   2.029 -0.2162 -0.6326 -0.0606
 8278SOL    HW136470   1.381   2.043   2.109  1.0621 -2.6169 -0.3655
 8278SOL    HW236471   1.511   2.057   2.043 -0.1709  1.1728  2.4001
 8279SOL     OW36472   2.561   0.979   4.418 -0.6009 -0.5272 -0.2854
 8279SOL    HW136473   2.627   1.028   4.369 -0.0935  0.1183  1.0317
 8279SOL    HW236474   2.499   0.946   4.353 -0.9205  0.0288 -0.2575
 8280SOL     OW36475   3.359   4.525   2.780  0.1009  0.9404  0.2217
 8280SOL    HW136476   3.336   4.433   2.791  1.5246  0.2554 -2.3286
 8280SOL    HW236477   3.418   4.534   2.855  1.9237 -1.8196 -0.8778
 8281SOL     OW36478   3.176   3.281  17.153  0.5077 -0.1443 -0.9299
 8281SOL    HW136479   3.168   3.239  17.067 -3.9216 -1.4332  0.0953
 8281SOL    HW236480   3.085   3.308  17.164  1.0611  1.0313  0.7187
 8282SOL     OW36481   1.205   3.470   4.691 -0.6022 -0.3688 -0.1310
 8282SOL    HW136482   1.134   3.465   4.755 -0.1516  0.3834  0.4197
 8282SOL    HW236483   1.152   3.488   4.613 -1.8419  1.1150  1.0678
 8283SOL     OW36484   2.293   0.855   7.286 -0.4553 -0.0597 -0.0917
 8283SOL    HW136485   2.361   0.809   7.336 -0.3192  0.6271  0.3436
 8283SOL    HW236486   2.291   0.940   7.329 -0.7386 -0.3900  0.5505
 8284SOL     OW36487   1.294   3.587   7.261 -0.1508 -0.1993 -0.2301
 8284SOL    HW136488   1.270   3.667   7.214 -0.8189 -0.5200 -0.4378
 8284SOL    HW236489   1.241   3.530   7.205  0.4308  0.6329 -1.6381
 8285SOL     OW36490   0.658   1.189   8.265  0.3559 -0.0393 -0.1353
 8285SOL    HW136491   0.601   1.178   8.188 -1.4774  1.1003  1.0622
 8285SOL    HW236492   0.732   1.135   8.239  0.0142  0.3212 -1.9218
 8286SOL     OW36493   4.014   4.497   5.931  0.1961  0.2113 -0.3750
 8286SOL    HW136494   4.047   4.483   6.020 -1.9006  1.5531  0.6062
 8286SOL    HW236495   3.923   4.467   5.940  0.2212  0.7989  1.9840
 8287SOL     OW36496   2.038   0.157  15.801  0.1602 -0.5024  0.2543
 8287SOL    HW136497   2.130   0.144  15.777  0.5442  0.1077  1.3408
 8287SOL    HW236498   2.002   0.070  15.784 -0.1461 -0.3252 -0.0095
 8288SOL     OW36499   4.479   3.102   6.179 -0.0091 -0.1911  0.1668
 8288SOL    HW136500   4.464   3.071   6.090 -0.7508 -0.8093  0.5066
 8288SOL    HW236501   4.488   3.015   6.219 -0.0243  1.1033  3.0162
 8289SOL     OW36502   4.023   0.794  17.453  0.0533 -0.0699  0.0456
 8289SOL    HW136503   3.966   0.824  17.524  1.6271 -0.6072  1.5463
 8289SOL    HW236504   4.082   0.727  17.488  1.5116  1.9503  1.3961
 8290SOL     OW36505   1.141   3.843  12.624  0.1627  0.3269  0.1143
 8290SOL    HW136506   1.227   3.825  12.661 -0.1097  2.1473  1.6314
 8290SOL    HW236507   1.111   3.913  12.681  1.9117  0.8074  0.4337
 8291SOL     OW36508   0.754   1.631   0.676  0.3672  0.1358  0.2878
 8291SOL    HW136509   0.701   1.620   0.754  0.0895 -2.9713 -0.3296
 8291SOL    HW236510   0.757   1.726   0.667  0.4651  0.0038 -1.1190
 8292SOL     OW36511   1.297   2.111   2.445  0.0808 -0.1291  0.3280
 8292SOL    HW136512   1.389   2.130   2.426 -0.2815  0.6330 -0.6369
 8292SOL    HW236513   1.303   2.078   2.534 -2.4746 -1.2525  0.0939
 8293SOL     OW36514   4.137   2.117   7.616 -0.1050  0.2735 -0.1812
 8293SOL    HW136515   4.071   2.083   7.676  0.6493 -0.5689  0.1667
 8293SOL    HW236516   4.117   2.072   7.534  0.5972  1.2417 -0.8764
 8294SOL     OW36517   2.691   3.043   7.090 -0.1668  0.0927 -0.5870
 8294SOL    HW136518   2.731   3.074   7.171 -0.6848  0.2100 -0.3758
 8294SOL    HW236519   2.619   2.988   7.119 -0.4127 -0.2245 -1.8008
 8295SOL     OW36520   4.392   4.613   6.201  0.0732  0.7721  0.4298
 8295SOL    HW136521   4.454   4.551   6.163  1.8531  2.7318  0.1641
 8295SOL    HW236522   4.345   4.559   6.265  0.7219  0.4738  0.6509
 8296SOL     OW36523   3.367   1.218   1.481 -0.2868 -0.1356  0.2180
 8296SOL    HW136524   3.365   1.141   1.538 -1.2066  1.4725  2.3561
 8296SOL    HW236525   3.323   1.182   1.403 -1.7237  0.6231  0.6870
 8297SOL     OW36526   2.357   1.598   4.693 -0.3081 -0.0847  0.6963
 8297SOL    HW136527   2.261   1.596   4.686 -0.0938  1.1990 -2.7050
 8297SOL    HW236528   2.381   1.541   4.620 -0.4008  1.9317 -0.9017
 8298SOL     OW36529   0.344   3.532   4.974 -0.0019  0.6575  0.3461
 8298SOL    HW136530   0.339   3.575   5.060 -1.0009  1.7698 -0.2669
 8298SOL    HW236531   0.275   3.466   4.972  1.1092 -0.5417  1.8605
 8299SOL     OW36532   4.388   3.877   9.631 -0.1583 -0.2698 -0.2604
 8299SOL    HW136533   4.304   3.900   9.669 -0.4882 -0.9040 -0.6085
 8299SOL    HW236534   4.440   3.944   9.676 -0.5379  0.9092 -1.5712
 8300SOL     OW36535   3.675   1.886   7.809 -0.3678 -0.5378 -0.1520
 8300SOL    HW136536   3.585   1.912   7.787 -0.3459  0.4151  0.8683
 8300SOL    HW236537   3.666   1.851   7.898 -3.1454  0.2855 -0.0994
 8301SOL     OW36538   2.336   0.811   4.635  0.1258  0.1038 -0.5549
 8301SOL    HW136539   2.250   0.769   4.637 -0.9220  2.3219  0.6669
 8301SOL    HW236540   2.313   0.891   4.683  1.6259 -0.1975  0.6757
 8302SOL     OW36541   3.963   2.286  13.186  0.4977 -0.3299  0.0355
 8302SOL    HW136542   3.950   2.272  13.280 -2.6752 -3.1820 -0.8334
 8302SOL    HW236543   4.012   2.208  13.158  0.1682 -0.6878  0.4533
 8303SOL     OW36544   3.690   3.681   2.419  0.2402 -0.0341  0.3157
 8303SOL    HW136545   3.745   3.715   2.490  2.2219 -1.9435 -0.2864
 8303SOL    HW236546   3.723   3.704   2.332 -0.7861 -0.8011 -0.2753
 8304SOL     OW36547   0.352   1.816  15.814 -0.3487 -0.2262  0.2996
 8304SOL    HW136548   0.274   1.767  15.839 -0.6851  0.3760  0.4268
 8304SOL    HW236549   0.321   1.869  15.741  2.3841  1.5724  0.4432
 8305SOL     OW36550   1.353   3.412   3.494  0.2869 -0.2625 -0.5652
 8305SOL    HW136551   1.398   3.396   3.411  0.2406  2.2127 -1.0527
 8305SOL    HW236552   1.425   3.447   3.547  0.0581  0.0410 -0.4554
 8306SOL     OW36553   3.784   0.148  15.635 -0.0095 -0.1047  0.0977
 8306SOL    HW136554   3.764   0.094  15.558  0.2508 -1.4964  1.0148
 8306SOL    HW236555   3.834   0.081  15.681  1.8850  0.1919 -1.5542
 8307SOL     OW36556   3.189   3.630   3.863  0.3456  0.7332  0.0924
 8307SOL    HW136557   3.239   3.657   3.941 -0.0062  0.2847  0.4663
 8307SOL    HW236558   3.105   3.615   3.904  1.7395 -1.4775  2.1141
 8308SOL     OW36559   4.023   2.209   7.047 -0.8775 -0.1384  0.3481
 8308SOL    HW136560   3.974   2.132   7.017  0.3055 -1.3351  1.4202
 8308SOL    HW236561   3.951   2.254   7.092 -0.8578  1.5791 -1.3399
 8309SOL     OW36562   2.562   3.541   7.702  0.1073  0.0993  0.2733
 8309SOL    HW136563   2.627   3.471   7.694  0.4296  0.5332 -0.9962
 8309SOL    HW236564   2.524   3.547   7.614 -0.3964  0.4938  0.5189
 8310SOL     OW36565   2.504   2.340   5.295 -0.5046 -0.0461  0.4452
 8310SOL    HW136566   2.567   2.322   5.366 -1.0142 -0.7294  0.7153
 8310SOL    HW236567   2.502   2.255   5.252  0.0401 -1.1817  2.6400
 8311SOL     OW36568   2.180   2.383   9.220 -0.0212 -0.3436  0.3841
 8311SOL    HW136569   2.258   2.435   9.240  0.6000 -0.3044 -2.1481
 8311SOL    HW236570   2.219   2.325   9.155  0.5393  1.1989 -0.6379
 8312SOL     OW36571   2.710   4.644   9.197 -0.0422  0.5192  0.2832
 8312SOL    HW136572   2.650   4.691   9.139  0.9453 -0.7452 -1.7811
 8312SOL    HW236573   2.655   4.604   9.264 -1.0669  1.6113  0.0923
 8313SOL     OW36574   4.536   0.548   8.941 -0.2001  0.0660  0.0458
 8313SOL    HW136575   4.605   0.605   8.906 -0.5349  1.4009  1.5177
 8313SOL    HW236576   4.586   0.492   9.000  2.4866  0.1999 -2.1252
 8314SOL     OW36577   0.994   1.321   7.237 -0.0542 -0.0853  0.8922
 8314SOL    HW136578   1.004   1.318   7.142 -1.2702 -1.1548  0.8103
 8314SOL    HW236579   0.932   1.249   7.244 -1.8004  1.0570 -2.6653
 8315SOL     OW36580   1.598   4.558   7.042 -0.1467 -0.0929  0.4272
 8315SOL    HW136581   1.617   4.475   6.999 -0.8940 -0.7702  1.4198
 8315SOL    HW236582   1.504   4.546   7.056  0.3897 -2.4708  1.8078
 8316SOL     OW36583   0.951   1.642   5.941  0.2051 -0.0341  0.7489
 8316SOL    HW136584   0.881   1.642   6.007 -0.7704 -1.5467 -0.2983
 8316SOL    HW236585   1.027   1.630   5.998  1.1139 -0.5881 -0.5943
 8317SOL     OW36586   2.987   3.265   1.995 -0.0919  0.1841 -0.4816
 8317SOL    HW136587   3.007   3.172   1.994  0.4600  0.2985 -0.0053
 8317SOL    HW236588   2.965   3.279   2.087  1.7769 -1.0342  0.1449
 8318SOL     OW36589   4.466   0.659  15.057 -0.3075  1.0776  0.1221
 8318SOL    HW136590   4.477   0.641  15.151 -2.3360 -1.3939 -0.1461
 8318SOL    HW236591   4.423   0.576  15.041  2.4389 -0.5348  1.0570
 8319SOL     OW36592   2.880   2.690   4.038 -0.0226 -0.0747 -0.0078
 8319SOL    HW136593   2.795   2.724   4.010  1.0967  0.1793 -3.0900
 8319SOL    HW236594   2.936   2.761   4.008 -0.6959  0.1067 -0.8564
 8320SOL     OW36595   4.238   4.099   9.463  0.1598 -0.7798  0.4221
 8320SOL    HW136596   4.205   4.060   9.544  0.5364  0.3659  1.1266
 8320SOL    HW236597   4.331   4.080   9.473  0.4452 -0.2101 -1.1434
 8321SOL     OW36598   2.204   0.268   3.414  0.2494 -0.0180  0.1230
 8321SOL    HW136599   2.146   0.321   3.468 -0.7547  0.4446 -1.3870
 8321SOL    HW236600   2.149   0.251   3.337  1.0290 -0.0714 -0.4245
 8322SOL     OW36601   3.986   3.562  11.840 -0.0409 -0.0456  0.7866
 8322SOL    HW136602   3.960   3.497  11.906 -0.1979 -1.4380 -0.6279
 8322SOL    HW236603   4.014   3.637  11.892  2.5619  0.5203 -1.4550
 8323SOL     OW36604   3.272   1.614   3.596  0.1688  0.2839 -0.5331
 8323SOL    HW136605   3.304   1.684   3.539  1.3944  0.3817  0.2837
 8323SOL    HW236606   3.213   1.569   3.536 -0.2766 -0.8958  0.7905
 8324SOL     OW36607   3.235   0.078   3.533  0.4409 -0.2465 -0.2472
 8324SOL    HW136608   3.256   0.104   3.443  2.0834 -1.2713 -0.1655
 8324SOL    HW236609   3.217   0.165   3.568  0.6786 -0.3068  0.0192
 8325SOL     OW36610   2.576   0.557   8.905  0.0374  0.5515 -0.7086
 8325SOL    HW136611   2.573   0.477   8.852 -1.5175  0.8249 -1.0202
 8325SOL    HW236612   2.668   0.582   8.893  0.5317  0.3084  2.7102
 8326SOL     OW36613   0.034   3.897   1.766  0.1613 -0.4690 -0.4200
 8326SOL    HW136614   4.713   3.854   1.704  0.4188 -1.0016 -0.3001
 8326SOL    HW236615   0.081   3.825   1.809 -0.8980 -2.0359 -1.8669
 8327SOL     OW36616   1.038   0.998   8.435 -0.3310 -0.2400 -0.1189
 8327SOL    HW136617   0.970   0.935   8.410  0.2596 -0.4091 -1.2682
 8327SOL    HW236618   1.042   0.986   8.530  1.2514  0.3225 -0.1252
 8328SOL     OW36619   2.009   2.770   2.055  0.0851  0.2541  0.1764
 8328SOL    HW136620   1.964   2.848   2.021 -0.6378 -1.1016 -2.0145
 8328SOL    HW236621   2.035   2.798   2.143 -1.5226 -0.4675  0.8766
 8329SOL     OW36622   0.497   0.972   6.398 -0.6678 -0.4392  0.3792
 8329SOL    HW136623   0.565   0.914   6.363 -0.8257 -0.3713 -0.0417
 8329SOL    HW236624   0.476   0.919   6.475 -0.6992 -0.2745  0.4844
 8330SOL     OW36625   2.963   1.021   8.332  0.3466  0.1795 -0.1967
 8330SOL    HW136626   2.974   1.115   8.318 -0.5857 -0.2333 -3.7033
 8330SOL    HW236627   3.006   0.996   8.250 -0.7040 -0.2215 -0.6203
 8331SOL     OW36628   1.147   1.152  11.763 -0.3942  0.5112 -0.3934
 8331SOL    HW136629   1.098   1.134  11.682 -2.7232 -0.5431  1.2595
 8331SOL    HW236630   1.194   1.230  11.731  0.2414  0.5399  0.6217
 8332SOL     OW36631   2.164   1.694   7.761 -0.3135  0.3392 -0.5893
 8332SOL    HW136632   2.153   1.786   7.736  0.0373  0.6888  0.5906
 8332SOL    HW236633   2.128   1.682   7.849 -0.3442 -0.6313 -0.7312
 8333SOL     OW36634   2.870   0.331   3.099  0.0309  0.2542  0.3021
 8333SOL    HW136635   2.948   0.378   3.127  2.6041 -3.4087 -0.7634
 8333SOL    HW236636   2.839   0.375   3.020 -0.1354 -0.4420 -0.0176
 8334SOL     OW36637   4.519   3.914  10.000  0.3629 -0.2467 -0.4058
 8334SOL    HW136638   4.608   3.932   9.971 -1.0595  0.1747 -4.5569
 8334SOL    HW236639   4.480   3.964   9.929  1.2555 -0.7082 -1.2193
 8335SOL     OW36640   2.709   0.315   7.869 -0.3924  0.2730  0.4343
 8335SOL    HW136641   2.792   0.323   7.822 -0.0160 -0.8638  0.9124
 8335SOL    HW236642   2.746   0.339   7.953 -0.9274 -0.1441  0.7929
 8336SOL     OW36643   2.493   2.851  14.133 -0.1681 -0.3452 -0.0758
 8336SOL    HW136644   2.539   2.866  14.216  0.3528 -1.0024 -0.2565
 8336SOL    HW236645   2.405   2.890  14.137  1.0346  2.4109 -0.5398
 8337SOL     OW36646   1.016   0.337   2.332  0.0050  0.0172 -0.2250
 8337SOL    HW136647   0.943   0.314   2.389 -1.1146  3.2428 -0.3563
 8337SOL    HW236648   1.054   0.407   2.384 -1.8727  0.5421  0.4355
 8338SOL     OW36649   3.520   2.917   4.935  0.2322  0.6881  0.2606
 8338SOL    HW136650   3.506   2.856   5.008  1.1962  0.6853  0.4385
 8338SOL    HW236651   3.430   2.945   4.915  0.3410  2.4599  2.1782
 8339SOL     OW36652   4.494   4.133   0.017  0.0067  0.3607 -0.0350
 8339SOL    HW136653   4.556   4.067  17.743  1.1116  1.2731  0.2326
 8339SOL    HW236654   4.553   4.170   0.083  1.5964  1.0316 -1.8219
 8340SOL     OW36655   2.858   3.141   7.314  0.4758  0.2316  0.0479
 8340SOL    HW136656   2.819   3.220   7.351 -0.9721 -0.6350  0.3863
 8340SOL    HW236657   2.893   3.190   7.240  0.5881 -0.1143 -0.1273
 8341SOL     OW36658   3.386   0.043   4.361 -0.0557  1.1352 -0.2651
 8341SOL    HW136659   3.372   0.033   4.456 -4.3724 -0.8435 -1.1100
 8341SOL    HW236660   3.300   0.051   4.322  0.5022  1.5359 -1.4068
 8342SOL     OW36661   1.644   2.324   4.790  0.0636  0.1549  0.1248
 8342SOL    HW136662   1.699   2.275   4.728  1.2152 -0.6683  1.8005
 8342SOL    HW236663   1.694   2.404   4.807  0.5363  0.3268 -1.9834
 8343SOL     OW36664   3.625   4.053   5.122 -0.2195  0.2799  0.5412
 8343SOL    HW136665   3.704   4.097   5.153 -0.0528 -0.4702  1.1555
 8343SOL    HW236666   3.556   4.118   5.135  1.3607  1.6703  1.8816
 8344SOL     OW36667   1.863   2.468  12.262 -0.0435 -0.2158 -0.3636
 8344SOL    HW136668   1.784   2.500  12.305  1.1932  0.5522  1.2950
 8344SOL    HW236669   1.826   2.465  12.174  0.3291 -0.4513 -0.5134
 8345SOL     OW36670   1.851   3.244  11.616 -0.3052 -0.3095 -0.1504
 8345SOL    HW136671   1.927   3.241  11.558 -0.0125  1.3260  0.1545
 8345SOL    HW236672   1.861   3.167  11.672  0.1149  0.2826  0.5852
 8346SOL     OW36673   2.413   0.838   8.176  0.2107 -0.0878 -0.0739
 8346SOL    HW136674   2.369   0.906   8.227 -3.6092 -1.9899 -0.8272
 8346SOL    HW236675   2.496   0.824   8.221  0.1486 -0.5637 -0.1004
 8347SOL     OW36676   0.034   1.164   9.314 -0.0410  0.0625  0.0133
 8347SOL    HW136677   0.032   1.259   9.327 -0.9859  0.0845 -0.3106
 8347SOL    HW236678   0.090   1.153   9.238  0.8335  1.0113  0.5142
 8348SOL     OW36679   1.918   1.221   9.876  0.3865  0.5224 -0.1454
 8348SOL    HW136680   1.832   1.254   9.902  0.2246 -0.1465  0.1601
 8348SOL    HW236681   1.935   1.153   9.941  2.1298 -1.0957 -2.2827
 8349SOL     OW36682   0.798   2.028   1.908 -0.3797  0.8351  0.2488
 8349SOL    HW136683   0.845   2.090   1.852 -0.0761 -0.6381 -1.1245
 8349SOL    HW236684   0.830   2.042   1.997 -2.1993 -0.2021  1.0662
 8350SOL     OW36685   3.652   3.226  10.678  0.1156  0.0186  0.8743
 8350SOL    HW136686   3.633   3.161  10.611  0.9018 -0.9145  1.5455
 8350SOL    HW236687   3.718   3.178  10.728  0.3923  0.6318  1.0954
 8351SOL     OW36688   1.960   2.087  17.311  0.1263 -0.3775 -0.2211
 8351SOL    HW136689   1.907   2.165  17.292  1.2888  0.5247  0.2316
 8351SOL    HW236690   1.949   2.034  17.232  1.8770  0.3394 -0.9305
 8352SOL     OW36691   3.508   2.921   1.967 -0.3418 -0.2179  0.3960
 8352SOL    HW136692   3.484   2.834   1.997 -1.5333 -0.8342 -2.3766
 8352SOL    HW236693   3.430   2.974   1.988  1.4588  2.7347 -0.3592
 8353SOL     OW36694   1.041   1.798  12.632 -0.2350  0.6241  0.1040
 8353SOL    HW136695   1.040   1.712  12.675  1.1307  1.3698  1.5942
 8353SOL    HW236696   0.993   1.843  12.702  1.5446  0.2070  1.5801
 8354SOL     OW36697   3.699   1.481   3.581  0.4257  0.0307  0.5320
 8354SOL    HW136698   3.626   1.507   3.525  1.6650  0.2519 -0.9710
 8354SOL    HW236699   3.765   1.487   3.512  0.4492  3.0582  0.7887
 8355SOL     OW36700   3.973   4.094   4.523  0.1256  0.8345 -0.5563
 8355SOL    HW136701   3.900   4.142   4.484  0.7485  1.1409 -1.3617
 8355SOL    HW236702   3.997   4.152   4.595 -3.3955 -2.2635  3.0618
 8356SOL     OW36703   4.036   0.903   8.200  0.0534  0.3888 -0.3994
 8356SOL    HW136704   4.041   0.920   8.294  0.9612  0.4645 -0.4652
 8356SOL    HW236705   4.123   0.867   8.184  0.1319  0.0116  0.9132
 8357SOL     OW36706   2.837   1.811  15.005 -0.1645  0.1076 -0.8145
 8357SOL    HW136707   2.773   1.882  15.009 -1.9658 -1.5483 -0.7563
 8357SOL    HW236708   2.910   1.845  14.953  0.4791  0.1757  0.1151
 8358SOL     OW36709   4.280   1.893  14.138 -0.2074 -0.3596 -0.3916
 8358SOL    HW136710   4.202   1.946  14.156 -1.1993 -2.2198  0.7638
 8358SOL    HW236711   4.266   1.817  14.194 -1.9405  1.0720  1.1126
 8359SOL     OW36712   0.107   1.499   7.781 -0.3984  0.5462  0.4113
 8359SOL    HW136713   0.137   1.408   7.783 -0.6954  0.4415 -0.0521
 8359SOL    HW236714   0.054   1.495   7.861  2.7616 -1.6427  2.4107
 8360SOL     OW36715   3.812   1.068   1.360 -0.6832 -0.0629  0.0232
 8360SOL    HW136716   3.877   1.060   1.290  0.2099  0.7398  0.7692
 8360SOL    HW236717   3.807   1.160   1.384  0.5741  0.6302 -2.3180
 8361SOL     OW36718   4.133   2.315   2.271 -0.6287  0.1222  0.1719
 8361SOL    HW136719   4.227   2.298   2.262 -0.7026 -2.6753  4.7543
 8361SOL    HW236720   4.087   2.252   2.216 -0.5922  0.2319  0.0170
 8362SOL     OW36721   1.764   3.384   2.823 -0.4139 -0.6702  0.1848
 8362SOL    HW136722   1.831   3.440   2.861  0.8011  0.0909 -3.0169
 8362SOL    HW236723   1.819   3.307   2.809  1.8338  0.4711  2.9391
 8363SOL     OW36724   3.836   0.751   4.543  0.1925 -0.1151  0.0525
 8363SOL    HW136725   3.849   0.755   4.448  1.5707 -1.8294  0.1614
 8363SOL    HW236726   3.741   0.750   4.551  0.1206  0.6312 -0.7684
 8364SOL     OW36727   4.496   3.991  12.040  0.0689  0.4087 -0.1406
 8364SOL    HW136728   4.588   3.971  12.023  0.3806  2.6566 -1.1356
 8364SOL    HW236729   4.465   3.925  12.102  0.3207  0.7942  0.3982
 8365SOL     OW36730   0.728   3.138   5.388  0.2869 -0.0593 -0.2955
 8365SOL    HW136731   0.694   3.058   5.347 -0.4073 -1.5468  3.1125
 8365SOL    HW236732   0.657   3.200   5.401  0.0887 -0.7227  1.8497
 8366SOL     OW36733   0.226   3.890   9.490  0.0108 -0.2819 -0.2993
 8366SOL    HW136734   0.139   3.912   9.458  1.0707  2.1321 -1.5259
 8366SOL    HW236735   0.250   3.823   9.425 -0.5746  0.5817 -1.3945
 8367SOL     OW36736   1.055   3.481   8.209  0.0855 -0.5033  0.1984
 8367SOL    HW136737   1.061   3.546   8.139  1.2199  0.4590  1.1800
 8367SOL    HW236738   0.974   3.514   8.249  0.2697  2.4041 -1.7703
 8368SOL     OW36739   0.367   0.638   7.679  0.3671  0.1706 -0.0710
 8368SOL    HW136740   0.395   0.616   7.768  0.0988 -1.0724 -0.2933
 8368SOL    HW236741   0.452   0.635   7.635 -0.4334 -2.1230 -1.4918
 8369SOL     OW36742   2.113   1.588   5.045  0.1140  0.2285  0.2109
 8369SOL    HW136743   2.058   1.518   5.079  2.4470 -2.1430 -0.8397
 8369SOL    HW236744   2.050   1.660   5.043  0.1613  0.2559 -0.3527
 8370SOL     OW36745   3.271   3.307   0.366 -0.0136 -0.6438 -0.2236
 8370SOL    HW136746   3.190   3.303   0.314 -0.3243  0.3343  0.1862
 8370SOL    HW236747   3.249   3.279   0.454  1.0320 -0.2882  0.1498
 8371SOL     OW36748   3.863   4.484  10.499  0.2527 -0.1249  0.0743
 8371SOL    HW136749   3.905   4.496  10.414 -0.6396 -0.8498 -0.4610
 8371SOL    HW236750   3.923   4.507  10.570  0.0444 -2.2043  0.9180
 8372SOL     OW36751   3.793   2.370   0.959  0.3590  0.1319 -0.3786
 8372SOL    HW136752   3.697   2.375   0.955  0.2407 -2.0549 -0.4421
 8372SOL    HW236753   3.816   2.428   0.886  0.7777  2.5604  1.6743
 8373SOL     OW36754   1.548   3.361   5.848  0.4333  0.4806  0.1270
 8373SOL    HW136755   1.477   3.304   5.879  0.6174 -0.4531 -1.1670
 8373SOL    HW236756   1.546   3.427   5.917  0.6073  0.6942 -0.0745
 8374SOL     OW36757   1.818   3.189   6.816  0.2552 -0.0883  0.1629
 8374SOL    HW136758   1.781   3.174   6.903 -2.5970  0.3518 -0.9896
 8374SOL    HW236759   1.907   3.153   6.821  1.0112  1.8582  0.5324
 8375SOL     OW36760   4.148   3.016   5.988 -0.4632  0.7245  0.4755
 8375SOL    HW136761   4.065   2.994   5.945  0.0593 -1.1919  0.4242
 8375SOL    HW236762   4.208   2.949   5.956  0.6864  3.3407 -2.7438
 8376SOL     OW36763   0.996   0.952   7.174  0.6791  0.1681 -0.2998
 8376SOL    HW136764   0.991   0.951   7.079  1.6934 -1.1202 -0.3381
 8376SOL    HW236765   1.090   0.949   7.190  0.3717  0.6597  1.6765
 8377SOL     OW36766   2.561   1.463   2.537  0.3323  0.1590  0.1884
 8377SOL    HW136767   2.565   1.553   2.503 -1.3118 -0.7214 -2.3388
 8377SOL    HW236768   2.573   1.400   2.467 -2.1273  0.8460 -0.8369
 8378SOL     OW36769   0.619   1.384   5.908 -0.1814  0.4761  0.0933
 8378SOL    HW136770   0.601   1.326   5.834 -1.1041 -1.0757  1.5384
 8378SOL    HW236771   0.538   1.434   5.908 -1.0114 -0.8766  0.6009
 8379SOL     OW36772   3.277   2.308  14.898 -0.0113  0.0622 -0.1495
 8379SOL    HW136773   3.275   2.283  14.990  1.1340 -1.7170 -0.6107
 8379SOL    HW236774   3.371   2.306  14.881 -0.3026 -0.5862 -1.6625
 8380SOL     OW36775   3.610   2.856   3.428  0.0686 -0.1651 -0.3188
 8380SOL    HW136776   3.626   2.862   3.334 -0.0711  0.1410 -0.3226
 8380SOL    HW236777   3.534   2.798   3.436  0.1472 -0.1581  0.4904
 8381SOL     OW36778   2.695   0.839   9.348  0.2154  0.0196 -0.3259
 8381SOL    HW136779   2.783   0.805   9.363  0.1712  0.4130  0.8205
 8381SOL    HW236780   2.664   0.837   9.439  0.0092  1.3666 -0.3626
 8382SOL     OW36781   3.772   2.084   8.949  0.0558  0.2321  0.2503
 8382SOL    HW136782   3.693   2.135   8.963  0.6920  1.9551 -2.4947
 8382SOL    HW236783   3.809   2.092   9.037 -2.8447 -1.7379  1.6543
 8383SOL     OW36784   3.604   4.360   7.370  0.3992 -0.4593 -0.1518
 8383SOL    HW136785   3.615   4.291   7.305  0.6612 -1.3077  0.8023
 8383SOL    HW236786   3.674   4.341   7.432  0.7251  0.0643 -0.3571
 8384SOL     OW36787   0.052   2.423   5.173 -0.2145  0.0585  0.1207
 8384SOL    HW136788   4.710   2.376   5.192 -0.4460  0.1872 -0.5817
 8384SOL    HW236789   0.023   2.472   5.097 -1.1756 -1.6159 -0.5968
 8385SOL     OW36790   1.279   4.533  16.462 -0.0095 -0.1090 -0.2834
 8385SOL    HW136791   1.194   4.577  16.459  0.6443  1.0720 -1.2364
 8385SOL    HW236792   1.323   4.599  16.516  3.2544 -2.2502 -0.3629
 8386SOL     OW36793   4.329   2.106   3.518 -0.3384  0.2093  0.0857
 8386SOL    HW136794   4.294   2.162   3.449  0.3569  0.2157 -0.2575
 8386SOL    HW236795   4.275   2.130   3.593 -0.6108  1.2304 -0.4404
 8387SOL     OW36796   2.008   1.738  11.235 -0.3147 -0.2454 -0.0031
 8387SOL    HW136797   2.034   1.666  11.293  0.5750 -1.8078 -2.3119
 8387SOL    HW236798   2.069   1.715  11.165  0.4585  1.7707  0.0296
 8388SOL     OW36799   2.314   4.432   1.628  0.5517  0.5503 -0.4155
 8388SOL    HW136800   2.334   4.408   1.719 -0.0933 -1.4945 -0.8107
 8388SOL    HW236801   2.399   4.418   1.588  0.8562  0.3357  0.3070
 8389SOL     OW36802   4.554   3.447   7.826 -0.0167  0.0822  0.1914
 8389SOL    HW136803   4.472   3.496   7.832  0.6520  0.9597  2.4186
 8389SOL    HW236804   4.576   3.472   7.917 -1.1553 -0.8552  0.7180
 8390SOL     OW36805   1.316   2.737   7.195  0.4297  0.2729  0.1474
 8390SOL    HW136806   1.220   2.743   7.192  0.3401 -1.2428 -0.3194
 8390SOL    HW236807   1.321   2.641   7.191 -0.1400  0.2329  0.3382
 8391SOL     OW36808   0.471   0.259   4.993 -0.5406 -0.6452  0.0117
 8391SOL    HW136809   0.379   0.237   5.006 -0.8359 -0.2433 -1.4097
 8391SOL    HW236810   0.466   0.350   4.966 -2.5391 -1.5212 -2.5067
 8392SOL     OW36811   3.541   2.047   1.428  0.3296  0.4464  0.4723
 8392SOL    HW136812   3.491   1.996   1.491 -1.8224  2.3259  0.2618
 8392SOL    HW236813   3.594   2.094   1.493 -0.9159 -0.0808  1.8536
 8393SOL     OW36814   0.730   0.220  11.928 -0.3832 -0.7500  0.0286
 8393SOL    HW136815   0.708   0.187  11.841 -1.4435  0.1506 -0.0330
 8393SOL    HW236816   0.814   0.262  11.909 -0.6229 -0.5692 -0.6209
 8394SOL     OW36817   1.969   3.443   6.496 -0.0197  0.2830  0.2723
 8394SOL    HW136818   2.041   3.486   6.543  1.0356  0.4992 -1.5225
 8394SOL    HW236819   1.905   3.448   6.566 -1.4822 -0.3167 -1.0121
 8395SOL     OW36820   2.208   0.460   6.786 -0.6385 -0.1355 -0.0924
 8395SOL    HW136821   2.302   0.450   6.801 -0.7180 -0.1794  0.3884
 8395SOL    HW236822   2.201   0.489   6.695  2.1214 -2.2787 -0.9803
 8396SOL     OW36823   2.447   4.018   3.545 -0.4910 -0.0077  0.5689
 8396SOL    HW136824   2.426   4.066   3.464  1.0095 -0.5274 -0.1259
 8396SOL    HW236825   2.493   3.941   3.514 -0.6862  0.7893 -1.7752
 8397SOL     OW36826   2.396   0.096  17.228  0.0661  0.3860 -0.0004
 8397SOL    HW136827   2.483   0.120  17.195 -0.1393 -1.0330 -1.5985
 8397SOL    HW236828   2.353   0.181  17.221  0.2695  0.4326 -0.6774
 8398SOL     OW36829   2.494   1.578  14.229  0.7071  0.3463 -0.7368
 8398SOL    HW136830   2.539   1.541  14.153  0.0275 -1.2381 -0.3605
 8398SOL    HW236831   2.415   1.620  14.196  0.3989  0.8368  0.6113
 8399SOL     OW36832   3.391   2.836   5.585 -0.0280 -0.5459 -0.4803
 8399SOL    HW136833   3.427   2.923   5.600 -1.7075  0.3248 -1.5534
 8399SOL    HW236834   3.308   2.830   5.631  0.6773 -2.7258  0.5026
 8400SOL     OW36835   0.020   4.416  12.021  0.3390 -0.0386  0.0337
 8400SOL    HW136836   4.693   4.348  12.018  0.2302 -0.0365  2.4637
 8400SOL    HW236837   0.101   4.377  11.989 -0.7198 -3.1259  1.0937
 8401SOL     OW36838   2.847   1.554  11.283 -0.0843 -0.0735 -0.4613
 8401SOL    HW136839   2.931   1.525  11.247  0.3152 -0.4103  0.7437
 8401SOL    HW236840   2.844   1.502  11.363 -0.6578 -0.0526 -0.4705
 8402SOL     OW36841   4.091   3.123   5.511  0.1006  0.2404 -0.0779
 8402SOL    HW136842   4.000   3.107   5.488 -0.4241  0.6278  1.6953
 8402SOL    HW236843   4.111   3.030   5.525  0.8412  0.3755 -0.2316
 8403SOL     OW36844   1.465   2.593  15.807 -0.0646  0.4410 -0.0268
 8403SOL    HW136845   1.413   2.516  15.828  0.7931 -0.0182  0.4112
 8403SOL    HW236846   1.448   2.645  15.886  0.8985 -0.8813  1.0535
 8404SOL     OW36847   4.614   0.772  12.795 -0.5512  0.2361 -0.0981
 8404SOL    HW136848   4.643   0.695  12.746  0.4358  0.4033  0.2151
 8404SOL    HW236849   4.625   0.748  12.888 -1.1536 -2.4808 -0.7191
 8405SOL     OW36850   4.716   1.343   0.804 -0.2013 -0.5336  0.0347
 8405SOL    HW136851   4.651   1.295   0.753 -1.4802 -0.7842  1.9183
 8405SOL    HW236852   4.658   1.405   0.848 -0.6687  0.2084 -1.6280
 8406SOL     OW36853   1.281   1.014   7.340 -0.4066  1.1197 -0.3894
 8406SOL    HW136854   1.333   0.974   7.410  1.3771  0.9469 -1.8380
 8406SOL    HW236855   1.319   0.971   7.264 -3.0866  0.2856 -1.2483
 8407SOL     OW36856   4.424   1.512   3.738  0.4995 -0.1515  0.0964
 8407SOL    HW136857   4.500   1.507   3.680  0.4390  1.4100 -0.1096
 8407SOL    HW236858   4.370   1.558   3.675  0.1069 -1.3400 -0.4397
 8408SOL     OW36859   2.962   2.714   5.429  0.2838  0.1065 -0.3243
 8408SOL    HW136860   2.920   2.799   5.420  0.0271  0.0959  0.8163
 8408SOL    HW236861   3.010   2.732   5.510  1.7945 -3.6467 -0.3592
 8409SOL     OW36862   1.791   3.298   2.084 -0.0525  0.2568  0.1163
 8409SOL    HW136863   1.868   3.242   2.093 -1.4518 -1.4956  1.1404
 8409SOL    HW236864   1.807   3.347   2.003  3.0490  0.5268  0.9038
 8410SOL     OW36865   2.034   3.297   4.158 -0.4768 -0.2513  0.2594
 8410SOL    HW136866   2.099   3.343   4.211 -0.6034 -1.1115  1.1560
 8410SOL    HW236867   2.063   3.209   4.179 -1.4284 -0.4247  0.8546
 8411SOL     OW36868   1.481   4.429  16.791 -0.1502  0.2006 -0.2335
 8411SOL    HW136869   1.416   4.454  16.857  0.9817  1.2032  0.4945
 8411SOL    HW236870   1.465   4.335  16.798 -0.2269  0.3920  2.2420
 8412SOL     OW36871   4.133   3.924   9.698 -0.7234  0.2562 -0.0297
 8412SOL    HW136872   4.110   3.913   9.790 -1.5397 -1.4682 -0.4290
 8412SOL    HW236873   4.050   3.917   9.650 -0.7078 -0.0050 -0.0216
 8413SOL     OW36874   0.352   2.901   4.853 -0.2067  0.0776 -0.3025
 8413SOL    HW136875   0.417   2.958   4.813 -0.3851 -0.1882 -0.9583
 8413SOL    HW236876   0.275   2.938   4.810 -1.1570 -0.7010  0.7023
 8414SOL     OW36877   2.498   0.834   5.153 -0.7353  0.1011  0.1306
 8414SOL    HW136878   2.443   0.896   5.105 -3.2194 -1.5023  0.9170
 8414SOL    HW236879   2.579   0.841   5.103 -2.3568 -0.1694 -2.5360
 8415SOL     OW36880   1.686   1.097   1.393 -0.0498  0.1175  0.5933
 8415SOL    HW136881   1.687   1.175   1.337  0.5588 -1.7792 -2.0805
 8415SOL    HW236882   1.674   1.028   1.327  0.8159  0.7118 -0.1817
 8416SOL     OW36883   3.715   0.428   5.995 -0.1247 -0.1274  0.2954
 8416SOL    HW136884   3.733   0.429   6.089  0.2403 -0.4994  0.2291
 8416SOL    HW236885   3.746   0.517   5.976  1.0278 -0.6078 -0.0526
 8417SOL     OW36886   2.485   1.417   8.266  0.0940  0.6699 -0.1314
 8417SOL    HW136887   2.449   1.489   8.213  1.6334 -0.3079 -2.5235
 8417SOL    HW236888   2.406   1.365   8.278  1.1525 -0.8503  0.1179
 8418SOL     OW36889   1.055   0.527   5.711  0.0501 -0.5146  0.1660
 8418SOL    HW136890   1.031   0.455   5.653 -3.3354 -0.6890  1.7889
 8418SOL    HW236891   1.056   0.603   5.653  0.0494 -0.8714 -0.2993
 8419SOL     OW36892   1.784   3.390   1.358 -0.7462  0.1287 -0.5149
 8419SOL    HW136893   1.835   3.425   1.285 -0.3238  0.9463  0.1753
 8419SOL    HW236894   1.776   3.458   1.424  1.5666  1.4456 -1.6098
 8420SOL     OW36895   0.802   4.138   2.752  0.3404 -0.4882  0.4135
 8420SOL    HW136896   0.709   4.120   2.734 -0.0177  0.9703  0.7941
 8420SOL    HW236897   0.839   4.131   2.664  0.6420 -0.4374  0.5381
 8421SOL     OW36898   0.327   2.209   6.796  0.2003 -0.2238 -0.1430
 8421SOL    HW136899   0.263   2.280   6.785  0.1663 -0.1113  0.7681
 8421SOL    HW236900   0.390   2.266   6.839 -0.4142  2.3635 -2.6723
 8422SOL     OW36901   4.718   2.049   5.850 -0.8284  0.1615  0.5171
 8422SOL    HW136902   0.017   2.039   5.937 -2.2372 -2.0871  0.9125
 8422SOL    HW236903   4.731   2.143   5.838  2.1498 -0.2111  0.8739
 8423SOL     OW36904   2.016   4.143   8.032 -0.4303 -0.1101  0.1679
 8423SOL    HW136905   1.923   4.119   8.030 -1.1132  2.4039  1.4588
 8423SOL    HW236906   2.001   4.233   8.004  0.7600  0.3804  1.1215
 8424SOL     OW36907   2.519   2.877   7.225  0.0531 -0.3511  0.3630
 8424SOL    HW136908   2.454   2.945   7.244 -0.3399 -0.2935 -1.1663
 8424SOL    HW236909   2.500   2.837   7.310  1.8400 -1.1400  0.4003
 8425SOL     OW36910   4.570   1.771   1.413 -0.6472 -0.2974 -0.4317
 8425SOL    HW136911   4.655   1.813   1.428 -1.7863  2.4459 -1.5937
 8425SOL    HW236912   4.510   1.805   1.480  0.7889  0.4545  0.4926
 8426SOL     OW36913   3.065   1.759  16.906  0.5392 -0.4717  0.2788
 8426SOL    HW136914   2.992   1.697  16.895 -1.4383  1.5928  1.6894
 8426SOL    HW236915   3.085   1.779  16.815  0.2332  2.8310  0.9340
 8427SOL     OW36916   1.500   0.719   6.753 -0.5446  0.2135  0.3193
 8427SOL    HW136917   1.474   0.653   6.818  0.2973  1.8476  2.2707
 8427SOL    HW236918   1.569   0.684   6.697 -1.7801 -0.4248 -0.8079
 8428SOL     OW36919   1.669   0.535  10.416  0.6643 -0.0080  0.0313
 8428SOL    HW136920   1.599   0.474  10.392 -0.8140  0.5999  2.7354
 8428SOL    HW236921   1.697   0.486  10.494  0.7648 -0.0407 -0.0253
 8429SOL     OW36922   2.004   3.535   7.856 -0.0193  0.5801  0.6311
 8429SOL    HW136923   2.007   3.616   7.908  0.7962  0.9028  0.0807
 8429SOL    HW236924   2.098   3.516   7.855 -0.1523 -0.1179  1.7523
 8430SOL     OW36925   3.766   3.412  10.394 -0.0841 -0.7752 -0.5888
 8430SOL    HW136926   3.679   3.403  10.432 -0.6915  2.0521 -1.2489
 8430SOL    HW236927   3.772   3.349  10.323  1.2663 -0.6162 -0.6144
 8431SOL     OW36928   1.863   0.182   2.420  0.2194 -0.0346 -0.0575
 8431SOL    HW136929   1.787   0.224   2.460  1.0464 -0.4580  1.9207
 8431SOL    HW236930   1.938   0.228   2.455 -1.0505  2.1959 -0.2770
 8432SOL     OW36931   3.868   0.524   7.655  0.2376  0.2773 -0.2172
 8432SOL    HW136932   3.902   0.501   7.568 -1.3361  2.1797 -1.3628
 8432SOL    HW236933   3.943   0.492   7.705 -1.9236  0.6604  3.2487
 8433SOL     OW36934   2.201   0.926   9.260 -0.2954  0.0850 -0.0608
 8433SOL    HW136935   2.139   0.983   9.217  0.9334  0.9384 -0.7058
 8433SOL    HW236936   2.267   0.988   9.292 -0.7263 -0.3026  1.6072
 8434SOL     OW36937   3.876   4.669   4.151 -0.1061  0.3808 -0.2885
 8434SOL    HW136938   3.853   4.577   4.162 -0.7860  0.7270  1.1840
 8434SOL    HW236939   3.816   4.714   4.211  0.0940  0.0873  0.1333
 8435SOL     OW36940   3.534   1.119   1.181 -0.1343 -0.6252  0.1954
 8435SOL    HW136941   3.599   1.067   1.229  0.9204  0.7062  0.2345
 8435SOL    HW236942   3.467   1.126   1.248  0.4815  0.0308  0.7390
 8436SOL     OW36943   3.017   0.191  15.703 -0.3950 -0.1494  0.9018
 8436SOL    HW136944   3.020   0.284  15.725 -0.1566  0.3192 -1.1360
 8436SOL    HW236945   3.070   0.190  15.623  0.7214 -2.3111  1.6526
 8437SOL     OW36946   2.801   1.414   4.291  0.1879 -0.6698 -0.0900
 8437SOL    HW136947   2.731   1.462   4.248  0.1941 -2.0651 -1.6305
 8437SOL    HW236948   2.761   1.365   4.363  0.3154 -0.0520  0.4060
 8438SOL     OW36949   4.195   0.591   5.204  0.4147  0.3415  0.3751
 8438SOL    HW136950   4.100   0.604   5.208  0.6480  1.9457  0.7947
 8438SOL    HW236951   4.215   0.516   5.260  0.8121 -0.9267 -1.4686
 8439SOL     OW36952   1.446   3.068   8.664  0.1997 -0.1815  0.1128
 8439SOL    HW136953   1.527   3.034   8.703 -0.0143 -0.3108  0.4475
 8439SOL    HW236954   1.429   3.136   8.729 -1.4353  0.3663 -0.8864
 8440SOL     OW36955   4.328   3.653   5.500  0.6842 -0.1398 -0.0335
 8440SOL    HW136956   4.289   3.620   5.419  3.8264 -2.8632 -0.3914
 8440SOL    HW236957   4.287   3.740   5.501 -1.6081 -1.2065 -1.0822
 8441SOL     OW36958   0.216   4.429   4.566  0.4042 -0.5994 -0.0943
 8441SOL    HW136959   0.155   4.368   4.524  2.8042 -0.7608 -3.3880
 8441SOL    HW236960   0.259   4.457   4.485  1.0390 -0.0142  0.4519
 8442SOL     OW36961   3.703   4.308   2.779  0.0018  0.1450  0.0800
 8442SOL    HW136962   3.692   4.401   2.760 -2.7364 -0.1033  0.4348
 8442SOL    HW236963   3.768   4.323   2.848  1.1395  1.9528 -1.3953
 8443SOL     OW36964   0.582   2.465   7.168  0.4306  0.0231 -0.0326
 8443SOL    HW136965   0.584   2.550   7.212 -1.2643  0.1291 -0.1433
 8443SOL    HW236966   0.536   2.414   7.235  1.1375  1.0892  1.2478
 8444SOL     OW36967   1.681   0.129  17.724  0.0725 -0.7359  0.4675
 8444SOL    HW136968   1.752   0.111   0.030  0.9127  1.9716  0.3070
 8444SOL    HW236969   1.648   0.208   0.011 -0.8750 -1.9715  2.0068
 8445SOL     OW36970   3.611   4.416   6.693 -0.3186 -0.5776 -0.0065
 8445SOL    HW136971   3.591   4.323   6.684  0.2737 -0.4205 -3.1926
 8445SOL    HW236972   3.524   4.449   6.715 -0.5535 -0.2798 -1.3439
 8446SOL     OW36973   2.364   4.182   2.777  0.1807 -0.7963  0.0455
 8446SOL    HW136974   2.292   4.143   2.728 -1.6645 -0.8772  2.8001
 8446SOL    HW236975   2.426   4.112   2.795 -0.0090 -0.8949  0.3201
 8447SOL     OW36976   3.805   4.246   7.762  0.1469  0.0501  0.4109
 8447SOL    HW136977   3.789   4.175   7.824  0.7753 -0.3133  0.1640
 8447SOL    HW236978   3.878   4.283   7.812 -1.7999  1.5173  2.1973
 8448SOL     OW36979   0.844   2.084   6.021 -0.1612  0.3196  0.3906
 8448SOL    HW136980   0.899   2.032   5.961  0.7559  1.9144 -0.1552
 8448SOL    HW236981   0.773   2.025   6.046  0.0111  0.1558  0.4964
 8449SOL     OW36982   1.751   1.207  12.155  0.1505  0.0993  0.3647
 8449SOL    HW136983   1.719   1.211  12.065 -0.4718  1.3600  0.6389
 8449SOL    HW236984   1.756   1.298  12.186 -2.9521 -0.1151  1.5215
 8450SOL     OW36985   0.861   0.137  17.524 -0.3092 -0.4524 -0.0390
 8450SOL    HW136986   0.776   0.158  17.562  0.8305 -1.4374  3.0876
 8450SOL    HW236987   0.898   0.064  17.574  0.1808 -1.3269 -1.6842
 8451SOL     OW36988   3.816   1.119  15.977  0.4361  0.5139 -0.0443
 8451SOL    HW136989   3.841   1.061  15.904 -1.1106 -1.1245  0.7299
 8451SOL    HW236990   3.721   1.107  15.968  0.4848  0.6233 -0.6861
 8452SOL     OW36991   3.277   4.213   2.197 -0.5201  0.3035  0.1291
 8452SOL    HW136992   3.241   4.125   2.180  0.2658 -0.2507  1.3159
 8452SOL    HW236993   3.337   4.192   2.269  1.6470 -1.6382 -2.2311
 8453SOL     OW36994   1.825   3.929   0.661 -0.3162 -0.1163  0.8417
 8453SOL    HW136995   1.917   3.933   0.688 -0.5668  0.0658  1.6672
 8453SOL    HW236996   1.797   4.017   0.682 -0.1698 -0.2175  1.4777
 8454SOL     OW36997   1.649   0.220  11.467 -0.5676 -0.4078  0.5144
 8454SOL    HW136998   1.691   0.262  11.392 -0.6681 -0.4112  0.4551
 8454SOL    HW236999   1.718   0.218  11.533 -1.0940 -2.2442  1.0064
 8455SOL     OW37000   1.599   3.266   4.676  0.1363  0.0129  0.1053
 8455SOL    HW137001   1.596   3.359   4.699  2.2445 -0.0443  0.5871
 8455SOL    HW237002   1.529   3.244   4.738 -1.0094  0.2145 -1.1104
 8456SOL     OW37003   3.767   0.981   6.137 -0.4530  0.5204 -0.2781
 8456SOL    HW137004   3.839   1.032   6.173  0.0036 -0.9583  0.8795
 8456SOL    HW237005   3.734   0.942   6.218 -0.8811  0.4270 -0.4945
 8457SOL     OW37006   4.666   2.293   2.691 -0.3672  0.3871  0.0031
 8457SOL    HW137007   4.578   2.281   2.657 -0.1834 -0.8835  0.0045
 8457SOL    HW237008   4.701   2.317   2.606 -1.1712  1.4790 -0.0211
 8458SOL     OW37009   0.596   0.364   3.389 -0.8112 -0.1401  0.3265
 8458SOL    HW137010   0.612   0.445   3.340  2.0741 -1.0003 -0.1791
 8458SOL    HW237011   0.683   0.328   3.406 -1.5217 -1.3773  1.3672
 8459SOL     OW37012   0.821   1.776   9.611 -0.1774  0.2343  0.4642
 8459SOL    HW137013   0.730   1.773   9.583 -0.3389  1.0911  0.9186
 8459SOL    HW237014   0.861   1.692   9.588 -0.5455  0.1138  0.2636
 8460SOL     OW37015   0.306   2.125   1.997  0.1090 -0.2954 -0.6166
 8460SOL    HW137016   0.281   2.042   2.038  2.2885 -0.4769  0.3485
 8460SOL    HW237017   0.271   2.118   1.908 -1.3872 -0.0928 -0.0305
 8461SOL     OW37018   4.113   0.091   6.923 -0.7154  0.1530  0.4223
 8461SOL    HW137019   4.139   4.739   6.930 -0.4719  0.2534  0.8267
 8461SOL    HW237020   4.163   0.122   6.848 -0.5910  0.0037  0.4450
 8462SOL     OW37021   4.278   1.592   1.075 -0.0305  0.1185 -0.4204
 8462SOL    HW137022   4.223   1.552   1.143 -0.4752  1.7218  0.1679
 8462SOL    HW237023   4.217   1.652   1.031 -1.1421 -0.3504  0.4796
 8463SOL     OW37024   2.925   4.489   3.648  0.1816 -0.3107 -0.0112
 8463SOL    HW137025   2.894   4.514   3.561  1.9952 -0.7051 -0.7692
 8463SOL    HW237026   2.927   4.393   3.644 -2.2398 -0.4365  2.3903
 8464SOL     OW37027   4.686   2.224   0.026 -0.2460 -0.2732  0.2852
 8464SOL    HW137028   4.611   2.247   0.080 -0.3596  1.7914 -0.7599
 8464SOL    HW237029   4.640   2.149  17.744 -0.2340  0.2765 -0.8154
 8465SOL     OW37030   4.637   4.078   8.901  0.1763  0.2789  0.3573
 8465SOL    HW137031   4.641   4.171   8.876  2.0902  0.6316  1.9719
 8465SOL    HW237032   4.716   4.067   8.955  0.3051  2.5140  0.6243
 8466SOL     OW37033   2.407   1.447  16.378  0.8367 -0.2892 -0.6375
 8466SOL    HW137034   2.414   1.412  16.289 -0.7281  1.4362 -1.4376
 8466SOL    HW237035   2.452   1.384  16.434 -0.5942 -0.1616  0.6657
 8467SOL     OW37036   2.696   2.967   5.230 -0.1024 -0.2487  0.6218
 8467SOL    HW137037   2.725   2.907   5.162  0.7622  2.5424 -1.4648
 8467SOL    HW237038   2.781   3.002   5.257 -0.8911  2.3887 -0.2661
 8468SOL     OW37039   2.792   1.311  10.280  0.2653  0.3896 -0.4117
 8468SOL    HW137040   2.847   1.386  10.259 -1.6292  1.8851 -0.0203
 8468SOL    HW237041   2.860   1.244  10.285 -1.3398 -1.0854  2.0864
 8469SOL     OW37042   1.544   1.985   7.934 -0.3067  0.0589  0.1431
 8469SOL    HW137043   1.480   1.936   7.985 -1.8973 -0.4221 -2.3466
 8469SOL    HW237044   1.541   1.946   7.847  0.5713 -1.8689  0.9705
 8470SOL     OW37045   3.651   3.152   1.624 -0.1094  0.3691  0.5266
 8470SOL    HW137046   3.645   3.179   1.532 -2.3085 -0.0510  0.5457
 8470SOL    HW237047   3.611   3.225   1.671  1.0634  0.7169  0.9793
 8471SOL     OW37048   2.574   3.877   4.363 -0.5620  0.3053  1.0079
 8471SOL    HW137049   2.581   3.972   4.360  0.9855  0.1698  0.6931
 8471SOL    HW237050   2.504   3.863   4.427 -0.4740  1.4252  1.3386
 8472SOL     OW37051   2.537   2.685   7.022 -0.1984  0.2378 -0.0811
 8472SOL    HW137052   2.622   2.643   7.037  0.0083  0.9010  0.5763
 8472SOL    HW237053   2.552   2.766   7.071 -0.1811 -0.9905  1.9565
 8473SOL     OW37054   3.530   0.574   5.589  0.9639 -0.1390 -0.3200
 8473SOL    HW137055   3.565   0.501   5.537  0.1011  1.8470 -3.7348
 8473SOL    HW237056   3.481   0.623   5.523 -0.1192  0.6552  1.1052
 8474SOL     OW37057   0.512   3.579   3.938  0.3382 -0.5013  0.4292
 8474SOL    HW137058   0.605   3.597   3.948 -0.0225  1.6165 -0.0259
 8474SOL    HW237059   0.477   3.600   4.024 -2.0988  1.1584 -0.9697
 8475SOL     OW37060   4.543   1.076   7.086  0.2855 -0.5107  0.1910
 8475SOL    HW137061   4.496   1.141   7.139 -0.9926 -0.2309 -1.2651
 8475SOL    HW237062   4.506   0.989   7.098 -0.2074 -0.3714 -0.2871
 8476SOL     OW37063   3.622   0.604  17.685  0.3724  0.5272  0.3698
 8476SOL    HW137064   3.552   0.664  17.710  0.1557  1.1736 -1.7354
 8476SOL    HW237065   3.633   0.627  17.592 -0.2350 -2.9278 -0.5486
 8477SOL     OW37066   1.420   2.867   5.776  0.7870 -0.2540 -0.1658
 8477SOL    HW137067   1.366   2.878   5.854  1.5300  2.1725  0.0103
 8477SOL    HW237068   1.496   2.821   5.812  2.1014  1.2465 -0.9988
 8478SOL     OW37069   2.289   3.053   5.502 -0.0454  0.0151  0.1363
 8478SOL    HW137070   2.322   2.964   5.511 -0.0068 -0.1959 -2.1248
 8478SOL    HW237071   2.284   3.073   5.408  2.6457  0.6542  0.1472
 8479SOL     OW37072   1.131   3.845   6.962  0.4700  0.0800  1.0269
 8479SOL    HW137073   1.106   3.900   7.036  0.4444 -0.0276  1.0975
 8479SOL    HW237074   1.225   3.861   6.964  0.2962  1.3307 -0.4021
 8480SOL     OW37075   2.579   2.657  13.936  0.5134 -0.3606 -0.0088
 8480SOL    HW137076   2.601   2.724  13.871  1.3650  1.3682  2.0644
 8480SOL    HW237077   2.544   2.715  14.003 -2.9308 -1.8494 -0.5368
 8481SOL     OW37078   0.324   4.428  10.269 -0.3296  0.0796 -0.1232
 8481SOL    HW137079   0.334   4.438  10.175 -2.1202 -2.6327 -0.5857
 8481SOL    HW237080   0.256   4.361  10.277  0.7698 -0.9574  0.4473
 8482SOL     OW37081   2.501   3.944  16.875  0.0959 -0.1342  0.2491
 8482SOL    HW137082   2.434   3.940  16.943  2.2693  0.4211  2.4072
 8482SOL    HW237083   2.575   3.965  16.932  2.2426 -0.9909 -2.2432
 8483SOL     OW37084   2.902   1.334   0.618  0.1328  1.0671 -0.6813
 8483SOL    HW137085   2.808   1.352   0.621  0.1334  0.9132  0.2295
 8483SOL    HW237086   2.908   1.252   0.569 -1.0632  0.0889  0.8312
 8484SOL     OW37087   3.644   0.474  16.364 -0.1489  0.1708  0.1824
 8484SOL    HW137088   3.592   0.542  16.405  1.5130  0.4863  1.7744
 8484SOL    HW237089   3.684   0.449  16.448 -0.5603 -1.4745 -0.1074
 8485SOL     OW37090   1.841   0.930   0.713  0.3349  0.4487 -0.0680
 8485SOL    HW137091   1.925   0.909   0.753  0.6151  0.3608 -0.7103
 8485SOL    HW237092   1.865   1.014   0.673 -0.2120  0.6888  0.1021
 8486SOL     OW37093   3.453   0.509   5.832  0.0866 -0.2024  0.5498
 8486SOL    HW137094   3.472   0.534   5.742  1.7089  0.2354  1.0288
 8486SOL    HW237095   3.539   0.522   5.871  0.4600  0.1517 -0.4087
 8487SOL     OW37096   4.492   1.591   3.055  0.0195  0.0880  0.6177
 8487SOL    HW137097   4.567   1.540   3.024 -0.2493 -0.4898  0.9357
 8487SOL    HW237098   4.482   1.650   2.981 -0.2857  1.1275  1.4773
 8488SOL     OW37099   2.686   1.672   0.021 -0.3386 -0.1176 -0.3607
 8488SOL    HW137100   2.646   1.735  17.717 -2.8201 -0.8464  0.5264
 8488SOL    HW237101   2.661   1.594  17.727 -1.0486 -0.1977  0.1215
 8489SOL     OW37102   3.833   2.796   7.565  0.1959 -0.7039  0.5550
 8489SOL    HW137103   3.907   2.801   7.626  0.3942 -1.4832  0.3826
 8489SOL    HW237104   3.837   2.882   7.523  1.1960  0.0144  2.1379
 8490SOL     OW37105   3.408   3.974   2.736  0.3337  0.5218 -0.0588
 8490SOL    HW137106   3.388   3.897   2.788  2.4714  1.6049  2.3655
 8490SOL    HW237107   3.444   3.938   2.655  3.4483  0.3586  1.3869
 8491SOL     OW37108   3.960   0.043   5.628 -0.5985 -0.1644  0.0897
 8491SOL    HW137109   3.948   4.702   5.578 -1.7245  0.8742 -1.3512
 8491SOL    HW237110   4.012   0.010   5.700  1.2611 -1.6146 -1.9303
 8492SOL     OW37111   3.671   1.796  16.021  0.3564 -0.3688 -0.0902
 8492SOL    HW137112   3.736   1.778  15.953 -0.3583  0.4292 -0.9897
 8492SOL    HW237113   3.654   1.706  16.048 -1.2997  0.5339  1.9042
 8493SOL     OW37114   1.194   0.992   9.360 -0.0097  0.5161 -0.8279
 8493SOL    HW137115   1.128   0.935   9.400 -0.1517  1.7072  0.6240
 8493SOL    HW237116   1.149   1.054   9.302 -1.3074  1.2716  0.9778
 8494SOL     OW37117   3.361   4.594  17.146 -0.4068 -0.1652  0.3331
 8494SOL    HW137118   3.299   4.643  17.092  0.3969 -0.0038 -0.4570
 8494SOL    HW237119   3.323   4.506  17.151  0.2054 -0.3998  0.8948
 8495SOL     OW37120   4.238   4.580   2.950 -0.0171  0.0460  0.4420
 8495SOL    HW137121   4.267   4.491   2.970  1.0387  0.3718  0.3405
 8495SOL    HW237122   4.227   4.577   2.855  2.7460 -1.7915  0.1592
 8496SOL     OW37123   4.464   3.208   5.582  0.2774  0.1114 -0.3825
 8496SOL    HW137124   4.417   3.224   5.500  0.1532  0.8937 -0.1574
 8496SOL    HW237125   4.497   3.293   5.609 -2.0195  0.5586  0.9543
 8497SOL     OW37126   4.410   1.894  10.281  0.1165  0.1927  0.2010
 8497SOL    HW137127   4.412   1.921  10.372 -0.1323 -0.7945  0.4965
 8497SOL    HW237128   4.337   1.837  10.304  0.0649  0.4895  0.7732
 8498SOL     OW37129   0.112   0.754   2.641  0.0431  0.3442 -0.4837
 8498SOL    HW137130   0.192   0.758   2.694 -0.0556 -3.3042 -0.0740
 8498SOL    HW237131   0.106   0.847   2.618 -0.4301  0.5185  0.3503
 8499SOL     OW37132   1.134   2.668   1.410 -0.2828 -0.0641 -0.4581
 8499SOL    HW137133   1.197   2.676   1.481 -2.9309 -0.3571  1.9182
 8499SOL    HW237134   1.069   2.731   1.439  0.1375  0.4387 -0.6131
 8500SOL     OW37135   3.271   0.703   5.974 -0.1222 -0.1786  0.5580
 8500SOL    HW137136   3.277   0.702   6.069 -1.0412 -1.1417  0.6137
 8500SOL    HW237137   3.317   0.625   5.943  1.4263  0.2954  1.6601
 8501SOL     OW37138   2.775   2.349   4.822  0.0913 -0.2475  0.6479
 8501SOL    HW137139   2.821   2.407   4.762 -0.4771 -0.7457 -0.2715
 8501SOL    HW237140   2.845   2.287   4.843 -0.4648 -0.2740  2.3998
 8502SOL     OW37141   3.894   1.967   3.198  0.1019 -0.1669  0.1545
 8502SOL    HW137142   3.956   1.934   3.133 -0.8873 -0.9751 -0.3859
 8502SOL    HW237143   3.948   1.940   3.273  0.5816  2.6989  0.8245
 8503SOL     OW37144   1.433   1.547   7.558 -0.6734 -0.1407  0.4226
 8503SOL    HW137145   1.426   1.600   7.479  0.3054 -0.0268  0.4206
 8503SOL    HW237146   1.413   1.461   7.521  1.5045 -2.0855  3.7267
 8504SOL     OW37147   2.654   4.595  16.405  0.4328 -0.0715 -0.3061
 8504SOL    HW137148   2.629   4.679  16.367 -0.7752  0.2310  1.1390
 8504SOL    HW237149   2.748   4.587  16.388  0.3173 -0.8630 -0.5390
 8505SOL     OW37150   1.079   0.789   3.354 -0.0957  0.0655 -0.2698
 8505SOL    HW137151   1.107   0.759   3.440 -0.7032 -0.0984 -0.1248
 8505SOL    HW237152   1.029   0.867   3.378  0.5756  1.2505 -2.6994
 8506SOL     OW37153   0.060   3.560   1.662  0.0721 -0.4671 -0.2106
 8506SOL    HW137154   0.014   3.483   1.695  0.0249 -1.0656 -1.6679
 8506SOL    HW237155   0.100   3.596   1.741 -1.1198  1.2036 -0.3514
 8507SOL     OW37156   0.060   2.937   8.961 -0.6265  0.3437  0.2679
 8507SOL    HW137157   0.030   2.848   8.944  1.4711 -0.3427  0.1467
 8507SOL    HW237158   4.712   2.974   8.949 -0.5625  0.3618 -0.1685
 8508SOL     OW37159   2.156   4.620   9.356 -0.5809  0.0404  0.1808
 8508SOL    HW137160   2.160   4.530   9.389 -1.3207 -0.1519 -0.2523
 8508SOL    HW237161   2.159   4.663   9.441  3.1855 -1.1494  0.6490
 8509SOL     OW37162   2.230   0.625   2.562 -0.2681 -0.4322 -0.4033
 8509SOL    HW137163   2.318   0.653   2.588 -0.4490 -1.2763  1.1388
 8509SOL    HW237164   2.205   0.693   2.500  2.0357  1.0773  0.2991
 8510SOL     OW37165   0.166   0.618   2.398  0.0601 -0.5486 -0.1581
 8510SOL    HW137166   0.204   0.533   2.419  0.2490 -0.5907 -0.6722
 8510SOL    HW237167   0.151   0.656   2.484  0.3815  0.8435 -0.7024
 8511SOL     OW37168   3.791   3.753  15.115  0.0819 -0.0607 -0.4000
 8511SOL    HW137169   3.821   3.663  15.102 -0.4803  0.1670 -3.2248
 8511SOL    HW237170   3.817   3.802  15.037 -2.1535 -2.0980 -2.3921
 8512SOL     OW37171   3.176   3.783   7.537 -0.4911  0.4175 -0.1636
 8512SOL    HW137172   3.220   3.708   7.496 -0.6296  0.4708 -0.4114
 8512SOL    HW237173   3.084   3.758   7.549 -0.3600 -0.0706 -0.1808
 8513SOL     OW37174   4.137   2.648  13.333 -0.3147  0.0154 -0.0359
 8513SOL    HW137175   4.110   2.574  13.388  0.7071  0.8474  1.5688
 8513SOL    HW237176   4.056   2.699  13.336 -1.4075 -1.6925  0.0474
 8514SOL     OW37177   2.729   2.310   8.992  0.7388 -0.0980  0.4685
 8514SOL    HW137178   2.799   2.253   9.023  1.4361 -0.1086 -1.1298
 8514SOL    HW237179   2.698   2.351   9.073 -1.7468  0.0894 -0.5744
 8515SOL     OW37180   3.120   1.469   6.728 -0.1164 -0.3109  0.5890
 8515SOL    HW137181   3.032   1.466   6.689  0.8539 -0.4421 -1.5721
 8515SOL    HW237182   3.133   1.561   6.708 -0.5794 -0.0597  1.4282
 8516SOL     OW37183   0.598   3.483   2.554  0.0232  0.9273  0.0738
 8516SOL    HW137184   0.687   3.512   2.568 -0.1379  1.6111 -0.3046
 8516SOL    HW237185   0.586   3.407   2.611  2.6067 -0.3445 -1.0540
 8517SOL     OW37186   3.312   1.422   3.794  0.2132 -0.3791  0.2261
 8517SOL    HW137187   3.388   1.385   3.749  0.0668  1.1425 -1.2614
 8517SOL    HW237188   3.304   1.494   3.731  0.1642 -0.4356  0.1673
 8518SOL     OW37189   3.504   3.567  16.998 -0.1097  0.1684 -0.1805
 8518SOL    HW137190   3.500   3.497  17.063  0.3449 -0.0113 -0.3411
 8518SOL    HW237191   3.410   3.580  16.990 -0.2571 -1.0276 -0.3635
 8519SOL     OW37192   3.381   0.834  15.080 -0.6773 -0.3923 -0.4978
 8519SOL    HW137193   3.320   0.904  15.102  0.3637  0.0306  1.0945
 8519SOL    HW237194   3.468   0.856  15.114 -0.5309 -0.4297 -0.8568
 8520SOL     OW37195   0.727   2.099  16.390 -0.3437 -0.6769  0.3985
 8520SOL    HW137196   0.747   2.163  16.459  2.8239 -1.3851  0.1696
 8520SOL    HW237197   0.740   2.021  16.444  0.8277 -1.2371 -0.6849
 8521SOL     OW37198   0.212   4.665   3.033 -0.3777  0.2545 -0.5726
 8521SOL    HW137199   0.124   4.644   3.004 -0.5882  0.8461 -0.3501
 8521SOL    HW237200   0.184   4.729   3.097  0.4877 -0.1999  0.2639
 8522SOL     OW37201   3.290   0.450  12.148 -0.4204  0.2525 -0.4609
 8522SOL    HW137202   3.346   0.525  12.167  0.0252 -0.7500  2.1867
 8522SOL    HW237203   3.348   0.381  12.116 -2.2908 -0.7135 -1.8035
 8523SOL     OW37204   2.790   1.516  13.044  0.6112  0.4197  0.2360
 8523SOL    HW137205   2.774   1.458  12.970 -1.0075  0.0957  0.8191
 8523SOL    HW237206   2.752   1.468  13.119 -1.4708  1.0383 -0.4177
 8524SOL     OW37207   2.163   0.424  17.527  0.1711 -0.0510 -0.0701
 8524SOL    HW137208   2.174   0.517  17.508  2.9798 -0.4863 -0.6177
 8524SOL    HW237209   2.076   0.415  17.567  1.1355 -0.6965  1.8861
 8525SOL     OW37210   1.018   4.417   7.101 -0.1610 -0.3417 -0.1342
 8525SOL    HW137211   1.057   4.355   7.163 -1.0938  0.6736  1.4524
 8525SOL    HW237212   0.946   4.464   7.143  0.7338  1.5461 -0.6947
 8526SOL     OW37213   1.737   4.598   8.037  0.3791 -0.6575  0.2374
 8526SOL    HW137214   1.746   4.643   7.953  1.4257 -0.9260  0.2163
 8526SOL    HW237215   1.706   4.518   7.994 -2.0376  0.7023 -0.5699
 8527SOL     OW37216   3.296   3.946  15.533 -0.1903  0.5628 -0.0828
 8527SOL    HW137217   3.294   3.850  15.528 -1.5356  0.5848  0.0377
 8527SOL    HW237218   3.205   3.963  15.508 -0.9273 -1.5333  1.1034
 8528SOL     OW37219   2.533   0.280   8.973 -0.3898 -0.4855 -0.0952
 8528SOL    HW137220   2.439   0.296   8.980 -0.8103 -2.8209 -0.6202
 8528SOL    HW237221   2.540   0.215   9.043  1.3967  1.6278  1.7276
 8529SOL     OW37222   1.142   3.428  11.037 -0.5718 -0.0976 -0.2935
 8529SOL    HW137223   1.235   3.451  11.032 -0.9036  1.2672 -0.3552
 8529SOL    HW237224   1.122   3.461  10.950  0.8662  0.7782 -0.3010
 8530SOL     OW37225   3.655   1.527  16.027 -0.2613  0.2152 -0.0897
 8530SOL    HW137226   3.695   1.460  16.084 -1.8579 -0.5053  0.1815
 8530SOL    HW237227   3.645   1.500  15.936  1.3465  1.4682 -0.6321
 8531SOL     OW37228   3.467   0.611   3.100 -0.3628 -0.2820 -0.3483
 8531SOL    HW137229   3.434   0.649   3.018  1.1441  0.6401 -0.5147
 8531SOL    HW237230   3.560   0.598   3.083  0.0281 -1.4880  2.7776
 8532SOL     OW37231   2.000   3.177   4.611  0.3191 -0.4331  0.5098
 8532SOL    HW137232   1.943   3.127   4.669  0.3817  0.7464  1.5912
 8532SOL    HW237233   1.982   3.141   4.524  0.2627  0.6323  0.0802
 8533SOL     OW37234   0.959   0.077   5.678  0.3095  0.0652 -0.1994
 8533SOL    HW137235   1.000   0.004   5.631 -1.3172 -2.1677  1.8507
 8533SOL    HW237236   1.015   0.088   5.756  0.2269  1.3442 -0.3129
 8534SOL     OW37237   4.321   3.850  14.483  0.0607 -0.2926 -0.3887
 8534SOL    HW137238   4.412   3.860  14.510 -0.8961  1.0541  2.2737
 8534SOL    HW237239   4.311   3.925  14.425  2.4990  0.1234 -0.2542
 8535SOL     OW37240   0.139   2.266   8.983 -0.5440  0.1976  0.2085
 8535SOL    HW137241   0.096   2.207   8.921 -0.6102 -0.1186  0.5482
 8535SOL    HW237242   0.193   2.316   8.922  1.1190  0.2855  1.7483
 8536SOL     OW37243   0.906   1.733   8.892  0.2292 -0.0116  0.1907
 8536SOL    HW137244   0.943   1.764   8.809  1.7695 -2.6660 -0.0929
 8536SOL    HW237245   0.949   1.789   8.957  1.1380 -1.2313  0.6368
 8537SOL     OW37246   3.738   0.031   4.885  0.1377 -0.1219  0.5418
 8537SOL    HW137247   3.697   0.000   4.804 -0.1696 -0.8071  0.9680
 8537SOL    HW237248   3.680   0.096   4.923  0.5755  1.7038 -1.8677
 8538SOL     OW37249   1.607   0.841  11.146  0.2140  0.0930 -0.2086
 8538SOL    HW137250   1.676   0.900  11.174  0.1422  0.4725 -0.8394
 8538SOL    HW237251   1.621   0.763  11.200 -0.9091  0.5827  0.7809
 8539SOL     OW37252   2.827   1.417  14.481 -0.5662 -0.0566  0.0763
 8539SOL    HW137253   2.807   1.372  14.399 -0.6276 -0.9834  0.6053
 8539SOL    HW237254   2.768   1.373  14.542 -1.5419  2.1732  0.7621
 8540SOL     OW37255   0.617   4.087   1.937 -0.3588 -0.0186  0.5106
 8540SOL    HW137256   0.602   3.996   1.963 -1.0788 -0.0871 -0.1273
 8540SOL    HW237257   0.529   4.124   1.941 -0.7973 -1.0231  0.2060
 8541SOL     OW37258   0.198   3.235   9.076 -0.7257 -0.0060  0.2173
 8541SOL    HW137259   0.130   3.303   9.086 -0.6533  0.0465  0.3508
 8541SOL    HW237260   0.205   3.227   8.981 -2.0174  3.5255 -0.1988
 8542SOL     OW37261   4.641   1.107   1.709  0.3144  0.3430 -0.0216
 8542SOL    HW137262   4.585   1.137   1.780 -0.5963  0.5357 -0.8291
 8542SOL    HW237263   4.723   1.070   1.743 -0.0988  0.6889  1.3466
 8543SOL     OW37264   2.631   0.574   1.518  0.3125 -0.0379 -0.0563
 8543SOL    HW137265   2.696   0.562   1.450  0.7832 -0.2493  0.4281
 8543SOL    HW237266   2.696   0.603   1.583  0.2270  1.0809 -0.4775
 8544SOL     OW37267   0.654   0.889  13.167  0.2315 -0.2411  0.2214
 8544SOL    HW137268   0.716   0.819  13.147 -0.4420 -0.2868 -1.6660
 8544SOL    HW237269   0.695   0.914  13.250 -0.3433 -2.7811  1.2918
 8545SOL     OW37270   3.108   4.710   6.675 -0.5125  0.5816 -0.7408
 8545SOL    HW137271   3.129   4.618   6.661 -0.1963  0.4184  0.7676
 8545SOL    HW237272   3.057   4.721   6.756  0.8968  3.9078 -0.3108
 8546SOL     OW37273   0.489   1.530  11.861  0.5662  0.3027  0.5950
 8546SOL    HW137274   0.465   1.608  11.810 -0.4562  0.2102  0.9372
 8546SOL    HW237275   0.463   1.459  11.803 -0.0098  0.9386  0.0687
 8547SOL     OW37276   1.764   3.473   8.695 -0.2973  0.2351  1.0314
 8547SOL    HW137277   1.836   3.532   8.719 -0.1099  0.2305  0.4970
 8547SOL    HW237278   1.686   3.498   8.745  0.8006  0.4791  2.6375
 8548SOL     OW37279   1.298   3.824   7.707 -0.1953 -0.1180  0.0755
 8548SOL    HW137280   1.367   3.792   7.766  0.1516 -1.7020 -1.1740
 8548SOL    HW237281   1.330   3.783   7.626 -0.5536  3.5966 -1.9337
 8549SOL     OW37282   0.686   0.765  16.104  0.3093  0.6076  0.1900
 8549SOL    HW137283   0.759   0.719  16.147  0.1386 -0.0034 -0.1914
 8549SOL    HW237284   0.721   0.753  16.016 -0.5587 -0.5649  0.0082
 8550SOL     OW37285   2.971   0.280   7.001 -0.7550 -0.0007 -0.6936
 8550SOL    HW137286   2.985   0.210   7.065  0.4271  1.3110  0.4997
 8550SOL    HW237287   3.034   0.267   6.930 -1.0698 -0.2061 -0.9377
 8551SOL     OW37288   2.641   2.014   2.000 -0.1203  0.6232  0.7295
 8551SOL    HW137289   2.732   1.992   1.981  0.5575  2.6310  1.6548
 8551SOL    HW237290   2.646   2.109   2.004  0.8967  0.4753  2.6029
 8552SOL     OW37291   2.990   0.541   4.778  0.1343  0.3136 -0.2148
 8552SOL    HW137292   2.944   0.596   4.842  1.4269  0.6957  0.4123
 8552SOL    HW237293   3.031   0.481   4.840 -0.0902 -0.0345 -0.4080
 8553SOL     OW37294   4.063   0.369   7.770  0.6015 -0.2789  0.1538
 8553SOL    HW137295   4.047   0.355   7.864 -0.2789 -0.7229 -0.0577
 8553SOL    HW237296   4.117   0.448   7.775  0.6667 -0.3241  0.1510
 8554SOL     OW37297   0.036   4.659   4.473  0.6701 -0.2202 -0.1379
 8554SOL    HW137298   0.129   4.647   4.491  0.7877 -0.1161 -0.6797
 8554SOL    HW237299   0.034   0.015   4.469  0.7507 -0.2042  0.2757
 8555SOL     OW37300   3.461   4.723   0.202 -0.3281  0.3120  0.1329
 8555SOL    HW137301   3.523   4.662   0.162 -1.5296 -0.4109 -0.6117
 8555SOL    HW237302   3.519   0.026   0.266 -0.3331 -0.4980  0.6650
 8556SOL     OW37303   1.558   0.803   0.316  0.2223 -0.1351 -0.1646
 8556SOL    HW137304   1.613   0.860   0.370  0.6574 -1.0545  0.3657
 8556SOL    HW237305   1.506   0.869   0.269  3.4510  1.8192 -1.0200
 8557SOL     OW37306   3.851   1.088  13.755  0.2878 -0.3047 -0.4163
 8557SOL    HW137307   3.798   1.012  13.776  0.9278 -0.1289  1.8724
 8557SOL    HW237308   3.865   1.134  13.838  1.0742 -0.3274 -0.5360
 8558SOL     OW37309   2.197   2.194  11.393 -0.3458  0.5389  0.6755
 8558SOL    HW137310   2.142   2.245  11.453  0.7943 -0.2189  2.3779
 8558SOL    HW237311   2.148   2.112  11.399 -0.3938  0.3401 -2.6235
 8559SOL     OW37312   3.639   1.650  15.497  0.1263  0.0853  0.2274
 8559SOL    HW137313   3.567   1.710  15.515 -0.3258  0.1041 -1.6085
 8559SOL    HW237314   3.697   1.687  15.563 -2.6764 -0.7695  3.2001
 8560SOL     OW37315   0.784   4.087   7.436  0.1803 -0.1223 -0.2945
 8560SOL    HW137316   0.756   4.078   7.527  0.4337  2.4423  0.0419
 8560SOL    HW237317   0.844   4.015   7.419  0.7816  0.2639  0.1558
 8561SOL     OW37318   3.930   2.575   4.000 -0.2479 -0.4257  0.2672
 8561SOL    HW137319   3.965   2.623   4.075  1.1974 -1.0339 -0.0077
 8561SOL    HW237320   3.983   2.617   3.932 -1.3632 -0.4402 -0.6024
 8562SOL     OW37321   2.730   1.859   5.143 -0.2175  0.2650 -0.2819
 8562SOL    HW137322   2.741   1.776   5.190 -1.0716 -0.0120 -0.5553
 8562SOL    HW237323   2.663   1.832   5.079  0.0717 -0.2121 -0.3803
 8563SOL     OW37324   2.259   0.944  14.704 -0.8532  0.1343  0.4688
 8563SOL    HW137325   2.331   0.961  14.642 -1.6147  0.4413 -0.3366
 8563SOL    HW237326   2.181   0.984  14.665  1.4472  2.0435 -2.2880
 8564SOL     OW37327   1.241   1.482   4.728  0.3391  0.2937  0.1405
 8564SOL    HW137328   1.148   1.501   4.740  0.3830 -1.4199  3.3023
 8564SOL    HW237329   1.269   1.574   4.720 -3.0513  1.3348  0.4486
 8565SOL     OW37330   3.688   3.137  15.789  0.4758 -0.5048  0.2256
 8565SOL    HW137331   3.710   3.173  15.703 -2.1662  2.0928  0.6352
 8565SOL    HW237332   3.603   3.179  15.801  0.7300  0.1345 -0.2213
 8566SOL     OW37333   3.976   4.184  13.608 -0.2448 -0.1364 -0.2675
 8566SOL    HW137334   3.898   4.234  13.583 -1.9041 -2.2374  0.7849
 8566SOL    HW237335   4.028   4.219  13.536  1.4174 -0.7565  0.6330
 8567SOL     OW37336   4.513   1.672   2.050  0.0578 -0.0869  0.2828
 8567SOL    HW137337   4.577   1.612   2.013  2.3510  1.1467  2.2922
 8567SOL    HW237338   4.563   1.748   2.081  1.6079 -1.1394  0.3173
 8568SOL     OW37339   1.201   1.464  10.202  0.2879  0.1061 -0.2717
 8568SOL    HW137340   1.236   1.495  10.285  0.5744 -1.2782  0.1246
 8568SOL    HW237341   1.183   1.548  10.160  0.9418  2.0810  3.4145
 8569SOL     OW37342   0.389   2.560   8.828  0.1940 -0.4097  0.1078
 8569SOL    HW137343   0.296   2.550   8.807  0.4230 -0.4461 -0.8519
 8569SOL    HW237344   0.419   2.482   8.781 -0.3251 -0.5599  0.0220
 8570SOL     OW37345   2.738   1.864  10.361 -0.3386  0.0832  0.1919
 8570SOL    HW137346   2.689   1.783  10.346  1.6019 -0.7765 -1.5034
 8570SOL    HW237347   2.675   1.935  10.347 -0.4515 -0.1763 -0.6231
 8571SOL     OW37348   0.943   1.337   5.600 -0.3321  0.1017 -0.3811
 8571SOL    HW137349   0.964   1.246   5.622 -1.3444  0.1125  0.6371
 8571SOL    HW237350   0.945   1.340   5.505 -1.4368 -0.1777 -0.4143
 8572SOL     OW37351   2.734   4.564  12.472 -0.1066 -0.7997  0.2050
 8572SOL    HW137352   2.789   4.587  12.397 -1.3451  1.0293 -0.1367
 8572SOL    HW237353   2.656   4.532  12.428 -0.2661  0.1300 -0.1950
 8573SOL     OW37354   0.676   4.362   5.123  0.2507 -0.5235  0.1627
 8573SOL    HW137355   0.663   4.453   5.094 -2.9211 -0.5543  1.4369
 8573SOL    HW237356   0.742   4.376   5.191  2.0439 -2.1689 -1.2477
 8574SOL     OW37357   0.313   0.120   0.461 -0.5246 -0.0102 -0.1318
 8574SOL    HW137358   0.346   0.072   0.385  1.8370  1.3558  0.0315
 8574SOL    HW237359   0.379   0.098   0.526 -1.5019 -1.4409  0.3581
 8575SOL     OW37360   1.781   3.434   6.700 -0.3179  0.8224  0.7266
 8575SOL    HW137361   1.796   3.365   6.764  0.1184  2.0649  1.9682
 8575SOL    HW237362   1.784   3.515   6.752  2.1818  1.2305 -0.0554
 8576SOL     OW37363   2.872   3.959   3.267  0.6023 -0.4173  0.1644
 8576SOL    HW137364   2.882   4.031   3.330  0.1215  0.8749 -1.2219
 8576SOL    HW237365   2.812   3.898   3.309  2.1856 -1.2300  1.2368
 8577SOL     OW37366   0.325   2.479   5.452 -0.5974 -0.7195  0.2554
 8577SOL    HW137367   0.401   2.425   5.474 -0.4605  0.2384  2.1060
 8577SOL    HW237368   0.272   2.462   5.530  0.7012 -1.8104  0.9023
 8578SOL     OW37369   2.885   3.275   4.597  0.9728 -0.4606 -0.2508
 8578SOL    HW137370   2.791   3.288   4.589  1.0912  0.7346  0.2671
 8578SOL    HW237371   2.935   3.347   4.558  0.1432  0.8863  1.1656
 8579SOL     OW37372   1.556   4.693   1.104  0.1171  0.1093 -0.3139
 8579SOL    HW137373   1.646   4.664   1.085  0.8534  0.8403  2.0846
 8579SOL    HW237374   1.559   4.730   1.192 -0.3685 -0.3015 -0.1297
 8580SOL     OW37375   1.869   4.249   3.624 -0.1821  0.0758 -0.1885
 8580SOL    HW137376   1.915   4.328   3.596 -0.6455 -0.2861 -1.9715
 8580SOL    HW237377   1.815   4.240   3.545  0.1499 -0.2535 -0.3799
 8581SOL     OW37378   0.594   1.471  17.076  0.5952 -0.0464  0.3500
 8581SOL    HW137379   0.657   1.490  17.146  1.8959 -0.9906 -0.5503
 8581SOL    HW237380   0.533   1.436  17.140  0.0256 -1.0585 -0.7461
 8582SOL     OW37381   2.513   3.519   5.948  0.4003  0.4616  0.5290
 8582SOL    HW137382   2.560   3.585   5.999  1.5701 -0.5419  0.7615
 8582SOL    HW237383   2.538   3.437   5.990  0.2596 -0.3309 -0.9197
 8583SOL     OW37384   0.349   2.478   2.870  0.7912 -0.8525 -0.4481
 8583SOL    HW137385   0.294   2.402   2.851  0.8633 -0.9059 -0.4459
 8583SOL    HW237386   0.352   2.462   2.964  1.5543  2.7086  0.1267
 8584SOL     OW37387   4.525   0.189  13.798 -0.2893  0.0841  0.6653
 8584SOL    HW137388   4.519   0.093  13.800  0.4445  0.0276  0.4378
 8584SOL    HW237389   4.615   0.200  13.830  0.7218 -0.8062 -1.8367
 8585SOL     OW37390   1.882   3.142   8.933  0.5071  0.4083  0.1415
 8585SOL    HW137391   1.842   3.190   9.005 -0.7353  0.6927 -0.7336
 8585SOL    HW237392   1.858   3.050   8.939  0.8518  0.1967 -1.7267
 8586SOL     OW37393   0.257   3.086   4.632 -0.2213 -0.0486  0.5634
 8586SOL    HW137394   0.314   3.070   4.556  0.0237 -0.6845  0.8770
 8586SOL    HW237395   0.284   3.174   4.657 -1.4394  0.5051 -0.0750
 8587SOL     OW37396   1.506   4.434   5.609 -0.1148 -0.4476 -0.1696
 8587SOL    HW137397   1.578   4.493   5.628 -0.7325  0.0724  0.5343
 8587SOL    HW237398   1.447   4.447   5.683 -1.8058 -4.2705 -0.7983
 8588SOL     OW37399   3.422   1.309   9.491  0.0911 -0.4646  0.0593
 8588SOL    HW137400   3.375   1.389   9.465  0.0152  0.4761  3.0405
 8588SOL    HW237401   3.397   1.303   9.584 -0.3536 -3.0012 -0.2234
 8589SOL     OW37402   1.301   1.425   2.888 -0.1809  0.2741 -0.4005
 8589SOL    HW137403   1.259   1.494   2.836  0.5096  0.6734 -0.4280
 8589SOL    HW237404   1.264   1.444   2.975  1.7236 -0.0959  0.5077
 8590SOL     OW37405   1.705   1.994   8.739  0.2634 -0.3518  0.1175
 8590SOL    HW137406   1.799   2.009   8.728 -0.0747  0.2813 -1.8275
 8590SOL    HW237407   1.673   2.077   8.773 -0.9185 -0.9683  0.4986
 8591SOL     OW37408   0.195   2.042   3.469  0.1179 -0.0081  0.2821
 8591SOL    HW137409   0.220   2.115   3.526  1.5141 -0.8311  0.6994
 8591SOL    HW237410   0.276   1.998   3.447  1.6345  2.7020  0.4424
 8592SOL     OW37411   0.404   2.036   0.521 -0.1346 -0.0300  0.2515
 8592SOL    HW137412   0.386   2.127   0.497 -0.3232 -0.1690 -0.1271
 8592SOL    HW237413   0.357   1.979   0.461  1.7822 -2.6233  1.1929
 8593SOL     OW37414   3.709   3.953   5.478  1.0380  0.3697 -0.2928
 8593SOL    HW137415   3.697   4.000   5.561  1.5221 -1.7281  0.9701
 8593SOL    HW237416   3.803   3.961   5.459  1.4070 -2.6113  0.3368
 8594SOL     OW37417   4.160   3.024   8.852  0.4923  0.5867  0.2726
 8594SOL    HW137418   4.196   2.969   8.922 -1.3730  1.8028  2.1776
 8594SOL    HW237419   4.136   3.091   8.916 -0.3040 -0.6783  1.3041
 8595SOL     OW37420   3.007   0.652   1.395 -0.1889  0.2817 -0.0082
 8595SOL    HW137421   2.926   0.612   1.364 -0.2110  1.7767 -1.9530
 8595SOL    HW237422   3.044   0.582   1.447  0.4900 -1.1576 -2.4203
 8596SOL     OW37423   3.155   2.531   8.182 -0.0925 -0.2764  0.1466
 8596SOL    HW137424   3.161   2.490   8.268 -1.6298  0.9661  0.8478
 8596SOL    HW237425   3.199   2.463   8.130 -1.7810 -0.1433 -1.4450
 8597SOL     OW37426   4.170   1.925   9.458 -0.0142 -0.1764  0.0449
 8597SOL    HW137427   4.214   1.915   9.374 -0.5805 -0.4826 -0.2169
 8597SOL    HW237428   4.091   1.873   9.443 -0.5580  0.1689  1.7887
 8598SOL     OW37429   1.714   0.575   0.295  0.0824 -0.5063  0.4985
 8598SOL    HW137430   1.644   0.639   0.281 -1.3274 -2.0738  0.3685
 8598SOL    HW237431   1.712   0.575   0.391  1.3028  0.5609  0.5187
 8599SOL     OW37432   0.357   2.175   6.078 -0.1203 -0.1338  0.0169
 8599SOL    HW137433   0.394   2.106   6.023 -0.0833  2.0677 -2.6971
 8599SOL    HW237434   0.420   2.177   6.150  1.5341  2.0732 -1.5030
 8600SOL     OW37435   3.650   2.594   7.475  0.1868 -0.6284  0.3220
 8600SOL    HW137436   3.602   2.659   7.424  1.5268 -0.3647 -0.5816
 8600SOL    HW237437   3.701   2.651   7.533 -0.5057  1.2695 -0.9569
 8601SOL     OW37438   3.294   0.558  15.000  0.0424  0.3172  0.1772
 8601SOL    HW137439   3.276   0.651  15.014  0.2185  0.2115  1.1084
 8601SOL    HW237440   3.381   0.552  15.039 -0.8229  4.7087  2.7715
 8602SOL     OW37441   2.424   1.502  13.108 -0.1525 -0.2059  0.1002
 8602SOL    HW137442   2.480   1.479  13.183  0.0816  0.0820  0.0150
 8602SOL    HW237443   2.426   1.597  13.100 -1.6749 -0.3294 -1.6867
 8603SOL     OW37444   3.561   3.764   1.940 -0.6355 -0.0437  0.1501
 8603SOL    HW137445   3.624   3.711   1.988 -1.3434  0.6613  1.8455
 8603SOL    HW237446   3.536   3.709   1.866 -1.8189  1.4375 -0.5656
 8604SOL     OW37447   3.227   3.716   8.378  0.2835  0.0033  0.5836
 8604SOL    HW137448   3.145   3.714   8.330  0.9992 -0.7959 -0.5965
 8604SOL    HW237449   3.274   3.793   8.344 -0.1663 -0.0890 -0.2329
 8605SOL     OW37450   3.106   0.440   4.524 -0.1818 -0.4881  0.5264
 8605SOL    HW137451   3.082   0.477   4.609 -2.9298 -2.1971  0.4990
 8605SOL    HW237452   3.096   0.347   4.541  1.8405 -0.7926 -0.0220
 8606SOL     OW37453   0.828   2.502   7.620  0.5744 -0.4177  0.1050
 8606SOL    HW137454   0.743   2.541   7.640  0.2909 -0.6850 -0.5558
 8606SOL    HW237455   0.861   2.541   7.539 -0.4301  0.9672  0.3736
 8607SOL     OW37456   0.689   0.311   7.255  0.1699  0.5921  0.3161
 8607SOL    HW137457   0.630   0.368   7.304 -0.6286  0.8148 -0.9034
 8607SOL    HW237458   0.707   0.372   7.183 -0.0052 -0.0109 -0.2458
 8608SOL     OW37459   1.756   1.103   6.731 -0.1555  0.0359 -0.4216
 8608SOL    HW137460   1.718   1.097   6.644 -1.3701  1.4864 -0.0078
 8608SOL    HW237461   1.725   1.024   6.775 -2.0641  1.9462  1.6988
 8609SOL     OW37462   4.259   2.829   4.876  0.3085 -0.2761 -0.0497
 8609SOL    HW137463   4.321   2.790   4.813  0.7358 -0.2003  0.3225
 8609SOL    HW237464   4.318   2.900   4.902  0.3228 -0.5478  0.6444
 8610SOL     OW37465   2.210   3.958   7.940  0.0070 -0.5018 -0.3036
 8610SOL    HW137466   2.138   4.010   7.978 -1.4222 -0.4449 -3.1068
 8610SOL    HW237467   2.283   3.981   7.998  0.1454 -1.5140 -0.0845
 8611SOL     OW37468   4.636   1.530  17.347  0.1605  0.5810 -0.1330
 8611SOL    HW137469   4.671   1.572  17.269  0.2537  0.4044 -0.1867
 8611SOL    HW237470   4.571   1.599  17.357  0.2480  0.9752 -2.3855
 8612SOL     OW37471   3.895   4.030   8.007  0.0364 -0.1332 -0.7976
 8612SOL    HW137472   3.921   4.102   8.066 -1.9795 -0.2575  0.2412
 8612SOL    HW237473   3.801   4.045   7.996 -0.3671 -2.2052 -0.1971
 8613SOL     OW37474   0.161   2.898   2.469 -0.1486  0.0487 -0.2196
 8613SOL    HW137475   0.121   2.812   2.474  0.5387 -0.3331 -1.2582
 8613SOL    HW237476   0.082   2.952   2.473 -1.9066 -2.6905  1.6054
 8614SOL     OW37477   0.301   4.495   3.517  0.1598 -0.3612 -0.3239
 8614SOL    HW137478   0.362   4.422   3.522 -0.3508 -0.8251 -0.9130
 8614SOL    HW237479   0.253   4.462   3.441 -0.1533 -0.4007 -0.1068
 8615SOL     OW37480   0.784   4.073  14.953  0.0247  0.5180 -0.0858
 8615SOL    HW137481   0.708   4.016  14.968  1.4347 -2.0116 -2.6938
 8615SOL    HW237482   0.853   4.007  14.944  2.2678  3.1295 -2.0527
 8616SOL     OW37483   4.524   0.757   7.980  0.6551  0.5823 -0.3144
 8616SOL    HW137484   4.573   0.675   7.969 -0.6451 -0.4602  1.6040
 8616SOL    HW237485   4.588   0.822   8.009  2.1599 -0.1080 -2.0839
 8617SOL     OW37486   1.420   3.019  13.623  0.3702  0.5798  0.4201
 8617SOL    HW137487   1.490   3.082  13.606  0.0366  0.7882 -0.1748
 8617SOL    HW237488   1.424   3.013  13.718 -1.1710  0.8693  0.5082
 8618SOL     OW37489   0.082   3.403   0.956 -0.0061 -0.1782  0.2080
 8618SOL    HW137490   0.091   3.451   1.038  3.4259  1.3900 -1.0681
 8618SOL    HW237491   4.726   3.406   0.963  0.0663  0.4609  0.9178
 8619SOL     OW37492   2.665   1.084   8.550  0.6125 -0.2300  0.3883
 8619SOL    HW137493   2.619   1.005   8.578  0.2909  0.1120  0.8253
 8619SOL    HW237494   2.753   1.048   8.564  1.0181  0.9791  1.0402
 8620SOL     OW37495   0.358   0.658   6.134  0.3388 -0.5339  0.5190
 8620SOL    HW137496   0.391   0.620   6.215  1.7043 -1.0388 -0.2634
 8620SOL    HW237497   0.268   0.627   6.132 -0.3329  1.4393  1.1773
 8621SOL     OW37498   2.030   3.193   1.264 -0.2555 -0.2909 -0.5241
 8621SOL    HW137499   2.073   3.177   1.180  1.5083  0.4409  0.2454
 8621SOL    HW237500   1.965   3.124   1.249 -1.5073  0.6928  0.4054
 8622SOL     OW37501   1.715   1.644  16.809 -0.4574  0.8608 -0.0229
 8622SOL    HW137502   1.649   1.599  16.863  0.5577 -1.6965 -0.9092
 8622SOL    HW237503   1.681   1.733  16.818 -0.1617  1.0457 -0.7261
 8623SOL     OW37504   4.674   4.474   4.049 -0.2040  0.0781  0.3003
 8623SOL    HW137505   4.580   4.453   4.048  0.1355 -1.4360  0.7170
 8623SOL    HW237506   4.692   4.490   4.142 -0.7494  1.4290  0.1774
 8624SOL     OW37507   4.184   4.732   6.070 -0.5234  0.2173  0.0010
 8624SOL    HW137508   4.197   0.076   6.114  0.2545 -0.4626  1.0393
 8624SOL    HW237509   4.255   4.688   6.115 -2.0763 -0.9358  1.3279
 8625SOL     OW37510   3.960   3.390   3.409 -0.1600 -0.8015  0.1083
 8625SOL    HW137511   4.035   3.362   3.357 -0.1980  1.2976 -1.1268
 8625SOL    HW237512   3.981   3.327   3.477 -1.8760 -0.7259  0.7213
 8626SOL     OW37513   2.862   1.559   9.920  0.0193  0.2688  0.0396
 8626SOL    HW137514   2.860   1.463   9.921  0.8356  0.2582  0.4676
 8626SOL    HW237515   2.807   1.562   9.842 -1.5797  0.5690  1.1918
 8627SOL     OW37516   1.962   0.858   7.019  0.2169  0.1414  0.2513
 8627SOL    HW137517   2.015   0.781   6.999  0.3323 -0.0194  1.1745
 8627SOL    HW237518   1.880   0.851   6.970  0.4066 -1.9662  0.2743
 8628SOL     OW37519   3.575   0.871   4.630  0.2997  0.7379 -0.9424
 8628SOL    HW137520   3.565   0.941   4.694 -0.7421  0.2694 -0.6000
 8628SOL    HW237521   3.486   0.856   4.598  0.3802  0.0258 -0.8275
 8629SOL     OW37522   1.005   2.611   9.662 -0.0923 -0.3461 -0.4354
 8629SOL    HW137523   0.949   2.608   9.740  2.0941  2.5575  1.2455
 8629SOL    HW237524   1.020   2.706   9.665 -0.5213 -0.3143  0.8031
 8630SOL     OW37525   2.796   4.121   4.113  0.1617 -0.5427 -0.3546
 8630SOL    HW137526   2.817   4.027   4.111 -2.2525 -1.1124  0.4470
 8630SOL    HW237527   2.715   4.121   4.165 -0.3571  0.9435 -1.1776
 8631SOL     OW37528   2.741   1.550  14.923 -0.0343  0.3433  0.1936
 8631SOL    HW137529   2.723   1.613  14.993  1.3189 -0.1078  0.9566
 8631SOL    HW237530   2.836   1.538  14.931  0.0737  1.7662  1.0329
 8632SOL     OW37531   3.502   2.402   5.417  0.1707 -0.0380  0.0172
 8632SOL    HW137532   3.443   2.477   5.405  0.4299  0.2534  0.6219
 8632SOL    HW237533   3.586   2.431   5.381 -0.8331  3.6753  0.6944
 8633SOL     OW37534   4.367   3.809   4.338 -0.4096 -0.1812  0.2530
 8633SOL    HW137535   4.322   3.892   4.354  2.2819  1.2286  0.5463
 8633SOL    HW237536   4.396   3.818   4.247  1.5150 -1.1044  0.7765
 8634SOL     OW37537   1.537   1.726   7.332  0.3027 -0.0402 -0.2754
 8634SOL    HW137538   1.607   1.789   7.318  1.2264 -0.5853  1.9325
 8634SOL    HW237539   1.464   1.788   7.333 -0.0298 -0.3868 -1.7874
 8635SOL     OW37540   2.063   3.576   3.383  0.0385  0.0345  0.3194
 8635SOL    HW137541   1.973   3.570   3.415 -0.9875  2.9276 -1.9765
 8635SOL    HW237542   2.067   3.512   3.312 -2.8862  0.3892 -0.1458
 8636SOL     OW37543   4.178   1.239  16.849 -0.0619  0.0808  0.2985
 8636SOL    HW137544   4.239   1.262  16.918  0.4006  2.5493 -0.9518
 8636SOL    HW237545   4.190   1.314  16.792  0.3843 -1.0637 -1.1152
 8637SOL     OW37546   1.998   1.866   2.990 -0.1935 -0.2082  0.1664
 8637SOL    HW137547   2.015   1.959   3.002 -0.1376 -0.0190 -1.4533
 8637SOL    HW237548   1.920   1.849   3.042 -0.7954 -2.7675 -1.5390
 8638SOL     OW37549   3.968   2.152   2.681  0.5591 -0.0669  0.6952
 8638SOL    HW137550   3.872   2.153   2.681  0.5470 -0.2814 -0.5294
 8638SOL    HW237551   3.987   2.191   2.766  1.4090 -1.4756  1.1540
 8639SOL     OW37552   4.664   3.126   4.078 -0.2161  0.5568  0.0649
 8639SOL    HW137553   4.732   3.147   4.143 -0.1286  2.6746 -0.7276
 8639SOL    HW237554   4.617   3.056   4.123 -1.6678  1.2747 -0.3473
 8640SOL     OW37555   0.427   3.457  14.132  0.1325 -0.5338 -0.2396
 8640SOL    HW137556   0.497   3.482  14.071 -0.0214 -2.0785 -1.0612
 8640SOL    HW237557   0.356   3.459  14.068 -0.7030  2.6532  0.7919
 8641SOL     OW37558   0.836   2.369   1.939 -0.3208 -0.0380 -0.0273
 8641SOL    HW137559   0.926   2.379   1.970  0.5437 -1.7456 -1.9898
 8641SOL    HW237560   0.793   2.447   1.974 -2.5729 -0.5164 -1.7078
 8642SOL     OW37561   1.116   0.272   5.093 -0.4594  0.2750  0.0452
 8642SOL    HW137562   1.166   0.191   5.103  3.1410  2.3066 -1.6713
 8642SOL    HW237563   1.045   0.237   5.040 -1.1062 -0.1018  1.1493
 8643SOL     OW37564   3.642   2.625  17.394  0.0527  0.1555  0.4146
 8643SOL    HW137565   3.676   2.571  17.323 -0.4861  0.8277 -0.3525
 8643SOL    HW237566   3.686   2.584  17.469  2.1168 -1.7609 -1.8005
 8644SOL     OW37567   1.845   4.548   4.192 -0.1045  0.5935 -0.2913
 8644SOL    HW137568   1.789   4.571   4.266  1.3852 -1.2922  1.4659
 8644SOL    HW237569   1.828   4.614   4.125  0.9611  1.0174 -0.1541
 8645SOL     OW37570   0.054   4.587  13.609  0.0333 -0.5616 -0.4761
 8645SOL    HW137571   0.008   4.550  13.534 -0.4747  1.4804 -1.1862
 8645SOL    HW237572   0.115   4.649  13.569 -2.1863  1.8228 -0.1737
 8646SOL     OW37573   0.843   0.371  16.738  0.2110 -0.2616 -0.3638
 8646SOL    HW137574   0.868   0.414  16.820 -0.8775 -0.0314 -0.1563
 8646SOL    HW237575   0.752   0.353  16.763  0.4339  1.5767  1.6870
 8647SOL     OW37576   4.624   1.475   0.121  0.3522 -0.0213 -0.0741
 8647SOL    HW137577   4.630   1.568   0.101  0.1912 -0.4854 -2.3126
 8647SOL    HW237578   4.709   1.443   0.092 -0.4697  1.1755 -3.8259
 8648SOL     OW37579   0.029   0.678   4.100 -0.4201  0.5833  0.4266
 8648SOL    HW137580   4.690   0.722   4.068 -0.9727  0.4662  1.6282
 8648SOL    HW237581   0.024   0.711   4.190 -1.3712  1.0254  0.2104
 8649SOL     OW37582   4.665   0.359   6.954  0.1118  0.4331  0.1160
 8649SOL    HW137583   4.580   0.316   6.965 -0.2106  1.0584  0.0463
 8649SOL    HW237584   4.713   0.296   6.899 -0.7681 -0.0886 -0.0521
 8650SOL     OW37585   1.754   0.458   2.849 -0.2592 -0.0385 -0.0983
 8650SOL    HW137586   1.765   0.503   2.932  2.9800  0.0418 -0.5495
 8650SOL    HW237587   1.803   0.524   2.799 -0.4080  0.6411  0.6524
 8651SOL     OW37588   0.086   0.562  15.303 -0.3577 -0.1500  0.0785
 8651SOL    HW137589   4.731   0.549  15.316 -0.3385  1.3621  1.7392
 8651SOL    HW237590   0.097   0.642  15.251 -0.2063 -1.2874 -1.6556
 8652SOL     OW37591   2.959   4.001   6.673 -0.2921 -0.2591  0.2783
 8652SOL    HW137592   2.920   4.069   6.727 -0.0714 -1.5571  2.0952
 8652SOL    HW237593   2.883   3.955   6.638  1.5548 -1.2248 -2.5401
 8653SOL     OW37594   1.918   2.201  11.299 -0.5145 -0.0993  0.4267
 8653SOL    HW137595   1.933   2.225  11.208 -0.7067 -0.7720  0.2211
 8653SOL    HW237596   1.960   2.116  11.316 -1.3776 -0.1882  2.1093
 8654SOL     OW37597   2.810   4.196   6.772  0.2395  0.6218  0.0354
 8654SOL    HW137598   2.812   4.207   6.867 -1.5386 -0.0635  0.1507
 8654SOL    HW237599   2.716   4.192   6.754  0.2465  1.6145 -0.2125
 8655SOL     OW37600   2.880   1.698   9.432 -0.3408 -0.4971  0.0008
 8655SOL    HW137601   2.916   1.643   9.362 -1.3478 -0.2540 -0.7097
 8655SOL    HW237602   2.943   1.691   9.503  0.9905 -1.9476 -1.3222
 8656SOL     OW37603   0.563   2.307   0.508 -0.2824  0.8470 -0.4670
 8656SOL    HW137604   0.607   2.342   0.430 -1.3680  1.8750 -0.6192
 8656SOL    HW237605   0.507   2.380   0.536  2.2390  1.9891  1.6149
 8657SOL     OW37606   2.689   4.584   1.056 -0.2895  0.0594 -0.8716
 8657SOL    HW137607   2.712   4.677   1.066 -2.0206  0.0328  3.3090
 8657SOL    HW237608   2.613   4.585   1.114  0.5735 -0.1726  0.2783
 8658SOL     OW37609   2.730   0.302   1.801  0.1988 -0.2508 -0.2226
 8658SOL    HW137610   2.769   0.291   1.714  1.3396  1.0901  0.1166
 8658SOL    HW237611   2.736   0.396   1.816 -4.4038  0.2993 -2.0072
 8659SOL     OW37612   0.520   1.527   2.023 -0.5026 -0.1557 -0.0991
 8659SOL    HW137613   0.578   1.573   2.083  0.1973 -3.3434  1.6518
 8659SOL    HW237614   0.498   1.448   2.072  0.2061 -0.0289  0.4148
 8660SOL     OW37615   1.040   1.582   8.466 -0.0076  0.1266  0.0554
 8660SOL    HW137616   0.950   1.594   8.435  1.4468  0.3452 -4.0911
 8660SOL    HW237617   1.040   1.489   8.487 -3.0183  0.1530  0.1329
 8661SOL     OW37618   4.589   1.644   4.722  0.4510 -0.1978 -0.3923
 8661SOL    HW137619   4.649   1.713   4.751  1.6646 -2.3151  2.1576
 8661SOL    HW237620   4.627   1.570   4.770 -1.3467  0.2219  1.6858
 8662SOL     OW37621   3.698   0.299   9.510 -0.3352 -0.3907 -0.4069
 8662SOL    HW137622   3.787   0.281   9.541 -0.6700 -3.0300 -1.0185
 8662SOL    HW237623   3.696   0.393   9.490 -0.5583 -0.2389  0.3274
 8663SOL     OW37624   2.913   3.815   3.825  0.1365 -0.2012 -0.4331
 8663SOL    HW137625   2.880   3.728   3.803 -0.1450  0.2363 -1.7582
 8663SOL    HW237626   2.983   3.838   3.763  0.6339  0.4032  0.3609
 8664SOL     OW37627   0.971   0.723  16.551 -0.2901 -0.3237 -0.5796
 8664SOL    HW137628   0.925   0.746  16.632 -0.7191  1.4702 -1.3377
 8664SOL    HW237629   1.029   0.655  16.586 -0.9092 -1.3243 -1.5112
 8665SOL     OW37630   1.169   2.763   2.134  0.4256  0.1792  0.9179
 8665SOL    HW137631   1.150   2.675   2.164  0.4846 -0.1884 -0.1018
 8665SOL    HW237632   1.229   2.788   2.204 -0.2426  1.5601  0.9978
 8666SOL     OW37633   2.764   1.740   2.737 -0.1614  0.1753  0.0160
 8666SOL    HW137634   2.678   1.702   2.756 -0.0114 -0.5604 -0.7904
 8666SOL    HW237635   2.775   1.728   2.643 -0.0963  0.1068  0.0321
 8667SOL     OW37636   1.217   1.689  17.622  0.3879 -0.0342  0.4686
 8667SOL    HW137637   1.141   1.719  17.572 -0.9138 -2.8142  0.8021
 8667SOL    HW237638   1.244   1.768  17.669  1.1920  0.4845 -0.8663
 8668SOL     OW37639   4.409   2.297   1.859  0.3034  0.1943 -0.0131
 8668SOL    HW137640   4.427   2.307   1.953  1.7545  0.9769 -0.3696
 8668SOL    HW237641   4.340   2.364   1.851 -1.6021 -1.9426 -1.3257
 8669SOL     OW37642   3.403   3.109   5.637  0.1693  0.1639  0.4322
 8669SOL    HW137643   3.401   3.190   5.586 -1.4113 -0.7147 -0.9088
 8669SOL    HW237644   3.471   3.125   5.702  0.3756  0.2156  0.2053
 8670SOL     OW37645   0.612   0.873  12.634  0.1444 -0.1209 -0.9034
 8670SOL    HW137646   0.629   0.869  12.540  0.9139 -1.2352 -0.7123
 8670SOL    HW237647   0.521   0.843  12.641  0.7702 -1.8119  0.1084
 8671SOL     OW37648   3.808   2.423  10.161 -0.0471  0.7195 -0.6965
 8671SOL    HW137649   3.827   2.512  10.132 -0.9489  1.0648 -0.2137
 8671SOL    HW237650   3.829   2.430  10.254 -2.1983  0.4705 -0.1960
 8672SOL     OW37651   4.285   4.702   2.386  0.3711  0.1375  0.4488
 8672SOL    HW137652   4.240   4.721   2.304  1.8390  0.4044 -0.2958
 8672SOL    HW237653   4.258   4.611   2.398 -0.5350  0.2124 -1.0131
 8673SOL     OW37654   1.408   3.278   8.007  0.2199  0.5806 -0.3398
 8673SOL    HW137655   1.421   3.340   7.935  0.7965 -1.8350 -2.3065
 8673SOL    HW237656   1.362   3.205   7.966 -2.8066  2.3036 -0.0886
 8674SOL     OW37657   3.053   2.378   2.694  0.0211  0.4944  0.1267
 8674SOL    HW137658   3.005   2.296   2.685 -1.9653  2.0800 -3.3382
 8674SOL    HW237659   2.992   2.445   2.665 -0.1440  0.4974  0.4747
 8675SOL     OW37660   2.603   4.108   4.976 -0.0254 -0.0986 -0.2991
 8675SOL    HW137661   2.592   4.183   4.918 -1.4414  3.1439  4.1953
 8675SOL    HW237662   2.517   4.071   4.956  0.1645 -1.1390  0.8062
 8676SOL     OW37663   2.744   3.281  11.965  0.2939  0.2145  0.3635
 8676SOL    HW137664   2.782   3.267  12.052  2.0219 -0.9336 -0.5641
 8676SOL    HW237665   2.821   3.322  11.925  1.5685 -0.7324  1.8264
 8677SOL     OW37666   4.333   4.427   7.995  0.6865 -0.0498  0.2441
 8677SOL    HW137667   4.286   4.347   8.018  1.6088 -0.0149  2.2104
 8677SOL    HW237668   4.346   4.470   8.079 -0.7637  1.5759 -0.3528
 8678SOL     OW37669   0.059   0.205   0.511  0.1371 -0.2418  0.6055
 8678SOL    HW137670   0.154   0.197   0.521  0.4207 -0.5928 -2.2551
 8678SOL    HW237671   0.035   0.210   0.603  1.0235  0.7421  0.7886
 8679SOL     OW37672   3.777   2.658  13.023 -0.6976  0.3419  0.1052
 8679SOL    HW137673   3.857   2.656  13.076 -0.7171 -1.1781  0.0824
 8679SOL    HW237674   3.711   2.650  13.092  0.7171  2.2788  1.6995
 8680SOL     OW37675   3.725   0.754   3.107 -0.0328 -0.4479  0.6913
 8680SOL    HW137676   3.730   0.843   3.071 -0.7482 -0.8598 -0.4337
 8680SOL    HW237677   3.801   0.751   3.165  1.2347  1.5444 -0.8329
 8681SOL     OW37678   0.763   4.088   5.009 -0.1054  0.0032 -0.0978
 8681SOL    HW137679   0.805   4.150   4.950  3.2594 -2.0413  0.1909
 8681SOL    HW237680   0.675   4.125   4.999  0.2883  1.3259  1.2712
 8682SOL     OW37681   1.233   4.558   8.434  0.6173  0.0433 -0.2602
 8682SOL    HW137682   1.310   4.572   8.379 -0.1381 -0.3058 -1.4038
 8682SOL    HW237683   1.157   4.562   8.376  0.1503  1.6919  0.4587
 8683SOL     OW37684   2.924   0.518  12.921  0.0942  0.1144  0.6540
 8683SOL    HW137685   2.838   0.554  12.943 -0.6339 -2.5413  2.2143
 8683SOL    HW237686   2.974   0.599  12.925  1.2586 -0.4596 -2.1140
 8684SOL     OW37687   4.250   1.427   6.181  0.6697 -0.3394 -0.0781
 8684SOL    HW137688   4.295   1.508   6.205  1.5845 -0.5718 -0.9712
 8684SOL    HW237689   4.191   1.442   6.108  1.6501 -0.5363 -0.9066
 8685SOL     OW37690   1.585   3.308  11.538  0.0608  0.6505 -0.0593
 8685SOL    HW137691   1.554   3.242  11.600  1.4018  1.4350  1.4600
 8685SOL    HW237692   1.677   3.280  11.539 -0.3533 -0.8574 -3.0886
 8686SOL     OW37693   2.866   2.518   4.587  0.2741  0.8009 -0.2638
 8686SOL    HW137694   2.824   2.582   4.645  0.0680 -0.4094  0.9161
 8686SOL    HW237695   2.950   2.558   4.568 -0.5140  2.9328  0.7663
 8687SOL     OW37696   2.433   2.767   4.788 -0.3600 -0.4545 -0.2956
 8687SOL    HW137697   2.422   2.808   4.874 -2.5713  1.6148 -1.5810
 8687SOL    HW237698   2.452   2.676   4.812 -1.5645 -0.5612  0.2304
 8688SOL     OW37699   3.026   1.179  13.543  0.2185  0.2160 -0.5069
 8688SOL    HW137700   3.061   1.118  13.477  0.6528 -1.2137  1.0515
 8688SOL    HW237701   3.073   1.147  13.620 -0.8670 -1.5536 -0.5890
 8689SOL     OW37702   2.795   1.939   8.482  0.0426  0.3854 -0.0060
 8689SOL    HW137703   2.773   1.847   8.472 -0.6255  0.1204  4.0344
 8689SOL    HW237704   2.884   1.940   8.446 -0.1059  1.3424 -0.3496
 8690SOL     OW37705   0.560   1.674  15.679 -0.1886  0.4833 -0.2405
 8690SOL    HW137706   0.627   1.676  15.748  0.6514 -0.2943 -1.0254
 8690SOL    HW237707   0.482   1.708  15.723  0.6139  0.5019  1.1647
 8691SOL     OW37708   4.736   0.899   0.154 -0.0231  0.1462 -0.6290
 8691SOL    HW137709   0.012   0.808   0.130  1.7551 -0.4456  2.7389
 8691SOL    HW237710   4.665   0.887   0.218 -0.2691 -1.1618 -1.1517
 8692SOL     OW37711   3.604   3.218   6.477  0.4165  0.0384  0.1005
 8692SOL    HW137712   3.588   3.296   6.423  0.7123 -0.1134 -0.2082
 8692SOL    HW237713   3.514   3.205   6.507  0.6334  0.5388  0.9633
 8693SOL     OW37714   2.094   0.618   2.944  0.1970 -0.1908 -0.1553
 8693SOL    HW137715   2.171   0.656   2.986  1.6675 -1.9731 -1.2580
 8693SOL    HW237716   2.057   0.575   3.022  0.2328  0.1529  0.0518
 8694SOL     OW37717   2.722   2.323  11.530 -0.2935 -0.0441 -0.2583
 8694SOL    HW137718   2.759   2.301  11.444 -0.3152  0.3009 -0.3581
 8694SOL    HW237719   2.645   2.267  11.522 -0.8183  0.2651  2.8921
 8695SOL     OW37720   4.073   3.052   8.201  0.2492  0.0056  0.0082
 8695SOL    HW137721   4.083   3.104   8.281  0.7250  2.9541 -1.9545
 8695SOL    HW237722   3.993   3.091   8.167 -0.0912  0.6123  1.4934
 8696SOL     OW37723   0.674   1.630   6.715 -0.0661  0.4374 -0.2277
 8696SOL    HW137724   0.705   1.543   6.689  1.9599  0.8918  0.6129
 8696SOL    HW237725   0.699   1.629   6.807  2.6818 -1.8593 -0.9947
 8697SOL     OW37726   2.637   4.250   5.341  0.1456 -0.5530 -0.2056
 8697SOL    HW137727   2.703   4.254   5.271 -0.3206  1.5170 -0.5328
 8697SOL    HW237728   2.676   4.311   5.403 -0.8499 -0.3229  0.1922
 8698SOL     OW37729   4.587   1.915   6.146 -0.2646 -0.4295 -0.4101
 8698SOL    HW137730   4.666   1.968   6.148 -1.1005  0.7050  2.2848
 8698SOL    HW237731   4.526   1.986   6.130 -1.0925 -1.1556 -0.4826
 8699SOL     OW37732   1.382   2.824   6.522 -0.0145 -0.6231 -0.3061
 8699SOL    HW137733   1.459   2.784   6.482  0.8121  0.1995  0.4514
 8699SOL    HW237734   1.394   2.918   6.504 -2.3050 -0.1883  0.5330
 8700SOL     OW37735   3.764   1.115   8.313  0.4767  1.0254 -0.6766
 8700SOL    HW137736   3.774   1.073   8.398 -0.7878  0.7676 -0.6497
 8700SOL    HW237737   3.673   1.090   8.296  1.0275 -1.7150  0.4126
 8701SOL     OW37738   2.665   4.427   4.709  0.6002  0.2548  0.2603
 8701SOL    HW137739   2.635   4.457   4.794  2.9245  1.7460  0.5671
 8701SOL    HW237740   2.619   4.493   4.657 -0.2466  0.4450  1.2644
 8702SOL     OW37741   0.360   2.451  10.108  0.7838  0.0272 -0.1500
 8702SOL    HW137742   0.351   2.401  10.027  0.5821  2.5363 -1.6679
 8702SOL    HW237743   0.277   2.442  10.155 -0.0780  1.2851 -1.4342
 8703SOL     OW37744   0.279   0.600   4.115  0.1260  0.1988  0.4638
 8703SOL    HW137745   0.192   0.630   4.141  0.1728 -0.0738  0.9323
 8703SOL    HW237746   0.258   0.508   4.096 -1.6658  0.6448  0.2762
 8704SOL     OW37747   0.453   1.940  17.483 -0.0629  0.1688 -0.4461
 8704SOL    HW137748   0.451   1.945  17.579  1.4172  1.0251 -0.4707
 8704SOL    HW237749   0.362   1.911  17.472 -0.3356  0.8937 -0.0839
 8705SOL     OW37750   2.840   0.649   4.960  0.1250  0.7559  0.5492
 8705SOL    HW137751   2.800   0.733   4.983  0.1595  0.0227  3.3518
 8705SOL    HW237752   2.758   0.600   4.966  0.5087  0.0243 -0.1457
 8706SOL     OW37753   0.595   1.859   7.984  0.3248 -0.3647 -0.0969
 8706SOL    HW137754   0.586   1.949   7.954  2.9478  0.0136  0.2410
 8706SOL    HW237755   0.614   1.815   7.901  0.6381  0.2550 -0.3470
 8707SOL     OW37756   0.353   1.345   2.720 -0.2511 -0.3947 -0.0149
 8707SOL    HW137757   0.373   1.299   2.638  2.7862  0.6348  0.1490
 8707SOL    HW237758   0.431   1.388   2.753  0.6001 -1.0866 -1.1200
 8708SOL     OW37759   3.968   4.206   8.200 -0.1038 -0.1608  0.1034
 8708SOL    HW137760   3.979   4.280   8.139 -0.0526 -0.2693 -0.0178
 8708SOL    HW237761   4.040   4.227   8.260 -0.3269  1.3186 -0.1402
 8709SOL     OW37762   2.771   1.888   6.681 -0.1848  0.8332 -0.4184
 8709SOL    HW137763   2.851   1.884   6.733 -1.6993 -1.0875  1.7823
 8709SOL    HW237764   2.818   1.913   6.601 -2.0026 -2.5144 -2.5647
 8710SOL     OW37765   3.964   3.759   5.480 -0.0349 -0.2331  0.4542
 8710SOL    HW137766   3.976   3.723   5.567  2.6872  2.4134  1.1676
 8710SOL    HW237767   3.934   3.677   5.441  1.2272  0.4328 -1.9455
 8711SOL     OW37768   1.204   2.733   8.261  0.2950  0.3214  0.2530
 8711SOL    HW137769   1.125   2.710   8.310 -0.0968  0.1798 -0.4455
 8711SOL    HW237770   1.272   2.702   8.320  0.0363 -2.3500 -0.8744
 8712SOL     OW37771   0.346   2.835   5.799  0.0879 -0.3352  0.0984
 8712SOL    HW137772   0.440   2.855   5.799  0.5713 -2.6738  0.7030
 8712SOL    HW237773   0.329   2.741   5.799 -2.6191  0.1801  0.2084
 8713SOL     OW37774   2.677   1.298   2.345  0.1124  0.4094  0.0602
 8713SOL    HW137775   2.702   1.235   2.413  0.6129 -0.7512 -1.2037
 8713SOL    HW237776   2.759   1.303   2.297  0.0533  0.1582 -0.0644
 8714SOL     OW37777   2.682   1.821   5.484  0.1761  0.3848  0.5985
 8714SOL    HW137778   2.766   1.864   5.504  0.1213  1.1160 -0.7248
 8714SOL    HW237779   2.712   1.750   5.428 -0.2748  2.1340 -1.8363
 8715SOL     OW37780   2.156   3.978   4.611 -0.1790 -0.3930 -0.1317
 8715SOL    HW137781   2.077   4.004   4.565  0.7430  0.4265 -1.2784
 8715SOL    HW237782   2.161   4.037   4.686 -2.9400  2.2777 -2.0490
 8716SOL     OW37783   4.320   0.920  15.396 -0.2683  0.4529 -0.0081
 8716SOL    HW137784   4.337   0.913  15.302  0.1021 -0.1199  0.1077
 8716SOL    HW237785   4.404   0.946  15.433 -0.1212  0.4753 -0.3526
 8717SOL     OW37786   0.452   2.056  16.318 -0.3210  0.3249 -0.7217
 8717SOL    HW137787   0.465   2.009  16.236 -0.6114  3.3672 -2.5281
 8717SOL    HW237788   0.542   2.086  16.332 -0.6476 -0.5856  3.4229
 8718SOL     OW37789   0.199   0.084   7.564 -0.4112  0.2779 -0.1931
 8718SOL    HW137790   0.167   0.052   7.649  1.4503 -0.9540  0.0521
 8718SOL    HW237791   0.147   0.026   7.510  2.0401 -1.0572 -1.1283
 8719SOL     OW37792   1.467   0.364  13.659  0.3598  0.5398  0.2112
 8719SOL    HW137793   1.450   0.458  13.652  1.9565  0.8885  0.8126
 8719SOL    HW237794   1.486   0.368  13.753 -0.1014 -0.2069  0.3340
 8720SOL     OW37795   3.594   2.387  12.969 -0.4505  0.2673  0.2526
 8720SOL    HW137796   3.597   2.429  13.055 -0.2219 -0.7929  0.7518
 8720SOL    HW237797   3.602   2.294  12.986 -1.0015 -0.3975 -3.1929
 8721SOL     OW37798   1.752   2.469   3.898 -0.3109 -0.0558 -0.2639
 8721SOL    HW137799   1.812   2.423   3.838  0.6237  0.5883  0.1783
 8721SOL    HW237800   1.750   2.561   3.871 -0.2574  0.5287  1.7306
 8722SOL     OW37801   3.580   2.986   6.695  0.6841  0.9795  0.2188
 8722SOL    HW137802   3.585   2.953   6.605 -0.0938 -0.4014  0.6859
 8722SOL    HW237803   3.487   3.004   6.706  0.5639 -0.5809  1.6996
 8723SOL     OW37804   4.083   2.306  14.354 -0.0871  0.1608  0.2398
 8723SOL    HW137805   3.995   2.325  14.387  0.8843  0.9598  2.3681
 8723SOL    HW237806   4.091   2.349  14.269 -2.5227  0.9049  0.4073
 8724SOL     OW37807   3.582   3.791  14.745 -0.0892  0.4654  0.3696
 8724SOL    HW137808   3.590   3.822  14.655 -0.5995 -0.4782 -0.0027
 8724SOL    HW237809   3.585   3.870  14.798 -3.0188  2.4066 -2.3525
 8725SOL     OW37810   2.347   1.173   8.556  0.4652 -0.2939  0.6249
 8725SOL    HW137811   2.351   1.233   8.481  1.3423  1.0305  1.7205
 8725SOL    HW237812   2.332   1.089   8.513 -2.4785  0.0854  0.9691
 8726SOL     OW37813   3.120   3.429  10.667  0.0347 -0.7000 -0.7294
 8726SOL    HW137814   3.104   3.520  10.691 -1.8334 -0.9268 -1.1153
 8726SOL    HW237815   3.037   3.415  10.620 -0.7594  1.6938 -0.0369
 8727SOL     OW37816   2.286   1.469   0.755 -0.0104  0.1854 -0.0376
 8727SOL    HW137817   2.350   1.530   0.718  0.8587 -0.1855  0.8721
 8727SOL    HW237818   2.329   1.467   0.840 -1.6865  0.5328  0.7990
 8728SOL     OW37819   4.450   0.413   9.296  0.8022 -0.3985 -0.4269
 8728SOL    HW137820   4.367   0.452   9.269  0.5260 -1.0699 -0.5425
 8728SOL    HW237821   4.432   0.393   9.388  1.2513 -0.0173 -0.2546
 8729SOL     OW37822   2.072   2.366  14.476  0.3385 -0.2591  0.0618
 8729SOL    HW137823   2.162   2.399  14.468 -0.3397  2.1584  2.1929
 8729SOL    HW237824   2.032   2.451  14.459 -0.1067 -0.2828  0.9981
 8730SOL     OW37825   2.001   2.030   5.979  0.7703 -0.4579 -0.5269
 8730SOL    HW137826   1.953   2.084   6.042 -0.3239 -2.8659  0.7091
 8730SOL    HW237827   1.977   2.082   5.902 -0.5929 -1.4265 -0.7642
 8731SOL     OW37828   4.029   1.977  12.210  0.4202  0.8440 -0.4330
 8731SOL    HW137829   3.937   1.997  12.225  0.2603 -1.0509  1.0647
 8731SOL    HW237830   4.036   2.017  12.123  0.1840  0.3690 -0.6669
 8732SOL     OW37831   2.593   4.455   0.826  0.1280 -0.0273  0.4079
 8732SOL    HW137832   2.657   4.446   0.896 -1.1758 -2.0733  1.3552
 8732SOL    HW237833   2.652   4.498   0.764  0.8728 -0.8598  0.5388
 8733SOL     OW37834   0.290   3.760   2.486 -0.1354 -0.1026  0.2528
 8733SOL    HW137835   0.291   3.667   2.466  0.1643 -0.3777  1.5474
 8733SOL    HW237836   0.382   3.782   2.500 -0.3733  1.7025 -0.9260
 8734SOL     OW37837   2.198   3.089   3.693 -0.6543 -0.8794 -0.5529
 8734SOL    HW137838   2.214   3.156   3.627 -0.5669 -1.8229 -1.4858
 8734SOL    HW237839   2.103   3.096   3.692 -0.5466  0.6612  1.0385
 8735SOL     OW37840   4.065   2.861   3.361 -0.2215 -0.2450 -0.5342
 8735SOL    HW137841   4.128   2.885   3.428 -1.4920 -0.5549  0.7838
 8735SOL    HW237842   4.000   2.810   3.410 -1.6378  1.1136 -0.9656
 8736SOL     OW37843   0.813   2.476   5.842  0.4732  0.3615 -0.0392
 8736SOL    HW137844   0.751   2.403   5.839 -0.2391  1.0006 -1.0107
 8736SOL    HW237845   0.898   2.431   5.835  0.0548 -0.6247  1.2078
 8737SOL     OW37846   4.306   4.563   4.578 -0.6514  0.2512 -0.3233
 8737SOL    HW137847   4.389   4.611   4.575  1.0548 -2.6111  2.0785
 8737SOL    HW237848   4.257   4.577   4.659  0.0659  0.5011  0.0701
 8738SOL     OW37849   0.236   2.519   3.370 -0.0027  0.3836 -0.1999
 8738SOL    HW137850   0.295   2.458   3.326  0.2508 -2.3920  3.9651
 8738SOL    HW237851   0.149   2.479   3.370  0.7067 -1.1758  1.0355
 8739SOL     OW37852   2.771   3.636   8.101 -0.1268  0.1658  0.0130
 8739SOL    HW137853   2.744   3.545   8.089  0.1214  0.2886 -1.4668
 8739SOL    HW237854   2.689   3.685   8.091 -1.9746 -2.5433  1.9448
 8740SOL     OW37855   1.352   3.375   6.449  0.0134 -0.0569  0.2685
 8740SOL    HW137856   1.374   3.283   6.464  0.9545  0.3539  1.4311
 8740SOL    HW237857   1.426   3.428   6.480  1.3649 -1.1296 -1.0757
 8741SOL     OW37858   3.487   0.998   7.215 -0.1806  0.0109  0.0136
 8741SOL    HW137859   3.544   0.962   7.283 -2.8512  0.2750  2.3636
 8741SOL    HW237860   3.403   1.012   7.257 -0.2930  0.2732 -0.3033
 8742SOL     OW37861   0.125   0.782   1.154  0.4576  0.3124  0.1568
 8742SOL    HW137862   0.132   0.860   1.099 -3.7832  0.0286 -0.7757
 8742SOL    HW237863   0.205   0.793   1.207 -0.5544 -3.3720  2.4239
 8743SOL     OW37864   1.723   2.028  15.927 -0.3375  0.1454  0.3677
 8743SOL    HW137865   1.810   2.067  15.923 -0.0170 -0.4746  1.1510
 8743SOL    HW237866   1.743   1.935  15.936  1.3272  0.3594 -1.0430
 8744SOL     OW37867   4.021   3.481   2.696  0.0112  0.0964 -0.5048
 8744SOL    HW137868   4.016   3.538   2.773 -0.7564 -1.7888  0.8453
 8744SOL    HW237869   4.106   3.438   2.706  1.4652  2.8788 -0.8923
 8745SOL     OW37870   3.361   3.072   3.185  0.2455  0.3629 -0.0388
 8745SOL    HW137871   3.407   3.136   3.239 -0.5021  0.6987  0.1992
 8745SOL    HW237872   3.295   3.032   3.241  1.0379  0.2941  0.8429
 8746SOL     OW37873   4.039   4.448  16.113 -0.4182 -0.0791  0.0380
 8746SOL    HW137874   3.976   4.517  16.096 -0.8248 -0.7532 -1.2173
 8746SOL    HW237875   4.113   4.480  16.060 -1.6819 -1.1024 -2.3464
 8747SOL     OW37876   2.739   0.223   5.272  0.2192 -0.1220 -0.0309
 8747SOL    HW137877   2.749   0.156   5.339  0.6869 -0.1795 -0.1607
 8747SOL    HW237878   2.803   0.190   5.209  0.2661 -0.8539  0.4059
 8748SOL     OW37879   2.222   0.047  11.394  0.6368 -0.8844 -0.2691
 8748SOL    HW137880   2.230   0.123  11.451  1.2409 -1.9287  1.0548
 8748SOL    HW237881   2.258   4.710  11.439  2.2262 -0.5572 -0.9786
 8749SOL     OW37882   4.636   1.973   8.520 -0.0782  0.0339 -0.0439
 8749SOL    HW137883   4.656   2.046   8.461  1.8210 -1.0963 -0.8016
 8749SOL    HW237884   4.542   1.964   8.503 -0.5856  0.6878  2.5271
 8750SOL     OW37885   2.732   2.737  14.287  0.4558 -0.1283  0.1024
 8750SOL    HW137886   2.744   2.783  14.371  1.9253  1.6040 -1.0546
 8750SOL    HW237887   2.713   2.650  14.322  0.3620 -0.3522 -0.5090
 8751SOL     OW37888   2.503   1.646  10.704 -0.2699 -0.8194 -0.7118
 8751SOL    HW137889   2.593   1.662  10.675 -0.0254  0.2032  0.6142
 8751SOL    HW237890   2.484   1.727  10.751 -0.2998 -0.1513 -1.8672
 8752SOL     OW37891   3.649   2.231   1.250 -0.3360  0.1309  0.0220
 8752SOL    HW137892   3.608   2.317   1.260 -1.6077 -0.4417 -0.2081
 8752SOL    HW237893   3.598   2.181   1.314 -1.6253 -1.3687 -2.1799
 8753SOL     OW37894   1.433   1.533   9.524  0.2711  0.7383 -0.4193
 8753SOL    HW137895   1.476   1.564   9.445 -2.3119  2.1289 -1.2784
 8753SOL    HW237896   1.382   1.612   9.542  0.0799  0.9499 -1.9052
 8754SOL     OW37897   1.723   2.273  11.075  0.3258 -0.2069  0.0634
 8754SOL    HW137898   1.677   2.199  11.115  0.8168 -0.2186  0.6016
 8754SOL    HW237899   1.649   2.333  11.068 -0.6327 -1.3344  0.4912
 8755SOL     OW37900   4.250   2.705   3.693 -0.1471  0.2094  0.0693
 8755SOL    HW137901   4.340   2.724   3.666  0.1404  0.1789  1.0056
 8755SOL    HW237902   4.245   2.610   3.704  0.9855 -0.1588 -2.6260
 8756SOL     OW37903   0.590   0.624  12.899 -0.3790  0.3762 -0.4123
 8756SOL    HW137904   0.555   0.537  12.885  0.0481 -0.0146  0.9698
 8756SOL    HW237905   0.610   0.657  12.812 -2.3849 -0.6224 -1.2355
 8757SOL     OW37906   3.563   0.224   5.006  0.1852  0.1522  0.5316
 8757SOL    HW137907   3.554   0.228   5.101  0.5307  0.9989  0.5273
 8757SOL    HW237908   3.626   0.292   4.985 -1.6565  1.8557  0.5203
 8758SOL     OW37909   0.161   0.833   7.848 -0.2906 -0.1459 -0.2539
 8758SOL    HW137910   0.187   0.789   7.767  1.3134 -0.2719  0.3379
 8758SOL    HW237911   0.237   0.891   7.852 -0.3558 -0.1414  0.7544
 8759SOL     OW37912   0.332   1.032   3.979  0.2880 -0.2303 -0.1494
 8759SOL    HW137913   0.267   1.051   3.911 -1.5880 -1.5738  1.3136
 8759SOL    HW237914   0.307   0.942   4.000 -0.8433  0.0530 -0.2918
 8760SOL     OW37915   1.455   0.904   5.345  1.2269  0.3811 -0.0911
 8760SOL    HW137916   1.518   0.952   5.292  2.1842 -1.3779 -0.5535
 8760SOL    HW237917   1.401   0.863   5.277  0.5815  1.9233 -0.5168
 8761SOL     OW37918   2.700   4.097   2.299  0.0346  0.4084  0.0672
 8761SOL    HW137919   2.648   4.175   2.282  1.1454  0.9728 -0.7311
 8761SOL    HW237920   2.692   4.080   2.393 -0.3485 -1.5611 -0.3121
 8762SOL     OW37921   2.319   4.425   0.770  0.7163 -0.3208  0.2494
 8762SOL    HW137922   2.397   4.429   0.824  0.0997  0.0503  1.1105
 8762SOL    HW237923   2.352   4.390   0.687  0.1432  0.1636 -0.1893
 8763SOL     OW37924   4.506   1.881   0.444  0.4586 -0.6646  0.3969
 8763SOL    HW137925   4.525   1.912   0.356 -2.2625 -3.0551 -1.0587
 8763SOL    HW237926   4.572   1.929   0.494 -0.8355 -0.6512  2.1294
 8764SOL     OW37927   4.659   2.147   1.905 -0.4602 -0.4294 -0.0471
 8764SOL    HW137928   4.611   2.173   1.827 -0.7782 -0.0202  0.2850
 8764SOL    HW237929   4.662   2.221   1.966  0.4260 -0.4311 -0.0816
 8765SOL     OW37930   1.537   3.544   5.670  0.3266  0.7197 -0.3967
 8765SOL    HW137931   1.527   3.507   5.582  0.9306  2.2322 -1.0974
 8765SOL    HW237932   1.531   3.465   5.724  1.3760  1.0265  0.1699
 8766SOL     OW37933   1.178   4.286  12.503 -0.2955  0.5391  0.1565
 8766SOL    HW137934   1.267   4.276  12.538 -0.3808  0.3200  0.3050
 8766SOL    HW237935   1.163   4.202  12.460 -1.1732  0.1475  1.2361
 8767SOL     OW37936   3.318   1.796   8.909  0.6472  0.9040 -0.2003
 8767SOL    HW137937   3.317   1.805   8.814 -0.9382 -1.7994 -0.4530
 8767SOL    HW237938   3.368   1.716   8.924 -0.9575 -0.1997 -0.6690
 8768SOL     OW37939   1.515   1.741   6.594  0.6209  0.2966  0.0141
 8768SOL    HW137940   1.527   1.763   6.501  1.8575 -2.0913 -0.3793
 8768SOL    HW237941   1.545   1.827   6.623  1.1058  0.7806 -1.8775
 8769SOL     OW37942   2.707   3.752   6.056  0.0959  0.0490  0.0834
 8769SOL    HW137943   2.754   3.768   5.974  0.0044  1.8007  0.3737
 8769SOL    HW237944   2.644   3.823   6.045  1.7818  1.4428 -0.5145
 8770SOL     OW37945   1.358   0.048   0.262  0.1754  0.1724  0.1059
 8770SOL    HW137946   1.346   4.716   0.199 -2.6536  1.8850 -1.3053
 8770SOL    HW237947   1.295   0.010   0.323  1.2803  2.4216  2.6816
 8771SOL     OW37948   0.309   2.012   8.474 -0.1688 -0.4161  0.3131
 8771SOL    HW137949   0.337   2.101   8.497  0.8780 -0.0201 -2.3931
 8771SOL    HW237950   0.257   2.023   8.394  1.8618 -0.2180 -0.9857
 8772SOL     OW37951   0.783   2.022   5.379  0.1458  0.0694 -0.5067
 8772SOL    HW137952   0.843   2.088   5.414 -1.1463  1.8319 -1.5896
 8772SOL    HW237953   0.832   1.940   5.379 -1.6285 -1.0021 -0.0237
 8773SOL     OW37954   0.374   1.257   8.676  0.3004 -0.0714 -0.2760
 8773SOL    HW137955   0.411   1.344   8.666  0.4158 -0.1650 -0.6429
 8773SOL    HW237956   0.345   1.256   8.768  0.7770 -0.3498 -0.1295
 8774SOL     OW37957   2.429   1.656   1.918 -0.2632  0.3837 -0.0216
 8774SOL    HW137958   2.424   1.562   1.904 -2.7216  0.7133 -1.2772
 8774SOL    HW237959   2.370   1.693   1.851 -0.3038  0.0928 -0.1449
 8775SOL     OW37960   4.057   0.607   1.609  0.0476 -0.2246  0.2244
 8775SOL    HW137961   4.137   0.658   1.619 -0.9651  1.6429 -1.1754
 8775SOL    HW237962   4.058   0.543   1.680  0.9593 -0.9565 -0.4449
 8776SOL     OW37963   2.835   0.344   2.759  0.0354 -0.0952  0.0277
 8776SOL    HW137964   2.922   0.312   2.782 -0.6714 -0.2331  2.4828
 8776SOL    HW237965   2.841   0.334   2.664  0.2164  0.7061 -0.0446
 8777SOL     OW37966   4.475   2.265  13.506  0.3300  0.0324  0.0597
 8777SOL    HW137967   4.398   2.305  13.467  0.3856  0.9304  0.8620
 8777SOL    HW237968   4.516   2.240  13.424 -1.0362 -0.1889 -0.5488
 8778SOL     OW37969   0.784   3.304   5.664  0.2501  0.5174  0.6193
 8778SOL    HW137970   0.699   3.261   5.675  0.2077  0.6433  0.7983
 8778SOL    HW237971   0.849   3.252   5.711  0.4404 -0.8105 -1.1038
 8779SOL     OW37972   1.185   3.817   6.274  0.1220  0.2388 -0.4517
 8779SOL    HW137973   1.280   3.813   6.280  0.0300  1.1777  1.6908
 8779SOL    HW237974   1.182   3.794   6.181  2.2691 -2.5892  0.1824
 8780SOL     OW37975   2.450   3.788  10.474  0.2637  0.3935  0.1981
 8780SOL    HW137976   2.452   3.882  10.488  0.1979  0.3307  0.6431
 8780SOL    HW237977   2.536   3.758  10.446  0.4954  1.5220 -0.2873
 8781SOL     OW37978   3.455   1.638   9.220 -0.1712 -0.6291 -0.5244
 8781SOL    HW137979   3.527   1.576   9.203  0.7588  0.2298  0.2579
 8781SOL    HW237980   3.417   1.652   9.133 -0.8844  0.4582 -0.0360
 8782SOL     OW37981   4.553   0.788   4.626 -0.1758 -0.2353  0.5502
 8782SOL    HW137982   4.493   0.718   4.599 -2.0986  2.3033 -1.8431
 8782SOL    HW237983   4.509   0.814   4.707  0.6784  2.9801 -0.0101
 8783SOL     OW37984   4.377   0.085   7.235  0.0760 -0.1928 -0.1978
 8783SOL    HW137985   4.367   4.729   7.238  0.8297 -0.2792 -0.4031
 8783SOL    HW237986   4.297   0.110   7.282  0.2054 -1.6082  0.7977
 8784SOL     OW37987   2.430   0.780   4.262  0.3915 -0.3106 -0.3052
 8784SOL    HW137988   2.452   0.700   4.214 -1.1629 -1.7263  1.3137
 8784SOL    HW237989   2.348   0.758   4.308  0.2063 -0.4625 -0.7049
 8785SOL     OW37990   4.112   3.527   9.694 -0.3238 -0.0538  0.2210
 8785SOL    HW137991   4.023   3.494   9.708  0.4103 -1.1359  2.1788
 8785SOL    HW237992   4.131   3.561   9.781 -1.0472  1.5217 -0.2310
 8786SOL     OW37993   1.418   4.283   7.893  0.3881  0.1025  0.4407
 8786SOL    HW137994   1.397   4.312   7.804 -0.3942 -2.6245 -0.2608
 8786SOL    HW237995   1.338   4.238   7.921  0.1616  1.8033  2.5163
 8787SOL     OW37996   0.290   4.513   5.086  0.2777 -0.2491  0.6368
 8787SOL    HW137997   0.235   4.540   5.013 -0.1469 -0.4224  0.8893
 8787SOL    HW237998   0.373   4.484   5.049  0.4412  1.6723 -0.4939
 8788SOL     OW37999   0.892   0.669   9.697  0.3529 -0.3273  0.3990
 8788SOL    HW138000   0.831   0.703   9.762 -1.0887 -1.7097 -0.2247
 8788SOL    HW238001   0.872   0.576   9.708  2.5372 -0.8402  0.0754
 8789SOL     OW38002   2.946   1.381  11.057  0.2460  0.1713 -0.5018
 8789SOL    HW138003   3.029   1.370  11.009 -0.7297  0.4583 -2.2754
 8789SOL    HW238004   2.884   1.420  10.995  0.6521 -0.3271 -1.2240
 8790SOL     OW38005   0.284   3.825   7.654  0.2671  0.0873  0.5667
 8790SOL    HW138006   0.296   3.771   7.576  2.3825  0.4734  0.6148
 8790SOL    HW238007   0.203   3.873   7.638  0.4506 -0.0980 -0.9157
 8791SOL     OW38008   1.019   3.154   4.863 -0.0181  0.0207  0.0130
 8791SOL    HW138009   1.097   3.161   4.808 -0.1993  1.2205 -0.0798
 8791SOL    HW238010   0.975   3.238   4.851 -0.7415 -0.4374 -0.5736
 8792SOL     OW38011   2.569   3.017   5.870  0.0981 -0.2643 -0.2264
 8792SOL    HW138012   2.653   2.991   5.832  0.0702 -1.5632  0.6168
 8792SOL    HW238013   2.535   2.943   5.920 -0.2935  0.0196 -0.0688
 8793SOL     OW38014   1.191   0.434  13.933  0.3335 -0.1987 -0.7844
 8793SOL    HW138015   1.241   0.514  13.916  0.8966 -0.1106  1.3584
 8793SOL    HW238016   1.161   0.444  14.023  1.3900 -1.4228 -0.2880
 8794SOL     OW38017   1.634   0.081   3.247 -0.0780  0.4428  0.1532
 8794SOL    HW138018   1.544   0.067   3.220 -0.5429 -0.3986  2.1574
 8794SOL    HW238019   1.623   0.145   3.317  1.0640  0.6678  0.1261
 8795SOL     OW38020   3.439   2.642  17.085 -0.2729 -0.1035  0.2156
 8795SOL    HW138021   3.436   2.550  17.111  1.4024 -0.1726  0.1861
 8795SOL    HW238022   3.464   2.635  16.993 -1.0412  1.3192 -0.0949
 8796SOL     OW38023   3.707   3.655   4.093 -0.1762 -0.4401 -0.5250
 8796SOL    HW138024   3.679   3.631   4.004 -2.7616 -0.5891  0.3203
 8796SOL    HW238025   3.716   3.562   4.115 -1.3321 -0.0400  1.6536
 8797SOL     OW38026   1.382   0.611   7.290  0.5942  0.0170 -0.6267
 8797SOL    HW138027   1.417   0.690   7.332 -0.9064  0.8319 -0.9425
 8797SOL    HW238028   1.323   0.591   7.363  0.5122  1.1567 -0.3924
 8798SOL     OW38029   0.506   1.709   3.136  0.4363  0.0769  0.2457
 8798SOL    HW138030   0.537   1.772   3.071  0.8906 -0.5646 -0.1592
 8798SOL    HW238031   0.427   1.681   3.090  0.7091 -0.2902 -0.0001
 8799SOL     OW38032   1.684   3.945   2.588 -0.3829 -0.1961 -1.0335
 8799SOL    HW138033   1.621   3.952   2.659  0.4153 -1.5359 -0.1793
 8799SOL    HW238034   1.688   3.849   2.590 -0.8248 -0.1633  1.6159
 8800SOL     OW38035   0.949   2.809   6.956  0.8633  0.0624 -0.2721
 8800SOL    HW138036   0.961   2.883   7.016 -1.6131 -0.3241  0.6911
 8800SOL    HW238037   0.999   2.836   6.879  0.8896  1.4186  0.2256
 8801SOL     OW38038   3.860   4.710   4.553  0.3076  0.0392 -0.1625
 8801SOL    HW138039   3.803   4.698   4.629 -0.2616 -1.9237 -0.9175
 8801SOL    HW238040   3.836   4.634   4.501 -0.6778 -0.0300  0.3991
 8802SOL     OW38041   3.268   3.855  17.683  0.1410  0.2225  0.3008
 8802SOL    HW138042   3.348   3.885  17.727  1.0127 -0.0631 -1.1173
 8802SOL    HW238043   3.208   3.905  17.739 -0.1970  0.7078 -0.4995
 8803SOL     OW38044   0.888   1.274  13.166 -0.0325 -0.2928 -0.2889
 8803SOL    HW138045   0.915   1.200  13.220 -0.7822 -0.1718  0.2570
 8803SOL    HW238046   0.809   1.237  13.127 -0.1734  1.1129 -1.3526
 8804SOL     OW38047   1.023   1.951  10.033 -1.1544  0.2440  0.4195
 8804SOL    HW138048   1.020   2.045  10.053 -2.0782  0.8282 -2.5691
 8804SOL    HW238049   0.971   1.948   9.953 -2.1239  1.3438  1.0122
 8805SOL     OW38050   2.257   0.236   4.394 -0.1388  0.2614 -0.4905
 8805SOL    HW138051   2.230   0.282   4.315 -0.0629  1.6503  0.3008
 8805SOL    HW238052   2.262   0.148   4.357 -2.3686 -0.2705  0.4715
 8806SOL     OW38053   3.510   2.183   0.364  0.3603 -0.0228  0.2546
 8806SOL    HW138054   3.558   2.265   0.375 -0.3000  0.3910  0.0577
 8806SOL    HW238055   3.579   2.121   0.388 -0.5699 -0.9605  0.5294
 8807SOL     OW38056   0.179   2.050   4.161  0.0017 -0.0861  0.6334
 8807SOL    HW138057   0.269   2.045   4.193  0.5468  1.5952 -0.6460
 8807SOL    HW238058   0.206   2.093   4.080 -1.2799 -0.6563 -0.0901
 8808SOL     OW38059   3.305   2.831   5.946 -0.0074  0.1673 -0.4865
 8808SOL    HW138060   3.295   2.922   5.917 -1.3964  0.3440  0.5015
 8808SOL    HW238061   3.281   2.821   6.038  2.6795  1.5448  0.3675
 8809SOL     OW38062   1.877   3.451  14.803 -0.1694 -0.1898  0.2841
 8809SOL    HW138063   1.857   3.520  14.866 -1.3551 -0.4240  0.1632
 8809SOL    HW238064   1.966   3.425  14.825  0.5175  1.2633 -0.7552
 8810SOL     OW38065   4.631   4.361  16.890  0.4442  0.1181 -0.4180
 8810SOL    HW138066   4.695   4.290  16.898  1.7160  1.2343 -0.8488
 8810SOL    HW238067   4.558   4.302  16.873  0.8379 -0.5466  0.1737
 8811SOL     OW38068   1.636   1.239  11.907 -0.0267 -0.0371  0.2026
 8811SOL    HW138069   1.610   1.331  11.918 -0.3183 -0.1139  0.1501
 8811SOL    HW238070   1.660   1.253  11.815  1.5256  0.1452  0.6273
 8812SOL     OW38071   2.320   1.956   8.884 -0.0558  0.2060 -0.5598
 8812SOL    HW138072   2.319   2.035   8.937 -1.1456 -1.5870  2.1155
 8812SOL    HW238073   2.397   1.960   8.827  0.1336 -0.5671 -0.3634
 8813SOL     OW38074   4.490   4.186   5.015  0.1367 -0.3369  0.2128
 8813SOL    HW138075   4.574   4.158   4.979  0.3574  0.1415  0.3553
 8813SOL    HW238076   4.481   4.110   5.072  0.0241 -0.6658 -0.2437
 8814SOL     OW38077   0.543   0.552   2.936 -0.0094 -0.2455 -0.3282
 8814SOL    HW138078   0.498   0.492   2.996 -0.5685 -1.2272 -1.7324
 8814SOL    HW238079   0.530   0.636   2.979  2.7128  0.1321 -0.2170
 8815SOL     OW38080   3.588   2.316   9.134  0.0500 -0.1638  0.0668
 8815SOL    HW138081   3.594   2.273   9.220 -1.9301  0.6408  0.6045
 8815SOL    HW238082   3.651   2.388   9.140 -1.1857  0.8017  1.4165
 8816SOL     OW38083   2.460   2.081  14.720  0.1926 -0.3770 -0.2155
 8816SOL    HW138084   2.430   2.049  14.635 -0.1707 -0.9622  0.1355
 8816SOL    HW238085   2.394   2.032  14.767  2.1899 -1.3534  1.5682
 8817SOL     OW38086   2.253   0.418   8.421  0.4220 -0.7714 -0.2295
 8817SOL    HW138087   2.237   0.470   8.341 -2.6500 -0.7872  0.4060
 8817SOL    HW238088   2.298   0.340   8.389 -0.5966 -1.7332  0.7252
 8818SOL     OW38089   0.136   1.969   7.999  0.6355 -0.1097  0.5119
 8818SOL    HW138090   0.119   2.040   7.937 -3.1180  0.3870  2.1233
 8818SOL    HW238091   0.086   1.895   7.962  0.0408  0.3569  0.3801
 8819SOL     OW38092   0.621   0.105   3.900  0.1323 -0.0612  0.2744
 8819SOL    HW138093   0.595   0.175   3.839  1.2933  0.3447  0.2373
 8819SOL    HW238094   0.601   0.033   3.840  1.2637 -1.7509  1.9497
 8820SOL     OW38095   0.621   2.149   3.330  0.8048 -0.5618  0.2237
 8820SOL    HW138096   0.624   2.132   3.424  0.6644 -0.9083  0.1636
 8820SOL    HW238097   0.670   2.231   3.334  1.7907 -1.0654 -1.4034
 8821SOL     OW38098   3.355   4.351   3.074  0.2130  0.5295  0.1867
 8821SOL    HW138099   3.416   4.424   3.075  1.0640 -0.1965  1.6410
 8821SOL    HW238100   3.318   4.350   3.162 -0.6489 -3.2531 -0.2162
 8822SOL     OW38101   0.039   2.642   2.512 -0.0610  0.2945  0.1524
 8822SOL    HW138102   4.736   2.564   2.475 -0.2003  0.1804  0.5461
 8822SOL    HW238103   0.127   2.612   2.532  0.7147  1.4244 -1.6144
 8823SOL     OW38104   1.534   0.861   7.749 -0.1443  0.1466 -0.2794
 8823SOL    HW138105   1.586   0.936   7.721  1.2395 -1.0390 -0.9186
 8823SOL    HW238106   1.471   0.882   7.817  0.1269  2.5800 -0.7846
 8824SOL     OW38107   2.987   3.945   7.376  0.1670 -0.1407  0.5783
 8824SOL    HW138108   2.939   3.945   7.458  0.5066  0.2528  0.7759
 8824SOL    HW238109   3.066   3.900   7.407  1.0173  1.3300  0.5744
 8825SOL     OW38110   4.151   0.738   4.439  0.0188  0.0676 -0.3670
 8825SOL    HW138111   4.130   0.828   4.416 -1.0895 -0.0204  0.2977
 8825SOL    HW238112   4.115   0.718   4.525  2.8847 -2.2701  0.2854
 8826SOL     OW38113   2.848   4.485   2.388  0.4779 -0.7243 -0.4880
 8826SOL    HW138114   2.845   4.492   2.484  2.4537  2.6840 -0.7011
 8826SOL    HW238115   2.941   4.463   2.381  0.6534  0.7543 -2.6292
 8827SOL     OW38116   1.793   3.586   8.199  0.2509  0.0950  0.1143
 8827SOL    HW138117   1.828   3.546   8.279  0.4462 -1.5869 -0.8168
 8827SOL    HW238118   1.742   3.519   8.153  1.8145 -0.1559 -1.2255
 8828SOL     OW38119   2.071   0.556   1.671 -0.0762  0.8531  0.1649
 8828SOL    HW138120   2.147   0.499   1.657  1.0090  1.9320  1.7822
 8828SOL    HW238121   2.069   0.562   1.766 -1.2633 -0.4600  0.2332
 8829SOL     OW38122   2.880   0.712   2.256 -0.6025  0.6045  0.1675
 8829SOL    HW138123   2.904   0.710   2.164 -0.6235  1.1147  0.1532
 8829SOL    HW238124   2.837   0.628   2.273 -1.8590  1.1474 -0.3162
 8830SOL     OW38125   4.613   3.795   7.693  0.8961  0.3479 -0.1579
 8830SOL    HW138126   4.625   3.726   7.628  0.4525 -0.3756  0.5210
 8830SOL    HW238127   4.520   3.819   7.689  1.2586  1.7518 -0.1671
 8831SOL     OW38128   4.484   3.698   3.460  0.1595  0.0090 -0.3799
 8831SOL    HW138129   4.538   3.619   3.458 -1.5033 -1.1372  0.0629
 8831SOL    HW238130   4.469   3.717   3.553 -0.1418  0.7166 -0.5734
 8832SOL     OW38131   3.868   4.452   4.999  0.1094  0.3004  0.1482
 8832SOL    HW138132   3.926   4.526   5.019 -1.5255  1.7587 -0.5684
 8832SOL    HW238133   3.924   4.378   4.975 -0.7772 -0.4423  0.3853
 8833SOL     OW38134   3.187   0.303   6.830  0.3262 -0.5743  0.0092
 8833SOL    HW138135   3.175   0.277   6.739 -1.4360 -0.0831  0.1039
 8833SOL    HW238136   3.196   0.399   6.825  2.0575 -0.7906 -0.9336
 8834SOL     OW38137   1.178   2.914  13.630 -0.0693  0.1792 -0.0546
 8834SOL    HW138138   1.267   2.950  13.630  0.5587 -1.3958 -0.9462
 8834SOL    HW238139   1.122   2.991  13.636  3.9858  3.1799 -0.2073
 8835SOL     OW38140   0.717   0.552   7.934  0.2556 -0.1182  0.3401
 8835SOL    HW138141   0.634   0.538   7.889  0.4849  0.0183 -0.1293
 8835SOL    HW238142   0.783   0.554   7.864 -0.7895 -1.2053 -0.6779
 8836SOL     OW38143   2.632   1.996  14.966 -0.4287 -0.0567  0.2363
 8836SOL    HW138144   2.582   2.011  14.886 -0.2866  1.3209  0.3911
 8836SOL    HW238145   2.639   2.091  14.983  0.2736 -0.0262 -0.2519
 8837SOL     OW38146   2.403   0.576  12.077  0.5473  0.1384 -0.6144
 8837SOL    HW138147   2.449   0.622  12.147 -2.0506  2.7335 -0.5778
 8837SOL    HW238148   2.466   0.587  12.006  1.5933 -0.9190  0.1610
 8838SOL     OW38149   2.129   0.870   3.890  0.2143 -0.1952 -0.7496
 8838SOL    HW138150   2.142   0.849   3.797 -0.2850  1.7269 -1.2558
 8838SOL    HW238151   2.050   0.923   3.879  0.3542 -0.2636 -2.0736
 8839SOL     OW38152   1.296   4.605   3.722  0.0201 -0.3965  0.1249
 8839SOL    HW138153   1.372   4.590   3.778 -0.1330 -0.5090  0.3018
 8839SOL    HW238154   1.342   4.605   3.638 -1.3315  0.0174 -0.6167
 8840SOL     OW38155   2.014   1.555   1.458  0.0872 -0.1096 -0.4710
 8840SOL    HW138156   1.937   1.515   1.500 -0.1306  0.9244  0.1139
 8840SOL    HW238157   2.044   1.628   1.512  1.6938 -1.3801  0.3836
 8841SOL     OW38158   0.623   3.357  16.400  0.7461 -0.1093 -0.8395
 8841SOL    HW138159   0.613   3.265  16.421  0.0502 -0.1111 -1.1898
 8841SOL    HW238160   0.620   3.359  16.305 -2.4093 -0.4514 -0.7393
 8842SOL     OW38161   0.130   1.699  14.151  0.2461  0.0744 -0.2852
 8842SOL    HW138162   0.196   1.629  14.155 -1.0423 -1.2378 -1.8352
 8842SOL    HW238163   0.175   1.764  14.098  1.8950 -1.6595 -1.0277
 8843SOL     OW38164   1.679   4.660   5.650 -0.3586 -0.2936  0.1515
 8843SOL    HW138165   1.609   4.684   5.711  0.5433  0.4239  0.9184
 8843SOL    HW238166   1.742   4.731   5.661  0.0304 -0.1930 -2.8304
 8844SOL     OW38167   3.553   3.712   4.522 -0.6327  0.0380  0.0226
 8844SOL    HW138168   3.525   3.642   4.463  0.3929  0.6354 -1.1886
 8844SOL    HW238169   3.478   3.710   4.580 -0.6575 -1.1702 -0.0606
 8845SOL     OW38170   3.053   3.376   4.826  0.0037 -0.9934 -0.6212
 8845SOL    HW138171   3.055   3.439   4.754  2.9354  1.2187  1.3877
 8845SOL    HW238172   3.139   3.394   4.863  0.1066 -1.8647 -0.4247
 8846SOL     OW38173   4.453   4.220   5.596  0.2108 -0.5408 -0.1129
 8846SOL    HW138174   4.494   4.285   5.653 -0.8624 -1.7216  1.9845
 8846SOL    HW238175   4.369   4.217   5.640 -1.0259 -1.0557 -2.5128
 8847SOL     OW38176   3.520   1.844   0.105  0.6354 -0.0650 -0.7391
 8847SOL    HW138177   3.559   1.831   0.191  0.0103  0.8655 -0.3175
 8847SOL    HW238178   3.436   1.879   0.134  0.4262 -0.7018 -0.5832
 8848SOL     OW38179   4.711   2.237   6.609 -0.1291 -0.0030 -0.1937
 8848SOL    HW138180   0.024   2.306   6.648  2.3124 -0.6394 -2.3994
 8848SOL    HW238181   0.009   2.162   6.654  1.0292  1.7927  1.8105
 8849SOL     OW38182   0.246   0.614   8.246  0.4112  0.3762 -0.1705
 8849SOL    HW138183   0.184   0.624   8.173  1.1126 -0.1375 -0.8273
 8849SOL    HW238184   0.261   0.520   8.240 -0.7280  0.1207  0.7683
 8850SOL     OW38185   3.390   4.108   6.049 -0.2659  0.2201  0.0188
 8850SOL    HW138186   3.368   4.016   6.033 -0.1684  0.4621 -1.4385
 8850SOL    HW238187   3.323   4.132   6.114 -1.1812 -1.2514 -0.3921
 8851SOL     OW38188   2.152   1.495   7.571  1.0472  0.2603 -0.2741
 8851SOL    HW138189   2.171   1.409   7.609 -0.3418  0.6023  1.2040
 8851SOL    HW238190   2.148   1.544   7.653  1.1400 -0.8702  0.4026
 8852SOL     OW38191   4.467   1.155  15.145 -0.1465  0.2476 -0.0489
 8852SOL    HW138192   4.427   1.196  15.068 -1.2274  0.5217  0.6563
 8852SOL    HW238193   4.423   1.069  15.143 -0.3920  0.3858 -0.8973
 8853SOL     OW38194   2.496   0.339   1.445 -0.7131 -0.3741 -0.3272
 8853SOL    HW138195   2.533   0.427   1.446 -3.5398  0.8354 -2.5437
 8853SOL    HW238196   2.432   0.332   1.515 -2.1000  0.0604 -1.5479
 8854SOL     OW38197   2.228   3.049  14.346 -0.4122 -0.0387 -0.2822
 8854SOL    HW138198   2.230   3.018  14.255 -0.0179 -0.7043 -0.0487
 8854SOL    HW238199   2.257   2.971  14.394  1.0837  1.6859  1.5840
 8855SOL     OW38200   2.789   2.447  15.989 -0.5235  0.1754  0.2936
 8855SOL    HW138201   2.755   2.361  16.014 -0.4128 -0.2311 -0.9360
 8855SOL    HW238202   2.816   2.427  15.899 -1.2496  3.6159 -0.6663
 8856SOL     OW38203   0.965   0.647  10.075  0.1591  0.8527 -0.8202
 8856SOL    HW138204   0.932   0.734  10.054 -0.6018  1.0670  1.2369
 8856SOL    HW238205   0.946   0.647  10.169  2.9741  1.2831 -0.2524
 8857SOL     OW38206   0.313   3.331   4.709 -0.0965  0.6612  0.1400
 8857SOL    HW138207   0.335   3.424   4.706 -1.2182  0.8890 -0.6998
 8857SOL    HW238208   0.242   3.335   4.772  0.8151 -2.4404  1.3928
 8858SOL     OW38209   3.462   3.694  10.560  0.4849  0.3845  0.1182
 8858SOL    HW138210   3.489   3.614  10.606 -2.0766 -0.5221  0.0573
 8858SOL    HW238211   3.544   3.741  10.572  0.3375  0.8492 -0.6842
 8859SOL     OW38212   3.369   0.074  13.325  0.4937  0.1181  0.7402
 8859SOL    HW138213   3.386   0.164  13.297  0.8621 -0.3691 -0.6103
 8859SOL    HW238214   3.283   0.063  13.284  0.8508 -1.2717  0.3696
 8860SOL     OW38215   1.052   3.305   7.795 -0.2505 -0.5926  0.0503
 8860SOL    HW138216   1.095   3.272   7.874  1.1030  1.0390  0.0060
 8860SOL    HW238217   0.986   3.363   7.832 -2.3845 -2.6472 -0.5368
 8861SOL     OW38218   2.887   2.044   3.630 -0.0572 -0.4048  0.2825
 8861SOL    HW138219   2.832   2.012   3.702 -0.5966 -2.0992 -0.8831
 8861SOL    HW238220   2.927   1.964   3.594 -0.0957 -0.3032  0.0154
 8862SOL     OW38221   4.090   0.292   0.737 -0.4578 -0.0565 -0.1270
 8862SOL    HW138222   4.068   0.384   0.755 -3.4530 -0.9516  0.7737
 8862SOL    HW238223   4.115   0.253   0.821 -1.4943 -1.5886 -0.5466
 8863SOL     OW38224   4.732   2.529  10.917 -0.0331  0.5315  0.0338
 8863SOL    HW138225   0.035   2.443  10.917  0.4975  0.7905  1.9157
 8863SOL    HW238226   0.064   2.576  10.961 -0.8121  0.4477  1.3682
 8864SOL     OW38227   1.746   0.567   9.675 -0.0063  0.0035  0.2495
 8864SOL    HW138228   1.823   0.513   9.661 -0.8451 -1.1603  0.1313
 8864SOL    HW238229   1.727   0.595   9.586  2.2925 -1.7501 -0.7949
 8865SOL     OW38230   3.581   3.131  12.195  0.0193  0.0551  0.2606
 8865SOL    HW138231   3.511   3.129  12.260 -1.6484 -0.8377 -1.5575
 8865SOL    HW238232   3.590   3.038  12.173  0.2540  0.2825 -0.6190
 8866SOL     OW38233   0.214   1.132   5.790 -0.3598  0.3217 -0.4226
 8866SOL    HW138234   0.216   1.207   5.849 -1.1130 -0.1511  0.2069
 8866SOL    HW238235   0.233   1.056   5.844  0.0801 -0.6691 -1.9880
 8867SOL     OW38236   1.942   0.804   9.107  0.9998  0.2991 -0.2027
 8867SOL    HW138237   1.883   0.878   9.117 -0.8449 -1.3534  0.9508
 8867SOL    HW238238   2.003   0.819   9.179  0.8401  0.6795 -0.1520
 8868SOL     OW38239   2.349   0.913   9.870 -0.2481  0.6537  0.3176
 8868SOL    HW138240   2.442   0.896   9.853 -0.3516  0.5446 -0.1436
 8868SOL    HW238241   2.355   0.851   9.943 -0.5683  0.3963  0.1256
 8869SOL     OW38242   3.093   3.361   3.145  0.2864 -0.2524  0.4775
 8869SOL    HW138243   3.100   3.311   3.226 -0.1160 -2.3259 -0.7748
 8869SOL    HW238244   3.178   3.404   3.157  1.5150 -2.4674 -0.2940
 8870SOL     OW38245   0.246   1.493   6.449 -0.1681  0.8121  0.0870
 8870SOL    HW138246   0.230   1.427   6.517 -0.6817 -0.0952 -0.9128
 8870SOL    HW238247   0.270   1.440   6.373 -0.7209  1.2535 -0.3925
 8871SOL     OW38248   3.575   0.244   8.925 -0.0274 -0.8642 -0.0876
 8871SOL    HW138249   3.516   0.214   8.994 -2.5551  1.0416 -1.4195
 8871SOL    HW238250   3.659   0.245   8.971 -0.5682  0.0666  0.8727
 8872SOL     OW38251   3.660   2.396   0.410  0.8341 -0.5998 -0.3388
 8872SOL    HW138252   3.748   2.424   0.385 -0.2353  0.3661 -3.0556
 8872SOL    HW238253   3.638   2.470   0.467  1.1044  1.0511 -2.3685
 8873SOL     OW38254   3.986   1.949   1.682  0.2019 -0.6344  0.0273
 8873SOL    HW138255   4.060   2.008   1.695  0.4286 -0.9818  0.3015
 8873SOL    HW238256   3.949   1.979   1.599  2.0783  0.4381 -0.4088
 8874SOL     OW38257   4.292   1.872  13.388  0.2006  0.0691 -0.4178
 8874SOL    HW138258   4.265   1.962  13.372  1.0403  0.6493  1.4587
 8874SOL    HW238259   4.329   1.886  13.476  0.3402 -0.3615 -0.4068
 8875SOL     OW38260   1.230   3.533   5.105 -0.0770 -0.2632  0.0139
 8875SOL    HW138261   1.205   3.535   5.198 -2.2209 -0.4956 -0.5625
 8875SOL    HW238262   1.145   3.557   5.068  0.2117 -0.8788 -1.0380
 8876SOL     OW38263   0.642   1.366   9.158 -0.3196  0.2153  0.0466
 8876SOL    HW138264   0.565   1.403   9.201  0.2061  0.4766  0.7701
 8876SOL    HW238265   0.623   1.397   9.069  0.8020 -2.3769 -1.1003
 8877SOL     OW38266   0.120   1.211  16.390 -0.0374  0.1169  0.5744
 8877SOL    HW138267   0.136   1.117  16.402  1.5652  0.1232 -1.4650
 8877SOL    HW238268   0.133   1.243  16.479  0.5472 -0.1771  0.5988
 8878SOL     OW38269   4.600   4.081  14.295 -0.0320  0.4333 -1.5921
 8878SOL    HW138270   4.551   4.083  14.213  0.2926 -0.8518 -1.8054
 8878SOL    HW238271   4.644   4.167  14.299 -0.5008  0.6064 -0.1063
 8879SOL     OW38272   2.407   1.518   5.003 -0.3488  0.2101  0.0406
 8879SOL    HW138273   2.313   1.523   5.020  0.0151 -0.3602  2.2182
 8879SOL    HW238274   2.409   1.539   4.910  0.0967  0.8154  0.1865
 8880SOL     OW38275   0.363   1.685  11.234 -0.0417 -0.1012 -0.3303
 8880SOL    HW138276   0.333   1.688  11.325 -0.1186  0.4446 -0.3734
 8880SOL    HW238277   0.323   1.601  11.208 -0.6174  0.5259 -1.4958
 8881SOL     OW38278   0.601   1.715   7.761  0.6796  0.3748 -0.3962
 8881SOL    HW138279   0.531   1.654   7.736  1.0231  0.1139 -0.7130
 8881SOL    HW238280   0.642   1.721   7.675 -0.1495  0.3860 -0.7999
 8882SOL     OW38281   4.340   0.147  16.868 -0.8632  0.5863  0.0431
 8882SOL    HW138282   4.326   0.150  16.962 -0.1028 -0.5128  0.1940
 8882SOL    HW238283   4.357   0.053  16.863  1.2379  0.9789  0.0189
 8883SOL     OW38284   2.956   3.738   7.206 -0.1923  0.0827  0.2265
 8883SOL    HW138285   2.918   3.767   7.123  0.6876  1.6864  0.3652
 8883SOL    HW238286   2.978   3.822   7.247 -2.7494 -0.3735  2.4724
 8884SOL     OW38287   3.146   4.009   5.555  0.2196 -0.2843  0.1892
 8884SOL    HW138288   3.166   4.073   5.487  0.8465 -0.9565 -0.2619
 8884SOL    HW238289   3.174   3.926   5.515  0.9799 -0.3000  0.7562
 8885SOL     OW38290   4.237   1.417   7.024  0.0292  0.3931 -0.4452
 8885SOL    HW138291   4.152   1.407   6.982  0.5088 -0.5828 -1.1933
 8885SOL    HW238292   4.301   1.358   6.983  1.6169  1.9784 -0.2346
 8886SOL     OW38293   4.319   2.794   8.527 -0.0334  0.0796  0.0456
 8886SOL    HW138294   4.242   2.846   8.547 -0.8280 -1.0994  0.0685
 8886SOL    HW238295   4.317   2.782   8.432 -2.1017  1.1765 -0.0522
 8887SOL     OW38296   3.078   4.417   4.139 -1.0553 -0.1176 -0.4764
 8887SOL    HW138297   3.051   4.364   4.064  0.2107  0.4768 -1.3444
 8887SOL    HW238298   3.026   4.498   4.140 -0.4199  0.2980 -0.8264
 8888SOL     OW38299   1.929   0.986   9.708 -0.2367 -0.1405  0.3340
 8888SOL    HW138300   1.915   1.074   9.742 -0.9978  0.0337 -0.4510
 8888SOL    HW238301   1.847   0.949   9.739 -0.1186 -0.8512 -0.2011
 8889SOL     OW38302   1.227   2.392   4.906  0.3337  0.7791  0.0852
 8889SOL    HW138303   1.298   2.330   4.918 -0.6680 -0.5552 -0.8848
 8889SOL    HW238304   1.154   2.335   4.880  0.1606  0.6786  0.7933
 8890SOL     OW38305   1.753   0.622   7.476  0.2022  0.2297 -0.1214
 8890SOL    HW138306   1.847   0.609   7.484  0.3574  1.0475 -0.5949
 8890SOL    HW238307   1.754   0.647   7.384  0.6811  1.9403  0.3405
 8891SOL     OW38308   0.945   1.812  12.345  0.2303 -0.2781  0.1861
 8891SOL    HW138309   0.956   1.808  12.440 -1.9172 -2.1669  0.3452
 8891SOL    HW238310   0.935   1.720  12.321 -3.5763  0.4406 -1.0255
 8892SOL     OW38311   3.611   0.708   2.120  0.2102 -0.1766  0.1248
 8892SOL    HW138312   3.554   0.649   2.169 -1.2010 -0.6636 -2.0874
 8892SOL    HW238313   3.696   0.673   2.146  0.5767  0.9900  0.5034
 8893SOL     OW38314   4.415   1.963   5.394  0.1123  0.0586  0.3806
 8893SOL    HW138315   4.430   1.881   5.441 -2.5666 -1.2274 -0.9938
 8893SOL    HW238316   4.394   1.930   5.307  2.0103  0.9783 -0.4144
 8894SOL     OW38317   1.388   2.910   7.429 -0.0078 -0.3558 -0.2507
 8894SOL    HW138318   1.362   2.868   7.347 -0.6978  1.6296 -1.0578
 8894SOL    HW238319   1.391   3.002   7.404 -1.2497 -0.0598  0.7154
 8895SOL     OW38320   3.121   3.976   3.127 -0.2103  0.6369  0.3827
 8895SOL    HW138321   3.117   3.999   3.034  0.9313  1.5051  0.5516
 8895SOL    HW238322   3.039   4.011   3.161 -1.5873 -2.9619  0.7777
 8896SOL     OW38323   3.056   2.610  11.959 -0.2062  0.0857 -0.3292
 8896SOL    HW138324   2.979   2.589  12.012  0.6148  0.6755  1.1008
 8896SOL    HW238325   3.023   2.586  11.873 -0.8085 -2.8542  0.6914
 8897SOL     OW38326   1.070   1.897   3.307  0.3886  0.3440  0.4740
 8897SOL    HW138327   1.073   1.853   3.222 -0.5477 -0.6327  0.9451
 8897SOL    HW238328   1.106   1.979   3.275 -0.6378  0.6235  0.0337
 8898SOL     OW38329   1.179   0.879   5.991  0.0007  0.4009 -0.3255
 8898SOL    HW138330   1.127   0.821   5.935  0.9524 -1.9787  1.2631
 8898SOL    HW238331   1.117   0.952   5.995 -1.5265 -0.8582 -0.8996
 8899SOL     OW38332   1.033   2.466   9.093 -0.7708  0.1318  0.2959
 8899SOL    HW138333   0.983   2.394   9.132  0.7034  0.2694  2.4394
 8899SOL    HW238334   1.026   2.439   9.001 -1.3689 -0.6891  0.5799
 8900SOL     OW38335   3.096   1.607   8.605  0.8008 -0.4927  0.3854
 8900SOL    HW138336   3.042   1.585   8.529 -0.6507  0.1626  1.2202
 8900SOL    HW238337   3.034   1.636   8.672  1.7059 -0.1967  1.0906
 8901SOL     OW38338   1.634   1.445   9.679 -0.0228  0.0137 -0.8149
 8901SOL    HW138339   1.692   1.517   9.706  0.0740 -0.1181 -0.6722
 8901SOL    HW238340   1.555   1.485   9.644 -1.1762 -1.1690  0.4613
 8902SOL     OW38341   3.350   2.776  15.896 -0.1609 -0.0380 -0.9657
 8902SOL    HW138342   3.271   2.829  15.907 -0.0206  0.5681 -2.9697
 8902SOL    HW238343   3.422   2.837  15.915  0.0267 -0.8449  0.9186
 8903SOL     OW38344   3.002   0.272  10.141  1.0904 -0.5229  0.1049
 8903SOL    HW138345   3.083   0.323  10.141 -0.2177  1.5428 -3.1729
 8903SOL    HW238346   2.955   0.310  10.067  1.9231 -0.4107 -0.3620
 8904SOL     OW38347   0.156   0.492   8.804  0.3315 -0.0321 -0.5208
 8904SOL    HW138348   0.076   0.532   8.838 -1.0844 -3.1510 -0.2100
 8904SOL    HW238349   0.217   0.558   8.838  0.8450 -0.5228 -0.4878
 8905SOL     OW38350   3.821   3.295   2.657  0.1063 -0.0196  0.1306
 8905SOL    HW138351   3.759   3.328   2.723  0.3088  1.7405 -0.5655
 8905SOL    HW238352   3.887   3.363   2.671  0.1481  0.9031 -4.5426
 8906SOL     OW38353   2.289   0.201  16.080 -0.6872  0.0890 -0.5226
 8906SOL    HW138354   2.268   0.279  16.029 -0.2614 -1.5026 -3.1843
 8906SOL    HW238355   2.308   0.141  16.008 -0.0448 -0.2105 -0.1074
 8907SOL     OW38356   1.895   2.853   4.046 -0.0537 -0.0086 -0.0001
 8907SOL    HW138357   1.966   2.819   4.100  0.9128  1.0695 -0.5885
 8907SOL    HW238358   1.827   2.794   4.078 -0.5504  0.0682 -0.9027
 8908SOL     OW38359   1.006   1.510  12.731  0.2761  0.1537  0.1763
 8908SOL    HW138360   1.020   1.455  12.807  1.4004 -0.7487 -0.6941
 8908SOL    HW238361   1.084   1.491  12.680  0.9870  0.6470  1.0701
 8909SOL     OW38362   3.152   3.166   6.067  0.3079 -0.1301  0.3615
 8909SOL    HW138363   3.173   3.241   6.123  1.4258  0.0237 -0.2631
 8909SOL    HW238364   3.165   3.099   6.134 -2.0820  0.9861  1.9328
 8910SOL     OW38365   1.434   2.683   1.854  0.0610  0.3341 -0.0467
 8910SOL    HW138366   1.401   2.625   1.922  0.2520  2.0494  1.5283
 8910SOL    HW238367   1.418   2.766   1.901  0.5774  0.9543 -0.9704
 8911SOL     OW38368   2.063   4.385   1.525 -0.1945  0.4619 -0.2187
 8911SOL    HW138369   2.153   4.399   1.554  0.2111 -0.5559 -0.9660
 8911SOL    HW238370   2.068   4.290   1.519 -0.8002  0.5385 -2.1558
 8912SOL     OW38371   1.490   0.444   0.558  0.0569 -0.4468  0.2389
 8912SOL    HW138372   1.487   0.410   0.647  0.5046  1.0334  0.8189
 8912SOL    HW238373   1.398   0.472   0.554  0.7576  1.6138 -1.5407
 8913SOL     OW38374   2.483   4.680   0.480  0.3793 -0.0724  0.4010
 8913SOL    HW138375   2.444   4.717   0.559 -0.5197  0.5530 -0.3360
 8913SOL    HW238376   2.400   4.660   0.436  0.8252  0.0828 -0.5185
 8914SOL     OW38377   0.834   4.554   7.249 -0.1598  0.4217 -0.4046
 8914SOL    HW138378   0.854   4.646   7.232 -0.4772  0.3517 -1.1580
 8914SOL    HW238379   0.741   4.566   7.229  0.0208  2.7856  0.2168
 8915SOL     OW38380   4.167   4.470   7.199 -0.4092  0.4284 -0.1231
 8915SOL    HW138381   4.101   4.539   7.207 -1.7063 -0.9347  1.0230
 8915SOL    HW238382   4.205   4.476   7.112  0.8560  0.6854  0.4468
 8916SOL     OW38383   0.739   4.531   4.147 -0.8239 -0.4234 -0.1395
 8916SOL    HW138384   0.763   4.439   4.146  0.6616 -0.0146 -2.3916
 8916SOL    HW238385   0.644   4.523   4.138 -0.8341 -0.5409  0.0908
 8917SOL     OW38386   4.348   3.891   7.443 -0.4697  0.1308 -0.8798
 8917SOL    HW138387   4.413   3.828   7.413 -0.6926  0.1158 -1.3329
 8917SOL    HW238388   4.348   3.888   7.539 -3.2859 -0.8437 -0.8789
 8918SOL     OW38389   2.691   1.583   6.377  0.2639  0.2034  0.3248
 8918SOL    HW138390   2.782   1.611   6.377  0.0603  0.8597  1.1971
 8918SOL    HW238391   2.707   1.497   6.337 -1.6456 -0.0075 -0.0008
 8919SOL     OW38392   0.663   0.342   1.769 -0.2414 -0.0205 -0.9271
 8919SOL    HW138393   0.723   0.279   1.728  2.4946  0.8935  1.6470
 8919SOL    HW238394   0.703   0.334   1.855 -0.8858  0.5086 -0.5871
 8920SOL     OW38395   1.061   3.079   9.483  0.2466 -0.0736 -0.2920
 8920SOL    HW138396   1.100   3.038   9.406 -0.7633 -0.2574 -0.7096
 8920SOL    HW238397   0.977   3.103   9.444  0.2142  0.6605  0.2188
 8921SOL     OW38398   2.961   4.169   2.502 -0.6639 -0.4182  0.0678
 8921SOL    HW138399   3.028   4.112   2.538 -0.1560  0.0476 -0.1287
 8921SOL    HW238400   3.011   4.231   2.448 -0.7970  0.1317  0.5746
 8922SOL     OW38401   4.394   2.171   2.186  0.0588  0.7970  0.7360
 8922SOL    HW138402   4.337   2.094   2.183  1.1598 -0.0751  2.0061
 8922SOL    HW238403   4.455   2.133   2.250  1.1737  1.3634  0.0188
 8923SOL     OW38404   3.225   4.330   3.654  0.4365 -0.3584  0.5210
 8923SOL    HW138405   3.225   4.425   3.660 -0.7140 -0.4161  1.3096
 8923SOL    HW238406   3.223   4.317   3.559  1.1200  0.5949  0.3754
 8924SOL     OW38407   3.316   0.870  14.243 -0.0247  0.4500  0.2439
 8924SOL    HW138408   3.316   0.781  14.209 -0.1073  0.4378  0.2762
 8924SOL    HW238409   3.403   0.905  14.225 -1.0462  2.5478 -0.5958
 8925SOL     OW38410   1.000   4.605   9.889 -0.4662  0.2673  0.2124
 8925SOL    HW138411   0.997   4.688   9.842 -0.8422  0.8937  1.3297
 8925SOL    HW238412   1.027   4.549   9.817  0.9696  2.2120 -0.7833
 8926SOL     OW38413   1.109   0.092   2.263 -0.0846 -0.2984  0.2852
 8926SOL    HW138414   1.096   0.186   2.277  0.0581 -0.0305 -1.4337
 8926SOL    HW238415   1.025   0.054   2.287  0.2409 -0.8451  0.5593
 8927SOL     OW38416   1.314   2.492   6.439 -0.0197  0.3341  0.1554
 8927SOL    HW138417   1.348   2.420   6.387 -0.2171 -0.0487  0.5589
 8927SOL    HW238418   1.219   2.478   6.441 -0.2717  2.0420 -0.0811
 8928SOL     OW38419   3.726   1.877   3.809  0.7380  0.3419 -0.3400
 8928SOL    HW138420   3.766   1.961   3.789  1.7134  0.0801  0.5034
 8928SOL    HW238421   3.802   1.821   3.796 -1.3052 -2.4244 -0.3779
 8929SOL     OW38422   3.364   4.364  10.119 -0.7149  0.6812  0.5385
 8929SOL    HW138423   3.351   4.276  10.154  1.4366  1.0000  2.1813
 8929SOL    HW238424   3.275   4.396  10.104 -1.3276 -1.6449 -0.7546
 8930SOL     OW38425   1.740   2.107   0.938  0.2681  0.2677 -0.6233
 8930SOL    HW138426   1.674   2.174   0.956  1.8221  1.6981 -0.3283
 8930SOL    HW238427   1.687   2.029   0.919  0.8381 -0.5450  1.1160
 8931SOL     OW38428   4.252   4.170   5.297  0.5692 -0.1304 -0.4537
 8931SOL    HW138429   4.294   4.086   5.277 -0.2718 -0.8032  0.5710
 8931SOL    HW238430   4.240   4.203   5.208 -3.0776 -2.8956 -0.9910
 8932SOL     OW38431   2.525   0.844   0.151 -0.4028  0.1405 -0.1086
 8932SOL    HW138432   2.456   0.802   0.203  0.1512  0.0334  0.5476
 8932SOL    HW238433   2.562   0.771   0.101 -1.0535 -1.3990  1.6329
 8933SOL     OW38434   3.083   2.510   5.264 -0.2974 -0.2396 -0.1236
 8933SOL    HW138435   3.055   2.578   5.326  0.1330 -1.5948  1.5431
 8933SOL    HW238436   3.000   2.496   5.218 -0.1913 -0.6197 -0.2000
 8934SOL     OW38437   1.949   0.412   0.897 -0.3718 -0.3087  0.0523
 8934SOL    HW138438   1.960   0.375   0.809 -0.1538  0.8183 -0.3998
 8934SOL    HW238439   1.896   0.342   0.935 -1.1231 -0.1354 -0.6616
 8935SOL     OW38440   0.357   2.700   9.053 -0.5229 -0.3474  0.1667
 8935SOL    HW138441   0.303   2.651   9.114 -1.1934 -0.5808 -0.6328
 8935SOL    HW238442   0.392   2.642   8.986  2.7192  0.1774  1.3553
 8936SOL     OW38443   1.115   2.241  10.137 -0.0197  0.7971 -0.3000
 8936SOL    HW138444   1.210   2.251  10.146 -0.1867  0.6843  1.6521
 8936SOL    HW238445   1.105   2.324  10.091 -0.1469  0.5862 -0.6508
 8937SOL     OW38446   3.730   3.418   4.209 -0.1007  0.4506  0.1058
 8937SOL    HW138447   3.766   3.362   4.141  2.0720 -0.8719  2.3391
 8937SOL    HW238448   3.775   3.376   4.282 -0.1174  0.0973 -0.0875
 8938SOL     OW38449   1.352   0.243   8.764 -0.3313  0.1326 -0.7698
 8938SOL    HW138450   1.365   0.169   8.705 -1.4367 -2.3795  2.1330
 8938SOL    HW238451   1.286   0.294   8.718 -0.6221  0.0882 -0.4085
 8939SOL     OW38452   1.563   0.443   7.528 -0.5915  0.6885  0.2176
 8939SOL    HW138453   1.623   0.513   7.501 -0.7692  0.6254 -0.3478
 8939SOL    HW238454   1.508   0.490   7.590 -1.9319 -0.5981  0.0221
 8940SOL     OW38455   2.955   2.982  16.263  0.3686 -0.3026  0.3055
 8940SOL    HW138456   2.952   2.887  16.273  0.4687  0.1039  4.1887
 8940SOL    HW238457   2.868   2.996  16.227  0.6019  1.1218  0.2622
 8941SOL     OW38458   1.223   0.437   9.358 -0.2872 -0.6129  0.4424
 8941SOL    HW138459   1.194   0.524   9.387 -1.2477 -1.1875  1.2223
 8941SOL    HW238460   1.248   0.394   9.440  1.6731 -0.2413  0.0328
 8942SOL     OW38461   3.854   0.960   9.029  0.0349  0.2371  0.7142
 8942SOL    HW138462   3.810   0.920   9.104  2.4247 -1.9499  0.9639
 8942SOL    HW238463   3.818   0.918   8.951  1.5937  1.8593 -0.8879
 8943SOL     OW38464   3.859   1.557   0.337 -0.2225  0.7422 -0.2524
 8943SOL    HW138465   3.806   1.546   0.258  0.8770 -0.1891 -0.8537
 8943SOL    HW238466   3.794   1.540   0.405  0.1939 -1.6172 -0.4574
 8944SOL     OW38467   2.416   3.711   3.598 -0.1233  0.1980 -0.0058
 8944SOL    HW138468   2.339   3.767   3.605 -0.9463 -1.1801  1.9398
 8944SOL    HW238469   2.378   3.626   3.575 -1.8702  0.6562  1.1957
 8945SOL     OW38470   2.818   1.900   4.287 -0.3676 -0.3034 -0.8004
 8945SOL    HW138471   2.734   1.871   4.251 -1.4601 -0.7771  2.0850
 8945SOL    HW238472   2.836   1.976   4.232 -1.1461 -0.6324 -1.5161
 8946SOL     OW38473   3.267   1.093   9.363  0.7353  0.1537 -0.6263
 8946SOL    HW138474   3.327   1.159   9.399 -2.5870  1.4522  2.5376
 8946SOL    HW238475   3.226   1.066   9.445  0.9824 -0.1413 -0.5999
 8947SOL     OW38476   1.363   1.711   7.870  0.0337 -0.2983  0.0170
 8947SOL    HW138477   1.409   1.653   7.810  1.4873  0.7502  0.1159
 8947SOL    HW238478   1.319   1.767   7.805 -0.5903 -0.2408  0.4852
 8948SOL     OW38479   3.055   0.140   3.292  0.2764 -0.7867  0.6876
 8948SOL    HW138480   2.966   0.168   3.316  0.3953  0.3596 -0.2471
 8948SOL    HW238481   3.108   0.172   3.365  2.4943 -1.5051 -0.6194
 8949SOL     OW38482   4.554   0.109   7.611 -0.2920  0.7791  0.3459
 8949SOL    HW138483   4.517   0.039   7.665  0.2110  1.5541  1.6891
 8949SOL    HW238484   4.467   0.149   7.606  1.7173  4.9709 -1.0865
 8950SOL     OW38485   4.628   0.925  16.303  0.4435 -0.1348 -0.1079
 8950SOL    HW138486   4.593   1.014  16.313 -1.8297 -1.0312  0.0428
 8950SOL    HW238487   4.723   0.933  16.299  0.3959  1.1609  1.4557
 8951SOL     OW38488   4.058   3.843  12.933 -0.0519 -0.6905 -0.0393
 8951SOL    HW138489   3.987   3.828  12.996  0.0072 -0.4983  0.0703
 8951SOL    HW238490   4.128   3.785  12.963 -1.9014 -2.4685  0.9155
 8952SOL     OW38491   3.917   0.479   4.947  0.1498 -0.6885 -0.2167
 8952SOL    HW138492   3.863   0.470   5.026 -1.4997 -2.7083 -1.5680
 8952SOL    HW238493   3.899   0.562   4.903  1.7010 -0.3988 -0.3096
 8953SOL     OW38494   2.731   4.544   6.734  0.5667 -0.2752 -0.0795
 8953SOL    HW138495   2.711   4.489   6.810 -0.2412  0.6180  0.3610
 8953SOL    HW238496   2.747   4.476   6.669 -1.0327  0.8246 -1.6160
 8954SOL     OW38497   3.827   3.490   6.894  0.3598 -0.9061 -0.2012
 8954SOL    HW138498   3.896   3.438   6.935  1.9809  0.6871 -0.9020
 8954SOL    HW238499   3.848   3.575   6.933 -1.9900 -0.7917  0.8566
 8955SOL     OW38500   4.607   3.800   2.827  0.8338 -0.1865 -0.1932
 8955SOL    HW138501   4.636   3.785   2.737  2.6452  2.6168 -0.0864
 8955SOL    HW238502   4.623   3.716   2.869  0.2084  0.2516  0.9140
 8956SOL     OW38503   3.676   0.112   3.945  0.2003  0.0458  0.0790
 8956SOL    HW138504   3.671   0.113   4.041  0.8870  1.8052  0.1109
 8956SOL    HW238505   3.696   0.021   3.926  0.8748  0.3246 -0.5433
 8957SOL     OW38506   0.606   4.427   5.470  0.3316 -0.5574 -0.5165
 8957SOL    HW138507   0.560   4.442   5.552  1.4441  0.7601 -0.1368
 8957SOL    HW238508   0.693   4.459   5.492  0.1901 -0.7284  0.2621
 8958SOL     OW38509   3.278   1.595  17.348 -0.7358 -0.9130 -0.6427
 8958SOL    HW138510   3.282   1.629  17.437 -0.1465  1.3685 -1.5407
 8958SOL    HW238511   3.312   1.672  17.302 -1.9895  0.0411  0.0389
 8959SOL     OW38512   1.007   2.472   3.030 -0.2710 -0.1847  0.1378
 8959SOL    HW138513   0.983   2.435   2.945  2.2983  1.7788 -1.4438
 8959SOL    HW238514   1.099   2.446   3.039 -0.8630 -1.4612  2.4759
 8960SOL     OW38515   1.411   1.580  13.718  0.0395  0.2553  0.2155
 8960SOL    HW138516   1.476   1.519  13.753  0.3500  0.0143 -0.7834
 8960SOL    HW238517   1.331   1.534  13.744 -0.1675  1.1348  1.1475
 8961SOL     OW38518   3.698   2.457   9.623 -0.4541  0.2735  0.1221
 8961SOL    HW138519   3.633   2.489   9.559 -1.5341  0.0275  1.0875
 8961SOL    HW238520   3.705   2.529   9.685  1.1007  0.2670 -0.0599
 8962SOL     OW38521   4.706   1.357   3.298  0.4337 -0.1034  0.5460
 8962SOL    HW138522   0.037   1.358   3.363 -0.4539  3.7973  1.4691
 8962SOL    HW238523   4.721   1.447   3.270 -1.1520  0.0982  0.3700
 8963SOL     OW38524   0.590   1.107   4.339  0.0566 -0.4402 -0.1815
 8963SOL    HW138525   0.505   1.108   4.383 -0.0565 -2.3194 -0.3517
 8963SOL    HW238526   0.596   1.013   4.326  0.5705 -0.1992 -1.6741
 8964SOL     OW38527   1.712   1.377   1.880 -0.0650 -0.0843 -0.2134
 8964SOL    HW138528   1.718   1.458   1.930  2.1957 -0.1900 -0.3055
 8964SOL    HW238529   1.637   1.339   1.927  0.8110 -0.2813  1.0285
 8965SOL     OW38530   0.750   2.373   2.437  0.4519  0.2427  0.6262
 8965SOL    HW138531   0.697   2.446   2.466 -0.8316 -0.7228  0.7348
 8965SOL    HW238532   0.684   2.303   2.432  0.5146  0.3664 -1.8009
 8966SOL     OW38533   3.570   0.244   7.486  0.1041 -0.2161  0.2355
 8966SOL    HW138534   3.588   0.306   7.556 -0.3852  1.4414 -1.1094
 8966SOL    HW238535   3.653   0.243   7.438 -0.6270  0.0849 -1.0457
 8967SOL     OW38536   2.066   3.500  14.583  0.0272  0.2532 -0.3985
 8967SOL    HW138537   1.995   3.464  14.636 -0.8517 -1.2228 -2.6053
 8967SOL    HW238538   2.019   3.530  14.505 -0.8954 -2.1442 -0.7820
 8968SOL     OW38539   2.070   2.971   6.069  0.8512  0.2129 -0.1042
 8968SOL    HW138540   2.026   3.015   6.141  0.8176  0.3818 -0.2275
 8968SOL    HW238541   2.121   2.906   6.117  2.1724  2.2441  1.2480
 8969SOL     OW38542   4.708   2.702   8.875 -0.5407 -0.3342  0.7361
 8969SOL    HW138543   4.710   2.624   8.931  2.2581 -1.8334 -1.4635
 8969SOL    HW238544   4.693   2.665   8.788 -0.7450  2.3323 -0.3360
 8970SOL     OW38545   2.786   3.530   3.625 -0.1222  0.0809  0.1298
 8970SOL    HW138546   2.746   3.617   3.633  0.7075  0.5532 -0.8925
 8970SOL    HW238547   2.714   3.471   3.647  0.0513 -0.5367 -0.9568
 8971SOL     OW38548   1.931   2.674   0.035  0.5860 -0.3668 -0.0228
 8971SOL    HW138549   1.887   2.747  17.748 -0.5010  0.0337  1.7836
 8971SOL    HW238550   1.855   2.634   0.076  1.6447 -0.7027  1.6040
 8972SOL     OW38551   3.968   2.836   5.124  0.2609  0.4022 -0.7567
 8972SOL    HW138552   4.002   2.836   5.035 -0.3650 -0.1402 -0.9921
 8972SOL    HW238553   3.931   2.748   5.126 -0.8295  0.8899  0.7034
 8973SOL     OW38554   0.856   0.896   2.932  0.2231  0.1015 -0.5092
 8973SOL    HW138555   0.872   0.821   2.988 -1.4356 -0.4470 -0.7871
 8973SOL    HW238556   0.935   0.888   2.878  1.6871 -1.7612  1.8881
 8974SOL     OW38557   2.806   0.557   3.440 -0.4359 -0.6880 -0.1621
 8974SOL    HW138558   2.770   0.559   3.351  1.5492 -0.0758 -0.9440
 8974SOL    HW238559   2.777   0.468   3.462  2.5289 -1.5896  0.0771
 8975SOL     OW38560   3.055   2.582   4.856  0.0629  0.0451  0.2222
 8975SOL    HW138561   2.968   2.584   4.895  0.5404 -1.3817  1.3422
 8975SOL    HW238562   3.036   2.645   4.787 -1.3640 -2.1152 -1.3605
 8976SOL     OW38563   2.490   3.565  13.608 -0.6619  0.5239 -0.0605
 8976SOL    HW138564   2.470   3.658  13.596 -0.1341  0.8953  1.8836
 8976SOL    HW238565   2.481   3.558  13.703 -1.9676 -1.5857 -0.3357
 8977SOL     OW38566   0.182   1.579   2.124 -0.2694  0.6222  0.2810
 8977SOL    HW138567   0.267   1.550   2.156 -1.1264  0.3152  2.2730
 8977SOL    HW238568   0.136   1.495   2.124 -1.1490  1.1075  1.5361
 8978SOL     OW38569   2.078   2.386   8.279  0.0461  0.0267 -0.1451
 8978SOL    HW138570   2.157   2.352   8.321 -0.4024 -1.5223 -0.5968
 8978SOL    HW238571   2.013   2.360   8.344  0.7059 -3.7630 -1.0390
 8979SOL     OW38572   3.183   3.172   4.375 -0.0824 -0.0522 -0.3921
 8979SOL    HW138573   3.195   3.090   4.423 -1.5181 -0.7022 -1.1600
 8979SOL    HW238574   3.112   3.157   4.313 -1.1436 -1.6699  1.2383
 8980SOL     OW38575   4.375   0.052   5.116 -0.6895  0.1229 -0.6909
 8980SOL    HW138576   4.330   0.107   5.052 -3.9792 -0.5934  0.9610
 8980SOL    HW238577   4.450   0.018   5.069  0.3975 -0.9425  1.7815
 8981SOL     OW38578   2.964   2.211  15.724 -0.0138 -0.2699 -0.1144
 8981SOL    HW138579   2.887   2.172  15.767 -1.8806  1.1292 -2.1470
 8981SOL    HW238580   3.017   2.228  15.801  0.1058 -1.8339  0.1587
 8982SOL     OW38581   1.083   4.505  11.680 -0.2522 -0.4015 -0.2294
 8982SOL    HW138582   1.103   4.467  11.595  2.9552  1.0374 -0.0914
 8982SOL    HW238583   1.152   4.571  11.686  1.3784 -2.2914  1.7306
 8983SOL     OW38584   4.300   1.557   7.537 -0.4595  0.5321 -0.1436
 8983SOL    HW138585   4.263   1.552   7.449 -0.4326 -1.6974 -0.0128
 8983SOL    HW238586   4.283   1.651   7.549  0.3580  0.5546  0.8558
 8984SOL     OW38587   3.760   2.077   2.983 -0.1869  0.1842  0.0469
 8984SOL    HW138588   3.763   2.030   3.067 -0.5397  0.1200  0.0203
 8984SOL    HW238589   3.834   2.035   2.938  0.3503 -0.9498  1.9782
 8985SOL     OW38590   3.426   2.550   6.231 -0.1623 -0.6609 -0.2234
 8985SOL    HW138591   3.371   2.475   6.253 -0.9895  0.7194  2.3008
 8985SOL    HW238592   3.500   2.542   6.291 -1.5096 -2.7120  1.1738
 8986SOL     OW38593   0.299   1.793   6.569 -0.3921  0.1428 -0.8258
 8986SOL    HW138594   0.264   1.873   6.607 -0.8084 -0.9877  1.1542
 8986SOL    HW238595   0.248   1.719   6.602 -1.1189  1.1433  0.2668
 8987SOL     OW38596   0.790   1.159   7.303 -0.0190 -0.3640  0.3456
 8987SOL    HW138597   0.821   1.163   7.393  0.1126 -1.8212  0.3660
 8987SOL    HW238598   0.696   1.164   7.315 -0.1438  0.6133 -1.0391
 8988SOL     OW38599   4.318   1.193  14.896  0.5238 -0.0414 -0.4797
 8988SOL    HW138600   4.383   1.176  14.828  1.0505 -3.1827  0.8295
 8988SOL    HW238601   4.240   1.192  14.839 -0.9526 -0.1099  1.5337
 8989SOL     OW38602   3.354   1.068   2.030 -0.1256 -0.1373  0.4041
 8989SOL    HW138603   3.424   1.098   1.971 -1.1004  2.4925  0.6031
 8989SOL    HW238604   3.398   1.033   2.108  2.5984  1.6643 -0.3079
 8990SOL     OW38605   0.728   1.709   8.190 -0.5435 -0.0473 -0.7498
 8990SOL    HW138606   0.678   1.767   8.132 -1.6350  0.8703  1.0599
 8990SOL    HW238607   0.725   1.630   8.137  1.8081 -0.4746 -0.2340
 8991SOL     OW38608   1.495   4.662  14.405 -0.4048  0.2902 -0.0327
 8991SOL    HW138609   1.411   4.621  14.426 -0.8578  0.3673 -1.7659
 8991SOL    HW238610   1.487   4.677  14.311 -3.5053 -2.0609 -0.1247
 8992SOL     OW38611   1.520   1.430  11.206  0.3518 -0.3184 -0.3808
 8992SOL    HW138612   1.581   1.477  11.149 -0.2136  0.5424 -0.2702
 8992SOL    HW238613   1.462   1.388  11.142 -0.3294 -0.3294  0.2404
 8993SOL     OW38614   1.390   4.258   9.348  0.3589 -0.2847 -0.1713
 8993SOL    HW138615   1.434   4.338   9.376 -0.1272 -0.3817  0.8986
 8993SOL    HW238616   1.465   4.199   9.353  0.0504 -0.5193  2.1261
 8994SOL     OW38617   1.314   4.173   1.318  0.1534 -0.0738  0.6755
 8994SOL    HW138618   1.401   4.210   1.335  0.3110  0.4674 -1.3364
 8994SOL    HW238619   1.266   4.256   1.310  0.9020  0.5665  2.5688
 8995SOL     OW38620   3.504   1.069   8.620 -0.4617  0.6980 -0.0109
 8995SOL    HW138621   3.559   0.992   8.605 -1.1028 -0.4056  3.3867
 8995SOL    HW238622   3.579   1.128   8.633  0.6576 -0.9570  0.9689
 8996SOL     OW38623   3.453   1.328   6.425  0.1151  0.4407 -0.0221
 8996SOL    HW138624   3.486   1.250   6.470 -2.3382 -0.7925 -0.3740
 8996SOL    HW238625   3.373   1.294   6.386  0.2330 -0.1444  0.2538
 8997SOL     OW38626   3.013   4.229   4.986  0.5485 -0.1217  0.6734
 8997SOL    HW138627   3.063   4.173   4.927  0.6931  0.6020  0.1103
 8997SOL    HW238628   3.074   4.260   5.052  1.1838  1.5815 -0.7047
 8998SOL     OW38629   1.540   2.426   5.419 -0.1197  0.0440 -0.1542
 8998SOL    HW138630   1.452   2.447   5.387  0.4826  0.1989 -1.7088
 8998SOL    HW238631   1.542   2.330   5.412 -0.7846 -0.0299  0.7231
 8999SOL     OW38632   0.253   4.417   3.234  0.1405  0.1385 -0.0862
 8999SOL    HW138633   0.300   4.436   3.152 -1.6315 -0.9115 -1.3235
 8999SOL    HW238634   0.200   4.342   3.207  1.5896 -0.6255 -0.8571
 9000SOL     OW38635   4.029   4.280  13.873 -0.0919 -0.8315  0.4788
 9000SOL    HW138636   3.955   4.334  13.904 -0.2743 -0.4412 -0.6361
 9000SOL    HW238637   3.997   4.267  13.784 -1.9045  1.0662  0.8336
 9001SOL     OW38638   2.531   1.034  13.819  0.0832 -0.6652 -0.1251
 9001SOL    HW138639   2.626   1.018  13.820  0.2993  0.5940 -0.5529
 9001SOL    HW238640   2.516   1.001  13.907 -0.9651  0.4870  0.1259
 9002SOL     OW38641   0.348   4.550   6.918  0.0272 -0.3605 -0.1730
 9002SOL    HW138642   0.357   4.490   6.992  0.4728  2.7133  2.2515
 9002SOL    HW238643   0.322   4.626   6.969  0.2188  1.0519 -2.1815
 9003SOL     OW38644   3.439   1.130   9.111  0.1515  0.0678  0.4029
 9003SOL    HW138645   3.488   1.101   9.188  0.5089  0.3495  0.2753
 9003SOL    HW238646   3.364   1.169   9.156 -0.0530  0.5338 -0.3494
 9004SOL     OW38647   2.328   2.766   3.532  0.1882 -0.0779 -0.0543
 9004SOL    HW138648   2.286   2.822   3.597 -3.1362  2.0395 -4.0272
 9004SOL    HW238649   2.303   2.678   3.559  1.2887 -0.5054 -0.4249
 9005SOL     OW38650   3.896   0.968   6.699 -0.3976 -0.0327  0.5441
 9005SOL    HW138651   3.916   0.980   6.792 -0.8756 -1.5076  0.8415
 9005SOL    HW238652   3.800   0.970   6.705 -0.4903 -2.1596 -0.1692
 9006SOL     OW38653   2.588   1.594   0.961  0.0637 -0.0442  0.3037
 9006SOL    HW138654   2.505   1.559   0.991  0.4376 -0.4096  0.9238
 9006SOL    HW238655   2.625   1.515   0.922 -0.1216  0.4662 -0.9132
 9007SOL     OW38656   0.606   0.706  10.290  0.2188 -0.1794 -0.0262
 9007SOL    HW138657   0.520   0.674  10.315 -0.2666  1.7872  0.8224
 9007SOL    HW238658   0.596   0.673  10.201 -0.6205  0.6326 -0.2345
 9008SOL     OW38659   3.654   3.575  11.189  0.0495  0.5669 -0.0193
 9008SOL    HW138660   3.667   3.669  11.201 -0.0386  0.3293  1.9985
 9008SOL    HW238661   3.638   3.531  11.272 -0.1428  4.4743  2.0315
 9009SOL     OW38662   2.122   2.331  10.797  0.4307  0.5772 -0.4109
 9009SOL    HW138663   2.101   2.424  10.784  1.0846  0.8317  0.3161
 9009SOL    HW238664   2.083   2.293  10.719  1.0741  1.8665 -1.3704
 9010SOL     OW38665   2.672   0.073  13.580 -0.2005  0.2633 -0.8525
 9010SOL    HW138666   2.698   0.108  13.665  1.0647  0.3282 -1.2768
 9010SOL    HW238667   2.622   4.736  13.607  0.1273 -0.5418 -2.5460
 9011SOL     OW38668   2.060   0.266  16.649  0.3836 -0.5597 -0.2836
 9011SOL    HW138669   2.081   0.258  16.742  2.3318 -2.0988 -0.8615
 9011SOL    HW238670   1.975   0.225  16.633 -0.9688  1.7360  0.8806
 9012SOL     OW38671   2.044   3.258  14.297  0.0967 -0.1566 -0.3958
 9012SOL    HW138672   2.126   3.308  14.293  0.3426 -0.4358  1.1719
 9012SOL    HW238673   2.080   3.184  14.346 -0.0162  2.2059  3.2807
 9013SOL     OW38674   0.171   1.595   6.739  0.2262 -0.1497 -0.2013
 9013SOL    HW138675   0.225   1.518   6.723  1.8801  0.9781 -0.0049
 9013SOL    HW238676   0.083   1.556   6.730  0.1549  0.1658 -0.8557
 9014SOL     OW38677   0.305   0.922   1.460 -0.1166 -0.2239 -0.4859
 9014SOL    HW138678   0.383   0.958   1.502  0.8302 -1.9532 -0.7962
 9014SOL    HW238679   0.336   0.845   1.412 -1.5128 -0.6608 -0.6701
 9015SOL     OW38680   4.685   3.037   2.469  0.0994 -0.3207 -0.4101
 9015SOL    HW138681   4.612   3.088   2.435 -0.1912  1.2869  2.6984
 9015SOL    HW238682   4.726   3.102   2.526  0.5757 -0.0719 -1.0229
 9016SOL     OW38683   4.042   2.245   1.907 -0.0126 -0.1288  0.7707
 9016SOL    HW138684   4.064   2.207   1.822 -0.9444  2.5585 -0.6774
 9016SOL    HW238685   4.102   2.319   1.916  1.8463 -1.2423 -2.2529
 9017SOL     OW38686   0.055   1.379  10.595  0.0262 -0.0387  0.4340
 9017SOL    HW138687   0.138   1.427  10.602 -0.0341 -0.4888  4.1299
 9017SOL    HW238688   0.030   1.347  10.681  2.7663 -0.0702  1.2221
 9018SOL     OW38689   1.520   2.362   3.522 -0.1438  0.6476 -0.1843
 9018SOL    HW138690   1.447   2.301   3.511  0.7510 -0.3828 -0.4931
 9018SOL    HW238691   1.474   2.444   3.505  0.7561  1.7643  2.7830
 9019SOL     OW38692   0.029   3.147   7.886  0.2358  0.2302  0.4149
 9019SOL    HW138693   4.721   3.108   7.813  2.3843  2.5161 -2.2276
 9019SOL    HW238694   4.695   3.151   7.947  0.2876  0.7049  0.4463
 9020SOL     OW38695   1.997   1.712   4.106 -0.2684  0.1396  0.8213
 9020SOL    HW138696   1.906   1.685   4.120 -0.2757  0.3910  1.2712
 9020SOL    HW238697   2.020   1.652   4.036  1.7417  0.6071  1.0930
 9021SOL     OW38698   4.069   2.388  11.841  0.0377 -0.1551 -0.2629
 9021SOL    HW138699   3.978   2.386  11.870  0.2021 -0.4629  0.2322
 9021SOL    HW238700   4.066   2.325  11.769  0.7717 -1.3971  0.8153
 9022SOL     OW38701   3.453   4.571   4.018 -0.0979 -0.1858  1.2462
 9022SOL    HW138702   3.439   4.494   3.962 -2.5632  0.6542  0.7205
 9022SOL    HW238703   3.411   4.644   3.972  3.0432  0.5632 -0.4666
 9023SOL     OW38704   2.741   4.109   0.253  0.2408 -0.2147  0.3369
 9023SOL    HW138705   2.689   4.054   0.194  1.3719 -0.9783  0.0426
 9023SOL    HW238706   2.796   4.036   0.282  0.4152  0.2392  1.1368
 9024SOL     OW38707   0.019   3.668   3.138 -0.2302  0.1259 -0.7171
 9024SOL    HW138708   4.710   3.701   3.214 -0.1919 -2.0874  0.2920
 9024SOL    HW238709   4.687   3.630   3.087 -0.5517 -1.1577  0.6859
 9025SOL     OW38710   1.645   2.002   4.817 -1.0378 -0.5549  0.2419
 9025SOL    HW138711   1.598   2.080   4.787 -2.0583 -1.0744  0.4750
 9025SOL    HW238712   1.663   1.950   4.738  0.8536 -0.4347  0.5938
 9026SOL     OW38713   4.281   4.618   3.259  0.5823  0.3566  0.9485
 9026SOL    HW138714   4.340   4.588   3.328  2.6003 -0.4830 -1.1378
 9026SOL    HW238715   4.346   4.642   3.192 -1.3718  0.7588 -0.7930
 9027SOL     OW38716   2.682   0.527   9.193  0.2636 -0.1338  0.0247
 9027SOL    HW138717   2.650   0.616   9.210 -0.2948 -1.0566  3.7349
 9027SOL    HW238718   2.638   0.508   9.110 -1.0924  0.7598  0.5220
 9028SOL     OW38719   0.878   3.784   9.638 -0.2245 -0.0047  0.1335
 9028SOL    HW138720   0.793   3.817   9.608 -0.1623 -0.1022 -0.1497
 9028SOL    HW238721   0.858   3.758   9.728 -0.8466 -1.7017 -0.5010
 9029SOL     OW38722   2.826   2.466   2.515 -0.0191 -0.2801 -0.5813
 9029SOL    HW138723   2.815   2.380   2.474 -0.2742 -1.2391  1.4996
 9029SOL    HW238724   2.816   2.517   2.435  0.0414  0.1509 -0.3120
 9030SOL     OW38725   3.279   3.004  13.545 -0.1197  0.1819  0.3001
 9030SOL    HW138726   3.199   3.003  13.493 -0.0253  1.8871  0.1188
 9030SOL    HW238727   3.336   2.967  13.478 -0.8865  0.0379 -0.2705
 9031SOL     OW38728   1.142   2.161  11.749 -0.1369  0.9485  0.1111
 9031SOL    HW138729   1.205   2.172  11.820 -1.4224 -0.6657  1.5294
 9031SOL    HW238730   1.104   2.082  11.787 -1.7328  2.1813  1.1080
 9032SOL     OW38731   4.687   4.359   4.734  0.2725 -0.4177  0.0346
 9032SOL    HW138732   4.708   4.367   4.828 -0.1995  1.2260 -0.0064
 9032SOL    HW238733   0.040   4.341   4.715 -0.2059 -0.9950 -1.6457
 9033SOL     OW38734   2.442   1.688   5.770 -0.3042  0.0190 -0.0175
 9033SOL    HW138735   2.433   1.594   5.757  1.3869 -0.4438  2.1431
 9033SOL    HW238736   2.398   1.718   5.691 -1.7353 -0.5846  0.5458
 9034SOL     OW38737   4.170   2.604   7.530 -0.3910  0.0224 -0.0518
 9034SOL    HW138738   4.089   2.553   7.526  0.3252 -1.0414 -0.6703
 9034SOL    HW238739   4.191   2.585   7.622 -1.4316  0.5056  0.2942
 9035SOL     OW38740   4.404   0.165   9.044  0.0398  0.5924  0.2771
 9035SOL    HW138741   4.360   0.084   9.016 -1.4476  2.5259 -2.9994
 9035SOL    HW238742   4.434   0.127   9.126  2.5247  1.4303 -0.2559
 9036SOL     OW38743   2.539   2.395   6.817 -0.3216  0.0453 -0.1463
 9036SOL    HW138744   2.482   2.425   6.888  0.2303  1.3877 -0.2739
 9036SOL    HW238745   2.492   2.318   6.786  1.7130 -0.8908 -0.9319
 9037SOL     OW38746   4.723   3.866   3.598 -0.7427  0.0876  0.2935
 9037SOL    HW138747   4.680   3.951   3.598  2.7488  1.8883 -0.6973
 9037SOL    HW238748   4.656   3.814   3.642 -0.0280 -0.3491  0.8758
 9038SOL     OW38749   0.174   2.420   5.677 -0.7266  0.1251  0.4891
 9038SOL    HW138750   0.104   2.373   5.722  0.7926 -2.5880  0.0266
 9038SOL    HW238751   0.203   2.495   5.728 -0.7358 -0.6484  1.6176
 9039SOL     OW38752   2.011   1.802   9.855  0.4527  0.6265  0.7273
 9039SOL    HW138753   2.045   1.714   9.868  0.4716  0.1402 -2.7860
 9039SOL    HW238754   2.039   1.850   9.933  1.2356 -1.8827  1.9981
 9040SOL     OW38755   3.722   2.854   6.907 -0.6495  0.2026  0.1009
 9040SOL    HW138756   3.784   2.832   6.838 -1.1552 -0.5274 -0.1177
 9040SOL    HW238757   3.661   2.907   6.855  1.4157  2.9764  0.5257
 9041SOL     OW38758   2.938   1.854  15.551 -0.0975  0.0203  0.4383
 9041SOL    HW138759   2.913   1.802  15.474  1.1097  0.4820 -0.2647
 9041SOL    HW238760   2.855   1.890  15.581 -0.4773  0.1048 -0.6863
 9042SOL     OW38761   3.003   1.712   4.349  0.6282  0.6455  0.1933
 9042SOL    HW138762   2.946   1.783   4.318 -0.8604 -1.0687 -1.0358
 9042SOL    HW238763   2.948   1.678   4.419  1.8344 -1.4099  0.1167
 9043SOL     OW38764   1.832   3.828   6.828 -0.4792 -0.9697 -0.4786
 9043SOL    HW138765   1.806   3.842   6.737  1.7037  2.2939 -0.6158
 9043SOL    HW238766   1.927   3.818   6.816  0.0895  2.0238  1.4692
 9044SOL     OW38767   3.428   1.547  10.623 -0.1950 -0.1841  0.3535
 9044SOL    HW138768   3.481   1.522  10.698 -0.8760 -0.2519  0.8154
 9044SOL    HW238769   3.340   1.534  10.659  0.2534 -0.3655  1.3698
 9045SOL     OW38770   4.351   3.632  11.481 -0.1373 -0.5140  0.3536
 9045SOL    HW138771   4.269   3.606  11.522 -0.8368  0.7759 -0.2180
 9045SOL    HW238772   4.410   3.604  11.551 -0.2050 -1.1368  0.1690
 9046SOL     OW38773   3.005   4.555   4.477  0.4389  0.4074 -0.2899
 9046SOL    HW138774   2.959   4.619   4.533 -2.3620 -0.9492 -1.0558
 9046SOL    HW238775   2.943   4.483   4.467  1.7067 -0.4936 -1.5942
 9047SOL     OW38776   3.583   0.101  11.736 -0.5324  0.3673  0.1309
 9047SOL    HW138777   3.575   0.147  11.819 -2.9305 -2.0372  1.1868
 9047SOL    HW238778   3.643   0.036  11.771 -1.7850  0.2701  2.0589
 9048SOL     OW38779   3.567   1.084   5.358 -0.4090 -0.2713 -0.3101
 9048SOL    HW138780   3.497   1.088   5.423  1.0178  0.8973  1.1604
 9048SOL    HW238781   3.536   1.146   5.292 -0.7339 -0.0849  0.0173
 9049SOL     OW38782   4.466   1.921   5.056  0.2238 -0.1879  0.6245
 9049SOL    HW138783   4.391   1.977   5.036 -0.8384 -1.2762  1.5284
 9049SOL    HW238784   4.449   1.847   4.999  1.0060 -1.0201  1.4738
 9050SOL     OW38785   2.339   1.860   4.740  0.4002  0.2476  0.5084
 9050SOL    HW138786   2.337   1.770   4.706  0.1020  0.2146  0.6168
 9050SOL    HW238787   2.365   1.900   4.658 -0.6324 -0.1750 -0.0210
 9051SOL     OW38788   4.620   3.540   2.935  0.5344  0.0032  0.0575
 9051SOL    HW138789   4.590   3.496   2.856  1.2605 -1.2779  0.4978
 9051SOL    HW238790   4.571   3.487   2.998  1.2888 -1.3801 -0.5208
 9052SOL     OW38791   0.554   2.031   7.598  0.1325  0.6392  0.2137
 9052SOL    HW138792   0.526   1.991   7.515  0.4056 -1.3076  1.0697
 9052SOL    HW238793   0.643   2.000   7.616 -0.0818 -0.2561 -0.2637
 9053SOL     OW38794   1.176   0.436   9.081 -0.0096 -0.0232 -0.1889
 9053SOL    HW138795   1.199   0.525   9.053  2.4484  0.1270  2.4121
 9053SOL    HW238796   1.200   0.421   9.172 -0.4184  0.1070 -0.0618
 9054SOL     OW38797   3.639   0.487  16.817 -0.0539 -0.1657  0.3750
 9054SOL    HW138798   3.669   0.578  16.828  0.5626 -0.4128  0.7230
 9054SOL    HW238799   3.672   0.435  16.890  3.8846  2.1438  0.2259
 9055SOL     OW38800   4.424   3.186   9.183  0.4043 -0.3476 -0.5868
 9055SOL    HW138801   4.368   3.262   9.195  1.1993  0.0952  0.3032
 9055SOL    HW238802   4.482   3.206   9.256 -1.8857  0.2371  1.0633
 9056SOL     OW38803   1.150   0.716  16.070  0.1140 -0.2780 -0.1015
 9056SOL    HW138804   1.209   0.766  16.014  2.8921 -0.6745  2.4750
 9056SOL    HW238805   1.141   0.630  16.028 -2.7274  0.5538 -1.2024
 9057SOL     OW38806   4.021   4.174  12.664 -0.0379 -0.0031 -0.3041
 9057SOL    HW138807   4.045   4.267  12.663  1.1494 -0.3228 -1.1260
 9057SOL    HW238808   4.044   4.155  12.573  1.2552 -1.6533  0.3900
 9058SOL     OW38809   0.382   0.865   5.724 -0.3284 -0.2762  0.7207
 9058SOL    HW138810   0.377   0.957   5.695 -1.0275 -0.6684 -0.4318
 9058SOL    HW238811   0.304   0.863   5.780  0.3395 -0.8147  1.6211
 9059SOL     OW38812   0.573   1.396  17.646  0.0688 -0.2513  0.0790
 9059SOL    HW138813   0.543   1.467  17.703  1.5562  0.5357 -0.1096
 9059SOL    HW238814   0.531   1.323  17.691  0.6789 -1.0039 -0.5844
 9060SOL     OW38815   0.883   4.696   8.404 -0.6801 -0.3357  0.0233
 9060SOL    HW138816   0.880   0.053   8.402  1.3307 -0.2897 -0.1711
 9060SOL    HW238817   0.944   4.675   8.334  1.8670  0.9124  1.8606
 9061SOL     OW38818   3.851   1.284   1.514 -0.4585  0.3476  0.0607
 9061SOL    HW138819   3.792   1.301   1.587  1.5984 -0.8240  2.0038
 9061SOL    HW238820   3.872   1.371   1.480  1.1128  0.1178  0.4409
 9062SOL     OW38821   3.877   3.692   3.475 -0.4304  0.0137  0.0410
 9062SOL    HW138822   3.931   3.613   3.462  1.4071  1.1323  0.8052
 9062SOL    HW238823   3.794   3.671   3.433 -0.1796 -0.0482 -0.4282
 9063SOL     OW38824   4.437   3.755  15.740 -0.1619 -0.0515  0.5514
 9063SOL    HW138825   4.490   3.818  15.691 -1.6500  0.7187 -0.0680
 9063SOL    HW238826   4.388   3.811  15.800  0.5385  1.4789 -0.3104
 9064SOL     OW38827   4.501   2.341   3.884  0.6077 -0.5519 -0.1099
 9064SOL    HW138828   4.524   2.425   3.926  0.9777 -0.7507  0.0865
 9064SOL    HW238829   4.484   2.295   3.966 -0.2366 -0.0112  0.0141
 9065SOL     OW38830   3.418   2.961   8.330 -0.0308 -0.2914  0.1866
 9065SOL    HW138831   3.429   3.017   8.254  1.6986  0.3690  0.9272
 9065SOL    HW238832   3.341   2.908   8.311 -1.0374  1.3053 -0.1588
 9066SOL     OW38833   3.898   3.164  12.117  0.2601  0.4073 -1.1970
 9066SOL    HW138834   3.806   3.156  12.092  0.2152 -1.0715 -0.5702
 9066SOL    HW238835   3.915   3.258  12.119  0.9363  0.2887 -1.4874
 9067SOL     OW38836   3.867   1.527  15.392  0.2751 -0.1670  0.2136
 9067SOL    HW138837   3.906   1.506  15.477  0.6218  2.7494  0.7854
 9067SOL    HW238838   3.788   1.571  15.424  1.2468  0.7605  1.3354
 9068SOL     OW38839   0.901   4.601  11.408  0.3624 -0.0951  0.1097
 9068SOL    HW138840   0.980   4.617  11.357  0.4038 -2.0982 -0.4532
 9068SOL    HW238841   0.894   4.656  11.486 -2.8911 -2.0136  1.1650
 9069SOL     OW38842   2.274   2.532  14.919 -0.2500  0.3309 -0.0849
 9069SOL    HW138843   2.337   2.482  14.866 -2.4684 -0.2353 -2.2017
 9069SOL    HW238844   2.266   2.475  14.996 -0.9676 -0.8164 -0.9985
 9070SOL     OW38845   4.559   0.678  16.389 -0.4860 -0.2845  0.3921
 9070SOL    HW138846   4.557   0.772  16.370  1.7034 -0.5515 -1.2663
 9070SOL    HW238847   4.570   0.674  16.484  0.4276  0.4055  0.3206
 9071SOL     OW38848   2.304   0.859   2.773  0.7874  0.2679 -0.0916
 9071SOL    HW138849   2.362   0.785   2.756  0.1307 -0.8681  2.6840
 9071SOL    HW238850   2.350   0.929   2.726  0.9903 -0.0092 -0.3063
 9072SOL     OW38851   3.895   0.794   1.409 -0.1881  0.1297  0.1549
 9072SOL    HW138852   3.852   0.879   1.413  1.5389  1.0227 -0.5273
 9072SOL    HW238853   3.975   0.813   1.360 -0.6954 -0.9277 -1.0935
 9073SOL     OW38854   0.159   0.190  10.832 -0.4346 -0.7544 -0.2875
 9073SOL    HW138855   0.188   0.213  10.920  1.0893  0.5982 -1.1225
 9073SOL    HW238856   0.085   0.250  10.817 -0.4941 -0.6333  0.5158
 9074SOL     OW38857   4.454   2.955  16.001 -0.0340 -0.0162  0.9248
 9074SOL    HW138858   4.380   2.934  16.058 -0.9885 -0.6642 -0.5526
 9074SOL    HW238859   4.407   2.963  15.918 -0.3009 -0.4687  1.0308
 9075SOL     OW38860   1.427   3.980   6.150 -0.1239  0.0506 -0.0656
 9075SOL    HW138861   1.342   4.022   6.135 -0.4239 -0.0797  1.3475
 9075SOL    HW238862   1.478   4.043   6.201  1.2650  0.2760 -1.7173
 9076SOL     OW38863   2.397   3.380   5.139  0.6513  0.3876  0.6093
 9076SOL    HW138864   2.426   3.300   5.182  0.2010  0.9572  1.9768
 9076SOL    HW238865   2.431   3.447   5.200 -0.4487  1.8777 -0.4089
 9077SOL     OW38866   2.486   3.717  16.047 -0.0300  0.2318  0.2221
 9077SOL    HW138867   2.425   3.654  16.009 -0.4676  0.3680  0.6877
 9077SOL    HW238868   2.530   3.650  16.100 -3.5965 -0.5820  2.1936
 9078SOL     OW38869   1.576   1.881  16.819 -1.1873  0.1918 -0.0046
 9078SOL    HW138870   1.480   1.874  16.819 -1.1301 -0.5401 -0.5755
 9078SOL    HW238871   1.597   1.910  16.730  1.5298  0.4784  0.7361
 9079SOL     OW38872   2.928   2.992   2.202 -0.6411  0.5367 -0.5046
 9079SOL    HW138873   2.919   3.036   2.287  0.5487  1.6003 -0.9116
 9079SOL    HW238874   2.846   3.014   2.159 -1.8592 -2.3823  0.3534
 9080SOL     OW38875   2.588   0.805   8.588  0.5946 -0.4373 -0.6279
 9080SOL    HW138876   2.674   0.762   8.593  0.1455 -1.3697 -0.9487
 9080SOL    HW238877   2.530   0.730   8.588 -1.5893  1.2387 -1.3617
 9081SOL     OW38878   2.702   0.831   2.546  0.2106  0.3110 -0.1470
 9081SOL    HW138879   2.690   0.923   2.571 -0.9999 -0.3676  1.7351
 9081SOL    HW238880   2.798   0.826   2.549  0.3074  1.8857 -0.5727
 9082SOL     OW38881   1.891   2.529  14.101  0.3139  0.5506  0.5415
 9082SOL    HW138882   1.878   2.623  14.084  1.5037 -0.0562 -3.5571
 9082SOL    HW238883   1.812   2.519  14.155  1.4338  3.1596  2.6867
 9083SOL     OW38884   3.853   3.638  10.746  0.0221  0.5571  0.4869
 9083SOL    HW138885   3.854   3.628  10.651 -0.7801  0.0444  0.5385
 9083SOL    HW238886   3.938   3.680  10.760 -0.1117  0.5426  1.3729
 9084SOL     OW38887   1.486   3.973   6.553  0.1765  0.6337  0.4699
 9084SOL    HW138888   1.528   4.049   6.593 -0.5081  1.4884 -0.4344
 9084SOL    HW238889   1.431   3.939   6.624 -0.1635  0.8587  0.3177
 9085SOL     OW38890   1.076   0.437  14.833  0.1167  0.4609  0.3548
 9085SOL    HW138891   1.102   0.373  14.767 -1.0948  0.0932  0.2333
 9085SOL    HW238892   1.027   0.397  14.905 -0.1241 -0.8105 -0.5400
 9086SOL     OW38893   3.085   1.517   7.709 -0.1970 -0.7300 -0.2047
 9086SOL    HW138894   3.040   1.459   7.770 -1.7908  0.7015 -0.0040
 9086SOL    HW238895   3.120   1.586   7.765 -1.6905 -0.0282 -0.1091
 9087SOL     OW38896   3.459   2.745  12.306  0.3938 -0.3165  0.4856
 9087SOL    HW138897   3.422   2.750  12.394  3.4735 -0.5370  1.7905
 9087SOL    HW238898   3.402   2.684  12.259 -2.9120  1.5002  2.1886
 9088SOL     OW38899   1.783   0.674  11.725  0.0583  0.0369 -0.4468
 9088SOL    HW138900   1.696   0.713  11.730  0.8000  1.3608  1.9830
 9088SOL    HW238901   1.776   0.605  11.791 -2.6052 -0.6543 -1.4896
 9089SOL     OW38902   4.122   3.582   9.961 -0.1001  0.0235 -0.1761
 9089SOL    HW138903   4.174   3.647  10.009 -1.5098  1.2053 -0.2627
 9089SOL    HW238904   4.034   3.608   9.987 -0.3860  0.9182 -2.0282
 9090SOL     OW38905   1.440   4.534   4.163 -0.2682 -0.7496  0.2788
 9090SOL    HW138906   1.439   4.623   4.200  0.8181 -1.3957  1.8766
 9090SOL    HW238907   1.459   4.484   4.242  1.2440 -1.1820 -0.3635
 9091SOL     OW38908   2.944   1.107   2.342 -0.2259  0.2793  0.1254
 9091SOL    HW138909   3.010   1.080   2.279 -0.1610  1.6396 -0.3798
 9091SOL    HW238910   2.872   1.046   2.326  1.6169 -1.7891 -0.3931
 9092SOL     OW38911   1.774   1.042  13.457 -0.8403  0.7587 -0.2219
 9092SOL    HW138912   1.792   1.036  13.363  1.9407  0.6024  0.3266
 9092SOL    HW238913   1.865   1.052  13.486 -0.6673 -1.0436 -0.1323
 9093SOL     OW38914   4.139   2.874   4.382  0.6166 -0.5112  0.1716
 9093SOL    HW138915   4.234   2.860   4.381  1.1094  2.8010 -0.0411
 9093SOL    HW238916   4.130   2.821   4.461  0.6239  0.9895  1.1885
 9094SOL     OW38917   1.238   2.694   5.480 -0.2971  0.5587  0.1450
 9094SOL    HW138918   1.270   2.638   5.409  1.9298  0.4050  1.2733
 9094SOL    HW238919   1.300   2.766   5.477 -0.6224  0.8669  0.8679
 9095SOL     OW38920   4.045   0.780   7.917 -0.0930 -0.2282 -0.2205
 9095SOL    HW138921   3.952   0.775   7.940 -0.1759  2.5063  0.0769
 9095SOL    HW238922   4.081   0.820   7.996  3.7177 -2.2984 -0.8839
 9096SOL     OW38923   3.327   2.479   8.396  0.1384  0.5011 -0.1037
 9096SOL    HW138924   3.330   2.569   8.430  1.1285 -0.1110  1.3690
 9096SOL    HW238925   3.421   2.461   8.399 -0.0152 -0.6685 -2.2260
 9097SOL     OW38926   4.247   3.260   5.886 -0.2164 -0.0591 -0.4368
 9097SOL    HW138927   4.211   3.179   5.920 -0.4817  0.7436  1.2220
 9097SOL    HW238928   4.334   3.227   5.864  0.1142  0.3753  0.2245
 9098SOL     OW38929   3.811   1.876   5.918  0.3939 -0.1372 -0.2801
 9098SOL    HW138930   3.769   1.830   5.845  1.4143  0.3403 -1.1694
 9098SOL    HW238931   3.745   1.936   5.954 -1.8313 -2.9126  0.2632
 9099SOL     OW38932   1.190   3.866   8.116 -0.2437 -0.8074 -0.4588
 9099SOL    HW138933   1.193   3.858   8.211  4.1255 -3.7847 -0.8939
 9099SOL    HW238934   1.240   3.793   8.080 -0.6000 -1.2480 -0.0636
 9100SOL     OW38935   3.699   0.273   3.097  0.2473  0.3252 -0.1856
 9100SOL    HW138936   3.740   0.338   3.154 -2.1359 -0.2122  2.1566
 9100SOL    HW238937   3.778   0.229   3.065 -0.6376 -1.4486  0.0409
 9101SOL     OW38938   0.417   0.332   4.579 -0.2583  0.2894  0.4605
 9101SOL    HW138939   0.335   0.374   4.605  0.5982  1.9886  0.3996
 9101SOL    HW238940   0.412   0.334   4.483  0.1266  2.7019  0.4841
 9102SOL     OW38941   1.838   3.927   5.263 -0.2737 -0.0976 -0.2012
 9102SOL    HW138942   1.877   3.853   5.216  2.7882  0.8354  0.8780
 9102SOL    HW238943   1.922   3.972   5.274 -0.6027  0.2897  0.7524
 9103SOL     OW38944   3.228   2.475   7.503  0.2867 -0.4141  0.2505
 9103SOL    HW138945   3.248   2.497   7.594  1.5706  3.2178 -0.9279
 9103SOL    HW238946   3.262   2.556   7.466  1.3785 -1.6798 -1.5140
 9104SOL     OW38947   2.999   2.520   8.610 -0.1442 -0.0674  0.2459
 9104SOL    HW138948   3.003   2.463   8.534  0.2703 -0.2260  0.3892
 9104SOL    HW238949   2.939   2.476   8.671 -0.7233  0.1738 -0.1488
 9105SOL     OW38950   3.492   4.581  10.498  0.3113 -0.8360 -0.2236
 9105SOL    HW138951   3.495   4.520  10.571 -3.0900  0.0140  0.6204
 9105SOL    HW238952   3.397   4.573  10.489  0.3755  1.5920 -3.1861
 9106SOL     OW38953   0.372   2.791   4.188  0.0382 -0.5509  0.2422
 9106SOL    HW138954   0.412   2.705   4.170  1.4561  0.2749 -0.5393
 9106SOL    HW238955   0.377   2.837   4.105 -1.8613 -0.4938  0.1711
 9107SOL     OW38956   4.546   0.821   1.885 -0.0910 -0.6649 -0.0647
 9107SOL    HW138957   4.549   0.767   1.964  0.2418  1.9315  1.7001
 9107SOL    HW238958   4.634   0.802   1.851  1.5169  1.7042  2.7338
 9108SOL     OW38959   1.070   4.415   3.147  0.1336 -0.2775 -0.2557
 9108SOL    HW138960   1.035   4.360   3.077  1.5110 -0.2198 -0.9899
 9108SOL    HW238961   1.134   4.463   3.095 -1.0003  1.5354  0.0037
 9109SOL     OW38962   2.813   0.430  17.324 -0.2879 -0.7255  0.4966
 9109SOL    HW138963   2.815   0.393  17.412  0.1257  0.2788  0.9050
 9109SOL    HW238964   2.720   0.434  17.301  0.0652  0.0966 -0.8072
 9110SOL     OW38965   1.487   1.881   5.626  0.2828  0.1012 -0.4790
 9110SOL    HW138966   1.522   1.948   5.568 -0.9847 -0.6603 -2.1021
 9110SOL    HW238967   1.512   1.797   5.588 -1.5669 -1.3666  1.5487
 9111SOL     OW38968   1.058   1.857   7.352  0.2315 -0.3388  0.8014
 9111SOL    HW138969   0.967   1.885   7.358  0.3520 -0.0173  1.1050
 9111SOL    HW238970   1.049   1.765   7.326 -2.3103  0.0393  0.3393
 9112SOL     OW38971   1.803   2.046   7.914 -0.1806  0.2421 -0.7363
 9112SOL    HW138972   1.717   2.008   7.931  0.2769 -0.7593 -0.6409
 9112SOL    HW238973   1.799   2.068   7.821  0.4992  0.2559 -0.7648
 9113SOL     OW38974   0.938   0.085   5.012 -0.3693  0.1976 -0.1129
 9113SOL    HW138975   0.846   0.083   4.986 -0.9056 -0.8369  1.8947
 9113SOL    HW238976   0.956   0.017   5.076  0.9434  1.8825  1.2894
 9114SOL     OW38977   3.818   4.592   3.857 -0.2292 -0.1727 -0.2368
 9114SOL    HW138978   3.887   4.541   3.814 -1.0230 -1.3134 -0.1589
 9114SOL    HW238979   3.860   4.630   3.934 -1.4060  1.2046 -0.2912
 9115SOL     OW38980   3.006   4.518   6.128 -0.2939  0.0080 -0.5282
 9115SOL    HW138981   3.079   4.511   6.189  1.2298  2.2383 -2.0623
 9115SOL    HW238982   2.970   4.603   6.154 -1.2419  0.5946 -3.7459
 9116SOL     OW38983   0.485   3.880   3.572  0.5460  0.2825 -0.5528
 9116SOL    HW138984   0.408   3.937   3.571  1.1174  1.1207  2.6695
 9116SOL    HW238985   0.550   3.927   3.521  0.1920  0.3264 -0.9668
 9117SOL     OW38986   2.622   1.791   3.491  0.1079  0.1389 -0.6429
 9117SOL    HW138987   2.677   1.742   3.553 -0.4033 -0.6081 -0.7792
 9117SOL    HW238988   2.577   1.857   3.545 -1.5191 -0.4582 -1.2828
 9118SOL     OW38989   4.176   0.684   1.941  0.7613  0.0172  0.8388
 9118SOL    HW138990   4.196   0.721   1.855  0.9772 -1.0347  0.4333
 9118SOL    HW238991   4.232   0.606   1.944 -0.7540 -1.1636 -1.3574
 9119SOL     OW38992   3.453   1.385  15.441  0.0875 -0.0330 -0.0773
 9119SOL    HW138993   3.452   1.303  15.490  0.7947  0.5258  0.8704
 9119SOL    HW238994   3.526   1.434  15.479 -0.6365  1.4315 -0.5542
 9120SOL     OW38995   0.976   0.028   9.502  0.4304 -0.1543 -0.5386
 9120SOL    HW138996   1.022   4.699   9.453  0.2077 -0.6161 -0.0994
 9120SOL    HW238997   0.980   0.103   9.442 -0.4414  2.3346  2.5319
 9121SOL     OW38998   0.066   0.805   5.558  0.3246  0.8768 -0.6037
 9121SOL    HW138999   0.044   0.724   5.603  1.2081  1.2257  0.4523
 9121SOL    HW239000   0.079   0.765   5.472 -1.3009  0.1134 -0.4852
 9122SOL     OW39001   0.548   1.996   1.808 -0.0147  0.0801  0.2733
 9122SOL    HW139002   0.636   2.008   1.845 -0.4235 -0.1649  1.3221
 9122SOL    HW239003   0.485   2.041   1.864  2.6559  1.1818  2.4325
 9123SOL     OW39004   3.204   1.502   8.127  0.7904  0.3263 -0.0081
 9123SOL    HW139005   3.214   1.577   8.068 -0.4935 -0.1743 -0.8522
 9123SOL    HW239006   3.284   1.451   8.112  0.2908 -0.4138 -0.1646
 9124SOL     OW39007   2.703   3.737  10.355  0.1193 -0.3797 -0.0418
 9124SOL    HW139008   2.739   3.703  10.273  0.9354  1.5776 -0.4848
 9124SOL    HW239009   2.782   3.772  10.394  0.4354 -0.9189 -0.2021
 9125SOL     OW39010   2.118   0.194   6.803 -0.2367 -0.2528  0.3986
 9125SOL    HW139011   2.204   0.163   6.773 -0.5252  0.7380 -1.4343
 9125SOL    HW239012   2.124   0.289   6.791 -0.2217 -0.3687 -0.5712
 9126SOL     OW39013   1.107   1.649   3.411 -0.1223 -0.2685  0.2799
 9126SOL    HW139014   1.088   1.742   3.405  1.2254 -0.0592 -0.8628
 9126SOL    HW239015   1.203   1.641   3.406 -0.0005 -0.3956  3.0927
 9127SOL     OW39016   1.118   1.541   5.075 -0.8197  0.2233 -0.0871
 9127SOL    HW139017   1.082   1.474   5.017  0.3352 -0.2134 -0.3071
 9127SOL    HW239018   1.181   1.486   5.122  0.5203  1.6375 -0.2129
 9128SOL     OW39019   1.315   0.834  15.878 -0.6556  0.0299  0.3439
 9128SOL    HW139020   1.309   0.828  15.782 -0.6925  0.2014  0.3361
 9128SOL    HW239021   1.371   0.910  15.891  0.3660 -0.5333 -0.6697
 9129SOL     OW39022   0.979   1.673   6.883  0.5187  0.0475  0.2952
 9129SOL    HW139023   0.993   1.659   6.789  1.6170 -1.3282  0.6599
 9129SOL    HW239024   0.916   1.745   6.878 -0.2877 -0.6975 -0.2410
 9130SOL     OW39025   3.072   4.617  10.612 -0.1825 -0.4254  0.1024
 9130SOL    HW139026   3.120   4.598  10.693 -1.9055  3.3794  1.9948
 9130SOL    HW239027   3.132   4.600  10.539 -0.1678 -3.1859  0.7812
 9131SOL     OW39028   0.918   4.325   4.440 -0.2532  0.2199  0.6212
 9131SOL    HW139029   0.848   4.385   4.467  0.6253  1.9586 -0.9761
 9131SOL    HW239030   0.972   4.380   4.384  1.2571 -1.6208  0.2819
 9132SOL     OW39031   0.503   3.309   5.357 -0.2820  0.2447  0.0851
 9132SOL    HW139032   0.492   3.400   5.332  0.1205  0.2792  0.0498
 9132SOL    HW239033   0.417   3.270   5.373  0.5639 -0.4328  3.0273
 9133SOL     OW39034   1.024   1.058   5.634 -0.2804 -0.1345 -0.1793
 9133SOL    HW139035   1.079   1.017   5.567 -0.3191 -1.1934  0.4321
 9133SOL    HW239036   0.948   1.004   5.613 -0.6920  1.2592 -2.1798
 9134SOL     OW39037   0.024   0.115   7.936  0.3582 -0.2036 -0.2208
 9134SOL    HW139038   0.067   0.067   7.866  1.7303  0.8568 -0.1276
 9134SOL    HW239039   4.735   0.197   7.895 -0.7995 -0.3375  0.3063
 9135SOL     OW39040   4.647   4.050   7.318  0.4552  0.3061  0.2319
 9135SOL    HW139041   4.574   4.016   7.265 -1.4394  0.5279  2.6599
 9135SOL    HW239042   4.612   4.093   7.396 -0.0110  0.7774 -0.2349
 9136SOL     OW39043   4.090   1.517  15.191  0.5562 -0.5496 -0.0166
 9136SOL    HW139044   4.039   1.501  15.270 -0.5027  1.5666 -0.2930
 9136SOL    HW239045   4.082   1.433  15.145  0.7792 -0.4136 -0.3030
 9137SOL     OW39046   0.388   2.611  11.288 -0.4425 -0.4014  0.4648
 9137SOL    HW139047   0.373   2.611  11.382 -0.6794 -1.1229  0.4294
 9137SOL    HW239048   0.303   2.645  11.262  0.6781  2.1677  0.1233
 9138SOL     OW39049   0.052   2.690   7.391 -0.2490 -0.3317 -0.1831
 9138SOL    HW139050   4.737   2.698   7.313 -1.0753  0.9014  0.5207
 9138SOL    HW239051   0.044   2.598   7.415  0.0377 -0.2817  0.1213
 9139SOL     OW39052   1.054   3.281   3.797 -0.3605 -0.4056 -0.0870
 9139SOL    HW139053   1.024   3.191   3.791  0.5168 -0.8804  2.8433
 9139SOL    HW239054   1.053   3.287   3.892 -0.5562  0.3441 -0.1315
 9140SOL     OW39055   0.533   0.564   8.710 -0.1699 -0.0047  0.2969
 9140SOL    HW139056   0.451   0.553   8.757 -0.5912  0.6587 -0.2892
 9140SOL    HW239057   0.592   0.563   8.785 -1.6493 -0.5866  1.4331
 9141SOL     OW39058   1.621   1.430  13.826 -0.2835 -0.1579  0.5810
 9141SOL    HW139059   1.695   1.376  13.798 -0.5899 -0.9302  1.2603
 9141SOL    HW239060   1.621   1.407  13.919 -2.9493  1.3877  0.9679
 9142SOL     OW39061   3.495   4.538   9.784  0.4678 -0.5045 -0.3214
 9142SOL    HW139062   3.511   4.563   9.875 -2.3653 -1.3900  0.4251
 9142SOL    HW239063   3.449   4.610   9.740 -1.0445 -0.9086  0.5848
 9143SOL     OW39064   3.357   2.345   6.717 -0.7204  0.6851  0.1063
 9143SOL    HW139065   3.352   2.277   6.650  0.6642  0.8747 -0.1882
 9143SOL    HW239066   3.279   2.396   6.694 -0.6805  0.4268 -0.6037
 9144SOL     OW39067   0.013   4.666   7.458 -0.2877  0.0235 -0.0772
 9144SOL    HW139068   4.724   4.721   7.384  0.2235 -1.2041 -1.1807
 9144SOL    HW239069   4.684   4.683   7.523 -2.3575 -1.4016 -1.8848
 9145SOL     OW39070   1.376   4.377   8.663  0.9648  0.6411 -0.3668
 9145SOL    HW139071   1.346   4.466   8.648 -2.9035  0.0181  3.6955
 9145SOL    HW239072   1.469   4.380   8.639  0.9314  1.9287 -0.2922
 9146SOL     OW39073   0.920   0.430   8.626 -0.9294 -0.6270 -0.6124
 9146SOL    HW139074   0.881   0.510   8.659  0.2379  0.3791 -1.6827
 9146SOL    HW239075   0.846   0.385   8.586 -1.8056  1.2807 -1.1161
 9147SOL     OW39076   0.876   0.620   5.298 -0.2357  0.7251  0.0402
 9147SOL    HW139077   0.831   0.538   5.277  0.1287  0.7786 -0.9667
 9147SOL    HW239078   0.807   0.657   5.353 -0.6844  1.3081 -0.9166
 9148SOL     OW39079   0.577   4.619   7.225  0.3750  0.3087 -0.0123
 9148SOL    HW139080   0.515   4.685   7.258 -0.3891 -1.0085  1.1680
 9148SOL    HW239081   0.517   4.550   7.195  0.5325  0.4976 -0.7640
 9149SOL     OW39082   3.677   4.394   4.819  0.4653 -0.4227 -0.3707
 9149SOL    HW139083   3.706   4.309   4.785 -0.3034 -0.8833  0.1453
 9149SOL    HW239084   3.750   4.407   4.880 -1.9106  0.4073  2.2828
 9150SOL     OW39085   3.495   3.739   8.990  0.0723 -0.1381 -0.1019
 9150SOL    HW139086   3.499   3.831   9.013  1.6482 -1.1385  3.5772
 9150SOL    HW239087   3.432   3.713   9.057  0.7869 -0.5994  0.4028
 9151SOL     OW39088   4.396   1.125   5.402 -0.4103  0.3098  0.1326
 9151SOL    HW139089   4.410   1.161   5.490  4.4070  0.3063 -0.6479
 9151SOL    HW239090   4.448   1.045   5.411  0.0831  0.9863  3.1833
 9152SOL     OW39091   1.377   0.106   3.972 -0.1596 -0.2379 -0.1408
 9152SOL    HW139092   1.301   0.124   4.026  0.9966 -1.6552  1.9905
 9152SOL    HW239093   1.332   0.100   3.888 -0.9936  1.2095  0.2231
 9153SOL     OW39094   2.746   0.253   6.841 -0.0098  0.2610  0.5192
 9153SOL    HW139095   2.816   0.229   6.902  0.1788 -0.3543  0.0656
 9153SOL    HW239096   2.796   0.310   6.783  0.2092 -0.1624  0.2880
 9154SOL     OW39097   0.858   3.904   2.893  0.0687  0.2656  0.3941
 9154SOL    HW139098   0.948   3.907   2.923  0.1263 -0.4087  0.2863
 9154SOL    HW239099   0.861   3.967   2.821  0.8840  2.5871  2.4614
 9155SOL     OW39100   3.126   4.420   5.219  0.0672 -0.8332 -0.2634
 9155SOL    HW139101   3.107   4.509   5.191  0.5749 -0.0552  1.9281
 9155SOL    HW239102   3.221   4.429   5.216 -0.2922  2.7172 -0.8333
 9156SOL     OW39103   2.226   0.840   2.156  0.1373  0.7993  0.3862
 9156SOL    HW139104   2.273   0.923   2.150  0.5424  0.4868 -0.8058
 9156SOL    HW239105   2.279   0.788   2.095 -1.0547  0.3810 -0.2968
 9157SOL     OW39106   1.272   1.358   7.851  0.4631 -0.0034  0.5099
 9157SOL    HW139107   1.345   1.394   7.802 -0.3113 -0.6264 -1.1147
 9157SOL    HW239108   1.279   1.409   7.931  0.1738  0.4739  0.2319
 9158SOL     OW39109   1.115   4.026   4.911 -0.4325  0.1588 -0.4772
 9158SOL    HW139110   1.164   3.969   4.971 -0.2046 -1.8858 -2.6400
 9158SOL    HW239111   1.106   4.113   4.951  0.7356 -0.2609  0.6976
 9159SOL     OW39112   0.945   2.208   1.745 -0.5228  0.3052  0.3206
 9159SOL    HW139113   1.017   2.270   1.733  0.2916 -0.6367  0.3140
 9159SOL    HW239114   0.887   2.261   1.799 -3.0139 -1.8817 -0.1947
 9160SOL     OW39115   3.645   0.556  15.971 -0.1543 -0.0200 -0.0149
 9160SOL    HW139116   3.711   0.513  15.917  1.1005  0.4341  1.1500
 9160SOL    HW239117   3.634   0.641  15.928 -1.9376 -0.4920 -0.4955
 9161SOL     OW39118   3.323   3.115   7.177  0.2996 -0.0605  0.2469
 9161SOL    HW139119   3.353   3.114   7.086 -0.6281 -0.4869 -0.0474
 9161SOL    HW239120   3.403   3.102   7.228  0.2066 -1.8494 -0.0700
 9162SOL     OW39121   2.883   0.907  13.213  0.0828 -0.3804  0.0633
 9162SOL    HW139122   2.976   0.925  13.206  0.0542  0.3747  1.8065
 9162SOL    HW239123   2.883   0.821  13.254  0.3467 -2.0036 -3.3160
 9163SOL     OW39124   3.626   3.774  14.453  0.1909 -0.0547  0.0189
 9163SOL    HW139125   3.582   3.706  14.402 -1.8230 -0.3799  2.1784
 9163SOL    HW239126   3.697   3.805  14.397  0.7581 -0.8497  0.2899
 9164SOL     OW39127   3.911   2.895   1.562  0.0274  0.2022 -0.0691
 9164SOL    HW139128   3.960   2.817   1.588 -0.2892 -0.5195 -1.6583
 9164SOL    HW239129   3.859   2.902   1.642  1.1274 -2.4368  0.8604
 9165SOL     OW39130   0.325   0.413   5.677  0.2146  0.3150 -0.4651
 9165SOL    HW139131   0.357   0.350   5.612 -1.0327 -1.6304  0.7903
 9165SOL    HW239132   0.248   0.365   5.710  0.0762  0.2603 -0.8580
 9166SOL     OW39133   1.743   2.441   6.004  0.0661 -0.1698 -0.3928
 9166SOL    HW139134   1.671   2.391   5.966  0.5885 -0.2031 -1.3316
 9166SOL    HW239135   1.785   2.481   5.928 -1.1900  1.1224 -0.4207
 9167SOL     OW39136   0.691   3.507   1.648  0.2044  0.3954  0.2687
 9167SOL    HW139137   0.778   3.499   1.609  0.5749 -1.2940  1.4485
 9167SOL    HW239138   0.643   3.567   1.591 -0.2809 -0.0855  0.1652
 9168SOL     OW39139   3.777   2.291   1.872  0.1694  0.0403  0.2657
 9168SOL    HW139140   3.767   2.342   1.953 -0.7016  0.6934 -0.2675
 9168SOL    HW239141   3.873   2.289   1.872  0.1575 -0.5472  0.3036
 9169SOL     OW39142   1.875   0.137   6.944  0.4447  0.5114 -0.5094
 9169SOL    HW139143   1.970   0.146   6.946  0.5130  0.1633 -1.9104
 9169SOL    HW239144   1.867   0.108   6.853  0.6250 -0.3420 -0.2515
 9170SOL     OW39145   3.498   2.152   5.159 -0.1606  0.5312 -0.6194
 9170SOL    HW139146   3.464   2.089   5.223 -0.2641 -1.0459 -2.2305
 9170SOL    HW239147   3.455   2.230   5.195 -1.2947 -0.9983  1.3413
 9171SOL     OW39148   4.269   3.683   2.811 -0.3223 -0.0059  0.4818
 9171SOL    HW139149   4.339   3.620   2.792 -2.1715 -2.5135  1.9181
 9171SOL    HW239150   4.267   3.676   2.907  1.4911 -2.1280  0.3695
 9172SOL     OW39151   1.148   0.111   4.205 -0.2430  0.1808  0.2155
 9172SOL    HW139152   1.153   0.160   4.287  1.2004 -1.4452  1.0840
 9172SOL    HW239153   1.069   0.062   4.228 -0.4310  0.5072  0.2681
 9173SOL     OW39154   4.186   0.316   7.202 -0.2177  0.4165 -0.2446
 9173SOL    HW139155   4.162   0.282   7.116  1.3634  0.2932 -0.6227
 9173SOL    HW239156   4.136   0.265   7.266  0.0458  0.3785 -0.0681
 9174SOL     OW39157   3.598   3.710   7.218 -0.8891 -0.1069  0.2023
 9174SOL    HW139158   3.653   3.748   7.150 -1.1809 -1.4794 -0.8043
 9174SOL    HW239159   3.567   3.631   7.173  0.6331  0.8351 -2.4580
 9175SOL     OW39160   1.443   2.692   8.432 -0.2130 -0.3514  0.0534
 9175SOL    HW139161   1.381   2.697   8.505  0.3996  0.6843  0.4863
 9175SOL    HW239162   1.467   2.784   8.437 -2.6420  0.3637 -1.3256
 9176SOL     OW39163   0.617   2.641   5.137  0.0163  0.0250 -0.2798
 9176SOL    HW139164   0.609   2.546   5.132  0.8388 -0.0641  0.1239
 9176SOL    HW239165   0.679   2.669   5.069  0.2457  0.3542  0.0676
 9177SOL     OW39166   0.350   1.365  16.804 -0.1537  0.0864 -0.0515
 9177SOL    HW139167   0.303   1.329  16.729  0.7922  0.9594 -1.0652
 9177SOL    HW239168   0.285   1.432  16.828 -2.0408 -1.5321 -0.6580
 9178SOL     OW39169   2.755   2.846   5.733  0.7688  0.6221  0.2692
 9178SOL    HW139170   2.768   2.886   5.647  3.4047 -0.6497  0.0702
 9178SOL    HW239171   2.737   2.753   5.718 -0.5476  0.4938  2.7349
 9179SOL     OW39172   0.511   3.829  10.100  0.1522 -0.3245 -0.2093
 9179SOL    HW139173   0.569   3.757  10.127 -0.3719 -0.9919 -0.8721
 9179SOL    HW239174   0.456   3.846  10.177 -0.0608 -0.0061 -0.4322
 9180SOL     OW39175   0.147   1.663   7.332 -0.6802  0.2779 -0.3497
 9180SOL    HW139176   0.206   1.648   7.258  0.3488  1.4212  0.2411
 9180SOL    HW239177   0.075   1.717   7.299 -0.9590  0.2608  0.2250
 9181SOL     OW39178   4.423   4.427   4.033  0.1280  0.3527 -0.3143
 9181SOL    HW139179   4.354   4.471   3.983 -0.6553 -0.9804 -0.3786
 9181SOL    HW239180   4.375   4.380   4.100  1.6277  0.4159  0.8066
 9182SOL     OW39181   4.357   3.084   2.768  0.4472  0.1302  0.0801
 9182SOL    HW139182   4.297   3.026   2.813  0.0331  0.6636  0.2078
 9182SOL    HW239183   4.443   3.042   2.777 -0.2290 -1.3119 -0.1000
 9183SOL     OW39184   4.198   0.800  11.048 -0.6490 -0.0466  0.0010
 9183SOL    HW139185   4.213   0.747  10.969  2.4383  0.2531  0.3804
 9183SOL    HW239186   4.106   0.780  11.068 -0.4362 -1.8860 -0.8552
 9184SOL     OW39187   2.587   0.865   6.558  0.3608 -0.2959  0.0690
 9184SOL    HW139188   2.552   0.848   6.470  1.0366 -0.5821 -0.1470
 9184SOL    HW239189   2.519   0.905   6.612  0.3978  0.5641 -0.5114
 9185SOL     OW39190   4.154   0.291  13.172 -0.6697  0.6920  0.3898
 9185SOL    HW139191   4.152   0.195  13.174  2.4036  0.6438  1.0168
 9185SOL    HW239192   4.091   0.314  13.240 -1.9101  1.1424 -0.8950
 9186SOL     OW39193   1.775   4.200   4.116 -0.6227  0.2703 -0.0859
 9186SOL    HW139194   1.762   4.207   4.021  0.3414 -2.3336 -0.4016
 9186SOL    HW239195   1.863   4.170   4.138 -0.0295  1.5569 -0.7330
 9187SOL     OW39196   1.032   0.645   3.789 -0.5594 -0.1709 -0.5153
 9187SOL    HW139197   1.117   0.603   3.779  0.5389  1.7264  0.7109
 9187SOL    HW239198   1.050   0.713   3.855 -1.6430 -1.1514  0.7952
 9188SOL     OW39199   0.415   0.604   3.220 -0.2687 -0.0330 -0.1074
 9188SOL    HW139200   0.383   0.527   3.174 -0.3442 -1.1766  1.8384
 9188SOL    HW239201   0.438   0.579   3.310 -1.1212  2.1634  0.7145
 9189SOL     OW39202   0.899   0.925   5.240 -0.7309 -0.6038  0.1701
 9189SOL    HW139203   0.845   0.980   5.184  0.7402  0.1083 -0.5507
 9189SOL    HW239204   0.854   0.842   5.226 -0.3208 -0.6001 -1.1486
 9190SOL     OW39205   0.811   3.909  17.492  0.4999 -0.0982 -0.5524
 9190SOL    HW139206   0.805   3.814  17.499  1.6177 -0.1067  0.2362
 9190SOL    HW239207   0.786   3.940  17.579 -1.8943 -0.0809 -1.2244
 9191SOL     OW39208   0.577   0.954   1.110 -0.5738 -0.3049  0.1031
 9191SOL    HW139209   0.513   0.891   1.078  0.6848 -0.8303 -1.3597
 9191SOL    HW239210   0.520   1.031   1.117  0.0282  0.0688  0.8750
 9192SOL     OW39211   3.839   2.294  12.385  0.1914 -0.2939  0.9537
 9192SOL    HW139212   3.774   2.308  12.454 -1.8611  1.9902 -1.4488
 9192SOL    HW239213   3.847   2.377  12.339 -0.3495 -0.5425  0.4080
 9193SOL     OW39214   4.150   1.120  13.632 -0.3989 -0.1274  0.0793
 9193SOL    HW139215   4.089   1.102  13.704 -1.0968  1.0064 -0.2289
 9193SOL    HW239216   4.222   1.164  13.677  1.3225 -1.0692 -1.7407
 9194SOL     OW39217   1.744   2.653   3.379  0.0149 -0.1900  0.3014
 9194SOL    HW139218   1.820   2.711   3.384  1.1743 -1.7246  0.3495
 9194SOL    HW239219   1.673   2.688   3.433 -0.4759  0.0560 -0.5093
 9195SOL     OW39220   1.171   3.681   1.647 -0.7711  0.0728 -0.4357
 9195SOL    HW139221   1.152   3.774   1.662 -0.2609  0.0497  0.3826
 9195SOL    HW239222   1.088   3.634   1.654  0.5060 -2.5274 -2.9581
 9196SOL     OW39223   1.240   3.030   1.752  0.5287 -0.3299  0.0570
 9196SOL    HW139224   1.293   2.994   1.823  0.3514 -0.8454 -0.0770
 9196SOL    HW239225   1.167   2.968   1.753 -1.0088  1.4767 -0.4293
 9197SOL     OW39226   4.165   2.251   1.153  0.3291  0.1283 -0.4117
 9197SOL    HW139227   4.163   2.156   1.164 -0.2869  0.1935  0.0219
 9197SOL    HW239228   4.074   2.264   1.177 -0.0454 -0.4970 -1.4580
 9198SOL     OW39229   2.999   0.039   1.826 -0.4465  0.2974  0.1585
 9198SOL    HW139230   2.909   0.005   1.825 -0.4766  0.4018 -2.2457
 9198SOL    HW239231   3.009   0.067   1.735  4.4183 -0.0397  0.6279
 9199SOL     OW39232   4.096   1.921   8.579 -0.0749 -0.6366  0.1210
 9199SOL    HW139233   4.106   1.862   8.504 -0.2296  0.5569 -0.8326
 9199SOL    HW239234   4.100   1.861   8.653  0.1518 -1.7321 -0.7629
 9200SOL     OW39235   0.495   2.421   6.877 -0.0454 -0.0203  0.0201
 9200SOL    HW139236   0.437   2.492   6.905  0.2986  1.1730 -2.2472
 9200SOL    HW239237   0.551   2.414   6.955 -0.1299  0.8818  0.1684
 9201SOL     OW39238   1.890   3.757   7.953 -0.4894 -0.6004 -0.0339
 9201SOL    HW139239   1.906   3.794   8.040 -2.0110 -0.8987  0.3805
 9201SOL    HW239240   1.812   3.702   7.958  0.0375 -1.2233  1.1184
 9202SOL     OW39241   4.012   1.362   0.281 -0.3215  0.4154 -0.0490
 9202SOL    HW139242   4.060   1.394   0.205 -0.8599  2.9398  0.6605
 9202SOL    HW239243   3.964   1.436   0.319  0.1996  0.9441 -0.4271
 9203SOL     OW39244   0.339   2.642   7.463  0.0971 -0.2811 -0.5514
 9203SOL    HW139245   0.398   2.712   7.435 -0.0211 -0.6440 -1.6812
 9203SOL    HW239246   0.249   2.675   7.459  0.5711  0.8437 -1.9624
 9204SOL     OW39247   0.196   2.966   3.451  0.6587 -0.5747 -0.4377
 9204SOL    HW139248   0.220   2.998   3.537  0.8725 -0.5919 -0.4911
 9204SOL    HW239249   0.230   2.876   3.452 -0.7833 -1.0790  1.8807
 9205SOL     OW39250   4.235   1.314   4.658  0.1350  0.2757 -0.0139
 9205SOL    HW139251   4.323   1.336   4.627 -0.1138  0.6920 -0.4292
 9205SOL    HW239252   4.262   1.236   4.707  0.2559  0.1401 -0.2934
 9206SOL     OW39253   0.075   2.963   7.098  0.1298  0.1281 -0.1210
 9206SOL    HW139254   0.031   3.028   7.044 -3.8741 -1.5986  0.9838
 9206SOL    HW239255   0.004   2.898   7.100  2.0023 -1.9163  0.6004
 9207SOL     OW39256   2.883   1.408   6.565  0.3077  0.7152 -0.2320
 9207SOL    HW139257   2.806   1.355   6.548  0.4115 -0.0874  1.7163
 9207SOL    HW239258   2.843   1.474   6.622 -1.2785 -0.0700 -0.4532
 9208SOL     OW39259   0.862   2.852   5.479  0.3854  0.2499  0.3642
 9208SOL    HW139260   0.782   2.842   5.427  1.9344 -1.2213 -1.7160
 9208SOL    HW239261   0.860   2.942   5.511 -1.7494 -0.3318  1.8955
 9209SOL     OW39262   3.681   2.289   6.146  1.1289 -0.9609 -0.1563
 9209SOL    HW139263   3.753   2.294   6.209  1.7807 -3.0484 -0.7476
 9209SOL    HW239264   3.700   2.362   6.086  0.1226 -1.2018 -0.7729
 9210SOL     OW39265   0.881   1.203   6.895 -0.5399 -0.1755  0.2075
 9210SOL    HW139266   0.935   1.278   6.921  0.1167 -0.5029 -0.2170
 9210SOL    HW239267   0.884   1.205   6.800  2.4227  1.0596  0.3127
 9211SOL     OW39268   1.855   0.807   6.534  0.0054 -0.2630 -0.7699
 9211SOL    HW139269   1.812   0.889   6.555  1.2254  0.2222 -0.1564
 9211SOL    HW239270   1.778   0.751   6.540  0.3790 -0.6521  0.4455
 9212SOL     OW39271   1.130   3.065  12.223 -0.4227  0.4566  0.2409
 9212SOL    HW139272   1.064   3.104  12.280 -1.0127 -1.9370  1.1654
 9212SOL    HW239273   1.204   3.126  12.215 -0.3995  0.2611 -1.1642
 9213SOL     OW39274   4.441   1.676   1.765 -0.0966 -0.8342  0.3428
 9213SOL    HW139275   4.508   1.676   1.833  0.1389 -1.6101  0.1112
 9213SOL    HW239276   4.368   1.628   1.804 -1.1809  0.8020  0.3372
 9214SOL     OW39277   1.176   3.476   9.319  0.5345 -0.7747  0.1117
 9214SOL    HW139278   1.265   3.511   9.314  0.3572 -0.2037  0.8058
 9214SOL    HW239279   1.184   3.410   9.251  0.2435 -0.3958 -0.2851
 9215SOL     OW39280   4.615   2.209  13.300 -0.1575 -0.8986  0.0803
 9215SOL    HW139281   4.593   2.143  13.235  0.6961 -0.5545 -0.5636
 9215SOL    HW239282   4.580   2.291  13.264  2.2156  0.5146  0.9270
 9216SOL     OW39283   3.281   0.349   4.069  0.2035  0.2108 -0.0104
 9216SOL    HW139284   3.332   0.295   4.008  0.8502  1.2750 -0.4177
 9216SOL    HW239285   3.326   0.433   4.068 -3.1450  2.0101  1.2448
 9217SOL     OW39286   2.493   0.151   6.172  0.3651  0.1531  0.1779
 9217SOL    HW139287   2.563   0.146   6.238 -1.1208  1.4053  1.8718
 9217SOL    HW239288   2.515   0.217   6.107  2.8635  1.4243  2.3382
 9218SOL     OW39289   1.917   4.495   3.182 -0.0803  0.0034 -0.4467
 9218SOL    HW139290   1.867   4.562   3.136  0.3521  1.5303  1.2657
 9218SOL    HW239291   1.942   4.437   3.110  3.5155 -1.0733  1.6289
 9219SOL     OW39292   1.460   3.387  15.068 -0.1051 -0.4285 -0.3487
 9219SOL    HW139293   1.421   3.357  15.150  0.0239  1.1685  0.2860
 9219SOL    HW239294   1.511   3.309  15.046  1.2846  0.4627 -0.2672
 9220SOL     OW39295   3.426   1.680   8.291 -0.8579 -0.5855  0.4158
 9220SOL    HW139296   3.346   1.727   8.318  0.5318  1.5177  0.8693
 9220SOL    HW239297   3.397   1.589   8.293  1.4935 -1.3633 -1.0316
 9221SOL     OW39298   0.561   2.945   4.494 -0.6889  0.1984  0.3104
 9221SOL    HW139299   0.646   2.961   4.536 -0.6885 -1.2480  0.8596
 9221SOL    HW239300   0.580   2.932   4.402  1.1040 -0.3080  0.7484
 9222SOL     OW39301   1.445   4.710   5.795 -0.0599  0.5351 -0.2347
 9222SOL    HW139302   1.371   0.029   5.778 -1.1061 -0.4657  0.8544
 9222SOL    HW239303   1.467   4.734   5.885 -0.4040 -1.2276  0.3081
 9223SOL     OW39304   0.621   3.765   7.043 -0.5620  0.1485  0.4270
 9223SOL    HW139305   0.642   3.807   6.959  1.3769  0.1472  0.8989
 9223SOL    HW239306   0.632   3.838   7.104  0.4957  0.1181  0.2801
 9224SOL     OW39307   3.587   0.672  10.208 -0.0129 -0.1273  0.1092
 9224SOL    HW139308   3.567   0.762  10.182 -0.6061 -1.0922 -2.7717
 9224SOL    HW239309   3.507   0.624  10.190  0.3176  0.3046 -2.4509
 9225SOL     OW39310   0.081   1.744   4.060 -0.2935 -0.1901 -0.5524
 9225SOL    HW139311   0.141   1.754   3.985  0.1220 -0.6331 -0.2810
 9225SOL    HW239312   0.027   1.823   4.057  0.3756  0.3939  3.1857
 9226SOL     OW39313   3.264   2.128   1.575  0.0346 -0.1958 -0.2144
 9226SOL    HW139314   3.171   2.145   1.593  0.6849  1.4813  1.5313
 9226SOL    HW239315   3.303   2.166   1.654 -1.1785  0.5025  0.0469
 9227SOL     OW39316   2.619   3.188   3.893 -0.6794  0.4375 -0.0280
 9227SOL    HW139317   2.586   3.272   3.926  0.6135  0.2595  1.7208
 9227SOL    HW239318   2.649   3.149   3.975  1.5821  0.4763 -0.8567
 9228SOL     OW39319   2.343   1.012   7.608  0.5149  0.0437 -0.4181
 9228SOL    HW139320   2.270   1.052   7.562  0.1819 -1.1588 -0.9179
 9228SOL    HW239321   2.414   1.039   7.550 -1.5988  0.4238 -2.7894
 9229SOL     OW39322   4.634   3.110   6.968  0.2006 -0.0597  0.1154
 9229SOL    HW139323   4.573   3.037   6.957 -0.2066  0.2271  0.5294
 9229SOL    HW239324   4.658   3.127   6.876  1.0815  1.2321  0.5798
 9230SOL     OW39325   3.040   1.527   3.910  0.5110 -0.5852 -0.1841
 9230SOL    HW139326   3.103   1.503   3.843  1.8344  1.8378  0.1664
 9230SOL    HW239327   3.032   1.439   3.947 -0.3642 -1.1630 -1.7769
 9231SOL     OW39328   1.589   0.273  10.992 -0.2770  0.6945  0.0375
 9231SOL    HW139329   1.628   0.352  10.954  0.0678 -0.2146 -1.4889
 9231SOL    HW239330   1.597   0.212  10.920  0.3231  1.3571 -0.4579
 9232SOL     OW39331   3.976   2.738   4.864 -0.2183  0.2964  0.0468
 9232SOL    HW139332   4.067   2.733   4.835 -1.1362  1.2499 -3.0299
 9232SOL    HW239333   3.951   2.654   4.902  0.4496  1.0038  2.0317
 9233SOL     OW39334   0.046   4.387   0.796  0.0078 -0.4886  0.1078
 9233SOL    HW139335   0.074   4.324   0.729 -1.9372 -0.4679 -0.7184
 9233SOL    HW239336   0.101   4.361   0.870 -0.4743  2.3262  1.4357
 9234SOL     OW39337   1.682   1.559   3.825 -0.3584 -0.0814 -0.1161
 9234SOL    HW139338   1.723   1.565   3.912  1.2050 -0.4578 -0.8268
 9234SOL    HW239339   1.682   1.465   3.806 -3.4381 -0.6089  2.5538
 9235SOL     OW39340   2.065   3.974   0.842  0.4972 -0.2314 -0.4492
 9235SOL    HW139341   2.128   3.956   0.772 -0.0068  0.3462 -1.0500
 9235SOL    HW239342   2.125   3.937   0.907  0.0342  0.5781  0.4401
 9236SOL     OW39343   0.417   1.033  14.770  0.1761  0.6224  0.1910
 9236SOL    HW139344   0.487   1.051  14.833  0.7971 -0.6719 -0.1319
 9236SOL    HW239345   0.404   0.938  14.777 -2.2493  1.0744  1.5499
 9237SOL     OW39346   2.579   0.244   7.606 -0.2067  0.5856 -0.1493
 9237SOL    HW139347   2.533   0.205   7.680  0.4118  0.7311  0.3044
 9237SOL    HW239348   2.667   0.231   7.640 -0.9025 -0.6035  1.2299
 9238SOL     OW39349   3.153   3.250   0.589 -0.1829  0.1169  0.6544
 9238SOL    HW139350   3.063   3.240   0.619 -1.2414  1.2675 -2.2057
 9238SOL    HW239351   3.197   3.187   0.647 -1.2325  0.0520  1.3816
 9239SOL     OW39352   2.784   3.461  10.174  0.1554  0.1755 -0.7788
 9239SOL    HW139353   2.711   3.458  10.236  0.1476  1.3227 -0.7310
 9239SOL    HW239354   2.747   3.397  10.113  0.3463  1.1647 -1.9376
 9240SOL     OW39355   1.752   0.380   4.845  0.2567  0.0435  0.3178
 9240SOL    HW139356   1.743   0.291   4.811  1.3162 -0.6850  1.9268
 9240SOL    HW239357   1.831   0.412   4.802  1.1528  2.2182  3.5338
 9241SOL     OW39358   2.000   1.631   6.884  0.3111 -0.0526 -0.0100
 9241SOL    HW139359   2.064   1.627   6.813 -0.4366  0.4259 -0.7144
 9241SOL    HW239360   2.001   1.540   6.914 -0.9194 -0.7557 -2.0324
 9242SOL     OW39361   0.051   3.809   5.010  0.5895 -0.2621 -0.0572
 9242SOL    HW139362   0.020   3.889   4.968  1.0018 -0.3551 -0.5464
 9242SOL    HW239363   0.097   3.851   5.082 -0.9060  2.0651 -0.4615
 9243SOL     OW39364   2.460   1.426   5.704 -0.4525  0.2920 -0.1401
 9243SOL    HW139365   2.461   1.394   5.613  1.1362  1.4674 -0.5312
 9243SOL    HW239366   2.452   1.345   5.755  0.0290  0.3960  0.1021
 9244SOL     OW39367   4.288   2.128   0.605  0.3977 -0.2304  0.0483
 9244SOL    HW139368   4.300   2.037   0.631  3.6316 -0.3859 -1.9609
 9244SOL    HW239369   4.224   2.151   0.673  0.5002  4.2443 -1.3477
 9245SOL     OW39370   1.229   1.406  13.215  0.5318  0.3905 -0.5148
 9245SOL    HW139371   1.315   1.442  13.237  0.3634  1.7234 -2.0625
 9245SOL    HW239372   1.237   1.310  13.211 -1.3941  0.2453 -0.8674
 9246SOL     OW39373   4.477   1.701   6.019  0.0455  0.6192  0.2102
 9246SOL    HW139374   4.522   1.770   6.068 -0.1941  1.3596 -0.6146
 9246SOL    HW239375   4.413   1.681   6.087 -1.7203  0.2861 -1.5449
 9247SOL     OW39376   0.736   3.999   7.699 -0.0663 -0.2003 -0.3351
 9247SOL    HW139377   0.686   3.918   7.709  0.2116 -0.1318  1.6737
 9247SOL    HW239378   0.671   4.067   7.716  0.2867  0.0115  0.1782
 9248SOL     OW39379   4.005   3.090   5.012 -0.1439 -0.2389 -0.8978
 9248SOL    HW139380   3.923   3.108   4.965 -0.4695  1.1420  0.1978
 9248SOL    HW239381   3.981   3.011   5.060  1.8330 -0.0538  0.4176
 9249SOL     OW39382   2.404   4.266   1.838 -0.2611  0.0830  0.4952
 9249SOL    HW139383   2.375   4.270   1.929  0.2682 -1.5036  0.7414
 9249SOL    HW239384   2.497   4.267   1.862 -0.0973 -0.5402 -0.0962
 9250SOL     OW39385   2.860   3.357   8.298 -0.5516  0.5718  0.3033
 9250SOL    HW139386   2.904   3.308   8.227  2.3857  1.8662  1.2429
 9250SOL    HW239387   2.933   3.400   8.342 -2.4364  1.7915  2.2079
 9251SOL     OW39388   3.304   2.317  12.369 -0.0347 -0.0894  0.9291
 9251SOL    HW139389   3.338   2.389  12.423  0.4560  0.4209 -0.0680
 9251SOL    HW239390   3.211   2.339  12.358  0.8139  1.9900 -1.9427
 9252SOL     OW39391   0.924   4.164   0.499 -0.1142  0.4989  0.3986
 9252SOL    HW139392   0.878   4.156   0.416  0.9297 -0.4873 -0.0789
 9252SOL    HW239393   1.010   4.205   0.485  0.7397 -1.4536  0.0208
 9253SOL     OW39394   2.352   4.349   6.601  0.0639  0.3677  0.2563
 9253SOL    HW139395   2.328   4.431   6.642 -0.4036 -0.9908  2.6770
 9253SOL    HW239396   2.362   4.384   6.512 -1.2576 -1.5518 -0.6475
 9254SOL     OW39397   0.943   4.502   8.621  0.2030 -0.0174  0.1841
 9254SOL    HW139398   1.020   4.554   8.644  0.4845  0.2893 -1.4334
 9254SOL    HW239399   0.894   4.569   8.572 -0.1140 -0.0719  0.4298
 9255SOL     OW39400   0.447   0.039  14.393  0.0240 -0.6326 -0.0909
 9255SOL    HW139401   0.379   0.102  14.414  0.4934 -0.1267 -0.1118
 9255SOL    HW239402   0.431   0.045  14.299  0.9317  0.7837 -0.1475
 9256SOL     OW39403   0.534   2.292   6.271  0.1040  0.4892  0.9833
 9256SOL    HW139404   0.527   2.387   6.280  2.0732  0.5652  1.5612
 9256SOL    HW239405   0.624   2.272   6.298 -0.2478 -3.3125 -0.6356
 9257SOL     OW39406   3.539   1.523  15.140  0.2577  0.4285 -0.1292
 9257SOL    HW139407   3.605   1.454  15.151  1.3119  1.6548  1.2882
 9257SOL    HW239408   3.458   1.485  15.175  1.3186 -1.1721  0.6043
 9258SOL     OW39409   0.867   2.023  14.439 -0.2233  0.0724 -0.4920
 9258SOL    HW139410   0.874   1.964  14.364 -0.3954 -0.7767  0.1651
 9258SOL    HW239411   0.877   2.104  14.389 -2.1666  0.4516 -0.2876
 9259SOL     OW39412   0.914   1.171  10.363  0.2698 -0.7343  0.3707
 9259SOL    HW139413   0.847   1.149  10.298  0.3232  0.9702 -0.2482
 9259SOL    HW239414   0.864   1.153  10.443 -2.2124  1.5011 -0.6710
 9260SOL     OW39415   0.314   3.767   8.229  0.1542 -0.0007  0.3326
 9260SOL    HW139416   0.381   3.823   8.267  1.2658 -1.9477  1.2650
 9260SOL    HW239417   0.364   3.760   8.147 -0.2808  0.1382  0.0599
 9261SOL     OW39418   2.897   1.657   2.970  0.1490 -0.1617 -0.0216
 9261SOL    HW139419   2.822   1.681   2.915 -0.6874 -1.5666  0.5089
 9261SOL    HW239420   2.959   1.632   2.902  0.7241 -0.9428  0.7867
 9262SOL     OW39421   3.699   2.840   3.127 -0.0388 -0.0272  0.4016
 9262SOL    HW139422   3.650   2.866   3.049 -0.5486 -1.1820  0.3406
 9262SOL    HW239423   3.705   2.747   3.105  3.5987  0.3124 -0.0373
 9263SOL     OW39424   4.069   3.352  11.355 -0.1126 -0.4954  0.6008
 9263SOL    HW139425   3.989   3.399  11.381  0.6244  0.4398  1.1847
 9263SOL    HW239426   4.025   3.301  11.288 -1.3894 -0.2949  1.2792
 9264SOL     OW39427   3.645   3.377   8.083 -0.2426 -0.2855  0.3029
 9264SOL    HW139428   3.731   3.386   8.124 -0.2978  1.4173  0.0771
 9264SOL    HW239429   3.596   3.451   8.120  0.4275  0.4200 -0.2169
 9265SOL     OW39430   2.710   0.843   7.679  0.4777  0.5380  0.4531
 9265SOL    HW139431   2.770   0.774   7.652 -1.8033 -0.1639 -2.7990
 9265SOL    HW239432   2.764   0.921   7.663  1.4412 -0.3829 -0.7624
 9266SOL     OW39433   3.984   2.613   2.211  0.5368  0.3668 -0.1668
 9266SOL    HW139434   4.034   2.534   2.189 -1.0200 -0.2964 -1.3151
 9266SOL    HW239435   3.930   2.591   2.287  2.5933 -2.0983  0.5976
 9267SOL     OW39436   4.619   0.258   8.560  0.0115 -0.0114  0.2285
 9267SOL    HW139437   4.690   0.250   8.623 -0.1637  0.9279  0.5430
 9267SOL    HW239438   4.624   0.351   8.540 -1.4948  0.0618  0.1783
 9268SOL     OW39439   0.298   2.045   7.672 -0.1091  0.1119 -0.3676
 9268SOL    HW139440   0.390   2.031   7.649 -0.3395  0.6893 -1.5981
 9268SOL    HW239441   0.263   1.956   7.672 -0.0970  0.1081 -0.5117
 9269SOL     OW39442   2.069   4.525   7.007 -0.4455 -0.3183 -0.1731
 9269SOL    HW139443   2.055   4.551   6.916 -3.2607  0.8414  0.6175
 9269SOL    HW239444   2.161   4.496   7.009  0.2642  1.9416 -0.7424
 9270SOL     OW39445   2.688   1.019  14.500  0.1314  0.0479  0.0697
 9270SOL    HW139446   2.699   1.001  14.407  0.8393  1.3573 -0.0981
 9270SOL    HW239447   2.617   1.083  14.498  0.5702  0.6065  2.0288
 9271SOL     OW39448   3.340   2.642   9.749  0.0350  0.0992  0.2587
 9271SOL    HW139449   3.394   2.632   9.671 -2.0569  0.0900 -1.1743
 9271SOL    HW239450   3.390   2.704   9.802  1.5673 -1.2457  0.3734
 9272SOL     OW39451   1.305   0.091   5.172 -0.8397  0.0202  0.8837
 9272SOL    HW139452   1.338   0.005   5.144  1.8577  1.4826 -0.3878
 9272SOL    HW239453   1.249   0.070   5.247 -1.5400  0.3574  0.4472
 9273SOL     OW39454   2.007   1.471   6.243  0.5979 -0.0875  0.1375
 9273SOL    HW139455   1.923   1.454   6.286  1.5611 -1.9766  1.2925
 9273SOL    HW239456   1.990   1.560   6.212 -1.4746 -0.4443  0.1964
 9274SOL     OW39457   0.790   0.211   4.082  0.2476 -0.1426 -0.1056
 9274SOL    HW139458   0.722   0.178   4.024  0.1236  2.6762 -1.5187
 9274SOL    HW239459   0.825   0.290   4.041  0.4481 -0.5112 -0.6425
 9275SOL     OW39460   2.661   1.221   1.726  0.6524  0.6371 -0.1788
 9275SOL    HW139461   2.753   1.197   1.735  0.9187  0.9127 -2.1928
 9275SOL    HW239462   2.633   1.199   1.815 -0.7617  0.5859 -0.6351
 9276SOL     OW39463   3.721   1.956   5.577  0.3712  0.3838  0.0526
 9276SOL    HW139464   3.747   2.048   5.582  0.4353  0.4940 -2.4933
 9276SOL    HW239465   3.726   1.927   5.486 -4.0603 -2.3231  0.6841
 9277SOL     OW39466   1.741   2.111   5.069 -0.1029  0.1328 -0.0190
 9277SOL    HW139467   1.795   2.169   5.015  0.0799  1.1698  1.2728
 9277SOL    HW239468   1.699   2.055   5.003  1.5638  0.0640 -1.0242
 9278SOL     OW39469   2.416   1.234   3.788  0.2740 -0.4720  0.2026
 9278SOL    HW139470   2.355   1.204   3.855 -1.0480  1.1902 -0.2652
 9278SOL    HW239471   2.426   1.149   3.745  2.1558 -1.3869  2.4389
 9279SOL     OW39472   0.568   3.597   6.537  0.4588  0.0012  0.3404
 9279SOL    HW139473   0.543   3.647   6.459  2.3813  0.5750  0.0935
 9279SOL    HW239474   0.532   3.641   6.615  0.8474  2.2742 -0.7398
 9280SOL     OW39475   3.880   0.367   5.649 -0.2860 -0.4469  0.8220
 9280SOL    HW139476   3.884   0.281   5.692  2.3250 -1.2739 -1.1032
 9280SOL    HW239477   3.958   0.351   5.597  0.1075  0.5109  1.1280
 9281SOL     OW39478   3.959   3.870   9.907  0.2472  0.2884 -0.3167
 9281SOL    HW139479   3.928   3.806   9.843  0.9216  0.7595 -1.1098
 9281SOL    HW239480   3.880   3.918   9.934 -0.3596 -0.6153 -0.4969
 9282SOL     OW39481   1.765   3.607   2.353  0.4390 -0.1088 -0.1165
 9282SOL    HW139482   1.708   3.611   2.430 -1.2314 -0.1559 -1.3568
 9282SOL    HW239483   1.734   3.536   2.297  0.1994  1.1150 -1.5546
 9283SOL     OW39484   1.912   2.631   7.889  0.2218  0.1007 -0.2493
 9283SOL    HW139485   1.878   2.618   7.800 -2.1254  1.7033  0.4260
 9283SOL    HW239486   1.853   2.572   7.936 -0.7359  1.2471 -0.0168
 9284SOL     OW39487   2.950   1.091   0.508 -0.2649 -0.1407 -0.0407
 9284SOL    HW139488   2.863   1.059   0.482  0.0476  0.8103 -2.2127
 9284SOL    HW239489   2.987   1.123   0.426 -1.2016  2.4974  0.5565
 9285SOL     OW39490   3.735   0.111   7.816  0.0381  0.4199  0.7082
 9285SOL    HW139491   3.724   0.200   7.849 -0.5560  0.9187 -0.8471
 9285SOL    HW239492   3.784   0.138   7.738 -3.2305 -1.6408 -2.0279
 9286SOL     OW39493   3.074   4.089   2.878 -0.4464  0.2138 -0.2008
 9286SOL    HW139494   3.119   4.080   2.794  2.9788  1.4357  1.5612
 9286SOL    HW239495   3.075   4.179   2.910  1.1264  0.3588 -0.6691
 9287SOL     OW39496   2.842   4.394   5.480 -0.1053  0.1988  0.1415
 9287SOL    HW139497   2.800   4.424   5.561  0.6842  0.4208  0.4603
 9287SOL    HW239498   2.934   4.387   5.503 -0.0446 -0.5906 -0.3556
 9288SOL     OW39499   1.621   1.859   4.088  0.5441  0.9019  0.3253
 9288SOL    HW139500   1.677   1.921   4.135 -1.2460  0.7041  2.6988
 9288SOL    HW239501   1.538   1.906   4.097  1.0983  2.2391 -1.7472
 9289SOL     OW39502   4.593   4.400   8.217  0.1345 -0.3628 -0.3034
 9289SOL    HW139503   4.640   4.480   8.193  0.2539 -0.4393 -0.3207
 9289SOL    HW239504   4.647   4.344   8.162  0.9881  0.4367 -0.2795
 9290SOL     OW39505   0.757   2.329   6.495  0.1278 -0.1475  0.5972
 9290SOL    HW139506   0.696   2.382   6.547  0.4700  1.3235 -0.5073
 9290SOL    HW239507   0.771   2.391   6.423  0.1679  1.2395  1.8136
 9291SOL     OW39508   3.161   3.194   1.648  0.1058 -0.1966  0.6022
 9291SOL    HW139509   3.216   3.221   1.574  0.2284 -0.3965  0.6201
 9291SOL    HW239510   3.104   3.270   1.661 -0.5490 -0.7328  0.8817
 9292SOL     OW39511   1.030   1.634  16.733  0.8566 -0.5871 -0.0392
 9292SOL    HW139512   0.966   1.566  16.754  1.0294 -1.0392 -0.9797
 9292SOL    HW239513   1.039   1.682  16.815  0.9992  0.4834 -0.6741
 9293SOL     OW39514   3.362   0.635  15.767 -0.6251 -0.0934  0.0240
 9293SOL    HW139515   3.444   0.681  15.748 -0.3311 -0.4981  0.3279
 9293SOL    HW239516   3.376   0.541  15.760  3.4526  0.4791  0.6974
 9294SOL     OW39517   1.438   3.817  11.935 -0.0244  0.1548 -0.0627
 9294SOL    HW139518   1.502   3.746  11.933 -2.2263 -1.7913 -1.9838
 9294SOL    HW239519   1.478   3.877  11.997 -0.7091  1.2801 -0.7148
 9295SOL     OW39520   0.093   3.544  15.983  0.5055 -0.0167  0.0702
 9295SOL    HW139521   0.105   3.631  15.944 -0.9629  0.7625  1.3585
 9295SOL    HW239522   0.003   3.527  15.955  0.5423 -0.9303  0.4939
 9296SOL     OW39523   1.973   3.122   6.309 -0.0308  0.0298 -0.1502
 9296SOL    HW139524   2.027   3.139   6.386 -0.5384  0.9593 -0.0005
 9296SOL    HW239525   1.923   3.204   6.302  1.8122  0.9985 -1.9153
 9297SOL     OW39526   4.241   2.853  16.117 -0.0522  0.5552 -0.4485
 9297SOL    HW139527   4.191   2.882  16.193  1.9895 -0.8782  1.4165
 9297SOL    HW239528   4.192   2.907  16.054 -0.5610 -1.5118 -1.8158
 9298SOL     OW39529   2.796   3.170   2.424  0.1388 -0.1762 -0.6714
 9298SOL    HW139530   2.850   3.244   2.397  0.9638 -0.0559  1.3040
 9298SOL    HW239531   2.785   3.188   2.517 -0.6657 -0.4515 -0.7174
 9299SOL     OW39532   4.470   3.373   4.193 -0.1619  0.0170  0.0273
 9299SOL    HW139533   4.520   3.384   4.112 -0.9008  0.2141 -0.3970
 9299SOL    HW239534   4.406   3.443   4.181  0.0652  0.3009  0.4587
 9300SOL     OW39535   4.264   3.893   5.592  0.8734  0.0540 -0.1458
 9300SOL    HW139536   4.285   3.871   5.683  0.1938 -1.6729 -0.3977
 9300SOL    HW239537   4.350   3.904   5.551  0.8250  0.1080 -0.2339
 9301SOL     OW39538   3.314   2.591   4.056  0.3552  0.3307 -0.3462
 9301SOL    HW139539   3.379   2.604   4.124  0.8769 -0.7699 -0.6287
 9301SOL    HW239540   3.297   2.497   4.052 -0.0147  0.4000 -0.3709
 9302SOL     OW39541   0.153   4.415   4.244  0.7224 -1.1336  0.0561
 9302SOL    HW139542   0.168   4.322   4.227 -0.8872 -1.2042 -1.0414
 9302SOL    HW239543   0.062   4.421   4.273  0.6716  0.6163 -0.4943
 9303SOL     OW39544   1.954   2.923   5.370  0.2021 -0.2733 -0.1906
 9303SOL    HW139545   2.021   2.975   5.416  0.2118  0.6754 -1.2961
 9303SOL    HW239546   1.926   2.976   5.296 -0.2098 -0.8534 -0.4458
 9304SOL     OW39547   3.011   3.192   8.124  0.0631  0.0382  0.2001
 9304SOL    HW139548   3.059   3.167   8.046 -0.5641  0.9063 -0.4674
 9304SOL    HW239549   2.994   3.111   8.172  1.2012 -1.6759 -2.3674
 9305SOL     OW39550   3.680   2.372  17.158  0.3737 -0.2432 -0.0467
 9305SOL    HW139551   3.588   2.371  17.131  0.3006  0.0178  0.1944
 9305SOL    HW239552   3.727   2.411  17.085  0.2230  0.9769  0.5180
 9306SOL     OW39553   2.673   2.048   2.791  0.0466 -0.1616  0.0019
 9306SOL    HW139554   2.700   1.979   2.729 -2.1773 -0.1417 -0.9767
 9306SOL    HW239555   2.643   1.992   2.862  0.5668  1.7453  1.7347
 9307SOL     OW39556   1.218   0.762   6.241 -0.4076 -0.1857  0.7412
 9307SOL    HW139557   1.247   0.827   6.177  0.0275 -3.7432 -2.6722
 9307SOL    HW239558   1.236   0.680   6.194 -0.2110 -0.6466  1.6141
 9308SOL     OW39559   2.119   0.052  16.236  0.3324  0.3993 -0.0681
 9308SOL    HW139560   2.148   4.709  16.196  0.1153  0.6894 -0.8190
 9308SOL    HW239561   2.165   0.116  16.181  0.8009  0.4677  0.4077
 9309SOL     OW39562   0.880   3.447   5.243 -0.0876  0.0209  0.0970
 9309SOL    HW139563   0.915   3.521   5.194  1.2643 -0.3928  0.4377
 9309SOL    HW239564   0.834   3.406   5.169 -1.0394  1.3785 -0.0633
 9310SOL     OW39565   0.072   2.391   7.031 -0.1057  0.4288  0.2512
 9310SOL    HW139566   0.035   2.365   7.115  0.5281  0.4050  0.5239
 9310SOL    HW239567   0.006   2.444   6.987  0.1052  0.4553 -0.0392
 9311SOL     OW39568   4.388   1.684   4.910 -0.3531  0.9115 -0.0287
 9311SOL    HW139569   4.450   1.663   4.839  0.5979  0.3805  0.9585
 9311SOL    HW239570   4.312   1.628   4.893 -0.0708  0.7872 -0.9195
 9312SOL     OW39571   2.933   4.006   6.255  0.0818  0.3348 -0.3038
 9312SOL    HW139572   2.895   4.036   6.173 -2.5159 -0.4773  0.6005
 9312SOL    HW239573   2.912   4.066   6.326 -0.1849 -0.1039 -0.0077
 9313SOL     OW39574   4.001   3.410   8.373  0.3914  0.2325  0.0975
 9313SOL    HW139575   3.965   3.477   8.431  0.5727 -0.9957  1.6514
 9313SOL    HW239576   4.086   3.449   8.351 -0.6468  3.4103  1.6718
 9314SOL     OW39577   3.611   0.109  10.594 -0.3467  0.5760 -0.8515
 9314SOL    HW139578   3.563   0.031  10.566 -1.3006  0.7575  0.2740
 9314SOL    HW239579   3.639   0.069  10.677 -0.4407 -2.2338 -2.1665
 9315SOL     OW39580   2.211   3.987   7.501  0.6165  0.1049 -0.1218
 9315SOL    HW139581   2.290   4.003   7.552  0.8737 -0.5493 -0.3153
 9315SOL    HW239582   2.150   4.044   7.548 -0.3672 -3.0345  2.3805
 9316SOL     OW39583   4.456   1.480   6.470 -0.3785  0.6029 -0.5681
 9316SOL    HW139584   4.489   1.506   6.384  1.1458  0.2755 -0.0803
 9316SOL    HW239585   4.410   1.397   6.457  0.0931  0.5581 -1.9378
 9317SOL     OW39586   4.230   2.378   6.030 -0.2215 -0.2764 -0.0751
 9317SOL    HW139587   4.254   2.471   6.030 -0.0312 -0.3249 -0.0625
 9317SOL    HW239588   4.319   2.343   6.042 -0.1976  0.0816  0.8121
 9318SOL     OW39589   1.791   1.575  14.109  0.0638  0.1200  0.5437
 9318SOL    HW139590   1.783   1.496  14.055 -2.1872  1.0331 -0.4561
 9318SOL    HW239591   1.886   1.586  14.109  0.1555 -0.6556 -0.5776
 9319SOL     OW39592   3.897   1.237   6.187 -0.5392 -0.6687  0.0264
 9319SOL    HW139593   3.813   1.280   6.172  0.7385  2.0475  0.7118
 9319SOL    HW239594   3.908   1.254   6.280 -1.0980  2.0621 -0.4098
 9320SOL     OW39595   3.772   4.462   6.465  0.4534  0.3450  0.4608
 9320SOL    HW139596   3.725   4.520   6.406  0.6832 -0.3266 -0.3860
 9320SOL    HW239597   3.719   4.460   6.545  0.2770 -0.0500  0.3323
 9321SOL     OW39598   3.092   1.091   2.100 -0.1924  0.1311  0.0583
 9321SOL    HW139599   3.040   1.030   2.047  1.4258 -1.7376  0.6266
 9321SOL    HW239600   3.180   1.061   2.078 -1.0643 -1.0995 -1.7944
 9322SOL     OW39601   3.977   0.348   6.584  0.2760 -0.5298 -0.0368
 9322SOL    HW139602   4.022   0.265   6.567  0.6163 -0.7868  2.1651
 9322SOL    HW239603   4.023   0.410   6.528  0.4749 -0.2390  0.4533
 9323SOL     OW39604   4.464   1.807  12.772 -0.0490 -0.5459 -0.1833
 9323SOL    HW139605   4.402   1.779  12.839 -2.9260 -0.0076 -2.5741
 9323SOL    HW239606   4.546   1.766  12.799  0.8219  2.1227  1.1939
 9324SOL     OW39607   4.150   1.440   7.746 -0.2616  0.4686  0.0080
 9324SOL    HW139608   4.208   1.429   7.671  1.3468  1.0622  1.1530
 9324SOL    HW239609   4.176   1.524   7.784  2.7585 -0.2781 -0.4143
 9325SOL     OW39610   1.197   2.253   1.050  0.7305 -0.0830  0.0427
 9325SOL    HW139611   1.179   2.305   1.129 -1.3175  2.7768 -2.3075
 9325SOL    HW239612   1.189   2.166   1.091  2.0353 -0.3821 -0.3545
 9326SOL     OW39613   3.596   2.657   4.809  0.3416  0.1679 -0.0695
 9326SOL    HW139614   3.606   2.682   4.717 -1.2138  1.0519  0.0054
 9326SOL    HW239615   3.616   2.742   4.848  3.0246  0.2939 -1.6878
 9327SOL     OW39616   3.281   0.823   1.005  0.4877 -0.5058 -0.1052
 9327SOL    HW139617   3.285   0.914   0.975  3.3216 -0.7783 -0.5531
 9327SOL    HW239618   3.202   0.792   0.962 -0.6665  2.7493 -0.3751
 9328SOL     OW39619   2.595   4.157   3.726 -0.8704  0.2443 -0.5612
 9328SOL    HW139620   2.546   4.096   3.671 -1.2389 -0.8715  0.9889
 9328SOL    HW239621   2.681   4.117   3.718 -0.8692 -0.6118  3.8017
 9329SOL     OW39622   4.707   1.961   0.837 -0.1609  0.5014 -0.2108
 9329SOL    HW139623   0.054   1.942   0.874 -0.1438  0.5998 -0.2001
 9329SOL    HW239624   4.732   1.960   0.745 -0.2274  1.3571 -0.2443
 9330SOL     OW39625   0.990   3.645   9.231 -0.0774 -0.6013  0.5663
 9330SOL    HW139626   0.995   3.736   9.262  0.2535 -0.9364  1.4937
 9330SOL    HW239627   1.054   3.597   9.283 -0.2413 -0.1446  1.1883
 9331SOL     OW39628   0.230   0.987   7.517  0.0412  0.4658  0.3883
 9331SOL    HW139629   0.230   1.027   7.604  0.9442  1.3168 -0.0041
 9331SOL    HW239630   0.232   1.073   7.476 -0.4795 -1.2034 -3.1162
 9332SOL     OW39631   1.140   1.433   3.673 -0.2798 -0.5325  0.2338
 9332SOL    HW139632   1.210   1.423   3.608 -1.7593 -2.3121 -1.0860
 9332SOL    HW239633   1.131   1.528   3.676  1.4304 -0.3626  0.1556
 9333SOL     OW39634   4.538   0.876   0.315 -0.0938 -0.6469  0.2446
 9333SOL    HW139635   4.495   0.793   0.291 -1.4618 -0.0314  0.5709
 9333SOL    HW239636   4.494   0.894   0.398 -0.0117 -1.7846  0.5364
 9334SOL     OW39637   2.048   0.777   3.314 -0.4233  0.3738  0.2168
 9334SOL    HW139638   2.119   0.775   3.250 -1.8249 -0.2314 -1.3408
 9334SOL    HW239639   2.008   0.863   3.300 -2.1565 -0.4221  0.3023
 9335SOL     OW39640   0.779   0.098   7.774  0.0637 -0.3131 -0.3119
 9335SOL    HW139641   0.753   0.142   7.694  0.3026 -0.3956 -0.4335
 9335SOL    HW239642   0.812   0.013   7.744 -1.3224 -0.2648 -1.9728
 9336SOL     OW39643   1.320   0.920   1.396  0.0013  0.0526  0.4028
 9336SOL    HW139644   1.336   1.013   1.378 -1.3749  0.2606  0.3197
 9336SOL    HW239645   1.273   0.924   1.479  1.3213 -0.7103  1.1830
 9337SOL     OW39646   3.020   1.465  10.450  0.1631 -0.2856  0.1938
 9337SOL    HW139647   2.985   1.540  10.403 -0.4860 -0.8330 -0.2071
 9337SOL    HW239648   2.951   1.436  10.510 -0.0074  2.0935  1.1497
 9338SOL     OW39649   1.168   0.666  14.696  0.3056  0.1437  0.1715
 9338SOL    HW139650   1.260   0.688  14.704  0.2358  1.0188 -1.4295
 9338SOL    HW239651   1.159   0.600  14.765 -1.0194  1.3532  1.1638
 9339SOL     OW39652   2.539   3.400   4.140 -0.0450 -0.5041 -0.3140
 9339SOL    HW139653   2.548   3.466   4.209 -2.0200 -0.8087  0.2256
 9339SOL    HW239654   2.512   3.322   4.189  1.9527  0.1458  1.8080
 9340SOL     OW39655   4.053   3.514   2.188  0.1772  0.1584  0.0190
 9340SOL    HW139656   3.998   3.441   2.216 -0.1249  0.4200  0.1039
 9340SOL    HW239657   4.056   3.559   2.273  1.5917  1.5285 -0.7448
 9341SOL     OW39658   2.378   4.258   4.704 -0.6166 -0.2204 -0.0468
 9341SOL    HW139659   2.325   4.299   4.635  0.4695  0.0377 -0.7261
 9341SOL    HW239660   2.313   4.214   4.758 -0.6914 -0.2551 -0.1639
 9342SOL     OW39661   1.297   3.277  12.486 -0.0236  0.2008  0.9115
 9342SOL    HW139662   1.273   3.366  12.458  1.3003  0.3103  0.1668
 9342SOL    HW239663   1.343   3.257  12.405 -2.5838  1.9337 -0.9940
 9343SOL     OW39664   1.407   3.286   3.091  0.5885 -0.0624  0.0629
 9343SOL    HW139665   1.449   3.311   3.009  0.2537 -0.5389 -0.2551
 9343SOL    HW239666   1.343   3.355   3.113  0.6322 -0.2305  0.7177
 9344SOL     OW39667   1.784   2.678   8.242 -0.4627  0.1888  0.5413
 9344SOL    HW139668   1.839   2.743   8.284  2.0001  0.1185 -2.5468
 9344SOL    HW239669   1.839   2.601   8.231 -1.8603 -0.6670 -0.5698
 9345SOL     OW39670   3.478   4.190   2.381 -0.2770  0.3282  0.5758
 9345SOL    HW139671   3.517   4.115   2.426 -0.8037 -0.1909  0.1656
 9345SOL    HW239672   3.528   4.265   2.414  0.9106  0.0671 -0.6158
 9346SOL     OW39673   0.650   1.778  14.846 -0.1732 -0.1055  0.4551
 9346SOL    HW139674   0.669   1.825  14.765 -0.1229 -0.9098  0.0069
 9346SOL    HW239675   0.688   1.840  14.909  0.9262 -0.2360 -0.0881
 9347SOL     OW39676   1.444   2.359   7.401 -0.2641  0.3806  0.4533
 9347SOL    HW139677   1.398   2.375   7.484  3.3075  0.5862  2.4068
 9347SOL    HW239678   1.447   2.264   7.406  1.2191  0.3096 -1.7296
 9348SOL     OW39679   3.153   4.336   7.885 -0.7330  0.2808  0.2760
 9348SOL    HW139680   3.176   4.383   7.965 -0.9496  0.4918  0.2181
 9348SOL    HW239681   3.219   4.373   7.826 -0.9675  1.4976  0.7847
 9349SOL     OW39682   0.498   3.147   8.997  0.2345  0.5754 -0.2458
 9349SOL    HW139683   0.451   3.177   9.075 -1.1973 -0.5691 -0.6733
 9349SOL    HW239684   0.427   3.115   8.942  1.2535  0.8070 -1.7067
 9350SOL     OW39685   0.601   0.068   9.966 -0.5681  0.3674 -0.4080
 9350SOL    HW139686   0.654   0.141   9.997 -0.1688  0.7540 -2.0261
 9350SOL    HW239687   0.537   0.113   9.911 -1.8566 -2.2995 -1.0707
 9351SOL     OW39688   1.326   1.894   7.265  0.2623 -0.1418  0.0642
 9351SOL    HW139689   1.231   1.887   7.277  0.0019 -1.5576 -2.7768
 9351SOL    HW239690   1.341   1.899   7.170 -1.1080  1.2408 -0.0830
 9352SOL     OW39691   1.733   1.467  12.248 -0.1650 -0.0974  0.8964
 9352SOL    HW139692   1.765   1.448  12.337 -0.1163 -2.9539  0.2937
 9352SOL    HW239693   1.677   1.543  12.259  0.8355  0.7012  0.4070
 9353SOL     OW39694   3.070   4.718  10.148 -0.0281 -0.1262  0.0536
 9353SOL    HW139695   3.036   4.716  10.059  1.3912 -1.0246 -0.4599
 9353SOL    HW239696   3.049   0.071  10.162  4.3683  0.3297  3.5921
 9354SOL     OW39697   3.843   0.658   0.692  0.2378 -0.2213 -0.0833
 9354SOL    HW139698   3.799   0.733   0.651 -1.1901 -0.9141  0.1859
 9354SOL    HW239699   3.818   0.688   0.779  0.1618 -1.5072  0.3276
 9355SOL     OW39700   0.400   4.458   2.970 -0.5701  0.0203 -0.3665
 9355SOL    HW139701   0.336   4.524   2.998 -1.1069  0.2025 -2.0525
 9355SOL    HW239702   0.348   4.424   2.898 -1.5468  0.5107  0.1043
 9356SOL     OW39703   0.324   3.960   2.815  0.5218  0.0612  0.9634
 9356SOL    HW139704   0.248   3.903   2.809  0.5401 -0.0678  1.9711
 9356SOL    HW239705   0.290   4.031   2.870 -0.1222 -0.3828  1.1397
 9357SOL     OW39706   4.151   2.837   9.870  0.0748  0.7372  0.6255
 9357SOL    HW139707   4.115   2.748   9.867  0.7642  0.4024  2.5966
 9357SOL    HW239708   4.198   2.835   9.953 -1.1078 -0.9919  1.2551
 9358SOL     OW39709   0.519   1.651   2.411 -0.6039 -0.6716  0.4141
 9358SOL    HW139710   0.458   1.725   2.411 -0.2030 -0.3434  1.1105
 9358SOL    HW239711   0.592   1.688   2.363 -2.5430  3.2356  0.5148
 9359SOL     OW39712   3.842   0.249  12.137  0.2076 -0.5360 -0.5883
 9359SOL    HW139713   3.851   0.335  12.179  0.3250 -1.5486  1.4460
 9359SOL    HW239714   3.893   0.265  12.057 -1.6791 -0.4208 -1.7627
 9360SOL     OW39715   2.967   3.372   4.144  0.0523 -0.3877  0.1621
 9360SOL    HW139716   2.999   3.283   4.130 -4.5054 -1.6481 -2.3755
 9360SOL    HW239717   2.926   3.396   4.060 -2.2058  1.4830  1.7989
 9361SOL     OW39718   3.261   2.113   3.664  0.2374  0.1419 -0.0673
 9361SOL    HW139719   3.251   2.125   3.569 -1.8070  1.6832  0.3358
 9361SOL    HW239720   3.326   2.044   3.674  2.1098  1.9659  0.2943
 9362SOL     OW39721   0.100   2.559  14.488 -0.0493  0.4972  0.0306
 9362SOL    HW139722   0.140   2.476  14.514  0.6067  0.4534 -1.0741
 9362SOL    HW239723   0.097   2.600  14.574  2.7380 -0.2165  0.4788
 9363SOL     OW39724   3.245   3.472   6.755 -0.0131 -0.0570 -0.1093
 9363SOL    HW139725   3.310   3.542   6.747 -0.2832  0.2754  0.6295
 9363SOL    HW239726   3.161   3.517   6.752 -0.2021 -0.1742  3.3866
 9364SOL     OW39727   2.083   3.790  13.851  0.1961 -0.3632  0.1709
 9364SOL    HW139728   2.095   3.865  13.793  0.4503 -0.5980 -0.0810
 9364SOL    HW239729   2.106   3.839  13.931  1.4384 -2.4061  1.0742
 9365SOL     OW39730   0.578   2.081   5.237 -0.6019 -0.7510 -0.1174
 9365SOL    HW139731   0.522   2.013   5.274 -1.1358  0.6095  1.5636
 9365SOL    HW239732   0.655   2.058   5.289 -2.1476 -2.1193  1.5804
 9366SOL     OW39733   4.603   4.712   5.595 -0.1215 -0.2152 -0.0667
 9366SOL    HW139734   4.557   4.712   5.679 -1.3230  1.3121 -0.7077
 9366SOL    HW239735   4.534   4.730   5.531  1.5411  0.1069 -1.7564
 9367SOL     OW39736   1.542   3.283   8.907  0.2088  0.4516  0.0093
 9367SOL    HW139737   1.578   3.355   8.855  0.0454  0.6065  0.1093
 9367SOL    HW239738   1.614   3.266   8.968  0.2869 -0.8056 -0.4443
 9368SOL     OW39739   2.421   1.150   3.424 -0.0712 -0.2376  0.3762
 9368SOL    HW139740   2.437   1.201   3.345  2.2245 -2.1161 -0.3743
 9368SOL    HW239741   2.479   1.194   3.486 -1.0325  1.8532 -0.2235
 9369SOL     OW39742   2.350   1.396   5.431  0.2427  0.1630 -0.1127
 9369SOL    HW139743   2.307   1.453   5.495 -0.9633  0.2880 -1.0360
 9369SOL    HW239744   2.358   1.459   5.359 -2.7711  1.0583  0.3439
 9370SOL     OW39745   4.112   0.090   7.353 -0.2155 -0.2981  0.3416
 9370SOL    HW139746   4.106   0.066   7.446  0.5464  2.9491  1.2633
 9370SOL    HW239747   4.034   0.053   7.314 -0.6110 -1.3747  2.1631
 9371SOL     OW39748   4.094   2.307   1.627 -0.1805  0.0361  0.4124
 9371SOL    HW139749   4.173   2.286   1.578 -0.9371 -1.5775 -0.1125
 9371SOL    HW239750   4.024   2.301   1.562  0.4523 -0.2019 -0.2433
 9372SOL     OW39751   4.323   0.551   4.052 -0.1602  0.4023 -0.1984
 9372SOL    HW139752   4.235   0.572   4.085  0.0135 -1.2163  1.3136
 9372SOL    HW239753   4.347   0.489   4.121  0.5168  0.8847 -0.0078
 9373SOL     OW39754   4.588   2.545   6.936 -0.1542  0.7394  0.1090
 9373SOL    HW139755   4.583   2.555   6.841  0.3876  1.4357  0.1575
 9373SOL    HW239756   4.497   2.551   6.965 -0.1342 -0.8641  0.4966
 9374SOL     OW39757   2.750   2.376   5.518  0.2654  0.1639  0.0163
 9374SOL    HW139758   2.734   2.378   5.612  0.4269  1.9023  0.0164
 9374SOL    HW239759   2.741   2.282   5.501 -2.2479  0.2168  1.0497
 9375SOL     OW39760   3.685   4.040   2.776  0.0473  0.0902 -0.3298
 9375SOL    HW139761   3.677   4.135   2.781  0.7917  0.0302  2.1087
 9375SOL    HW239762   3.594   4.017   2.759 -0.7920  1.9043  1.6756
 9376SOL     OW39763   0.510   4.730   0.310  0.1295  0.5631 -0.3768
 9376SOL    HW139764   0.545   0.025   0.228  0.7014 -1.2539 -0.9082
 9376SOL    HW239765   0.590   4.723   0.362  0.8121  0.3949 -1.4400
 9377SOL     OW39766   1.774   1.408   6.387 -0.0289  0.1370 -0.2100
 9377SOL    HW139767   1.786   1.366   6.473  1.0213  2.7835  0.9175
 9377SOL    HW239768   1.680   1.392   6.382  0.2295 -0.5175 -2.8693
 9378SOL     OW39769   4.320   1.536  11.998 -0.3286  0.5044 -0.5050
 9378SOL    HW139770   4.377   1.586  11.940  0.3053 -0.9408 -1.1245
 9378SOL    HW239771   4.365   1.535  12.083  0.2308 -1.5603 -0.8222
 9379SOL     OW39772   4.386   2.896   1.474  0.0469  0.1922  0.8223
 9379SOL    HW139773   4.480   2.885   1.485 -0.0735 -0.2325  1.4572
 9379SOL    HW239774   4.376   2.932   1.386  0.1894  0.9377  1.1137
 9380SOL     OW39775   1.921   3.070   5.690 -0.2923 -0.6217  0.3266
 9380SOL    HW139776   1.980   3.130   5.644 -1.7987  0.8551  0.3421
 9380SOL    HW239777   1.841   3.120   5.675 -0.6490 -0.6290  2.1935
 9381SOL     OW39778   4.122   1.903  10.559  0.1749 -0.3176 -0.0467
 9381SOL    HW139779   4.108   1.897  10.465  0.9604 -3.6783  0.0236
 9381SOL    HW239780   4.046   1.853  10.589  0.6955 -1.3551 -0.4549
 9382SOL     OW39781   2.558   0.506   4.252  0.4800  0.2571 -0.2024
 9382SOL    HW139782   2.654   0.513   4.259  0.2296  1.6874  1.5540
 9382SOL    HW239783   2.537   0.447   4.324  2.1036  0.8918  0.8030
 9383SOL     OW39784   2.654   4.192   8.582  0.2336 -0.2871 -0.4363
 9383SOL    HW139785   2.706   4.220   8.657 -1.7104  1.8724  0.0946
 9383SOL    HW239786   2.694   4.238   8.508 -0.7346 -0.6918 -1.2034
 9384SOL     OW39787   1.370   1.226   8.137 -0.0316 -0.3909  0.2092
 9384SOL    HW139788   1.429   1.296   8.110 -0.5174  1.2848  3.4811
 9384SOL    HW239789   1.288   1.276   8.141  1.7502  2.6044 -1.3649
 9385SOL     OW39790   1.713   1.535  11.030 -0.2488  0.0482  0.0288
 9385SOL    HW139791   1.692   1.594  10.958  3.0388 -1.2663 -2.0058
 9385SOL    HW239792   1.785   1.487  10.989 -1.9634 -1.6235 -1.0087
 9386SOL     OW39793   1.737   4.716  10.545  0.1035 -0.1527 -0.6001
 9386SOL    HW139794   1.646   0.005  10.538 -0.4974 -1.7373  0.7265
 9386SOL    HW239795   1.765   4.739  10.633 -2.4405 -0.7975  0.3733
 9387SOL     OW39796   2.674   2.335   8.139 -0.3073  0.4571  0.1732
 9387SOL    HW139797   2.727   2.408   8.172 -0.5024 -0.0899  1.7196
 9387SOL    HW239798   2.628   2.388   8.075 -2.3730 -0.8266  0.5867
 9388SOL     OW39799   1.201   2.580   2.765  0.0752  0.2932 -0.0325
 9388SOL    HW139800   1.187   2.560   2.672 -1.7741  1.5499 -0.0245
 9388SOL    HW239801   1.144   2.655   2.779  0.1246  0.0652  1.3524
 9389SOL     OW39802   0.230   2.696  13.487 -0.2151 -0.7626 -0.2016
 9389SOL    HW139803   0.227   2.649  13.570 -0.3662 -1.6583 -0.7162
 9389SOL    HW239804   0.170   2.644  13.434 -0.5431  0.4217 -1.0065
 9390SOL     OW39805   1.057   4.134   9.567 -0.1832 -0.3463 -0.0489
 9390SOL    HW139806   1.086   4.223   9.548 -1.8017  0.3055  0.4727
 9390SOL    HW239807   0.971   4.131   9.524 -0.9661 -1.0705  1.5819
 9391SOL     OW39808   1.408   3.434   7.447 -0.1902  0.1055 -0.0653
 9391SOL    HW139809   1.503   3.451   7.450 -0.4623  1.6818 -0.0797
 9391SOL    HW239810   1.372   3.475   7.368  0.8877  0.7282 -0.2316
 9392SOL     OW39811   0.091   1.452   7.500 -0.2507  0.0039  0.0065
 9392SOL    HW139812   0.111   1.531   7.448  1.5436 -0.6392 -0.2766
 9392SOL    HW239813   0.072   1.486   7.587 -0.1667 -2.3825  0.9277
 9393SOL     OW39814   3.191   2.447   2.954 -0.3233 -0.0121 -0.2019
 9393SOL    HW139815   3.153   2.402   2.879  2.0489 -0.8767 -0.9063
 9393SOL    HW239816   3.284   2.426   2.942  0.2729  2.1449  0.6373
 9394SOL     OW39817   1.149   0.480   6.833  0.8156 -0.5385 -0.1427
 9394SOL    HW139818   1.231   0.518   6.864  1.0407 -0.6383 -0.6080
 9394SOL    HW239819   1.163   0.387   6.850  3.0843  0.0020  0.9404
 9395SOL     OW39820   0.024   2.648   0.500  0.5032  0.1631 -0.0595
 9395SOL    HW139821   4.683   2.680   0.459  0.1917 -0.1967  0.2679
 9395SOL    HW239822   0.052   2.575   0.445  0.0916  0.6441 -0.8944
 9396SOL     OW39823   0.043   1.204   0.168  0.2041 -0.2770  0.2927
 9396SOL    HW139824   4.688   1.188   0.170  0.4326 -1.3929  2.5729
 9396SOL    HW239825   0.067   1.125   0.119  0.5148 -0.6768  1.0859
 9397SOL     OW39826   0.455   1.277   0.155  0.2787 -0.0756 -0.4041
 9397SOL    HW139827   0.451   1.182   0.149  0.1167 -0.1192  0.3045
 9397SOL    HW239828   0.545   1.285   0.188  0.1144 -0.1577  0.0707
 9398SOL     OW39829   2.149   2.104  16.693  0.0392 -0.2570  0.4901
 9398SOL    HW139830   2.201   2.183  16.680  1.8301 -1.6328 -0.7373
 9398SOL    HW239831   2.123   2.129  16.782 -2.6848 -0.2819 -0.2890
 9399SOL     OW39832   2.885   1.395  15.378 -0.0220 -0.7582 -0.0232
 9399SOL    HW139833   2.899   1.474  15.326 -0.9140  0.4372  1.5949
 9399SOL    HW239834   2.976   1.363  15.375 -0.4728 -2.1641  1.2530
 9400SOL     OW39835   1.683   3.687   2.628  0.6540  0.3431  0.4328
 9400SOL    HW139836   1.613   3.703   2.690  1.2852  0.4199  1.1259
 9400SOL    HW239837   1.737   3.630   2.682  1.2458 -0.4560 -0.9849
 9401SOL     OW39838   4.364   1.623   6.872 -0.4353 -0.1703 -0.3522
 9401SOL    HW139839   4.315   1.704   6.857  0.3396 -0.0659 -2.3975
 9401SOL    HW239840   4.300   1.570   6.920  1.3786 -1.0997  0.9994
 9402SOL     OW39841   3.410   4.501   7.022  0.6613 -0.1730 -0.2372
 9402SOL    HW139842   3.364   4.566   7.075 -1.3988 -0.6467 -1.4400
 9402SOL    HW239843   3.374   4.513   6.934  1.5325 -0.4207 -0.6287
 9403SOL     OW39844   2.934   0.065   2.400  0.5517 -0.2986 -0.6090
 9403SOL    HW139845   2.880   0.033   2.328  0.1642  1.0561 -0.9272
 9403SOL    HW239846   2.902   0.155   2.412 -0.1921 -0.8088  1.1582
 9404SOL     OW39847   1.151   2.734   7.625 -0.1442  0.2875 -0.7429
 9404SOL    HW139848   1.103   2.693   7.552  2.2516 -1.0918 -1.5280
 9404SOL    HW239849   1.117   2.823   7.614 -1.2759 -0.1768 -1.0809
 9405SOL     OW39850   3.287   2.348   8.018 -0.5140  1.2775 -0.4783
 9405SOL    HW139851   3.365   2.364   7.966  1.2438  2.9412  2.6968
 9405SOL    HW239852   3.220   2.339   7.950 -1.1016 -0.7054  0.3461
 9406SOL     OW39853   4.002   4.231   8.966  0.0009 -0.0900  0.7671
 9406SOL    HW139854   3.929   4.245   8.905  0.0691 -0.9918  0.4792
 9406SOL    HW239855   4.060   4.303   8.941  1.1825 -0.6013  2.0846
 9407SOL     OW39856   0.618   1.427  17.371  0.2684 -0.6038 -0.1933
 9407SOL    HW139857   0.610   1.422  17.467 -1.6327 -2.3566 -0.4416
 9407SOL    HW239858   0.672   1.347  17.369  1.2292  0.0363  0.3796
 9408SOL     OW39859   0.001   3.775  13.779 -0.4393 -0.2172  0.3432
 9408SOL    HW139860   4.697   3.718  13.843 -2.3876  0.1089 -0.6848
 9408SOL    HW239861   4.687   3.784  13.701 -1.0225  0.8790  0.8575
 9409SOL     OW39862   4.394   2.423   9.398  0.0338 -0.1549 -0.3446
 9409SOL    HW139863   4.419   2.419   9.490  0.4095  0.3474 -0.4239
 9409SOL    HW239864   4.367   2.333   9.378  0.5751 -0.0607 -1.5342
 9410SOL     OW39865   1.222   4.243   6.522  0.3360 -0.4679 -0.0935
 9410SOL    HW139866   1.230   4.281   6.435 -0.4883 -0.2253 -0.0706
 9410SOL    HW239867   1.167   4.167   6.501 -0.3408 -0.0961  0.3300
 9411SOL     OW39868   2.605   3.890   4.731 -0.2632  0.1946  0.3009
 9411SOL    HW139869   2.533   3.904   4.791 -0.8272 -3.5535  0.4906
 9411SOL    HW239870   2.634   3.979   4.710  2.4180 -1.1246 -1.7247
 9412SOL     OW39871   0.772   3.437   6.197 -0.4013 -0.2131  0.0220
 9412SOL    HW139872   0.842   3.386   6.156 -3.1449 -4.5209  0.7373
 9412SOL    HW239873   0.707   3.415   6.130 -0.3801 -2.7127  0.8379
 9413SOL     OW39874   3.396   3.235   2.850  0.2541 -0.3186  0.0742
 9413SOL    HW139875   3.354   3.249   2.765  0.4894 -2.3013 -0.3760
 9413SOL    HW239876   3.355   3.152   2.873  0.3526 -0.4452 -0.2060
 9414SOL     OW39877   0.848   4.048   5.389  1.0524 -0.0267 -0.5533
 9414SOL    HW139878   0.763   4.013   5.417  1.7678 -0.9461  0.4618
 9414SOL    HW239879   0.898   4.034   5.469 -2.4312  0.2330  1.6954
 9415SOL     OW39880   3.496   3.480   5.315  0.4536  0.4015  0.0408
 9415SOL    HW139881   3.565   3.527   5.363  1.0613  0.3173 -0.7599
 9415SOL    HW239882   3.501   3.523   5.230  0.3318 -0.8131 -0.5828
 9416SOL     OW39883   3.608   0.656  12.523  0.5478 -0.3855 -0.0922
 9416SOL    HW139884   3.530   0.711  12.531  2.7100  2.9119 -1.7265
 9416SOL    HW239885   3.664   0.707  12.464  1.4988  0.0427  1.1768
 9417SOL     OW39886   0.970   3.431   4.840  0.4327 -0.1044  0.0497
 9417SOL    HW139887   0.913   3.413   4.914 -0.5917 -2.8361 -1.3941
 9417SOL    HW239888   0.909   3.478   4.783 -0.6858 -0.4335  0.9905
 9418SOL     OW39889   3.189   4.538  12.653  0.4473 -0.5038 -0.1956
 9418SOL    HW139890   3.148   4.553  12.738 -1.9805  0.2839 -1.4959
 9418SOL    HW239891   3.121   4.483  12.615  0.5213 -0.4458 -0.4094
 9419SOL     OW39892   4.172   0.975   0.594  0.2811 -0.0023 -0.2233
 9419SOL    HW139893   4.111   0.926   0.538  0.8857 -2.9071  1.6199
 9419SOL    HW239894   4.134   1.062   0.596  2.0127  0.6505  3.4490
 9420SOL     OW39895   4.297   1.829   1.969 -0.7052  0.4011 -0.3035
 9420SOL    HW139896   4.372   1.786   2.010 -1.7314  0.0038  1.1432
 9420SOL    HW239897   4.228   1.762   1.969  0.3581 -0.7046  0.2176
 9421SOL     OW39898   2.249   4.421   3.827  0.5432 -0.1474 -0.2083
 9421SOL    HW139899   2.325   4.371   3.856  0.6151  0.7334  1.1581
 9421SOL    HW239900   2.240   4.386   3.739 -2.1786 -0.6407  0.2778
 9422SOL     OW39901   1.650   2.818   6.743  0.4083 -0.0488 -0.1148
 9422SOL    HW139902   1.698   2.739   6.716  0.7779 -0.7634  2.5729
 9422SOL    HW239903   1.576   2.767   6.775  1.7244 -2.6287 -1.1630
 9423SOL     OW39904   2.621   4.144   4.662  0.3302  0.4739 -0.5627
 9423SOL    HW139905   2.644   4.237   4.655 -1.4911  0.9770  0.2268
 9423SOL    HW239906   2.527   4.157   4.656 -0.1687 -0.6423  4.5368
 9424SOL     OW39907   4.108   1.264   1.636 -0.5409  0.0360  0.1786
 9424SOL    HW139908   4.046   1.260   1.708 -1.8934 -1.5552 -1.0694
 9424SOL    HW239909   4.048   1.243   1.564  0.9714  0.7695 -1.3156
 9425SOL     OW39910   2.953   2.206   5.804 -0.2654  1.0324  0.2028
 9425SOL    HW139911   2.975   2.225   5.712  2.8532  1.1071  0.9532
 9425SOL    HW239912   2.942   2.111   5.797  0.0058  1.0749 -0.8269
 9426SOL     OW39913   1.958   3.459   4.898 -0.0648  0.2073  0.3172
 9426SOL    HW139914   1.947   3.544   4.857  0.1653  0.7959  1.4824
 9426SOL    HW239915   2.026   3.416   4.846 -0.3086  0.8653 -0.5426
 9427SOL     OW39916   2.320   0.389   6.291  0.3624 -0.8058  0.0126
 9427SOL    HW139917   2.393   0.335   6.320  1.3861  0.5258 -0.1030
 9427SOL    HW239918   2.345   0.403   6.199  0.8248 -0.3333  0.2098
 9428SOL     OW39919   1.712   0.979   5.927 -0.0176  0.2033  0.9205
 9428SOL    HW139920   1.712   1.063   5.973  0.7848 -0.1714  1.6091
 9428SOL    HW239921   1.657   0.928   5.986  0.2595 -0.7954  0.3205
 9429SOL     OW39922   4.199   0.596   7.770 -0.7611  0.0059  0.4541
 9429SOL    HW139923   4.282   0.644   7.772 -0.7097  0.0296 -2.5073
 9429SOL    HW239924   4.141   0.652   7.822  1.4143  0.3396  2.5133
 9430SOL     OW39925   0.242   4.052  15.182 -0.2535 -0.1248  0.0117
 9430SOL    HW139926   0.312   4.089  15.236  1.4377 -0.6890 -1.7971
 9430SOL    HW239927   0.241   3.958  15.200  2.2665 -0.2809 -0.6046
 9431SOL     OW39928   0.534   4.110  11.837  0.2492 -0.4208  0.0688
 9431SOL    HW139929   0.505   4.138  11.924  2.0735 -0.2063  0.6059
 9431SOL    HW239930   0.535   4.194  11.790 -1.4188 -0.9266 -0.8872
 9432SOL     OW39931   2.022   1.190  12.284  0.1754 -0.2786 -0.5855
 9432SOL    HW139932   2.038   1.096  12.290 -1.9737 -0.4204  3.4970
 9432SOL    HW239933   1.955   1.188  12.215  0.0467  1.6520 -0.5092
 9433SOL     OW39934   2.849   4.361  14.386 -0.1993  0.2552 -0.1506
 9433SOL    HW139935   2.763   4.365  14.428 -0.6958  0.1223 -1.1525
 9433SOL    HW239936   2.829   4.291  14.323  4.5312 -1.7299  0.6099
 9434SOL     OW39937   3.056   1.793   3.986 -0.2629  0.0383  0.6601
 9434SOL    HW139938   2.967   1.818   3.959 -0.0504  0.7277  0.6034
 9434SOL    HW239939   3.043   1.700   3.966  2.5934 -0.3282  0.5178
 9435SOL     OW39940   0.027   2.120   8.767 -0.3537  0.4397 -0.1386
 9435SOL    HW139941   0.025   2.071   8.684  0.8462  0.0518  0.0584
 9435SOL    HW239942   4.676   2.146   8.785 -1.1349 -1.7752 -0.7398
 9436SOL     OW39943   3.753   2.660  11.627  0.0600 -0.4964 -0.1526
 9436SOL    HW139944   3.847   2.673  11.640  0.1638 -1.0239 -0.3944
 9436SOL    HW239945   3.730   2.750  11.604  0.8652  0.0829  1.3140
 9437SOL     OW39946   0.839   3.526   3.712 -0.4475  0.1120  1.0129
 9437SOL    HW139947   0.770   3.543   3.648  0.0874  1.1686  0.7077
 9437SOL    HW239948   0.920   3.529   3.661 -1.5089  0.2380 -0.6302
 9438SOL     OW39949   3.491   1.336   7.511 -0.0522 -0.1736 -0.2188
 9438SOL    HW139950   3.478   1.400   7.580 -1.2216 -1.5859  0.8733
 9438SOL    HW239951   3.415   1.341   7.453  0.8184  0.9656 -1.2824
 9439SOL     OW39952   4.315   2.483   4.827 -0.5344 -0.5191  0.4460
 9439SOL    HW139953   4.225   2.503   4.802 -0.4219  1.1460  1.4120
 9439SOL    HW239954   4.337   2.427   4.752  1.5698  2.8459 -1.4471
 9440SOL     OW39955   0.595   0.949   7.615  0.2955 -0.0160  0.7446
 9440SOL    HW139956   0.612   0.904   7.532  1.2226  2.5091 -0.4099
 9440SOL    HW239957   0.668   1.011   7.615  0.3936 -0.1413 -1.4411
 9441SOL     OW39958   1.740   4.535  10.355  0.3094  0.6515  0.8673
 9441SOL    HW139959   1.646   4.542  10.338  0.5923 -1.0347 -1.4941
 9441SOL    HW239960   1.745   4.598  10.427  0.9448 -0.5024  1.8274
 9442SOL     OW39961   4.216   0.604   4.933  0.3911 -0.0586 -0.5546
 9442SOL    HW139962   4.215   0.581   5.026  0.2245  1.4975 -0.1773
 9442SOL    HW239963   4.128   0.637   4.916  1.2383  1.8245 -1.2800
 9443SOL     OW39964   0.222   0.083  13.926  0.8485  0.4046  0.3017
 9443SOL    HW139965   0.159   0.015  13.899  0.1118  1.2983 -0.2319
 9443SOL    HW239966   0.294   0.065  13.865 -0.0896 -0.3198 -0.6140
 9444SOL     OW39967   1.940   2.970  11.611  0.4108  0.2125 -0.3188
 9444SOL    HW139968   1.943   2.918  11.692  0.4744 -0.2617 -0.6222
 9444SOL    HW239969   2.030   2.953  11.582 -0.0419  0.3822 -1.7929
 9445SOL     OW39970   1.577   3.200   1.369 -0.2376  0.3647  0.5963
 9445SOL    HW139971   1.515   3.262   1.407 -0.3147  0.7112 -0.0939
 9445SOL    HW239972   1.640   3.265   1.339  3.2469 -1.2333  4.6042
 9446SOL     OW39973   2.832   0.807   4.023  0.4428 -0.5762 -0.5602
 9446SOL    HW139974   2.836   0.796   4.118  1.7428  2.5379 -0.2448
 9446SOL    HW239975   2.925   0.802   4.001  0.5428 -1.3116  0.0476
 9447SOL     OW39976   4.113   2.463  12.685  0.4139  0.4099 -0.0615
 9447SOL    HW139977   4.044   2.437  12.745  2.1991 -0.8219  1.4407
 9447SOL    HW239978   4.071   2.522  12.622 -1.6491 -0.4213  0.5542
 9448SOL     OW39979   4.271   3.779  10.140 -0.3204 -0.2378  0.0691
 9448SOL    HW139980   4.342   3.819  10.090 -0.6896  0.7485  0.3375
 9448SOL    HW239981   4.305   3.696  10.173 -0.1110 -0.1614  0.0395
 9449SOL     OW39982   2.904   3.871   4.101  0.5789  0.4394  0.6500
 9449SOL    HW139983   2.930   3.850   4.011 -0.1557 -3.5330  1.3800
 9449SOL    HW239984   2.843   3.803   4.129  1.1727 -0.1549  0.5191
 9450SOL     OW39985   2.157   0.981   0.503 -0.4764 -0.5821 -0.8916
 9450SOL    HW139986   2.178   0.919   0.573 -0.3636  0.1064 -0.3150
 9450SOL    HW239987   2.123   0.923   0.435 -0.4741 -0.8657 -0.6479
 9451SOL     OW39988   1.395   3.353   7.688 -0.2863  0.0440 -0.3330
 9451SOL    HW139989   1.402   3.379   7.596 -1.7741  1.2649 -0.0898
 9451SOL    HW239990   1.329   3.285   7.674  0.5121 -1.2165  1.9191
 9452SOL     OW39991   3.791   2.641   5.152  0.3866 -0.1235 -0.1537
 9452SOL    HW139992   3.702   2.671   5.169  0.5579 -0.5222  1.4479
 9452SOL    HW239993   3.812   2.591   5.231 -0.6814  0.6886  0.6374
 9453SOL     OW39994   0.606   4.319  16.871 -0.1008 -0.4695 -0.1905
 9453SOL    HW139995   0.594   4.225  16.878 -1.6641 -0.2170  0.5288
 9453SOL    HW239996   0.696   4.323  16.904 -0.0316 -1.2390 -0.2915
 9454SOL     OW39997   1.272   1.481   5.957 -0.3050 -0.4126 -0.1539
 9454SOL    HW139998   1.221   1.485   6.038  0.6319 -0.0307  0.4199
 9454SOL    HW239999   1.257   1.395   5.917 -2.5209  0.6529 -1.6167
 9455SOL     OW40000   0.356   4.736   4.704  0.2168  0.9247 -0.4018
 9455SOL    HW140001   0.354   4.662   4.764  1.5784  1.7242  0.6362
 9455SOL    HW240002   0.302   0.058   4.752 -0.3329 -1.4440  1.9941
 9456SOL     OW40003   0.858   3.234   8.036 -0.2969 -0.1435  0.5188
 9456SOL    HW140004   0.794   3.250   8.105 -0.7401  1.2903 -0.2061
 9456SOL    HW240005   0.933   3.206   8.088  1.4848  0.5463 -1.6199
 9457SOL     OW40006   1.416   2.576   3.716  0.1406  0.0392 -0.0268
 9457SOL    HW140007   1.352   2.564   3.645  2.2047 -1.7019 -1.6048
 9457SOL    HW240008   1.397   2.497   3.767 -2.6696 -0.4382 -1.7675
 9458SOL     OW40009   3.915   4.703   6.196 -0.8148 -0.3572 -0.7155
 9458SOL    HW140010   3.896   0.042   6.144 -1.4207 -0.6288 -0.8955
 9458SOL    HW240011   3.999   4.682   6.154  0.0509 -1.2115  1.4370
 9459SOL     OW40012   3.278   3.715   7.058 -0.1221  0.5027 -0.1165
 9459SOL    HW140013   3.196   3.704   7.010 -0.8554 -0.1883  1.2797
 9459SOL    HW240014   3.341   3.735   6.989  0.1368 -2.4011 -0.7295
 9460SOL     OW40015   1.915   3.875   7.704  0.1961 -0.0233 -0.3856
 9460SOL    HW140016   1.913   3.860   7.799 -2.3060 -1.4827 -0.6720
 9460SOL    HW240017   1.936   3.789   7.667  3.4231 -0.1437  1.7398
 9461SOL     OW40018   3.340   3.532  11.309  0.6521  0.0248 -0.5979
 9461SOL    HW140019   3.272   3.582  11.353  1.3279  0.2015  0.2339
 9461SOL    HW240020   3.352   3.590  11.233  1.6273  0.4072 -0.1509
 9462SOL     OW40021   3.970   2.626  15.566  0.2761  0.3584 -0.1161
 9462SOL    HW140022   3.888   2.584  15.591  0.6429 -1.3151 -1.6650
 9462SOL    HW240023   3.936   2.666  15.486  0.0971 -1.7092 -1.0906
 9463SOL     OW40024   1.449   1.202   7.581  0.6848  0.6059 -0.2172
 9463SOL    HW140025   1.503   1.175   7.506  0.2485  0.8114 -0.6098
 9463SOL    HW240026   1.513   1.201   7.652 -0.0044  0.4674  0.3959
 9464SOL     OW40027   1.963   1.068   5.608  0.2628  0.1081  0.2643
 9464SOL    HW140028   1.905   1.045   5.535  0.0279  0.3909  0.3642
 9464SOL    HW240029   1.951   0.995   5.669 -1.6988  1.4736  1.5125
 9465SOL     OW40030   0.119   0.372   8.462  0.5561  0.7216  0.1205
 9465SOL    HW140031   0.118   0.338   8.373 -0.5880 -0.4379  0.5707
 9465SOL    HW240032   0.162   0.301   8.511 -2.2619 -1.7788 -1.0371
 9466SOL     OW40033   3.219   1.564   0.375 -0.4704  0.0234  0.2762
 9466SOL    HW140034   3.281   1.558   0.448  2.1650  1.4095 -1.8530
 9466SOL    HW240035   3.191   1.649   0.407 -0.7964  0.7880 -2.0250
 9467SOL     OW40036   0.872   0.638  15.229 -0.2912  0.1074  0.0649
 9467SOL    HW140037   0.931   0.600  15.164  0.7427  1.7003  0.0901
 9467SOL    HW240038   0.879   0.731  15.206 -1.1525 -0.2628 -1.7322
 9468SOL     OW40039   2.521   0.117   8.358 -0.1162  0.2055  0.1041
 9468SOL    HW140040   2.466   0.157   8.425  2.0738  1.9780  0.8316
 9468SOL    HW240041   2.597   0.168   8.384  1.0637 -1.4608 -0.0447
 9469SOL     OW40042   0.032   4.656   7.046  0.1588  0.0154  0.2416
 9469SOL    HW140043   0.114   4.704   7.038  0.0862  0.1242  0.1579
 9469SOL    HW240044   4.711   4.712   7.095 -1.9327 -2.3065  0.3303
 9470SOL     OW40045   1.243   0.192   7.858  0.1371  0.3853 -0.0380
 9470SOL    HW140046   1.167   0.149   7.898  0.5840  0.0080  0.4069
 9470SOL    HW240047   1.298   0.116   7.836  1.8526  1.8370 -0.7384
 9471SOL     OW40048   3.057   0.350   2.098  0.0125  0.0039  0.4110
 9471SOL    HW140049   3.084   0.287   2.164  0.3012 -1.1390 -0.7959
 9471SOL    HW240050   3.142   0.391   2.086 -0.2102  0.5974  0.8921
 9472SOL     OW40051   4.646   1.913   2.075 -0.5322 -0.4321  0.9889
 9472SOL    HW140052   4.605   1.933   2.159 -2.0874 -0.2049  0.1633
 9472SOL    HW240053   4.639   1.991   2.021 -0.2629 -0.1149  1.4063
 9473SOL     OW40054   1.966   3.545   2.893 -0.0665  0.0516 -0.2134
 9473SOL    HW140055   1.917   3.627   2.894  1.6939  1.0757  1.0540
 9473SOL    HW240056   2.044   3.579   2.850  0.0108  2.0160  1.4785
 9474SOL     OW40057   0.202   2.884  12.059 -0.6708  0.0015 -0.1545
 9474SOL    HW140058   0.151   2.965  12.056 -0.2776  0.3000  1.3796
 9474SOL    HW240059   0.136   2.824  12.091 -0.8658  0.1342 -0.3059
 9475SOL     OW40060   4.524   2.089   4.543 -0.0915  0.5343 -0.2425
 9475SOL    HW140061   4.605   2.044   4.519 -0.6815 -0.7065  0.0882
 9475SOL    HW240062   4.473   2.008   4.541  1.6171 -0.5515 -0.0629
 9476SOL     OW40063   0.649   0.723   5.396 -0.2568  0.3047  0.6205
 9476SOL    HW140064   0.624   0.811   5.425  0.9806  0.5078  1.0534
 9476SOL    HW240065   0.571   0.696   5.444  0.6047  0.5017  2.0991
 9477SOL     OW40066   4.556   2.983   8.640  0.1784 -0.4943  0.1584
 9477SOL    HW140067   4.495   2.923   8.597 -0.5546  0.7263 -0.5086
 9477SOL    HW240068   4.499   2.983   8.717  1.5273  1.5993  1.1449
 9478SOL     OW40069   2.284   0.586  14.628 -0.3449 -0.5656  0.1133
 9478SOL    HW140070   2.328   0.522  14.684 -0.5328  0.1290  1.0685
 9478SOL    HW240071   2.351   0.654  14.624  0.5810 -1.5769 -1.2334
 9479SOL     OW40072   0.983   0.227  10.764  0.2675  0.5495  0.0425
 9479SOL    HW140073   0.914   0.236  10.698  0.6933 -1.5719 -0.7140
 9479SOL    HW240074   1.035   0.297  10.724 -2.1194  1.7170 -1.0267
 9480SOL     OW40075   3.952   1.288  12.394  0.2325  0.0328  0.1209
 9480SOL    HW140076   4.006   1.281  12.473  0.1094  3.3940  0.5179
 9480SOL    HW240077   3.910   1.371  12.416 -0.4618  0.3747 -2.5538
 9481SOL     OW40078   4.013   1.685   2.549  0.2545 -0.1483 -0.4938
 9481SOL    HW140079   3.988   1.721   2.463 -0.9672  1.8733  0.6828
 9481SOL    HW240080   4.053   1.609   2.507 -1.0296 -0.7887 -0.5738
 9482SOL     OW40081   2.013   0.565   2.693  0.1960 -0.3873 -0.0499
 9482SOL    HW140082   2.094   0.585   2.647 -0.3501  0.3675 -0.6868
 9482SOL    HW240083   2.045   0.587   2.781 -1.8540  2.1321  0.0709
 9483SOL     OW40084   1.061   1.543   7.377  0.4302 -0.3021  0.0486
 9483SOL    HW140085   1.152   1.530   7.350  0.9845 -1.4539  2.4956
 9483SOL    HW240086   1.024   1.460   7.344 -0.9462  0.4815 -0.3823
 9484SOL     OW40087   3.435   3.131   4.663  0.5403 -0.3246 -0.0323
 9484SOL    HW140088   3.380   3.192   4.614 -1.4765 -0.2566  2.2964
 9484SOL    HW240089   3.523   3.164   4.645  1.0346 -1.9285 -0.5663
 9485SOL     OW40090   2.083   3.312   8.842 -0.1839  0.0463 -0.2120
 9485SOL    HW140091   2.010   3.257   8.867  0.1466 -1.9685 -3.6815
 9485SOL    HW240092   2.073   3.317   8.747  1.1368  0.9142 -0.3051
 9486SOL     OW40093   3.703   3.491   4.829  0.0322 -0.3667  0.0455
 9486SOL    HW140094   3.710   3.583   4.803  1.5526 -0.6550 -0.5596
 9486SOL    HW240095   3.758   3.488   4.908 -0.8956  1.0482  0.7426
 9487SOL     OW40096   2.018   2.494   2.685 -0.3000  0.2467  0.5701
 9487SOL    HW140097   2.043   2.566   2.742  0.2348  1.2865 -0.9809
 9487SOL    HW240098   2.078   2.525   2.617 -1.1082  1.4144  0.3861
 9488SOL     OW40099   1.138   1.463   9.801 -0.4916  0.7878  0.2556
 9488SOL    HW140100   1.218   1.427   9.841  0.5096  0.5075 -2.0208
 9488SOL    HW240101   1.120   1.529   9.868 -1.6386 -0.1571  0.8829
 9489SOL     OW40102   2.336   2.471   5.679 -0.3994  0.3739  0.1944
 9489SOL    HW140103   2.376   2.519   5.752  1.2485 -0.0424 -0.4333
 9489SOL    HW240104   2.263   2.530   5.658 -0.3460 -0.1363 -1.3690
 9490SOL     OW40105   2.335   4.465   6.353  0.5414  0.1593 -0.0186
 9490SOL    HW140106   2.299   4.545   6.316  1.0687  0.9024  1.0838
 9490SOL    HW240107   2.317   4.405   6.280 -0.7539 -0.0785  0.5004
 9491SOL     OW40108   3.595   0.778   4.177 -0.0534  0.7598  0.5661
 9491SOL    HW140109   3.519   0.748   4.228  1.2550  0.6292  2.4535
 9491SOL    HW240110   3.580   0.872   4.164 -1.1495  0.6751  1.2063
 9492SOL     OW40111   2.872   2.434   5.052 -0.3763  0.1742 -0.1724
 9492SOL    HW140112   2.832   2.415   4.967  1.2057 -1.6019 -0.5417
 9492SOL    HW240113   2.855   2.353   5.099 -0.3881  0.6350  0.6085
 9493SOL     OW40114   0.194   1.648   0.297  0.0091 -0.6433  0.3638
 9493SOL    HW140115   0.144   1.590   0.355 -0.2713 -0.0530  0.7077
 9493SOL    HW240116   0.193   1.599   0.215  1.4263  1.6039 -0.9797
 9494SOL     OW40117   3.169   3.706   3.173  0.1106  0.8150  0.5802
 9494SOL    HW140118   3.153   3.801   3.180 -3.3037  0.6553 -5.4894
 9494SOL    HW240119   3.129   3.677   3.255 -3.1755 -1.4987 -1.8695
 9495SOL     OW40120   1.295   2.329   8.918 -0.5646 -0.4092  0.0486
 9495SOL    HW140121   1.293   2.374   8.833  0.5650 -0.2484  0.1093
 9495SOL    HW240122   1.381   2.287   8.910  0.3521  1.2565  1.1604
 9496SOL     OW40123   0.750   3.639   8.878 -0.3659  0.6299 -0.2398
 9496SOL    HW140124   0.835   3.598   8.895 -1.4517 -1.2982  0.4881
 9496SOL    HW240125   0.757   3.722   8.924  1.9494  1.1210 -1.4696
 9497SOL     OW40126   0.289   1.677   9.344 -0.1405 -0.2327  0.4113
 9497SOL    HW140127   0.297   1.737   9.418 -0.4356 -0.9707  1.0343
 9497SOL    HW240128   0.212   1.719   9.305 -1.3145 -2.0664  0.7532
 9498SOL     OW40129   4.128   2.555   5.357 -0.1348  0.2077 -0.2877
 9498SOL    HW140130   4.110   2.541   5.450  2.9266 -0.9334  0.1581
 9498SOL    HW240131   4.061   2.505   5.310  1.5808 -2.4582  0.0673
 9499SOL     OW40132   3.507   0.953   2.238 -0.1355  0.4996  0.0809
 9499SOL    HW140133   3.448   0.917   2.305 -0.2016 -0.0432 -0.2695
 9499SOL    HW240134   3.561   0.879   2.211 -1.5420 -0.8731  1.0060
 9500SOL     OW40135   3.228   1.989   7.511  0.6972 -0.0053  0.3615
 9500SOL    HW140136   3.262   2.072   7.478  0.4380 -0.4650 -1.0266
 9500SOL    HW240137   3.133   1.988   7.495  0.8542  2.1590 -0.6354
 9501SOL     OW40138   0.301   2.402   7.178  0.4080 -0.1915 -0.0066
 9501SOL    HW140139   0.229   2.383   7.117  0.5527  0.2987 -0.3342
 9501SOL    HW240140   0.334   2.475   7.125 -1.1048  0.6608  0.2268
 9502SOL     OW40141   1.608   2.546   5.678 -0.4039 -0.5180 -0.3490
 9502SOL    HW140142   1.579   2.499   5.599  0.7806 -0.2657 -0.9322
 9502SOL    HW240143   1.640   2.627   5.639  0.7104  0.0501  1.7515
 9503SOL     OW40144   4.422   4.053   3.266  0.4380  0.0730  0.4581
 9503SOL    HW140145   4.436   4.142   3.298  1.8194 -0.2146  0.6658
 9503SOL    HW240146   4.364   4.017   3.333 -1.1602  0.6267 -0.6247
 9504SOL     OW40147   1.469   4.268   3.497 -0.4555  0.4601 -0.9493
 9504SOL    HW140148   1.490   4.265   3.404 -1.5378  0.3973 -1.1936
 9504SOL    HW240149   1.532   4.319   3.548 -1.3345  0.5198  0.0863
 9505SOL     OW40150   0.217   0.098   5.086  0.2472  0.4729 -0.2038
 9505SOL    HW140151   0.197   0.010   5.119  0.7010  0.5128  0.1755
 9505SOL    HW240152   0.129   0.135   5.084  0.7448  1.5547 -3.0099
 9506SOL     OW40153   0.480   3.646   0.618  0.8047  0.2318  0.0752
 9506SOL    HW140154   0.441   3.578   0.674 -0.4126  0.1944 -0.8089
 9506SOL    HW240155   0.564   3.659   0.661  0.6180  0.5068  0.3576
 9507SOL     OW40156   2.789   1.809   3.938  0.3867 -0.0490 -0.1541
 9507SOL    HW140157   2.782   1.901   3.914 -1.9448  0.1001  1.0348
 9507SOL    HW240158   2.720   1.798   4.004 -1.2820  0.2379 -1.8395
 9508SOL     OW40159   2.275   3.797   6.030  0.4839 -0.0757  0.1307
 9508SOL    HW140160   2.263   3.772   5.938  0.7105 -2.6561  0.7928
 9508SOL    HW240161   2.181   3.809   6.049 -0.0163 -0.1764 -2.3018
 9509SOL     OW40162   2.750   0.298   6.235 -0.7018  0.1897  0.0408
 9509SOL    HW140163   2.747   0.387   6.270 -1.4563  0.3454 -0.4105
 9509SOL    HW240164   2.741   0.242   6.312 -0.5615  2.4410  1.6703
 9510SOL     OW40165   0.357   4.448   7.196 -0.2930 -0.1091 -0.3940
 9510SOL    HW140166   0.287   4.484   7.250  0.3905  1.0820 -0.2934
 9510SOL    HW240167   0.380   4.366   7.240 -0.7169 -0.4291 -0.7734
 9511SOL     OW40168   2.939   3.154   5.925  0.1003  0.1934  0.3365
 9511SOL    HW140169   3.011   3.188   5.978  1.0493 -1.7688  0.2948
 9511SOL    HW240170   2.922   3.073   5.973  1.8018 -0.3513  0.0163
 9512SOL     OW40171   4.286   2.784  12.390  0.7588 -0.3406 -0.3075
 9512SOL    HW140172   4.378   2.763  12.374  1.1377 -0.6038  2.2478
 9512SOL    HW240173   4.270   2.720  12.459  0.4167  0.1603  0.0780
 9513SOL     OW40174   1.977   0.145   7.429 -0.2366  0.2481  0.4441
 9513SOL    HW140175   1.899   0.130   7.375 -1.3378  2.0795  1.5509
 9513SOL    HW240176   1.951   0.085   7.498  0.3467  0.0769  0.5140
 9514SOL     OW40177   2.636   0.249   9.913  0.3109  0.6595 -0.0291
 9514SOL    HW140178   2.652   0.180   9.848  1.4068 -1.3414  2.3229
 9514SOL    HW240179   2.720   0.236   9.958  1.2781  1.1108 -1.6646
 9515SOL     OW40180   2.037   2.812   4.665 -0.0476 -0.1535 -0.4541
 9515SOL    HW140181   1.995   2.754   4.600  2.3671  0.6522 -2.7614
 9515SOL    HW240182   2.118   2.829   4.618 -0.9270  0.5647 -1.7223
 9516SOL     OW40183   0.322   1.295  16.212 -0.1609  0.7650 -0.2397
 9516SOL    HW140184   0.268   1.321  16.137 -0.4455 -2.3675 -1.1191
 9516SOL    HW240185   0.250   1.250  16.257  0.6631 -0.0183  0.2861
 9517SOL     OW40186   2.627   3.065   9.775  0.2835 -0.2972  0.2165
 9517SOL    HW140187   2.543   3.034   9.811 -1.5133  2.3647 -1.6443
 9517SOL    HW240188   2.622   3.056   9.680  1.8687 -1.3257  0.2372
 9518SOL     OW40189   1.158   0.201  15.114  0.2363  0.2408 -0.0011
 9518SOL    HW140190   1.068   0.193  15.084  0.4186 -0.4031 -0.3948
 9518SOL    HW240191   1.154   0.282  15.165 -1.0209 -1.2412  2.2473
 9519SOL     OW40192   3.071   4.692   2.627  0.5183  0.0328 -0.1912
 9519SOL    HW140193   3.071   0.042   2.660 -1.3699 -0.7183  1.8923
 9519SOL    HW240194   3.004   4.703   2.560 -0.0024 -1.1470  0.1247
 9520SOL     OW40195   4.116   2.455   6.931  0.4641 -0.0422  0.5271
 9520SOL    HW140196   4.077   2.378   6.973 -0.1195 -0.4780 -0.8307
 9520SOL    HW240197   4.075   2.438   6.846 -0.0130  2.8889  0.1779
 9521SOL     OW40198   3.980   3.964   5.056 -0.5596  0.5488 -0.0495
 9521SOL    HW140199   4.037   3.898   5.095 -0.8339  0.5453  0.3479
 9521SOL    HW240200   3.985   3.936   4.965  1.3868 -0.4094  0.3640
 9522SOL     OW40201   2.465   2.035   5.426 -0.0192  0.3630  0.1737
 9522SOL    HW140202   2.458   1.941   5.410  0.4688  0.5302 -1.0462
 9522SOL    HW240203   2.407   2.052   5.500 -2.2034 -3.3849 -0.6605
 9523SOL     OW40204   4.373   1.884   7.538  0.0064 -0.2523 -0.1410
 9523SOL    HW140205   4.322   1.876   7.619  3.8951  1.1665  2.4879
 9523SOL    HW240206   4.446   1.942   7.562 -2.1723  2.1226  0.6930
 9524SOL     OW40207   3.416   1.054   1.705  0.3779 -0.4297  0.0977
 9524SOL    HW140208   3.366   0.978   1.735 -0.9811 -0.7758 -2.9632
 9524SOL    HW240209   3.487   1.019   1.650  0.8234 -0.3753  0.6481
 9525SOL     OW40210   3.832   2.830   2.087 -0.6223 -0.8235 -0.2853
 9525SOL    HW140211   3.888   2.761   2.122 -2.1954 -0.2751  3.2926
 9525SOL    HW240212   3.745   2.796   2.105 -0.6246 -2.2978 -3.1104
 9526SOL     OW40213   3.251   2.214  14.610  0.0684  0.2856 -0.5409
 9526SOL    HW140214   3.262   2.235  14.702 -3.1081  2.0782 -0.5666
 9526SOL    HW240215   3.216   2.125  14.615 -0.9667  0.8315  1.5754
 9527SOL     OW40216   3.477   0.648  12.229  0.4114 -0.0504 -0.0370
 9527SOL    HW140217   3.458   0.727  12.279 -1.5942  0.0832 -0.9985
 9527SOL    HW240218   3.529   0.598  12.292  0.0714  0.8830  0.9779
 9528SOL     OW40219   2.352   3.972   7.232  0.1017 -0.0289  0.0211
 9528SOL    HW140220   2.268   3.997   7.195  0.3434 -0.2684 -0.6920
 9528SOL    HW240221   2.330   3.956   7.324  0.1718 -1.7549 -0.2600
 9529SOL     OW40222   1.116   3.719   5.584 -0.8914  0.0639 -0.1185
 9529SOL    HW140223   1.042   3.692   5.639 -2.4433 -0.9777 -2.7305
 9529SOL    HW240224   1.083   3.702   5.496 -1.5606 -0.2356  0.1855
 9530SOL     OW40225   2.926   0.737   9.382 -0.1228  0.4579 -0.1678
 9530SOL    HW140226   2.951   0.650   9.352  0.3456  0.4592  0.2227
 9530SOL    HW240227   3.005   0.761   9.429  0.7278 -1.3766 -0.6784
 9531SOL     OW40228   1.780   0.973   7.417  0.1440  0.3051  0.0013
 9531SOL    HW140229   1.852   0.933   7.368  1.5104  0.3743  1.9665
 9531SOL    HW240230   1.811   0.979   7.507 -2.7939 -1.4055  1.1492
 9532SOL     OW40231   0.426   1.554   3.930  0.4221  0.6280  0.0818
 9532SOL    HW140232   0.440   1.497   3.855 -0.9601  0.4871 -0.0595
 9532SOL    HW240233   0.347   1.516   3.967  0.5038  1.6241  1.2696
 9533SOL     OW40234   3.548   3.418  12.915 -0.0143 -0.5210 -0.4946
 9533SOL    HW140235   3.543   3.512  12.900  0.4636 -0.8865 -2.8980
 9533SOL    HW240236   3.615   3.395  12.850  1.5929 -0.9676  1.3116
 9534SOL     OW40237   4.611   2.633   3.902 -0.4637  0.4875 -0.1281
 9534SOL    HW140238   4.652   2.599   3.823 -0.0835  0.7096 -0.0277
 9534SOL    HW240239   4.596   2.727   3.892 -1.1865  0.6428  2.3366
 9535SOL     OW40240   0.562   4.477  17.559  0.3890  0.0758 -0.0416
 9535SOL    HW140241   0.564   4.484  17.655  0.4793  1.5140 -0.1414
 9535SOL    HW240242   0.653   4.462  17.533  0.1404 -1.3416 -0.0814
 9536SOL     OW40243   3.162   3.425   8.984 -0.6454 -0.2090 -0.1864
 9536SOL    HW140244   3.079   3.463   9.012 -0.7706 -0.1286 -0.6663
 9536SOL    HW240245   3.139   3.341   8.944  3.1843 -1.2632 -0.2231
 9537SOL     OW40246   2.012   3.699   4.785 -0.2575 -0.0513  0.8867
 9537SOL    HW140247   1.950   3.722   4.716  0.7593 -1.0597 -0.3515
 9537SOL    HW240248   2.091   3.744   4.755  0.0994  0.2435  2.2442
 9538SOL     OW40249   1.265   1.679   4.390  0.5030  0.8522  0.1155
 9538SOL    HW140250   1.282   1.738   4.463 -0.8382  0.0910  1.0466
 9538SOL    HW240251   1.265   1.735   4.312  1.8548 -2.1365 -2.0422
 9539SOL     OW40252   3.060   0.421  10.629  0.2365  0.2450 -0.3090
 9539SOL    HW140253   3.061   0.373  10.712  0.3516  0.9820  0.1187
 9539SOL    HW240254   3.037   0.510  10.655  0.8295  1.0359 -2.5734
 9540SOL     OW40255   3.789   2.261   7.709 -0.2350 -0.0535 -0.4212
 9540SOL    HW140256   3.851   2.199   7.745  1.5103  0.6384 -2.2039
 9540SOL    HW240257   3.775   2.233   7.619 -0.3461  3.1094 -1.3920
 9541SOL     OW40258   3.497   3.830   9.525  0.6285 -0.1554 -0.1412
 9541SOL    HW140259   3.512   3.924   9.512  1.6543 -0.3732 -0.5478
 9541SOL    HW240260   3.556   3.785   9.465 -0.2706 -0.7016 -0.6038
 9542SOL     OW40261   1.618   3.445   6.481 -0.0550  0.1374  0.3976
 9542SOL    HW140262   1.681   3.434   6.553 -1.0060 -0.6004  1.1149
 9542SOL    HW240263   1.595   3.538   6.482  0.0633  0.1535  1.9177
 9543SOL     OW40264   3.439   0.799   3.915  0.0809  0.4422 -0.6655
 9543SOL    HW140265   3.529   0.825   3.894  0.4535 -1.3791 -1.3258
 9543SOL    HW240266   3.433   0.704   3.903  1.1420  0.3409 -0.4091
 9544SOL     OW40267   3.058   0.806  13.900  0.2631  0.4392 -0.0347
 9544SOL    HW140268   3.135   0.756  13.872 -1.3228 -1.9746 -0.1314
 9544SOL    HW240269   3.031   0.753  13.975  1.3902 -1.1086 -0.7235
 9545SOL     OW40270   2.999   1.564   9.215  0.0520 -0.6273  0.6431
 9545SOL    HW140271   2.960   1.481   9.189  1.0817 -0.5404 -1.1366
 9545SOL    HW240272   3.013   1.601   9.128 -0.3806 -3.3919 -0.5686
 9546SOL     OW40273   2.110   0.550  14.419  0.0796  0.5138  0.2110
 9546SOL    HW140274   2.167   0.545  14.495  1.7175  0.5309 -1.0176
 9546SOL    HW240275   2.090   0.642  14.431 -1.8080  0.0690  0.4688
 9547SOL     OW40276   3.948   2.131  12.006 -0.1110 -0.3676  0.1429
 9547SOL    HW140277   3.890   2.207  12.013  2.1754  1.3429  0.5190
 9547SOL    HW240278   3.937   2.103  11.915 -0.2364 -0.5499  0.2156
 9548SOL     OW40279   1.325   3.043  13.119 -0.1482 -0.1469  1.1456
 9548SOL    HW140280   1.345   3.015  13.208 -1.1215  2.7841  2.2954
 9548SOL    HW240281   1.302   3.136  13.124  0.2767  0.0174 -0.1176
 9549SOL     OW40282   4.404   2.457   8.817  0.3537  0.3282 -0.5989
 9549SOL    HW140283   4.320   2.422   8.787  0.5665  0.9279 -1.8828
 9549SOL    HW240284   4.387   2.444   8.910  0.7705 -0.4909 -0.6298
 9550SOL     OW40285   4.377   4.093  11.597 -0.4499 -0.0763 -0.8162
 9550SOL    HW140286   4.391   4.057  11.509  0.9377 -1.2460 -0.1080
 9550SOL    HW240287   4.340   4.020  11.647 -0.1943  0.6758  0.4507
 9551SOL     OW40288   1.353   1.294  14.999  0.5061  0.7131  0.2199
 9551SOL    HW140289   1.360   1.380  15.041 -1.1752  0.8174  0.2927
 9551SOL    HW240290   1.378   1.236  15.071 -0.0440 -0.8874 -0.8895
 9552SOL     OW40291   3.985   4.566   5.391 -0.4274  0.2561  0.3011
 9552SOL    HW140292   4.045   4.504   5.433  0.7360  1.0372 -0.2250
 9552SOL    HW240293   3.909   4.513   5.366 -1.8413  1.5152  1.9193
 9553SOL     OW40294   2.440   0.894   3.222 -0.2288  0.8355  0.7336
 9553SOL    HW140295   2.495   0.952   3.170 -1.4585  2.6735  1.5093
 9553SOL    HW240296   2.446   0.937   3.308 -1.0617  0.9859  0.7124
 9554SOL     OW40297   3.367   1.269  14.298 -0.0227 -0.3272 -0.6675
 9554SOL    HW140298   3.401   1.180  14.310  0.1786 -0.2955 -1.0220
 9554SOL    HW240299   3.367   1.287  14.392  0.8807  0.6249 -0.8582
 9555SOL     OW40300   4.479   3.552   9.019 -0.2328  0.6105  0.9216
 9555SOL    HW140301   4.399   3.509   9.048 -0.5874  2.2072  2.2739
 9555SOL    HW240302   4.475   3.619   9.087  0.5671  1.0425  0.5550
 9556SOL     OW40303   3.054   0.350   5.019 -0.0703  0.0550 -0.0511
 9556SOL    HW140304   3.145   0.320   5.023 -0.1992 -0.4271 -0.7945
 9556SOL    HW240305   3.051   0.421   5.084  0.8557  1.0395 -1.0733
 9557SOL     OW40306   1.052   1.455   2.160  0.0987  0.5579 -0.2241
 9557SOL    HW140307   1.101   1.382   2.196 -0.6461  1.3170  2.3356
 9557SOL    HW240308   1.012   1.420   2.081  0.9650 -0.8570 -0.0370
 9558SOL     OW40309   1.603   2.734   0.502 -0.0969 -0.2347  0.2837
 9558SOL    HW140310   1.537   2.760   0.438 -0.2886 -0.5317  0.3652
 9558SOL    HW240311   1.560   2.770   0.579  1.6369 -1.6168  1.8954
 9559SOL     OW40312   3.313   2.633  11.919  0.4814  0.3018  0.9475
 9559SOL    HW140313   3.324   2.542  11.893 -1.9426 -0.0407  1.1129
 9559SOL    HW240314   3.219   2.627  11.938 -0.0006 -0.1758 -1.5056
 9560SOL     OW40315   2.738   2.017   0.484  0.7647 -0.0989  0.1325
 9560SOL    HW140316   2.648   2.015   0.452  0.9058  3.2103 -0.4320
 9560SOL    HW240317   2.728   1.994   0.577  0.9170 -0.6244  0.0232
 9561SOL     OW40318   0.739   1.820   6.303 -0.1715  0.0498 -0.3604
 9561SOL    HW140319   0.661   1.817   6.357  1.7060  1.0082  2.4102
 9561SOL    HW240320   0.783   1.895   6.343 -1.2358  0.1894  0.5198
 9562SOL     OW40321   2.962   2.624   6.075 -0.1118  0.1140 -0.0507
 9562SOL    HW140322   2.927   2.536   6.062  0.3477 -0.0364 -0.2731
 9562SOL    HW240323   3.001   2.609   6.161 -2.6587 -2.9855  0.5150
 9563SOL     OW40324   0.984   0.093   7.965  0.5913 -0.0045  0.2634
 9563SOL    HW140325   0.911   0.137   7.923  1.3767 -0.1136 -1.2172
 9563SOL    HW240326   1.013   0.157   8.030 -1.1756  2.2705 -1.1980
 9564SOL     OW40327   0.505   2.949   2.078  0.1240  0.3178 -0.3755
 9564SOL    HW140328   0.601   2.952   2.079  0.1296  0.2953 -0.8756
 9564SOL    HW240329   0.483   2.873   2.025 -1.4409  0.4675  0.0559
 9565SOL     OW40330   3.190   1.169   7.943 -0.8534 -0.3635  0.0969
 9565SOL    HW140331   3.244   1.230   7.893 -0.2336  0.5091  1.8480
 9565SOL    HW240332   3.255   1.124   7.998 -1.3631 -0.1534  0.8702
 9566SOL     OW40333   2.024   0.271  12.340 -0.0589  0.1523 -0.0415
 9566SOL    HW140334   2.028   0.297  12.248  0.8181  2.4205  0.6406
 9566SOL    HW240335   2.071   0.345  12.380 -0.1380  0.4091 -0.4187
 9567SOL     OW40336   1.838   4.451   6.409 -0.0435 -0.2966  0.5002
 9567SOL    HW140337   1.904   4.510   6.372  0.9854 -2.3900 -0.9532
 9567SOL    HW240338   1.879   4.368   6.386  3.0795  1.5916 -0.6767
 9568SOL     OW40339   3.919   0.654   6.394 -0.0688  0.7470  0.0780
 9568SOL    HW140340   4.014   0.645   6.395  0.0754  1.5691 -3.4896
 9568SOL    HW240341   3.913   0.642   6.299  2.1783  1.4540 -0.1625
 9569SOL     OW40342   3.120   3.815   6.546  0.8203 -0.8465  0.0835
 9569SOL    HW140343   3.081   3.728   6.555  0.9709 -0.9328 -0.1022
 9569SOL    HW240344   3.066   3.881   6.590 -0.2260  0.0008 -2.4744
   4.73952   4.73952  17.75583
