Membrane in water
40344
    1TMC1    C1    1   0.424   0.000  11.362  0.1003  0.1196 -0.3136
    1TMC1    C2    2   0.389   0.041  11.482 -0.0187  0.7184 -0.4080
    1TMC1    C3    3   0.426   0.168  11.512  0.4729 -0.1536 -0.8451
    1TMC1    C4    4   0.490   0.075  11.269 -0.2669  0.0717 -0.0645
    1TMC1    C5    5   0.514   0.203  11.297 -0.6323  0.0361 -0.2300
    1TMC1    C6    6   0.474   0.255  11.422  0.0942 -0.5660 -0.1951
    1TMC1     C    7   0.398   4.604  11.333 -0.1344  0.1799  0.1112
    1TMC1     O    8   0.296   4.554  11.382  0.4548 -0.2519  0.2675
    1TMC1     H    9   0.337   4.709  11.545  1.0542  2.1778  2.0738
    1TMC1    H1   10   0.511   0.037  11.169  0.0371  0.7599 -0.2646
    1TMC1    H2   11   0.492   0.359  11.447  1.1822 -0.5435 -1.0870
    1TMC1    C7   12   0.603   0.271  11.209 -0.0741 -0.1082  0.3739
    1TMC1    C8   13   0.404   0.209  11.641  0.4819 -0.5722 -0.2651
    1TMC1    O1   14   0.688   0.206  11.153 -0.2906  0.2610 -0.5083
    1TMC1    O2   15   0.390   0.329  11.669  0.8042  0.3541  0.2857
    1TMC1    O3   16   0.630   0.396  11.253 -0.0159 -0.4018  0.2228
    1TMC1    H3   17   0.572   0.453  11.307  0.1003 -0.6395  0.5998
    1TMC1    O5   18   0.425   0.107  11.725  0.2122 -0.2257  0.1055
    1TMC1    H5   19   0.472   0.033  11.681 -2.2497 -2.4465  1.2628
    2MPD2     C   20   0.564   4.127  11.237  0.6746 -0.5705  0.1519
    2MPD2    C1   21   0.439   4.172  11.267 -0.9211  0.5468  0.1607
    2MPD2    C2   22   0.423   4.309  11.287  0.3768 -0.5117 -0.2721
    2MPD2    C3   23   0.522   4.400  11.255  0.1839 -0.6089 -0.4842
    2MPD2    C4   24   0.647   4.353  11.219 -0.1321 -0.2039  0.2313
    2MPD2    C5   25   0.670   4.214  11.210 -0.3664 -0.6400  0.0478
    2MPD2     H   26   0.328   4.340  11.330  0.6877 -0.6879  0.5432
    2MPD2    H1   27   0.729   4.421  11.198 -0.4543  0.3042  0.6365
    2MPD2    H2   28   0.590   4.023  11.221  0.0426 -0.4393 -1.7975
    2MPD2    H3   29   0.762   4.177  11.166 -0.1652 -0.5705  0.4075
    2MPD2     N   30   0.510   4.541  11.268 -0.3562 -0.1607  0.3523
    2MPD2    H5   31   0.585   4.601  11.236  0.5982 -1.5065  0.0926
    2MPD2    N1   32   0.329   4.087  11.291 -0.2547  0.2640 -0.0725
    2MPD2    H7   33   0.239   4.133  11.303 -0.6662 -0.5398 -0.1042
    3TMC1    C1   34   4.169   0.431  10.970  0.7307 -0.1744  0.1504
    3TMC1    C2   35   4.190   0.539  11.051 -0.5502  0.5189 -0.8221
    3TMC1    C3   36   4.270   0.639  10.999 -0.3580  0.2994 -0.0281
    3TMC1    C4   37   4.215   0.427  10.840  0.1521  0.7494  0.3035
    3TMC1    C5   38   4.289   0.536  10.794 -0.2144 -0.1867 -0.3367
    3TMC1    C6   39   4.319   0.645  10.873  0.2978 -0.3830  0.0800
    3TMC1     C   40   4.102   0.307  11.015  0.6838 -0.3237 -0.1698
    3TMC1     O   41   4.128   0.204  10.955 -0.0790 -0.4227  0.2303
    3TMC1     H   42   4.169   0.524  11.156  0.1500 -1.4413 -0.9547
    3TMC1    H1   43   4.181   0.352  10.769  0.6357  0.4112  0.4322
    3TMC1    H2   44   4.375   0.728  10.833  0.2889 -0.6767 -0.5324
    3TMC1    C7   45   4.328   0.520  10.655 -0.5657 -0.9240  0.5089
    3TMC1    C8   46   4.311   0.749  11.095 -0.5382 -0.0892 -0.7057
    3TMC1    O1   47   4.310   0.417  10.591 -0.1677 -0.3084  0.1616
    3TMC1    O2   48   4.414   0.813  11.078 -0.1937  0.1769  0.3017
    3TMC1    O3   49   4.426   0.609  10.632 -0.3761 -0.3021 -0.4769
    3TMC1    H3   50   4.466   0.602  10.542  1.6795 -2.7514  0.6265
    3TMC1    O5   51   4.220   0.763  11.197 -0.0417  0.2571 -0.7947
    3TMC1    H5   52   4.139   0.710  11.181  0.6779 -0.5757 -1.6594
    4MPD2     C   53   3.745   0.053  11.316 -0.2608 -0.3974 -0.1337
    4MPD2    C1   54   3.735   0.187  11.333  0.1784 -0.8062  0.8356
    4MPD2    C2   55   3.825   0.274  11.275 -0.1354  0.1534 -0.2670
    4MPD2    C3   56   3.923   0.230  11.182 -0.2603  0.3808 -0.0123
    4MPD2    C4   57   3.930   0.089  11.171 -0.8365  0.0843 -0.6874
    4MPD2    C5   58   3.842   0.006  11.227  0.2617 -0.3571 -0.0095
    4MPD2     H   59   3.815   0.380  11.296  0.2494  0.4404 -1.5425
    4MPD2    H1   60   4.002   0.053  11.098  0.1899  1.6750 -0.4629
    4MPD2    H2   61   3.663   4.733  11.355  0.6702 -1.6474 -0.0913
    4MPD2    H3   62   3.845   4.640  11.200 -0.2456 -0.4070  0.1282
    4MPD2     N   63   4.011   0.325  11.121  0.0427 -0.1422  0.8001
    4MPD2    H5   64   3.990   0.422  11.141 -2.3670 -0.4523 -0.1734
    4MPD2    N1   65   3.644   0.247  11.422  0.1837  0.2884  0.0256
    4MPD2    H7   66   3.637   0.348  11.411  0.2817  0.0309 -2.3034
    5TCq1    O1   67   0.466   2.397  11.877 -0.2493  0.1857 -0.3480
    5TCq1    C1   68   0.491   2.337  11.751  0.4768 -0.2415 -0.0036
    5TCq1    O2   69   0.587   2.259  11.732  0.5912 -0.7108  0.1510
    5TCq1    C2   70   0.364   2.318  11.679  0.4290  0.3074 -0.4256
    5TCq1    C3   71   0.243   2.336  11.743  0.6216  0.1794  0.1954
    5TCq1    C4   72   0.136   2.309  11.665 -0.0561  0.2654 -0.0422
    5TCq1    C5   73   0.143   2.285  11.526  0.4006 -0.6520 -0.3262
    5TCq1    C6   74   0.263   2.262  11.473  0.1891  1.0993 -0.5362
    5TCq1    C7   75   0.379   2.278  11.547 -0.5049 -0.2190 -0.8396
    5TCq1    C8   76   0.264   2.197  11.342 -0.5712  0.8584 -0.1745
    5TCq1    O4   77   0.352   2.116  11.313 -0.4288 -0.6381  0.2747
    5TCq1    C9   78   0.006   2.313  11.723 -0.4794 -0.2043  0.3224
    5TCq1    O5   79   4.737   2.389  11.824 -0.2064 -0.2602  0.0412
    5TCq1    O6   80   4.660   2.248  11.664  0.8423 -0.1451 -0.2065
    5TCq1    H1   81   0.395   2.464  11.872 -1.1383 -0.8078 -1.0694
    5TCq1    H2   82   0.234   2.354  11.849  1.2290 -1.4927  0.5372
    5TCq1    H3   83   0.057   2.260  11.465 -1.3504  1.0657  1.4037
    5TCq1    H4   84   0.482   2.269  11.516  0.2194 -0.0687  1.5277
    6MPD2     C   85   0.101   2.292  11.025  0.2302  0.6241  0.0862
    6MPD2    C1   86   0.156   2.206  11.117  0.1028 -0.3073 -0.3822
    6MPD2    C2   87   0.179   2.068  11.081  0.7598 -0.2091 -0.3349
    6MPD2    C3   88   0.145   2.026  10.950  0.0509  0.1658  0.9417
    6MPD2    C4   89   0.096   2.121  10.864  0.4249  0.2077  0.0060
    6MPD2    C5   90   0.071   2.250  10.903 -0.0376 -0.2259 -0.3957
    6MPD2     H   91   0.206   1.990  11.151  0.4327 -0.7533 -0.8103
    6MPD2    H1   92   0.064   2.106  10.761 -1.9132 -2.6941  1.1758
    6MPD2    H2   93   0.088   2.396  11.052  2.9272  0.6685  1.1442
    6MPD2    H3   94   0.024   2.316  10.831 -0.0807 -2.6698 -2.6375
    6MPD2     N   95   0.175   1.897  10.909  0.3499  0.2147 -0.1388
    6MPD2    H5   96   0.228   1.842  10.976 -1.7222 -0.8911  0.5974
    6MPD2    N1   97   0.184   2.260  11.249  0.2859 -0.4411  0.5222
    6MPD2    H7   98   0.139   2.348  11.273 -3.0952 -1.7114 -1.1755
    7TCq1    O1   99   1.211   1.426  12.731  0.2089  0.0648  0.6337
    7TCq1    C1  100   1.339   1.443  12.769 -0.9419 -0.1569 -0.2297
    7TCq1    O2  101   1.387   1.511  12.862  0.5285 -0.0550  0.6000
    7TCq1    C2  102   1.405   1.329  12.720  0.3492  0.0365  0.0159
    7TCq1    C3  103   1.368   1.285  12.595 -1.2455  0.7449 -0.0012
    7TCq1    C4  104   1.438   1.175  12.544 -1.7750 -0.6356 -0.7430
    7TCq1    C5  105   1.519   1.111  12.624 -0.6537  0.0103  0.4943
    7TCq1    C6  106   1.548   1.157  12.750  0.4439 -0.5577 -0.3490
    7TCq1    C7  107   1.505   1.275  12.798 -0.0135  0.9188 -0.4915
    7TCq1    C8  108   1.650   1.082  12.826 -0.3737 -0.4357 -0.2525
    7TCq1    O4  109   1.655   0.961  12.815 -0.0355 -0.2276 -0.0550
    7TCq1    C9  110   1.411   1.132  12.414  0.4456  0.4198  0.0191
    7TCq1    O5  111   1.471   1.028  12.374  0.1778 -0.2051 -0.3251
    7TCq1    O6  112   1.332   1.192  12.343  0.3549  0.3490  0.0515
    7TCq1    H1  113   1.208   1.378  12.646 -2.8890 -0.8633  1.2719
    7TCq1    H2  114   1.302   1.340  12.529  1.0590  1.1693 -1.9355
    7TCq1    H3  115   1.569   1.023  12.586  1.8107 -0.2333  4.3631
    7TCq1    H4  116   1.517   1.310  12.899 -0.1567  1.1915 -0.5705
    8MPD2     C  117   2.036   1.067  13.159  0.0236 -0.0471 -0.1322
    8MPD2    C1  118   1.953   0.970  13.107  0.2793  0.1871 -0.1798
    8MPD2    C2  119   1.852   1.000  13.017  0.1958  0.5032  0.1159
    8MPD2    C3  120   1.824   1.132  12.996  0.2502  0.7505  0.0143
    8MPD2    C4  121   1.901   1.232  13.051  0.1892  0.2388  0.5917
    8MPD2    C5  122   2.007   1.189  13.129 -0.0236 -0.6676  0.4423
    8MPD2     H  123   1.792   0.919  12.977  0.1968  0.5454  0.0276
    8MPD2    H1  124   1.881   1.338  13.040 -1.2483 -0.0802  0.2032
    8MPD2    H2  125   2.119   1.049  13.226 -1.3799 -3.6818  0.6330
    8MPD2    H3  126   2.072   1.271  13.160 -0.5625 -0.7260  1.7007
    8MPD2     N  127   1.724   1.167  12.906 -0.0616  0.3739 -0.3292
    8MPD2    H5  128   1.700   1.264  12.889 -0.4082  0.1213 -1.2435
    8MPD2    N1  129   1.985   0.835  13.144  0.9480 -0.4842 -0.1333
    8MPD2    H7  130   2.068   0.818  13.199  0.2673 -1.9757  0.4165
    9TMC1    C1  131   0.617   0.182  10.750  0.8645  0.8773 -0.0042
    9TMC1    C2  132   0.552   0.070  10.730 -0.1091  0.5733  0.0412
    9TMC1    C3  133   0.618   4.693  10.696 -0.9495 -0.1375  0.1615
    9TMC1    C4  134   0.750   0.189  10.720 -0.4902  0.1159 -0.6812
    9TMC1    C5  135   0.813   0.069  10.702 -0.2388 -0.6654  0.4657
    9TMC1    C6  136   0.749   4.689  10.686  0.4062  0.1506 -0.0067
    9TMC1     C  137   0.537   0.287  10.805 -0.0734 -0.2822  0.5378
    9TMC1     O  138   0.602   0.390  10.819  0.2412  0.0606 -0.6774
    9TMC1     H  139   0.445   0.079  10.720  0.0709  0.9233 -1.5121
    9TMC1    H1  140   0.805   0.274  10.757  1.0890 -0.9468 -0.5966
    9TMC1    H2  141   0.812   4.602  10.670  0.4237  0.5586 -2.1601
    9TMC1    C7  142   0.956   0.063  10.679 -0.0492 -0.0356  0.4374
    9TMC1    C8  143   0.541   4.571  10.693  0.0021  0.3128  0.5604
    9TMC1    O1  144   1.015   4.698  10.662  0.0793  0.1150  0.1185
    9TMC1    O2  145   0.427   4.561  10.652  0.2314  0.3392  0.4823
    9TMC1    O3  146   0.987   0.176  10.610  0.3267 -0.3469 -0.0461
    9TMC1    H3  147   0.929   0.250  10.637 -0.4315 -0.7445 -0.5786
    9TMC1    O5  148   0.594   4.497  10.794 -0.1798  0.7584 -0.2893
    9TMC1    H5  149   0.673   4.538  10.836 -0.1358  0.0705  0.3044
   10MPD2     C  150   0.330   0.441  10.952  0.1269  0.0787 -0.0790
   10MPD2    C1  151   0.363   0.306  10.979 -0.1604  0.0525  0.2490
   10MPD2    C2  152   0.294   0.239  11.083  0.4261  0.2944  0.4182
   10MPD2    C3  153   0.206   0.310  11.163 -0.7849 -0.2615 -0.1588
   10MPD2    C4  154   0.183   0.452  11.140 -0.6304 -0.5169 -0.2545
   10MPD2    C5  155   0.242   0.509  11.029  0.2351 -0.3529  0.4991
   10MPD2     H  156   0.316   0.133  11.094  1.9353  0.6305  0.5780
   10MPD2    H1  157   0.110   0.511  11.194  0.0385  0.5291 -0.4954
   10MPD2    H2  158   0.385   0.492  10.874  0.1832  0.7386  0.3911
   10MPD2    H3  159   0.220   0.613  11.009 -1.2583 -0.9235 -0.8490
   10MPD2     N  160   0.137   0.254  11.270 -0.0772 -0.0376 -0.6414
   10MPD2    H5  161   0.078   0.319  11.322  0.3763  1.0110 -1.4303
   10MPD2    N1  162   0.445   0.232  10.894  0.3792 -0.4569 -0.2969
   10MPD2    H7  163   0.439   0.131  10.903  2.7764 -0.3680  2.2480
   11TCq1    O1  164   0.960   4.615  13.544 -0.2038  0.4977  0.0212
   11TCq1    C1  165   0.933   4.527  13.642  0.0672 -0.7715  0.3262
   11TCq1    O2  166   0.932   4.404  13.627 -0.1754  1.0471  0.5217
   11TCq1    C2  167   0.837   4.592  13.722 -1.2933 -0.7033  0.1309
   11TCq1    C3  168   0.850   4.725  13.756  0.1084  1.0149 -0.2041
   11TCq1    C4  169   0.737   0.041  13.809 -0.7846 -1.0912 -0.2593
   11TCq1    C5  170   0.619   4.719  13.825 -0.0133 -0.5682 -0.3952
   11TCq1    C6  171   0.614   4.588  13.793 -0.2818  0.0229  0.0554
   11TCq1    C7  172   0.721   4.523  13.742  0.2699  0.1845 -0.2204
   11TCq1    C8  173   0.499   4.494  13.809  0.3699 -0.8499 -0.1393
   11TCq1    O4  174   0.498   4.379  13.765 -0.4563  0.7880 -0.3647
   11TCq1    C9  175   0.748   0.178  13.842 -0.6999  0.3626  0.1467
   11TCq1    O5  176   0.857   0.245  13.837 -0.1790 -0.0714  0.2062
   11TCq1    O6  177   0.644   0.230  13.889  0.4564  0.2497  0.1351
   11TCq1    H1  178   0.951   4.711  13.566  1.0864  0.7151 -0.4076
   11TCq1    H2  179   0.945   0.038  13.754  0.7550 -0.1336  0.5727
   11TCq1    H3  180   0.534   0.038  13.860  1.8907  1.2379  1.2385
   11TCq1    H4  181   0.720   4.417  13.719  0.0894 -0.0602  0.8734
   12MPD2     C  182   0.208   4.578  14.012 -0.1317  0.6486  0.1033
   12MPD2    C1  183   0.286   4.500  13.938  0.2890  1.1066  0.5845
   12MPD2    C2  184   0.238   4.371  13.894  0.7935 -0.3216 -0.0232
   12MPD2    C3  185   0.113   4.331  13.934 -0.5924 -0.0118 -0.7216
   12MPD2    C4  186   0.032   4.418  14.009  1.1672  0.0426  0.0746
   12MPD2    C5  187   0.084   4.539  14.061  0.6304 -0.2203 -0.3407
   12MPD2     H  188   0.301   4.316  13.825  0.1037 -0.3356 -0.6337
   12MPD2    H1  189   4.669   4.389  14.031  0.6128  1.1645 -1.0450
   12MPD2    H2  190   0.245   4.676  14.041 -0.0887  0.7632 -0.3395
   12MPD2    H3  191   0.031   4.607  14.127  1.2850  0.4949 -0.5596
   12MPD2     N  192   0.046   4.204  13.896 -0.3915 -0.1305 -0.0261
   12MPD2    H5  193   4.691   4.184  13.926 -0.7010  0.9995 -0.2527
   12MPD2    N1  194   0.409   4.555  13.897  0.5101  0.3074  0.4747
   12MPD2    H7  195   0.429   4.649  13.928  1.2075  0.9680 -1.9696
   13TCq1    O1  196   4.729   0.330  10.349  0.0975 -0.1619  0.1117
   13TCq1    C1  197   0.094   0.282  10.278  0.2660 -0.6604 -0.8236
   13TCq1    O2  198   0.167   0.344  10.201 -0.3030  0.4681 -0.1743
   13TCq1    C2  199   0.075   0.141  10.264  0.3614  0.1370  0.5170
   13TCq1    C3  200   0.076   0.094  10.136 -0.0922  0.1959 -0.3363
   13TCq1    C4  201   0.010   4.719  10.110 -0.4126  0.0716  0.3568
   13TCq1    C5  202   4.678   4.653  10.203  0.4063  0.2934  0.0857
   13TCq1    C6  203   4.681   4.699  10.329 -0.8654  0.0730  0.3563
   13TCq1    C7  204   0.009   0.077  10.362  0.4277 -0.0469 -0.5837
   13TCq1    C8  205   4.603   4.638  10.434 -0.2096 -0.3422  0.3950
   13TCq1    O4  206   4.580   4.705  10.534 -0.0229 -0.5922 -0.3696
   13TCq1    C9  207   0.010   4.657   9.979  0.1471 -0.4443  0.5659
   13TCq1    O5  208   4.663   4.568   9.954  0.4040 -0.3934  0.1808
   13TCq1    O6  209   0.094   4.692   9.896  0.1735 -0.0091  0.5314
   13TCq1    H1  210   4.666   0.258  10.372 -2.1019  0.4587 -3.9224
   13TCq1    H2  211   0.136   0.134  10.055  0.4765  0.6354  0.3033
   13TCq1    H3  212   4.620   4.565  10.181 -0.8503  0.7713  1.4848
   13TCq1    H4  213   0.006   0.123  10.460  0.5163 -1.0953 -0.0930
   14MPD2     C  214   4.406   4.338  10.426 -0.6795 -0.1045  0.8586
   14MPD2    C1  215   4.457   4.447  10.488 -0.4327  0.6494  0.0726
   14MPD2    C2  216   4.403   4.489  10.609  0.2429  0.0217 -0.5784
   14MPD2    C3  217   4.294   4.427  10.663 -0.3214 -0.4030  0.3816
   14MPD2    C4  218   4.241   4.326  10.592  0.3785  0.9111 -0.6489
   14MPD2    C5  219   4.296   4.282  10.476  0.7253 -0.0781  0.5601
   14MPD2     H  220   4.439   4.574  10.666 -0.2249 -0.3943  0.3383
   14MPD2    H1  221   4.160   4.262  10.626  0.0602 -0.2727 -3.6398
   14MPD2    H2  222   4.454   4.299  10.337  0.4772  1.9078  0.6027
   14MPD2    H3  223   4.260   4.194  10.425 -0.1095 -0.2496  1.4441
   14MPD2     N  224   4.255   4.466  10.794 -0.1932 -0.3117 -0.9228
   14MPD2    H5  225   4.320   4.521  10.848  0.5010 -0.4853 -1.5948
   14MPD2    N1  226   4.552   4.511  10.409  0.2328  0.7207 -0.0315
   14MPD2    H7  227   4.584   4.476  10.319 -0.0913 -2.1148  0.9736
   15TCq1    O1  228   1.770   4.199   1.710 -0.0366  0.1438 -0.1872
   15TCq1    C1  229   1.731   4.117   1.608 -0.5250  0.0750  0.3660
   15TCq1    O2  230   1.776   4.126   1.493  0.3542  0.0474 -0.2625
   15TCq1    C2  231   1.623   4.030   1.634 -1.5512  0.1179 -0.6506
   15TCq1    C3  232   1.527   4.066   1.727  1.1957  0.0655 -0.4006
   15TCq1    C4  233   1.429   3.977   1.750  0.2168  0.1058 -0.0584
   15TCq1    C5  234   1.398   3.863   1.681 -0.2745 -0.2940  0.3362
   15TCq1    C6  235   1.489   3.834   1.586  0.3206 -0.6725  0.9780
   15TCq1    C7  236   1.605   3.905   1.566 -0.9990  0.1654 -1.1400
   15TCq1    C8  237   1.479   3.721   1.493 -0.5116 -1.2360  0.6064
   15TCq1    O4  238   1.581   3.658   1.471 -0.0600 -0.1494 -0.0484
   15TCq1    C9  239   1.335   4.007   1.857 -0.1664  0.6037  0.3361
   15TCq1    O5  240   1.373   4.093   1.937  0.3229  0.5586  0.5157
   15TCq1    O6  241   1.224   3.951   1.859 -0.6071  0.4027  0.6575
   15TCq1    H1  242   1.716   4.181   1.791  2.8423 -1.9406  1.2719
   15TCq1    H2  243   1.532   4.148   1.798 -0.4171 -1.9942  2.0747
   15TCq1    H3  244   1.311   3.801   1.695 -0.5644  0.1420  0.4902
   15TCq1    H4  245   1.677   3.868   1.494  0.0715 -0.9052  0.4715
   16MPD2     C  246   1.176   3.516   1.412 -0.0886 -0.9594 -0.1528
   16MPD2    C1  247   1.310   3.553   1.406 -0.7895  0.3088  0.5975
   16MPD2    C2  248   1.396   3.463   1.344  0.3094  0.1145  0.0699
   16MPD2    C3  249   1.347   3.348   1.277 -0.2359  0.6215 -0.8775
   16MPD2    C4  250   1.209   3.322   1.277  0.0094 -0.0340  0.6322
   16MPD2    C5  251   1.132   3.408   1.349 -0.1874 -0.1176  0.1354
   16MPD2     H  252   1.502   3.485   1.334  0.4064 -0.0705  0.7270
   16MPD2    H1  253   1.160   3.236   1.232  0.6861 -0.9886  1.7141
   16MPD2    H2  254   1.112   3.574   1.478 -0.9766 -2.0338 -0.0813
   16MPD2    H3  255   1.028   3.380   1.359 -0.3912  0.4775 -0.2988
   16MPD2     N  256   1.446   3.260   1.217 -0.1601 -1.0602 -0.1533
   16MPD2    H5  257   1.542   3.287   1.236  0.6917 -2.7035 -2.2002
   16MPD2    N1  258   1.348   3.671   1.481 -0.9604  0.0833 -0.1573
   16MPD2    H7  259   1.272   3.727   1.519 -0.8131 -0.7627  1.4015
   17TMC1    C1  260   0.153   4.336  11.013 -0.0568  0.8168 -0.4507
   17TMC1    C2  261   0.240   4.445  11.007  0.6377  0.3589 -0.3749
   17TMC1    C3  262   0.176   4.568  10.996 -0.1514 -0.4144 -0.3261
   17TMC1    C4  263   0.019   4.350  11.033 -1.0526 -0.4930  0.1624
   17TMC1    C5  264   4.701   4.475  11.026 -0.3090  0.1328 -0.2931
   17TMC1    C6  265   0.042   4.585  10.997  0.1665 -0.0236 -0.2631
   17TMC1     C  266   0.201   4.202  10.973  0.0436 -0.0933 -0.4454
   17TMC1     O  267   0.114   4.121  10.955  0.2207 -0.2284 -0.1306
   17TMC1     H  268   0.348   4.437  11.003  0.7364 -0.6225  3.9951
   17TMC1    H1  269   4.698   4.261  11.051 -0.0998 -1.0220  0.6954
   17TMC1    H2  270   0.006   4.687  10.987  1.5554  0.5619  0.5324
   17TMC1    C7  271   4.559   4.477  11.028 -0.5980 -0.1349  0.3973
   17TMC1    C8  272   0.257   4.673  10.951  0.4605 -0.3702  0.0896
   17TMC1    O1  273   4.486   4.382  11.052  0.0816 -0.2286 -0.9393
   17TMC1    O2  274   0.378   4.665  10.968  0.2525 -0.0055  0.1380
   17TMC1    O3  275   4.528   4.597  10.974 -0.0392 -0.5675 -0.3387
   17TMC1    H3  276   4.599   4.648  10.930  2.1539 -3.3751 -0.0627
   17TMC1    O5  277   0.195   0.005  10.858 -0.2490 -0.1025  0.6542
   17TMC1    H5  278   0.100   4.729  10.838 -0.1059 -2.3373  1.7086
   18MPD2     C  279   0.339   3.948  10.914 -0.0024 -0.7499 -0.3115
   18MPD2    C1  280   0.407   4.064  10.921  0.0859 -0.3989 -0.1617
   18MPD2    C2  281   0.542   4.072  10.904 -0.4247  0.1499 -0.0241
   18MPD2    C3  282   0.610   3.962  10.858 -0.0493  0.7173  0.0365
   18MPD2    C4  283   0.539   3.844  10.844 -0.3118  0.1810 -0.2249
   18MPD2    C5  284   0.407   3.838  10.884  0.1745  0.3615  0.0604
   18MPD2     H  285   0.590   4.168  10.918  0.4310 -0.1124 -1.1530
   18MPD2    H1  286   0.576   3.749  10.809 -1.1861 -0.3320  0.2364
   18MPD2    H2  287   0.238   3.937  10.952 -0.2926 -1.4212 -1.2784
   18MPD2    H3  288   0.350   3.746  10.881  3.7485 -1.8477 -0.5839
   18MPD2     N  289   0.746   3.969  10.825 -0.2357 -0.1736 -0.2987
   18MPD2    H5  290   0.796   4.057  10.836 -1.0849  0.2648  0.0626
   18MPD2    N1  291   0.337   4.182  10.954 -0.2638  0.8083  0.0286
   18MPD2    H7  292   0.393   4.266  10.963  0.5302  0.2355  0.4150
   19TMC2    C1  293   1.269   4.115  13.951  0.1758 -0.5710  0.7909
   19TMC2    C2  294   1.223   4.121  13.822  0.4024 -0.1265  0.0906
   19TMC2    C3  295   1.104   4.053  13.788 -0.0416  0.2787  0.1873
   19TMC2    C4  296   1.204   4.043  14.046 -0.2144  0.0061  0.0675
   19TMC2    C5  297   1.088   3.979  14.006  0.1700  0.6993 -0.9242
   19TMC2    C6  298   1.035   3.977  13.877 -0.6267  0.2615  0.3267
   19TMC2     C  299   1.387   4.199  13.984  0.7328  0.3808  0.3211
   19TMC2     O  300   1.402   4.292  13.911 -0.5065 -0.3684 -0.6697
   19TMC2     H  301   1.288   4.166  13.748  0.4446  0.8178  0.7024
   19TMC2    H1  302   1.239   4.036  14.149  0.5106  2.2192 -0.0236
   19TMC2    H2  303   0.947   3.916  13.862  0.2179 -0.4435 -1.7786
   19TMC2    C7  304   1.026   3.901  14.113  0.1184 -0.3480  0.5050
   19TMC2    C8  305   1.059   4.057  13.652 -0.1411 -0.9232 -0.2231
   19TMC2    O1  306   1.027   3.959  14.222  0.2305 -0.2360  0.4382
   19TMC2    O2  307   1.140   4.072  13.560 -0.0381  0.6686 -0.1428
   19TMC2    O5  308   0.934   4.013  13.648  0.0973  0.2945  0.4507
   19TMC2    H5  309   0.888   4.028  13.733  0.9340  3.4853  0.3631
   20MPD2     C  310   1.653   4.292  14.085  0.4533 -0.0917  0.0751
   20MPD2    C1  311   1.587   4.184  14.136 -0.1899  0.2844  0.5753
   20MPD2    C2  312   1.651   4.103  14.226  0.5355  0.1368 -0.5756
   20MPD2    C3  313   1.773   4.150  14.265 -0.1106  0.3115 -0.0292
   20MPD2    C4  314   1.827   4.272  14.233  0.1237 -0.1285 -0.1963
   20MPD2    C5  315   1.763   4.344  14.142  0.2144 -0.3864  0.3879
   20MPD2     H  316   1.603   4.013  14.265  1.5023 -0.9085 -1.7989
   20MPD2    H1  317   1.917   4.307  14.281  0.1232 -1.8176  1.0254
   20MPD2    H2  318   1.613   4.358  14.009 -0.0932 -0.4273  0.0662
   20MPD2    H3  319   1.807   4.438  14.110 -2.6258  0.1740 -1.8261
   20MPD2     N  320   1.837   4.092  14.376  0.3715  0.0837  0.8743
   20MPD2    H5  321   1.928   4.126  14.405  0.7425  0.2651 -0.4895
   20MPD2    N1  322   1.459   4.150  14.090 -0.0298  0.2015 -0.3716
   20MPD2    H7  323   1.428   4.056  14.110 -0.1647  0.4623  0.6623
   21TMC2    C1  324   4.156   4.653  14.143 -0.1554 -0.0037  0.1306
   21TMC2    C2  325   4.189   4.522  14.160 -0.0913 -0.4413 -0.2477
   21TMC2    C3  326   4.147   4.458  14.271 -0.2797 -0.1369  0.1522
   21TMC2    C4  327   4.067   4.708  14.225 -0.9739 -0.0847  0.4735
   21TMC2    C5  328   4.009   4.634  14.321  0.0238 -0.0953 -0.1372
   21TMC2    C6  329   4.057   4.506  14.362 -0.2451  0.1695  0.2045
   21TMC2     C  330   4.261   4.735  14.078 -0.4581 -0.0585  0.1807
   21TMC2     O  331   4.243   0.115  14.079 -0.0080 -0.7381  0.2888
   21TMC2     H  332   4.264   4.470  14.101  0.1128 -2.9375  2.2487
   21TMC2    H1  333   4.067   0.077  14.240  0.4044 -0.0511  0.2150
   21TMC2    H2  334   4.005   4.452  14.441  0.3237 -0.4656  0.1430
   21TMC2    C7  335   3.948   4.710  14.430 -1.0560 -0.3298 -0.2906
   21TMC2    C8  336   4.192   4.322  14.290  0.1878  0.2310  0.2077
   21TMC2    O1  337   3.976   4.670  14.543 -0.1134 -0.7153 -0.2913
   21TMC2    O2  338   4.267   4.268  14.207  0.3139 -0.5519 -0.4811
   21TMC2    O5  339   4.178   4.300  14.421 -0.1582  0.6427 -0.6478
   21TMC2    H5  340   4.159   4.379  14.475  0.3977 -0.7004  1.4964
   22MPD2     C  341   4.714   0.062  13.866 -0.6956  0.2513  0.1553
   22MPD2    C1  342   4.649   0.136  13.960 -0.2610 -0.1472 -0.3458
   22MPD2    C2  343   4.523   0.090  13.997 -0.3381  0.0096 -0.2004
   22MPD2    C3  344   4.475   4.709  13.950  0.4680  0.4121 -0.3824
   22MPD2    C4  345   4.552   4.635  13.866  0.2005  0.1665 -0.5048
   22MPD2    C5  346   4.669   4.688  13.822 -0.2746  0.0335 -0.0378
   22MPD2     H  347   4.477   0.139  14.082  0.1694 -0.2189  0.2108
   22MPD2    H1  348   4.514   4.542  13.828  0.1195  0.9117 -2.2402
   22MPD2    H2  349   0.074   0.086  13.829  0.1401  0.5186  2.6169
   22MPD2    H3  350   4.727   4.622  13.758 -0.6875  0.7342 -1.1223
   22MPD2     N  351   4.351   4.658  14.000 -0.3115  0.1642 -0.3516
   22MPD2    H5  352   4.344   4.557  14.008  0.7903  0.2796  1.9829
   22MPD2    N1  353   4.706   0.241  14.036  0.0044 -0.2418  1.1074
   22MPD2    H7  354   4.646   0.290  14.102  1.3519  1.4134  1.1131
   23TMC2    C1  355   0.251   0.948  14.821  0.6093 -0.2538 -0.1194
   23TMC2    C2  356   0.262   1.043  14.722 -0.1379  0.3079 -0.2243
   23TMC2    C3  357   0.155   1.086  14.651 -0.2559 -0.6534 -0.3538
   23TMC2    C4  358   0.127   0.886  14.841  0.5142 -0.1139 -0.3361
   23TMC2    C5  359   0.024   0.931  14.767 -0.0983  0.2500  0.1013
   23TMC2    C6  360   0.030   1.034  14.676 -0.4412 -0.5067 -0.2447
   23TMC2     C  361   0.364   0.915  14.914 -0.1493 -0.2510  0.2717
   23TMC2     O  362   0.353   0.814  14.979  0.4553 -0.0379  0.2844
   23TMC2     H  363   0.363   1.064  14.688  0.0367 -1.2648 -0.7172
   23TMC2    H1  364   0.103   0.811  14.915 -0.6002  0.4174 -0.1640
   23TMC2    H2  365   4.690   1.063  14.607 -1.5605 -1.1878  0.7464
   23TMC2    C7  366   4.641   0.844  14.765 -0.3785 -0.1707  0.4370
   23TMC2    C8  367   0.186   1.178  14.551  0.2074  0.2781 -0.2584
   23TMC2    O1  368   4.672   0.726  14.778  0.2338  0.0882 -0.0272
   23TMC2    O2  369   0.263   1.267  14.573 -0.0125  0.2394  0.6744
   23TMC2    O5  370   0.075   1.192  14.476  0.7643 -0.0112 -0.1107
   23TMC2    H5  371   0.028   1.112  14.445  0.6010  0.4587 -1.0765
   24MPD2     C  372   0.802   1.011  15.164 -0.0323 -0.1226 -0.2733
   24MPD2    C1  373   0.710   0.912  15.185 -0.1272 -0.2856 -0.2187
   24MPD2    C2  374   0.597   0.909  15.105  0.2087  0.1076 -0.0330
   24MPD2    C3  375   0.572   1.010  15.013 -0.3192 -0.3343  0.4111
   24MPD2    C4  376   0.661   1.114  14.999  0.3610  0.4172  0.6052
   24MPD2    C5  377   0.773   1.119  15.072  0.6240  0.2328  0.1735
   24MPD2     H  378   0.524   0.831  15.119 -0.4563  0.4119 -1.8190
   24MPD2    H1  379   0.650   1.192  14.924  3.3486 -1.3355 -1.6124
   24MPD2    H2  380   0.895   1.024  15.218 -0.1246  0.9933 -0.3880
   24MPD2    H3  381   0.840   1.205  15.069  1.6160 -0.4851  2.0729
   24MPD2     N  382   0.462   1.017  14.928  0.1533 -0.5542  0.2496
   24MPD2    H5  383   0.452   1.100  14.870 -0.5683  0.8113  2.3103
   24MPD2    N1  384   0.730   0.812  15.280  0.2687  0.6953 -0.0692
   24MPD2    H7  385   0.671   0.730  15.287 -1.1380  1.7575  0.4082
   25TMC2    C1  386   4.334   3.158  11.718 -0.2621  0.6353 -0.0266
   25TMC2    C2  387   4.455   3.155  11.791 -0.5087  0.3691  0.5074
   25TMC2    C3  388   4.457   3.212  11.915  0.6037  0.2459 -0.1818
   25TMC2    C4  389   4.223   3.211  11.768  0.2514 -0.2755 -0.4853
   25TMC2    C5  390   4.229   3.274  11.891  0.0106 -0.0713 -1.2441
   25TMC2    C6  391   4.344   3.277  11.968  0.0969 -0.3806  0.3855
   25TMC2     C  392   4.320   3.065  11.609 -0.1812 -1.1767  0.4620
   25TMC2     O  393   4.221   2.995  11.604 -0.0010 -0.0075  0.4176
   25TMC2     H  394   4.539   3.103  11.749  0.0475  0.2442  1.7583
   25TMC2    H1  395   4.134   3.212  11.705  0.3572 -0.4333 -0.6376
   25TMC2    H2  396   4.338   3.304  12.072 -1.7005  0.3556  0.0944
   25TMC2    C7  397   4.107   3.335  11.950  0.1811 -0.2373 -0.1388
   25TMC2    C8  398   4.586   3.198  11.981 -0.4979 -0.1536 -0.2311
   25TMC2    O1  399   4.100   3.345  12.072 -0.1014  0.0906 -0.2202
   25TMC2    O2  400   4.661   3.098  11.960  0.4861  0.0100  0.3402
   25TMC2    O5  401   4.593   3.283  12.089  0.1013  0.1367 -0.1045
   25TMC2    H5  402   4.543   3.365  12.072 -0.1022 -0.1660 -0.9454
   26MPD2     C  403   4.532   2.839  11.199 -0.5013 -0.0877 -0.1090
   26MPD2    C1  404   4.425   2.803  11.273  0.5280 -0.0401 -0.2002
   26MPD2    C2  405   4.380   2.890  11.371  0.6327 -0.3233 -0.2710
   26MPD2    C3  406   4.458   3.005  11.409 -0.5364 -0.1240  0.1209
   26MPD2    C4  407   4.582   3.024  11.350 -0.4638 -0.3136 -0.1676
   26MPD2    C5  408   4.622   2.943  11.243  0.3097 -0.1434  0.3835
   26MPD2     H  409   4.289   2.866  11.423  0.7652 -0.7051 -0.2156
   26MPD2    H1  410   4.648   3.094  11.399  0.0627 -1.2284  0.4139
   26MPD2    H2  411   4.573   2.786  11.114 -1.7299  0.6859 -1.1765
   26MPD2    H3  412   4.720   2.956  11.200  0.4113  0.8796  0.9208
   26MPD2     N  413   4.431   3.079  11.526  0.1721  0.4680 -0.2580
   26MPD2    H5  414   4.479   3.167  11.539 -1.8288  1.6689 -0.8667
   26MPD2    N1  415   4.355   2.690  11.222  0.4646 -0.0195  0.6172
   26MPD2    H7  416   4.407   2.644  11.148 -0.9613  1.1352 -1.0977
   27TMC2    C1  417   3.104   0.911  12.412  0.3539 -0.5605  0.2280
   27TMC2    C2  418   3.206   0.919  12.322 -0.2044  0.0529  0.3484
   27TMC2    C3  419   3.245   0.812  12.241  0.5556 -0.2641 -0.1761
   27TMC2    C4  420   3.043   0.785  12.416 -0.1105  0.4491  0.2311
   27TMC2    C5  421   3.096   0.683  12.353 -0.0045 -0.1519  0.1336
   27TMC2    C6  422   3.191   0.692  12.261  0.7280  0.0620 -0.1336
   27TMC2     C  423   3.037   1.033  12.445  0.1858 -0.1894  0.3630
   27TMC2     O  424   3.084   1.121  12.379  0.3442  0.0452  0.8374
   27TMC2     H  425   3.269   1.007  12.330 -2.2342  1.4309  0.8921
   27TMC2    H1  426   2.952   0.767  12.472 -0.5665  2.6781  0.1991
   27TMC2    H2  427   3.225   0.609  12.199  0.3152 -1.9056  2.2679
   27TMC2    C7  428   3.005   0.571  12.327 -0.3358  0.0392  0.1360
   27TMC2    C8  429   3.352   0.827  12.144 -0.4001  0.4871  0.0496
   27TMC2    O1  430   2.996   0.530  12.210  0.0995  0.2713 -0.0012
   27TMC2    O2  431   3.427   0.733  12.110  0.2640  0.1950 -0.7593
   27TMC2    O5  432   3.371   0.956  12.115 -0.3400  0.5066 -0.0399
   27TMC2    H5  433   3.290   1.007  12.140  0.6625  2.2190 -0.2831
   28MPD2     C  434   2.586   1.255  12.459 -0.7598  0.0889  0.7074
   28MPD2    C1  435   2.567   1.117  12.477  0.3926 -0.5929  0.1954
   28MPD2    C2  436   2.680   1.040  12.498  0.8935 -0.4173 -0.2878
   28MPD2    C3  437   2.807   1.096  12.494 -0.3720 -0.3539  0.0628
   28MPD2    C4  438   2.822   1.227  12.455  0.2375 -0.7400 -0.5688
   28MPD2    C5  439   2.711   1.309  12.447  0.1886 -0.4342  0.2908
   28MPD2     H  440   2.663   0.940  12.536 -0.2645 -0.2494 -0.3596
   28MPD2    H1  441   2.918   1.272  12.435 -0.9045  3.2104  2.8981
   28MPD2    H2  442   2.496   1.313  12.445  0.0689  0.9373 -1.2597
   28MPD2    H3  443   2.718   1.415  12.425  0.5238 -0.3547  0.8089
   28MPD2     N  444   2.920   1.010  12.512  0.3714  0.3460  0.7140
   28MPD2    H5  445   2.898   0.917  12.546  1.7595 -0.8069 -1.5168
   28MPD2    N1  446   2.435   1.057  12.477  0.4174  0.0596 -0.7207
   28MPD2    H7  447   2.354   1.117  12.480 -0.3457 -1.0853  2.2604
   29TMC2    C1  448   2.426   3.099  14.665  0.4599 -0.6450 -0.8039
   29TMC2    C2  449   2.304   3.136  14.729 -1.1168 -0.3795 -0.4911
   29TMC2    C3  450   2.311   3.260  14.787  0.0724 -0.1207  0.3128
   29TMC2    C4  451   2.538   3.182  14.649  0.7283 -0.2820  0.1480
   29TMC2    C5  452   2.526   3.304  14.703  0.6929  0.4328  1.2164
   29TMC2    C6  453   2.415   3.347  14.765 -0.2478 -0.5905  0.5119
   29TMC2     C  454   2.411   2.997  14.568 -0.7002 -0.0083  0.6321
   29TMC2     O  455   2.517   2.962  14.517  0.3347 -0.5901  0.1642
   29TMC2     H  456   2.227   3.063  14.751 -2.1955  0.3651 -1.7673
   29TMC2    H1  457   2.632   3.144  14.612  0.6678  0.9560 -1.3042
   29TMC2    H2  458   2.415   3.440  14.822 -0.7433  0.5335 -1.3042
   29TMC2    C7  459   2.640   3.398  14.676 -0.0711  0.1839  0.8780
   29TMC2    C8  460   2.186   3.321  14.826 -0.0880 -0.5284  0.2315
   29TMC2    O1  461   2.756   3.362  14.692 -0.1763  0.1578  0.1673
   29TMC2    O2  462   2.106   3.249  14.881  0.0157  0.1899 -0.0431
   29TMC2    O5  463   2.157   3.389  14.715  0.0102  0.0735 -0.4296
   29TMC2    H5  464   2.242   3.430  14.689  1.5564 -1.7991  1.6226
   30MPD2     C  465   2.122   2.700  14.268  0.0794 -0.3001  0.0069
   30MPD2    C1  466   2.256   2.709  14.288 -0.1574  0.2444 -0.0480
   30MPD2    C2  467   2.305   2.805  14.376  0.1694  0.3752 -0.1212
   30MPD2    C3  468   2.225   2.889  14.444 -0.0628 -0.4266 -0.1523
   30MPD2    C4  469   2.093   2.869  14.427  0.0532  0.7197 -0.0565
   30MPD2    C5  470   2.040   2.781  14.338 -0.4128  0.1526 -0.6975
   30MPD2     H  471   2.413   2.803  14.388  0.3120  0.4317 -1.4519
   30MPD2    H1  472   2.016   2.927  14.477 -0.1141  0.6827 -0.2747
   30MPD2    H2  473   2.070   2.632  14.202  2.1372 -1.6189 -0.2427
   30MPD2    H3  474   1.935   2.755  14.335 -0.7555  1.6967 -1.9916
   30MPD2     N  475   2.280   2.974  14.539  0.0821  0.1898 -0.1184
   30MPD2    H5  476   2.210   3.025  14.593 -0.0500  0.8908 -0.9587
   30MPD2    N1  477   2.340   2.610  14.234  0.2293  0.0031  0.0615
   30MPD2    H7  478   2.438   2.625  14.260  0.0150 -0.5866  1.2474
   31TMC2    C1  479   4.708   1.353  15.741  0.2471  0.4287  0.9802
   31TMC2    C2  480   4.567   1.380  15.745 -0.1059 -0.3474  0.4117
   31TMC2    C3  481   4.505   1.379  15.866  0.4842 -0.2097  0.4411
   31TMC2    C4  482   0.038   1.345  15.855  0.1212 -0.6144 -0.2166
   31TMC2    C5  483   4.705   1.349  15.974 -0.1877  0.4218  0.4960
   31TMC2    C6  484   4.571   1.379  15.984  0.1633  0.7180  0.4922
   31TMC2     C  485   0.035   1.372  15.610 -0.0594  0.0085 -0.4335
   31TMC2     O  486   4.709   1.433  15.525  0.1489 -0.4160 -0.1868
   31TMC2     H  487   4.513   1.409  15.656  2.7746  1.0421 -0.8535
   31TMC2    H1  488   0.145   1.325  15.859  0.0668 -0.4868  1.6034
   31TMC2    H2  489   4.514   1.362  16.075 -1.3078  0.7411 -0.4297
   31TMC2    C7  490   0.036   1.362  16.092 -0.5001  0.4637  0.3588
   31TMC2    C8  491   4.359   1.358  15.878 -0.3603  0.6455  0.1535
   31TMC2    O1  492   0.139   1.301  16.101  0.3334 -0.7151  0.1739
   31TMC2    O2  493   4.308   1.283  15.955 -0.0902  0.1555  0.0669
   31TMC2    O5  494   4.302   1.451  15.801 -0.0006  0.7701 -0.3088
   31TMC2    H5  495   4.373   1.513  15.776 -1.7172  2.8249 -0.0901
   32MPD2     C  496   0.444   1.342  15.304  0.7317 -0.0634  0.5437
   32MPD2    C1  497   0.328   1.412  15.285 -0.0946  0.3677  0.7401
   32MPD2    C2  498   0.228   1.391  15.381  0.0587 -0.3242 -0.2593
   32MPD2    C3  499   0.254   1.317  15.499 -0.0360  0.9568 -0.3746
   32MPD2    C4  500   0.372   1.250  15.505  0.4008  0.0104  0.5276
   32MPD2    C5  501   0.466   1.263  15.411 -0.5245  1.0997 -0.1299
   32MPD2     H  502   0.130   1.432  15.362  0.6217  1.5553  0.8681
   32MPD2    H1  503   0.389   1.183  15.588  0.2494  0.2971  0.7923
   32MPD2    H2  504   0.513   1.327  15.222 -1.1961 -4.6291 -0.2554
   32MPD2    H3  505   0.560   1.210  15.417 -1.8702 -1.3155 -0.3448
   32MPD2     N  506   0.157   1.307  15.600 -0.2355 -0.1188 -0.5219
   32MPD2    H5  507   0.188   1.245  15.675  0.7357  1.5899  0.4949
   32MPD2    N1  508   0.329   1.507  15.182  0.3251 -0.1294  0.1696
   32MPD2    H7  509   0.417   1.514  15.132 -0.5316 -1.2393 -1.4818
   33TMC2    C1  510   0.591   4.165   9.879 -0.2726  0.3087 -0.3753
   33TMC2    C2  511   0.481   4.085   9.896  0.5986 -0.3288 -0.1720
   33TMC2    C3  512   0.373   4.113   9.815 -0.3140  0.1297  0.1711
   33TMC2    C4  513   0.596   4.262   9.785 -0.4544  0.6385  0.7019
   33TMC2    C5  514   0.488   4.286   9.707  0.4191 -0.1280  0.1954
   33TMC2    C6  515   0.377   4.207   9.722  0.4658 -0.3109  0.4958
   33TMC2     C  516   0.700   4.150   9.976  0.5649  0.8069  0.2521
   33TMC2     O  517   0.681   4.064  10.059 -0.4910 -0.5340 -0.0797
   33TMC2     H  518   0.477   3.997   9.959 -0.5533 -0.3435 -0.2535
   33TMC2    H1  519   0.694   4.308   9.774 -0.7408  1.1093  0.1552
   33TMC2    H2  520   0.280   4.226   9.676  0.9286 -0.1917 -0.4378
   33TMC2    C7  521   0.495   4.399   9.619 -0.5688  0.2095  0.3257
   33TMC2    C8  522   0.255   4.033   9.828  0.4065 -0.4786  0.5613
   33TMC2    O1  523   0.596   4.460   9.609  0.7886 -0.6417  0.0453
   33TMC2    O2  524   0.193   3.999   9.733 -0.4409 -0.4068  0.3507
   33TMC2    O5  525   0.188   4.084   9.933 -0.0092 -0.1312 -0.0910
   33TMC2    H5  526   0.239   4.149   9.985 -0.8810  0.9538 -0.5859
   34MPD2     C  527   1.194   4.161  10.120  0.6774  0.3063  0.0238
   34MPD2    C1  528   1.082   4.121  10.188  0.6295  0.4571  0.4849
   34MPD2    C2  529   0.960   4.137  10.129  0.0025  0.9839  0.0887
   34MPD2    C3  530   0.939   4.205  10.007 -0.3918 -0.0639  0.4526
   34MPD2    C4  531   1.044   4.260   9.944 -0.0747 -0.9654  0.0505
   34MPD2    C5  532   1.167   4.233   9.998 -0.4534  0.1126 -0.0331
   34MPD2     H  533   0.873   4.090  10.173 -0.2439  0.2394 -1.1917
   34MPD2    H1  534   1.034   4.308   9.848  1.7315  0.3111  0.5033
   34MPD2    H2  535   1.293   4.126  10.147  0.2534 -1.5932 -0.8885
   34MPD2    H3  536   1.262   4.264   9.956 -1.7111  2.5529 -1.1146
   34MPD2     N  537   0.814   4.213   9.945  0.4846  0.1361  0.2134
   34MPD2    H5  538   0.818   4.260   9.855 -2.1214 -0.6270 -0.3038
   34MPD2    N1  539   1.104   4.055  10.311  0.2547 -0.2471  0.1748
   34MPD2    H7  540   1.202   4.048  10.337  0.3961  0.7843 -0.0898
   35TMC2    C1  541   1.811   0.943  11.248 -0.2169 -0.0528 -0.0232
   35TMC2    C2  542   1.785   0.904  11.124 -0.1728  0.7894  0.7146
   35TMC2    C3  543   1.680   0.817  11.100  0.2757  0.2846 -0.1406
   35TMC2    C4  544   1.732   0.903  11.349 -0.4364 -0.6599  0.2450
   35TMC2    C5  545   1.630   0.818  11.333  0.0980  0.3354 -0.7668
   35TMC2    C6  546   1.599   0.782  11.202 -0.6538 -0.0853 -0.3395
   35TMC2     C  547   1.912   1.041  11.263  0.2342  1.6150  0.3452
   35TMC2     O  548   1.945   1.090  11.159 -0.5059  0.1454  0.0919
   35TMC2     H  549   1.849   0.924  11.039 -0.8743  1.3524  0.3154
   35TMC2    H1  550   1.757   0.930  11.451 -2.8273  1.3264  0.2839
   35TMC2    H2  551   1.528   0.702  11.185 -2.2864  1.8000 -2.3654
   35TMC2    C7  552   1.543   0.783  11.440  0.0570  0.3013  0.0194
   35TMC2    C8  553   1.667   0.757  10.968 -0.3100 -0.2880  0.5098
   35TMC2    O1  554   1.443   0.734  11.393  0.0946 -0.0756 -0.6132
   35TMC2    O2  555   1.624   0.641  10.954 -0.3163  0.2755 -0.5265
   35TMC2    O5  556   1.693   0.849  10.873  0.2810  0.2959 -0.5011
   35TMC2    H5  557   1.710   0.940  10.907  0.9668 -0.1767  0.4101
   36MPD2     C  558   2.274   1.320  11.483 -0.6189 -0.0218 -0.0215
   36MPD2    C1  559   2.243   1.219  11.574 -0.5710  0.7095  0.2798
   36MPD2    C2  560   2.139   1.130  11.535 -0.1786 -0.2297 -0.3727
   36MPD2    C3  561   2.075   1.140  11.406  0.4145 -0.4904  0.3244
   36MPD2    C4  562   2.125   1.228  11.320  0.1196 -0.5595 -0.3893
   36MPD2    C5  563   2.215   1.321  11.357 -0.4040  0.7358  0.2728
   36MPD2     H  564   2.100   1.058  11.606 -0.3105  2.0483  1.8565
   36MPD2    H1  565   2.088   1.241  11.219 -1.8641  0.0008  0.4208
   36MPD2    H2  566   2.360   1.385  11.492 -1.5453  1.1107  0.5109
   36MPD2    H3  567   2.233   1.405  11.292 -0.0412  0.4815  0.0440
   36MPD2     N  568   1.966   1.058  11.388 -0.3356 -0.7399  0.0155
   36MPD2    H5  569   1.945   0.992  11.462  0.9513 -1.1856 -0.0067
   36MPD2    N1  570   2.312   1.202  11.698  0.0197 -0.1300  0.3582
   36MPD2    H7  571   2.283   1.113  11.736  0.4518  0.2038  1.4647
   37TMC2    C1  572   4.449   0.889  11.747 -0.9532  0.5949 -0.6938
   37TMC2    C2  573   4.434   0.830  11.623 -0.2901 -0.3723 -0.1667
   37TMC2    C3  574   4.525   0.860  11.526  0.2529 -0.2381  0.1539
   37TMC2    C4  575   4.554   0.978  11.771  0.4525  0.2185 -0.0347
   37TMC2    C5  576   4.647   0.997  11.675  0.0870 -0.0191 -0.2105
   37TMC2    C6  577   4.637   0.935  11.556 -0.2732  0.7024 -0.2780
   37TMC2     C  578   4.348   0.856  11.854  0.5282 -0.8184  0.3500
   37TMC2     O  579   4.243   0.807  11.823 -0.1346  0.6496 -0.2775
   37TMC2     H  580   4.346   0.770  11.603 -1.8543  2.1095 -0.7319
   37TMC2    H1  581   4.566   1.031  11.865  0.1273  0.7092 -0.2690
   37TMC2    H2  582   4.714   0.938  11.480 -0.7957 -0.0178 -0.8379
   37TMC2    C7  583   0.017   1.085  11.709  0.4693  0.1052 -0.4637
   37TMC2    C8  584   4.551   0.762  11.424 -0.2209 -0.1879 -0.9346
   37TMC2    O1  585   0.050   1.098  11.825  0.0921  0.0450 -0.2997
   37TMC2    O2  586   4.663   0.731  11.385 -0.5869 -0.5393  0.3661
   37TMC2    O5  587   4.445   0.680  11.413 -0.7779 -0.4478 -0.1701
   37TMC2    H5  588   4.363   0.727  11.438 -1.9594 -1.4883 -2.1016
   38MPD2     C  589   4.173   0.848  12.334  0.4711  0.2818 -0.4655
   38MPD2    C1  590   4.314   0.848  12.331  0.2322 -0.1704 -0.2182
   38MPD2    C2  591   4.378   0.856  12.211 -0.5643 -0.5148  0.5034
   38MPD2    C3  592   4.308   0.877  12.096 -1.0765  0.0645 -0.3168
   38MPD2    C4  593   4.169   0.871  12.101 -0.3178 -0.2505  0.0774
   38MPD2    C5  594   4.108   0.852  12.213 -0.2499 -0.1178 -0.0849
   38MPD2     H  595   4.486   0.859  12.218 -0.6181 -2.9095  2.2123
   38MPD2    H1  596   4.101   0.877  12.017 -0.2600  3.0590  0.2482
   38MPD2    H2  597   4.117   0.843  12.427 -0.4324  0.1144 -1.0150
   38MPD2    H3  598   4.001   0.839  12.206 -0.0146 -2.3888  0.4815
   38MPD2     N  599   4.389   0.881  11.978 -0.1877  0.2513  0.2365
   38MPD2    H5  600   4.488   0.900  11.988 -0.2669 -0.3740  2.2995
   38MPD2    N1  601   4.390   0.819  12.448  0.1852 -0.5361 -0.2595
   38MPD2    H7  602   4.486   0.845  12.428  0.1655 -0.9842 -0.9361
   39TMC2    C1  603   2.321   2.979   1.625  0.4959  0.9509  0.7862
   39TMC2    C2  604   2.409   2.886   1.671  0.0931  0.1940 -0.3451
   39TMC2    C3  605   2.453   2.902   1.797 -0.1543  0.2463 -1.1832
   39TMC2    C4  606   2.280   3.090   1.695  0.6173  0.3321 -0.1155
   39TMC2    C5  607   2.327   3.097   1.821  0.1846 -0.2483 -0.8448
   39TMC2    C6  608   2.404   3.004   1.881 -0.0966  0.4127 -0.1975
   39TMC2     C  609   2.237   2.937   1.519  0.8745 -0.2780  0.0124
   39TMC2     O  610   2.120   2.970   1.523  0.6265  0.0258 -0.7435
   39TMC2     H  611   2.462   2.805   1.621 -0.8824 -0.1304 -0.8482
   39TMC2    H1  612   2.235   3.175   1.644  1.0319  0.2613 -0.6004
   39TMC2    H2  613   2.446   3.023   1.979  0.7334 -1.8441 -0.1127
   39TMC2    C7  614   2.277   3.206   1.909  0.1482 -0.0328 -0.2622
   39TMC2    C8  615   2.524   2.795   1.857 -0.5516 -0.9161  0.2901
   39TMC2    O1  616   2.285   3.188   2.031 -0.3843  0.3409  0.0090
   39TMC2    O2  617   2.613   2.818   1.938  0.3883  0.7533 -0.2953
   39TMC2    O5  618   2.457   2.681   1.841 -0.2024  0.0396  0.1775
   39TMC2    H5  619   2.372   2.689   1.793 -0.0229 -1.8807 -0.4686
   40MPD2     C  620   2.298   2.671   1.261  0.2459  1.0398 -0.3455
   40MPD2    C1  621   2.220   2.757   1.345 -0.4290 -0.3498  0.4225
   40MPD2    C2  622   2.087   2.744   1.331 -1.3138  0.0843 -0.2560
   40MPD2    C3  623   2.028   2.652   1.252  0.2368  0.3176 -0.3459
   40MPD2    C4  624   2.100   2.570   1.166 -0.6513 -0.4807 -0.0300
   40MPD2    C5  625   2.232   2.583   1.174  0.1332 -0.3247 -0.5659
   40MPD2     H  626   2.019   2.805   1.391  1.1393 -0.1087  2.7348
   40MPD2    H1  627   2.053   2.516   1.084 -0.6600 -2.3952  1.2490
   40MPD2    H2  628   2.406   2.683   1.262  0.2075  1.2821  2.0137
   40MPD2    H3  629   2.301   2.535   1.105 -0.8377 -1.6556 -0.6195
   40MPD2     N  630   1.891   2.636   1.231 -0.2966 -0.9977  0.4673
   40MPD2    H5  631   1.863   2.568   1.161 -1.1118  0.8987 -1.0509
   40MPD2    N1  632   2.287   2.843   1.432  0.3008 -0.1974 -0.4783
   40MPD2    H7  633   2.388   2.830   1.438  0.5551  2.4723  1.1457
   41TMC2    C1  634   0.271   0.887  13.933  0.0305 -0.3359  0.8217
   41TMC2    C2  635   0.192   0.799  13.994  0.0548  0.0605 -0.4242
   41TMC2    C3  636   0.180   0.675  13.940 -0.0504 -0.0435  0.5640
   41TMC2    C4  637   0.354   0.860  13.829 -0.6564  0.4432  0.7235
   41TMC2    C5  638   0.337   0.737  13.774  0.0435  0.1326 -0.1419
   41TMC2    C6  639   0.245   0.645  13.821 -0.1792 -0.3699 -0.4727
   41TMC2     C  640   0.291   1.017  13.994 -0.0149  0.2761  0.4732
   41TMC2     O  641   0.308   1.118  13.928 -0.0701 -0.6005 -0.0857
   41TMC2     H  642   0.128   0.839  14.071  2.3357  0.3823  1.2874
   41TMC2    H1  643   0.434   0.927  13.799 -1.2060 -0.0166 -1.7115
   41TMC2    H2  644   0.225   0.555  13.764  1.6854 -1.7435  1.0559
   41TMC2    C7  645   0.394   0.706  13.640 -0.2884  0.1587  0.2798
   41TMC2    C8  646   0.055   0.611  13.974 -0.2178  0.0917 -0.4409
   41TMC2    O1  647   0.357   0.602  13.594 -0.2245 -0.2416  0.1755
   41TMC2    O2  648   0.004   0.615  14.086 -0.6113  0.0905  0.1014
   41TMC2    O5  649   4.730   0.596  13.854  0.3985  0.8926  0.4778
   41TMC2    H5  650   0.041   0.604  13.770  1.5066 -2.3376  0.8357
   42MPD2     C  651   0.400   1.218  14.187 -0.3236 -0.6593 -0.2274
   42MPD2    C1  652   0.373   1.086  14.215 -0.5959 -0.0102  0.0902
   42MPD2    C2  653   0.430   1.033  14.337  0.3120 -0.1118 -1.0151
   42MPD2    C3  654   0.503   1.117  14.419  0.0991 -0.3567 -0.7032
   42MPD2    C4  655   0.515   1.252  14.390 -0.2527  0.0745 -0.1263
   42MPD2    C5  656   0.467   1.299  14.274  0.3295  0.5534 -0.3186
   42MPD2     H  657   0.439   0.929  14.366  0.6275  0.5138  1.1616
   42MPD2    H1  658   0.581   1.323  14.439 -0.1156 -0.7451  0.8763
   42MPD2    H2  659   0.374   1.262  14.092  1.7287  0.2925 -0.3389
   42MPD2    H3  660   0.498   1.397  14.239  0.9881  0.3970 -0.1652
   42MPD2     N  661   0.591   1.071  14.523  0.1650  0.0401  0.2388
   42MPD2    H5  662   0.655   1.140  14.561  0.9917  0.5985 -2.1453
   42MPD2    N1  663   0.310   0.994  14.128  0.3100 -0.6843 -0.9818
   42MPD2    H7  664   0.292   0.901  14.166 -0.1722  0.0281  0.5594
   43TMC2    C1  665   2.183   3.909   0.507  0.5714  0.0068 -0.7202
   43TMC2    C2  666   2.074   3.835   0.546  0.3093  0.2200  0.3245
   43TMC2    C3  667   2.003   3.883   0.650 -0.1775  0.2854 -0.2187
   43TMC2    C4  668   2.211   4.034   0.556 -0.0262 -0.5394  0.0244
   43TMC2    C5  669   2.135   4.078   0.662  0.0470  0.4336 -0.0900
   43TMC2    C6  670   2.034   3.998   0.715  0.2217 -0.8433  0.4290
   43TMC2     C  671   2.272   3.853   0.405  0.5408  0.2248  0.8160
   43TMC2     O  672   2.272   3.730   0.389  0.2724 -0.1170  0.1771
   43TMC2     H  673   2.059   3.733   0.513  0.0526 -0.6825  3.2383
   43TMC2    H1  674   2.303   4.083   0.528 -0.1536  0.6627  1.7547
   43TMC2    H2  675   1.963   4.031   0.791 -0.1106  0.2176 -0.3364
   43TMC2    C7  676   2.178   4.201   0.723 -1.0181 -0.0694 -0.2953
   43TMC2    C8  677   1.901   3.796   0.707  0.3566  0.7186 -0.5221
   43TMC2    O1  678   2.268   4.272   0.673 -0.1160 -0.2208  0.2685
   43TMC2    O2  679   1.882   3.796   0.828  0.5939 -0.2634 -0.3004
   43TMC2    O5  680   1.810   3.789   0.609 -0.0462  0.5257  0.0852
   43TMC2    H5  681   1.852   3.826   0.529  0.9713 -0.7743  0.0085
   44MPD2     C  682   2.495   3.880  17.706 -0.0537  0.5785  0.3597
   44MPD2    C1  683   2.523   3.781   0.052 -0.2805  0.0300  0.7386
   44MPD2    C2  684   2.470   3.801   0.181 -0.3849  0.6526 -0.6864
   44MPD2    C3  685   2.389   3.913   0.197  0.4265  0.2991 -0.0022
   44MPD2    C4  686   2.364   4.001   0.097 -0.0403 -1.2734 -0.5544
   44MPD2    C5  687   2.408   3.980  17.726 -0.3614  0.1460  0.1437
   44MPD2     H  688   2.499   3.737   0.263 -0.3038  0.4461 -0.8745
   44MPD2    H1  689   2.304   4.090   0.109  1.8323  0.1202 -1.5153
   44MPD2    H2  690   2.535   3.886  17.605  0.7600 -0.1729  0.6335
   44MPD2    H3  691   2.394   4.055  17.650  0.4151  0.6044  0.4470
   44MPD2     N  692   2.314   3.944   0.312 -0.3711  0.1258  0.6936
   44MPD2    H5  693   2.273   4.036   0.321  1.0579  0.8131  0.3255
   44MPD2    N1  694   2.606   3.669   0.038  0.0008 -0.6950  0.4688
   44MPD2    H7  695   2.627   3.621   0.125 -0.4710 -2.4866 -0.3939
   45TMC2    C1  696   3.453   0.963   9.506 -0.2216 -0.7439  0.0034
   45TMC2    C2  697   3.524   0.849   9.457  0.6223  0.4272 -0.3834
   45TMC2    C3  698   3.653   0.863   9.426  0.5835 -0.2675  0.4704
   45TMC2    C4  699   3.515   1.086   9.530  0.1221  0.7163 -0.3843
   45TMC2    C5  700   3.646   1.090   9.481  0.3417  0.0681 -0.2227
   45TMC2    C6  701   3.717   0.981   9.429 -0.3088 -0.2527 -0.8136
   45TMC2     C  702   3.311   0.954   9.524 -0.4540  0.8259  0.6456
   45TMC2     O  703   3.258   1.063   9.507 -0.1386  0.5762 -0.1715
   45TMC2     H  704   3.470   0.757   9.437  1.3778  0.3494 -2.0903
   45TMC2    H1  705   3.466   1.176   9.564  0.5660  0.0106  2.1829
   45TMC2    H2  706   3.814   0.989   9.381 -0.6034  2.3651 -0.9661
   45TMC2    C7  707   3.717   1.218   9.463 -0.2472 -0.1435  0.2413
   45TMC2    C8  708   3.738   0.750   9.402  0.0297  0.4518  0.3213
   45TMC2    O1  709   3.802   1.226   9.375  0.2562  0.1086 -0.3537
   45TMC2    O2  710   3.846   0.756   9.341  0.3192  0.1463  0.4568
   45TMC2    O5  711   3.676   0.646   9.453  0.0201 -0.0753  0.0323
   45TMC2    H5  712   3.614   0.666   9.527 -2.0238  3.5654 -2.6750
   46MPD2     C  713   3.112   0.652   9.635  0.5715  0.6896 -0.2142
   46MPD2    C1  714   3.133   0.770   9.570  0.0446 -0.1772 -0.3110
   46MPD2    C2  715   3.025   0.843   9.532 -0.2275 -0.5274 -0.3953
   46MPD2    C3  716   2.894   0.805   9.559  0.1871  0.0150  0.0012
   46MPD2    C4  717   2.878   0.679   9.621 -0.1660  0.2199 -0.2695
   46MPD2    C5  718   2.986   0.601   9.647  1.0778  0.5733  0.1313
   46MPD2     H  719   3.035   0.927   9.464  0.8360 -1.3894 -1.3094
   46MPD2    H1  720   2.783   0.629   9.637 -0.1399 -0.0310 -0.8924
   46MPD2    H2  721   3.196   0.595   9.673 -0.3483  0.3602  1.3104
   46MPD2    H3  722   2.964   0.504   9.691 -0.4693  0.0440 -1.7905
   46MPD2     N  723   2.784   0.888   9.518  0.1343 -0.0933  0.0085
   46MPD2    H5  724   2.806   0.983   9.490  2.2545 -0.1804  1.3641
   46MPD2    N1  725   3.269   0.826   9.567 -0.1278  0.0584 -0.0899
   46MPD2    H7  726   3.346   0.770   9.601 -0.9539 -0.5882  0.7460
   47TMC2    C1  727   0.053   1.501   9.708 -0.1480  0.4428 -0.4674
   47TMC2    C2  728   0.111   1.372   9.710 -0.1499  0.0593  0.2263
   47TMC2    C3  729   0.064   1.279   9.797 -0.1451  0.6581  0.1393
   47TMC2    C4  730   4.688   1.522   9.791  0.1867  0.3946 -0.0627
   47TMC2    C5  731   4.634   1.425   9.866 -0.0115  0.2203  0.6407
   47TMC2    C6  732   4.692   1.298   9.874  0.1325 -0.1371  0.3022
   47TMC2     C  733   0.113   1.613   9.646 -0.9361  1.2468  1.0419
   47TMC2     O  734   0.040   1.708   9.628  0.7214  0.1477  0.0438
   47TMC2     H  735   0.190   1.342   9.642  0.0006  1.0987 -0.0645
   47TMC2    H1  736   4.640   1.619   9.795  0.7294  0.6709 -0.3572
   47TMC2    H2  737   4.656   1.223   9.943  0.9366 -1.4159 -0.6656
   47TMC2    C7  738   4.542   1.463   9.977  0.4389 -0.1986  0.7011
   47TMC2    C8  739   0.117   1.145   9.789 -0.3272  0.1649  0.4279
   47TMC2    O1  740   4.551   1.575  10.027 -0.0058 -0.4263 -0.7164
   47TMC2    O2  741   0.063   1.043   9.827  0.1143 -0.2697  0.2464
   47TMC2    O5  742   0.251   1.154   9.796 -0.6524  0.0701 -0.0702
   47TMC2    H5  743   0.271   1.246   9.767 -1.1452  0.4645  0.8233
   48MPD2     C  744   0.268   1.796   9.480 -0.1897 -0.3899 -0.1298
   48MPD2    C1  745   0.318   1.681   9.528 -0.2099  0.4964 -0.1288
   48MPD2    C2  746   0.450   1.645   9.494  0.5672 -0.0302 -1.0159
   48MPD2    C3  747   0.522   1.725   9.405  0.3518 -0.1116 -0.2872
   48MPD2    C4  748   0.463   1.839   9.359  0.1893  0.1121 -0.6240
   48MPD2    C5  749   0.340   1.875   9.402 -0.2220 -1.0190  0.0213
   48MPD2     H  750   0.490   1.551   9.530 -1.9667  0.4048  2.9423
   48MPD2    H1  751   0.504   1.905   9.283 -0.6870  0.1224 -1.0943
   48MPD2    H2  752   0.171   1.836   9.506 -0.2331 -2.0210  2.2503
   48MPD2    H3  753   0.299   1.972   9.377 -0.9477 -1.0610  1.0374
   48MPD2     N  754   0.644   1.684   9.351 -0.0932  0.1576  0.0606
   48MPD2    H5  755   0.666   1.731   9.263  1.7439  0.6861  0.8176
   48MPD2    N1  756   0.244   1.593   9.616  0.4086  0.0136 -0.3797
   48MPD2    H7  757   0.293   1.508   9.643  1.3496  0.7988  0.3699
   49TMC2    C1  758   4.224   4.693  10.393  0.4163 -0.2629  0.3562
   49TMC2    C2  759   4.176   4.576  10.345  0.3983  0.4698  0.1697
   49TMC2    C3  760   4.188   4.558  10.212 -0.1379 -0.5657  0.0626
   49TMC2    C4  761   4.302   0.042  10.324 -0.2858 -0.3780 -0.2141
   49TMC2    C5  762   4.310   0.022  10.188  0.3596  0.0491  0.0918
   49TMC2    C6  763   4.256   4.642  10.132  0.1303 -0.3839 -0.9640
   49TMC2     C  764   4.155   0.004  10.508 -0.2430  0.1806 -0.1348
   49TMC2     O  765   4.199   0.098  10.572  0.1499  0.1684  0.1447
   49TMC2     H  766   4.127   4.499  10.404  2.9721  0.3322  2.1267
   49TMC2    H1  767   4.349   0.124  10.378 -0.2338  0.0319 -0.8770
   49TMC2    H2  768   4.277   4.627  10.027  0.2798  1.8928 -1.2679
   49TMC2    C7  769   4.379   0.118  10.104 -0.8575 -0.6121  0.3807
   49TMC2    C8  770   4.129   4.438  10.167  0.6982 -0.0842 -0.2716
   49TMC2    O1  771   4.422   0.085   9.994  0.0194 -0.4331 -0.2877
   49TMC2    O2  772   4.097   4.348  10.237  0.2041 -0.2687  0.3849
   49TMC2    O5  773   4.112   4.435  10.036  0.0606  0.1925 -0.2554
   49TMC2    H5  774   4.124   4.520   9.989  1.0695 -0.3370 -0.9481
   50MPD2     C  775   3.944   0.038  10.723 -0.8000  0.4253 -0.2903
   50MPD2    C1  776   3.931   4.683  10.624  0.3300 -0.0260 -0.1032
   50MPD2    C2  777   3.821   4.595  10.624  0.4425  0.0574  0.3341
   50MPD2    C3  778   3.737   4.598  10.734  0.0201  0.0603  0.2556
   50MPD2    C4  779   3.756   4.684  10.836  0.8393  0.2303 -0.5030
   50MPD2    C5  780   3.858   0.039  10.827 -0.1416  0.1086 -0.3625
   50MPD2     H  781   3.812   4.522  10.544 -0.6058 -0.2691  0.7542
   50MPD2    H1  782   3.679   4.679  10.912  0.4834 -1.4169 -0.9867
   50MPD2    H2  783   4.026   0.109  10.724 -0.8115  0.4321  0.1894
   50MPD2    H3  784   3.868   0.114  10.905  1.7544 -0.5322 -0.0073
   50MPD2     N  785   3.623   4.519  10.741 -0.6757 -0.4435 -0.3559
   50MPD2    H5  786   3.580   4.523  10.832  0.3236 -1.2434  0.1585
   50MPD2    N1  787   4.039   4.667  10.525 -0.4786 -0.1936 -0.5482
   50MPD2    H7  788   4.022   4.606  10.445  2.3161 -0.6315 -0.8093
   51TMC2    C1  789   4.063   1.348   1.706  0.1958 -0.3284 -0.4707
   51TMC2    C2  790   4.105   1.331   1.835  0.6753 -0.1743  0.7875
   51TMC2    C3  791   4.194   1.424   1.882 -0.1287 -1.0248 -0.1316
   51TMC2    C4  792   4.106   1.453   1.627  0.8761  0.6537 -0.2656
   51TMC2    C5  793   4.181   1.544   1.696  0.7725 -0.5047  0.2194
   51TMC2    C6  794   4.215   1.543   1.828 -0.2045 -0.2053  0.3976
   51TMC2     C  795   4.046   1.228   1.631 -0.2677 -0.2803 -0.0588
   51TMC2     O  796   4.053   1.240   1.507  0.6393  0.8648 -0.1072
   51TMC2     H  797   4.092   1.239   1.892  4.6411 -1.2606 -0.0954
   51TMC2    H1  798   4.091   1.469   1.521 -1.0479 -0.9736 -0.2266
   51TMC2    H2  799   4.282   1.606   1.886  1.0782 -1.0832 -0.1132
   51TMC2    C7  800   4.267   1.626   1.618 -0.3289 -0.0688  0.1192
   51TMC2    C8  801   4.203   1.418   2.025  0.3046 -0.3305  0.1165
   51TMC2    O1  802   4.298   1.581   1.506  0.1147 -0.0022  0.2047
   51TMC2    O2  803   4.113   1.361   2.092  0.1603  0.7424 -0.4779
   51TMC2    O5  804   4.332   1.398   2.044  0.4121 -0.2351 -0.5750
   51TMC2    H5  805   4.378   1.375   1.961  0.2573  1.4643 -1.1318
   52MPD2     C  806   3.914   0.730   1.534 -0.5530 -0.4812  0.1968
   52MPD2    C1  807   4.000   0.821   1.469  0.3166  0.2833  0.4040
   52MPD2    C2  808   4.022   0.950   1.520 -0.2253 -0.6961  0.0964
   52MPD2    C3  809   3.986   0.989   1.645 -0.2650 -0.2702  0.4519
   52MPD2    C4  810   3.911   0.894   1.715 -0.2201  0.2120 -0.1361
   52MPD2    C5  811   3.884   0.768   1.667 -0.1260  0.1080 -0.4002
   52MPD2     H  812   4.085   1.010   1.455 -0.4070 -1.6739 -0.9970
   52MPD2    H1  813   3.880   0.921   1.816  1.8595  0.6901  0.3595
   52MPD2    H2  814   3.889   0.628   1.506  0.1773 -0.1739 -1.5566
   52MPD2    H3  815   3.820   0.707   1.729  1.2184 -0.2168  0.6497
   52MPD2     N  816   4.015   1.115   1.706 -0.5667 -0.4137 -0.2757
   52MPD2    H5  817   4.003   1.121   1.806 -0.0451  2.4189 -0.4054
   52MPD2    N1  818   4.058   0.790   1.340 -0.0031 -0.2559 -0.1970
   52MPD2    H7  819   4.131   0.852   1.307  0.3400  0.0750  1.1695
   53TMC2    C1  820   0.419   1.655  11.928 -0.3532  0.3288 -0.1357
   53TMC2    C2  821   0.531   1.712  11.990  0.4837  0.4431 -0.6024
   53TMC2    C3  822   0.507   1.762  12.113 -0.0388  0.4060 -0.1700
   53TMC2    C4  823   0.294   1.653  11.985  0.0089 -0.1168  0.3424
   53TMC2    C5  824   0.288   1.692  12.116  0.2814 -0.5367  0.3184
   53TMC2    C6  825   0.395   1.746  12.186 -0.1869  0.2242  0.4920
   53TMC2     C  826   0.439   1.573  11.811 -0.5198  0.2880  0.0102
   53TMC2     O  827   0.529   1.616  11.746  0.1488  0.0306  0.7486
   53TMC2     H  828   0.629   1.723  11.945  0.5350 -0.6395 -0.7411
   53TMC2    H1  829   0.208   1.604  11.941 -1.8377  3.0564  0.4744
   53TMC2    H2  830   0.370   1.796  12.279  2.1525  1.8513  0.2461
   53TMC2    C7  831   0.166   1.669  12.172  0.0391 -0.0714  0.3827
   53TMC2    C8  832   0.617   1.828  12.167  0.4357  0.1155  0.2356
   53TMC2    O1  833   0.068   1.678  12.101 -0.3400  0.4712  0.2448
   53TMC2    O2  834   0.654   1.816  12.282  0.1334  0.0163 -0.0870
   53TMC2    O5  835   0.669   1.902  12.073 -0.7259  0.2559  0.3437
   53TMC2    H5  836   0.597   1.924  12.010  0.6137 -1.1527 -1.6768
   54MPD2     C  837   0.391   1.394  11.577  0.0542  0.6401  0.6875
   54MPD2    C1  838   0.324   1.383  11.693  0.3711  0.0335  0.0623
   54MPD2    C2  839   0.223   1.286  11.701  0.4808 -0.0493 -0.1356
   54MPD2    C3  840   0.186   1.207  11.601  0.3800 -0.9309 -0.0333
   54MPD2    C4  841   0.258   1.218  11.484  0.3590 -0.5500  0.3476
   54MPD2    C5  842   0.357   1.309  11.475  0.4631 -0.2875 -0.0417
   54MPD2     H  843   0.178   1.274  11.799 -1.5043  0.8850 -0.9188
   54MPD2    H1  844   0.233   1.156  11.399  0.7093 -0.7120  0.3632
   54MPD2    H2  845   0.457   1.478  11.560  3.1083 -2.0182 -0.5243
   54MPD2    H3  846   0.407   1.313  11.379 -0.8488 -1.8171 -0.7913
   54MPD2     N  847   0.088   1.113  11.598 -0.5136 -0.7147  0.7916
   54MPD2    H5  848   0.059   1.074  11.508  2.8591 -0.3921 -0.4119
   54MPD2    N1  849   0.343   1.469  11.803 -0.0693  0.0999 -0.5558
   54MPD2    H7  850   0.307   1.444  11.895  3.3480 -0.2533  0.6801
   55TMC2    C1  851   0.368   3.008   0.053  0.4958  0.3978 -0.4724
   55TMC2    C2  852   0.490   3.009  17.752 -0.5084 -0.1128 -0.0774
   55TMC2    C3  853   0.560   2.894  17.746 -0.5136 -0.5064  0.0327
   55TMC2    C4  854   0.316   2.898   0.113  0.0374  0.6253  0.3610
   55TMC2    C5  855   0.404   2.792   0.125 -0.4052 -0.7954  0.1718
   55TMC2    C6  856   0.524   2.783   0.062 -0.0930 -0.2224  1.0205
   55TMC2     C  857   0.303   3.137   0.066 -0.9091 -0.2672 -0.0974
   55TMC2     O  858   0.235   3.152   0.161 -0.0842  0.5030  0.2031
   55TMC2     H  859   0.523   3.097  17.699  0.0280  1.7878  3.4108
   55TMC2    H1  860   0.216   2.895   0.156  0.9540  0.1897  2.4442
   55TMC2    H2  861   0.594   2.701   0.069 -1.0272 -1.0000  1.1779
   55TMC2    C7  862   0.371   2.684   0.215  0.6194  0.5378 -0.3723
   55TMC2    C8  863   0.679   2.896  17.662 -0.5066 -0.0648 -0.1185
   55TMC2    O1  864   0.417   2.576   0.183  0.0054 -0.1257 -0.0039
   55TMC2    O2  865   0.761   2.986  17.651 -0.1493  0.0103  0.4031
   55TMC2    O5  866   0.699   2.773  17.611 -0.4185  0.1315  0.1143
   55TMC2    H5  867   0.613   2.727  17.605  0.3961 -1.3397 -0.3647
   56MPD2     C  868   0.280   3.429  17.594 -0.7715  0.2474 -0.4487
   56MPD2    C1  869   0.295   3.356  17.712 -0.2998 -1.3937 -0.4183
   56MPD2    C2  870   0.283   3.424   0.077 -0.0065 -0.3169  0.0977
   56MPD2    C3  871   0.239   3.556   0.084  0.1775  0.5176 -0.8098
   56MPD2    C4  872   0.234   3.633  17.722  0.3756 -0.2007 -0.3163
   56MPD2    C5  873   0.247   3.559  17.603  0.1247 -0.9231 -0.5249
   56MPD2     H  874   0.299   3.366   0.168 -1.7357  0.1249  0.6865
   56MPD2    H1  875   0.214   3.739  17.726 -1.8408 -0.7254  2.2263
   56MPD2    H2  876   0.305   3.389  17.496 -0.9874 -1.6574  0.2804
   56MPD2    H3  877   0.235   3.614  17.510  0.4120 -2.5938 -1.5505
   56MPD2     N  878   0.216   3.609   0.212 -0.1930 -0.7778  0.0917
   56MPD2    H5  879   0.227   3.548   0.293 -0.0962  2.0397  2.2369
   56MPD2    N1  880   0.328   3.220  17.712  0.6961 -0.0639  0.1972
   56MPD2    H7  881   0.374   3.186  17.628  1.3282  1.0686  0.0848
   57TMC2    C1  882   0.176   0.149  13.185 -0.2875 -0.1354 -0.0803
   57TMC2    C2  883   0.186   0.283  13.166 -0.1452 -0.0425 -0.4985
   57TMC2    C3  884   0.312   0.325  13.118 -0.1677  0.2714  0.0522
   57TMC2    C4  885   0.275   0.066  13.170 -0.2700  0.3731  0.6586
   57TMC2    C5  886   0.397   0.110  13.130  0.3075 -0.1765 -0.7271
   57TMC2    C6  887   0.412   0.240  13.087 -0.2670 -0.4919  1.0474
   57TMC2     C  888   0.075   0.121  13.288 -0.3979 -0.3244 -0.2141
   57TMC2     O  889   0.051   0.208  13.368  0.0553 -0.0269  0.5367
   57TMC2     H  890   0.113   0.354  13.204  1.1797  2.2795 -2.2851
   57TMC2    H1  891   0.260   4.703  13.205  3.9525 -0.3917  0.3040
   57TMC2    H2  892   0.513   0.276  13.076 -0.0378 -1.0618  1.2748
   57TMC2    C7  893   0.512   0.028  13.088 -0.6375 -0.4364  0.3281
   57TMC2    C8  894   0.332   0.462  13.124  0.6026 -0.3194 -0.8667
   57TMC2    O1  895   0.621   0.082  13.063  0.0100  0.3226  0.0199
   57TMC2    O2  896   0.264   0.540  13.194  0.0686  0.0906  0.2763
   57TMC2    O5  897   0.381   0.498  13.004  0.2874 -0.2197 -0.3335
   57TMC2    H5  898   0.405   0.422  12.947  1.0474 -1.2208  1.3198
   58MPD2     C  899   4.398   4.585  13.455 -0.4327  1.3272  0.2677
   58MPD2    C1  900   4.444   4.707  13.491 -1.2810 -0.1481  0.1797
   58MPD2    C2  901   4.570   0.015  13.448  0.3574 -0.0417 -0.2128
   58MPD2    C3  902   4.640   4.688  13.343  0.5161 -0.2089  0.5517
   58MPD2    C4  903   4.590   4.566  13.302 -0.2687 -0.0589 -0.2581
   58MPD2    C5  904   4.475   4.512  13.363  0.2077 -0.0518 -0.5857
   58MPD2     H  905   4.592   0.116  13.482  0.1018  0.5563 -1.8510
   58MPD2    H1  906   4.643   4.511  13.225 -0.6940 -0.1570 -0.4813
   58MPD2    H2  907   4.303   4.542  13.485  0.2396  0.6803  1.5050
   58MPD2    H3  908   4.441   4.415  13.328 -0.0704 -0.3114  0.3904
   58MPD2     N  909   0.013   0.002  13.268 -0.3456  0.3683  0.1546
   58MPD2    H5  910   0.051   4.684  13.193 -1.9775  1.6952 -1.6886
   58MPD2    N1  911   4.384   0.043  13.589  0.8267 -0.0814 -0.2956
   58MPD2    H7  912   4.430   0.127  13.623  2.3690 -1.1522  0.2572
   59TMC2    C1  913   2.245   0.293  12.546  0.2082 -0.4154 -0.2906
   59TMC2    C2  914   2.261   0.163  12.573 -0.8035  0.0357 -0.5109
   59TMC2    C3  915   2.281   0.073  12.469  1.0125  0.6045  0.3915
   59TMC2    C4  916   2.262   0.338  12.418  0.0868 -0.1058 -0.2929
   59TMC2    C5  917   2.285   0.249  12.322 -0.3023 -0.5717 -0.2686
   59TMC2    C6  918   2.287   0.118  12.345 -0.5811 -0.7142 -0.5957
   59TMC2     C  919   2.231   0.391  12.650  1.1004  0.0094  0.3575
   59TMC2     O  920   2.170   0.494  12.627 -0.6993 -0.2875 -0.1976
   59TMC2     H  921   2.247   0.126  12.674  0.4968  0.0747 -0.3109
   59TMC2    H1  922   2.265   0.444  12.397  0.5550 -0.1133 -0.2665
   59TMC2    H2  923   2.328   0.048  12.273  0.2291 -0.9400  0.0846
   59TMC2    C7  924   2.333   0.293  12.191  0.0506  0.1819 -0.0216
   59TMC2    C8  925   2.261   4.673  12.501  0.7242  0.0404  0.7069
   59TMC2    O1  926   2.357   0.205  12.108  0.3114  0.5724 -0.2542
   59TMC2    O2  927   2.212   4.611  12.404  0.0719 -0.1030 -0.0402
   59TMC2    O5  928   2.368   4.629  12.576  0.3124 -0.2685 -0.3011
   59TMC2    H5  929   2.406   4.697  12.636  1.7706  0.1687 -1.7190
   60MPD2     C  930   2.312   0.570  12.881  0.1587  0.0623  0.7410
   60MPD2    C1  931   2.353   0.440  12.861  0.4784  0.6638 -0.0023
   60MPD2    C2  932   2.432   0.382  12.960  0.0343  0.4721 -0.8366
   60MPD2    C3  933   2.462   0.449  13.076 -0.4326  0.7510  0.3316
   60MPD2    C4  934   2.416   0.576  13.094 -0.7974 -0.7675 -0.0612
   60MPD2    C5  935   2.356   0.643  12.993 -1.1736  0.2895 -0.1089
   60MPD2     H  936   2.468   0.280  12.946  1.7466  0.7040  1.9086
   60MPD2    H1  937   2.441   0.633  13.183 -0.9796 -3.0800  1.4698
   60MPD2    H2  938   2.250   0.611  12.802  0.2820 -0.4202  0.3959
   60MPD2    H3  939   2.334   0.748  13.002 -0.7943  0.4300 -0.8290
   60MPD2     N  940   2.549   0.406  13.181 -0.7292  0.2148 -0.4706
   60MPD2    H5  941   2.580   0.476  13.248  1.0793 -0.1483 -0.9560
   60MPD2    N1  942   2.322   0.363  12.748  0.3332 -0.1957  0.1375
   60MPD2    H7  943   2.356   0.268  12.744 -2.7455 -1.3592  1.5931
   61TMC2    C1  944   1.412   1.209  15.634 -0.4485  0.0233 -0.3539
   61TMC2    C2  945   1.342   1.174  15.746  0.1744  0.6494  0.1227
   61TMC2    C3  946   1.245   1.255  15.785 -0.0970  0.6285 -0.1947
   61TMC2    C4  947   1.375   1.324  15.563  0.8853  0.2607 -0.5894
   61TMC2    C5  948   1.266   1.401  15.611  0.1786 -0.4923  0.1025
   61TMC2    C6  949   1.203   1.367  15.721  0.1642  0.1344 -0.4767
   61TMC2     C  950   1.529   1.131  15.599 -0.3237 -0.1532  0.5255
   61TMC2     O  951   1.584   1.058  15.681 -0.1814  0.1387  1.1814
   61TMC2     H  952   1.375   1.083  15.796  0.9802  1.3857  0.9282
   61TMC2    H1  953   1.442   1.356  15.483  1.6051  0.8944  0.2717
   61TMC2    H2  954   1.128   1.423  15.776 -1.2499 -0.5966 -1.6486
   61TMC2    C7  955   1.257   1.537  15.555 -0.2388 -1.3214 -0.4281
   61TMC2    C8  956   1.170   1.213  15.900 -0.6012 -0.5276  0.3681
   61TMC2    O1  957   1.342   1.574  15.475  0.5638  0.2976 -0.3558
   61TMC2    O2  958   1.211   1.129  15.985  0.0047 -0.2064  0.3164
   61TMC2    O5  959   1.040   1.210  15.853  0.7666 -0.2665  0.7108
   61TMC2    H5  960   1.027   1.232  15.758 -2.3261 -1.9055  0.7265
   62MPD2     C  961   1.777   1.052  15.448  0.1158  0.3992  0.5758
   62MPD2    C1  962   1.668   1.112  15.386 -0.6955  0.1271  0.7493
   62MPD2    C2  963   1.667   1.136  15.247 -0.0290  0.0405 -0.5985
   62MPD2    C3  964   1.785   1.119  15.176 -0.2767 -0.6815  0.5982
   62MPD2    C4  965   1.892   1.056  15.240 -0.1124 -0.5264  0.4789
   62MPD2    C5  966   1.888   1.023  15.371  0.3287 -0.1034 -0.0086
   62MPD2     H  967   1.573   1.168  15.204  1.7881  0.7702 -3.9598
   62MPD2    H1  968   1.985   1.031  15.191 -0.5492 -1.7600  0.2959
   62MPD2    H2  969   1.773   1.030  15.554  2.2609  0.7550  0.7313
   62MPD2    H3  970   1.975   0.982  15.421 -0.0239 -0.2338  0.5045
   62MPD2     N  971   1.787   1.155  15.043  0.1595  0.0389  0.2386
   62MPD2    H5  972   1.704   1.196  15.001  0.5759 -1.2421 -1.8519
   62MPD2    N1  973   1.555   1.143  15.460  0.6261 -0.2899  0.5658
   62MPD2    H7  974   1.484   1.195  15.408  1.4921 -0.8269 -1.1603
   63TMC2    C1  975   1.021   1.138  10.902  0.5640  0.3604  0.4179
   63TMC2    C2  976   0.997   1.212  11.013 -0.1189  0.8511 -0.2379
   63TMC2    C3  977   1.091   1.295  11.058  0.2815 -0.7643  0.4529
   63TMC2    C4  978   1.137   1.154  10.825  0.0803 -0.0800  0.6544
   63TMC2    C5  979   1.230   1.247  10.877 -0.1482 -0.4073  0.2546
   63TMC2    C6  980   1.208   1.327  10.987  0.4752  0.4127  0.4307
   63TMC2     C  981   0.924   1.038  10.867  0.2222  0.3319  0.4080
   63TMC2     O  982   0.812   1.041  10.911  0.1219 -0.2695 -0.1067
   63TMC2     H  983   0.916   1.191  11.083  0.4721  0.0159  0.1977
   63TMC2    H1  984   1.163   1.091  10.741  0.7755  0.8358  0.1895
   63TMC2    H2  985   1.279   1.399  11.027  1.5380 -0.6210  0.4077
   63TMC2    C7  986   1.342   1.277  10.789  0.2423  0.2776  0.2547
   63TMC2    C8  987   1.084   1.333  11.195  0.4307  0.1696 -0.1872
   63TMC2    O1  988   1.324   1.266  10.670  0.0844 -0.6886  0.3108
   63TMC2    O2  989   1.029   1.270  11.283 -0.1513  0.1211  0.2267
   63TMC2    O5  990   1.125   1.465  11.195 -0.3963 -0.2423 -0.0832
   63TMC2    H5  991   1.150   1.508  11.111 -3.3695 -2.3487 -2.0739
   64MPD2     C  992   0.752   0.703  10.518 -0.4490  0.7144 -0.0263
   64MPD2    C1  993   0.886   0.740  10.487  0.5748  0.6955 -0.9194
   64MPD2    C2  994   0.944   0.826  10.574 -0.3347  0.5496  0.0372
   64MPD2    C3  995   0.884   0.871  10.691 -0.6464  0.1773 -0.4833
   64MPD2    C4  996   0.751   0.835  10.718  0.5789 -0.5788  0.3564
   64MPD2    C5  997   0.686   0.757  10.628  0.4628 -0.3897  0.4500
   64MPD2     H  998   1.046   0.857  10.554  0.4815 -1.3585  1.2873
   64MPD2    H1  999   0.704   0.879  10.805 -0.1503 -0.1957 -0.2247
   64MPD2    H2 1000   0.699   0.636  10.451 -0.6969 -0.1854  1.0493
   64MPD2    H3 1001   0.584   0.727  10.650  0.3081 -1.7530 -2.1598
   64MPD2     N 1002   0.967   0.957  10.767  0.7629  0.3266 -0.0577
   64MPD2    H5 1003   1.065   0.969  10.743  0.3682  1.4988 -1.0587
   64MPD2    N1 1004   0.958   0.704  10.367  0.1812 -0.4754 -0.5266
   64MPD2    H7 1005   1.048   0.751  10.361  0.9548 -2.3549 -3.8142
   65TMC2    C1 1006   2.353   0.902  15.346  0.0111 -0.3842 -0.6410
   65TMC2    C2 1007   2.323   0.865  15.225 -1.0326 -0.4675  0.1009
   65TMC2    C3 1008   2.285   0.966  15.142  0.1905  0.1184 -0.0251
   65TMC2    C4 1009   2.336   1.032  15.395  0.0080 -0.4215 -0.2168
   65TMC2    C5 1010   2.302   1.133  15.305 -1.0627  0.3071 -0.0928
   65TMC2    C6 1011   2.284   1.100  15.171 -0.1682  0.4606  0.2828
   65TMC2     C 1012   2.363   0.804  15.456  0.1308  0.2535 -0.0532
   65TMC2     O 1013   2.414   0.837  15.562 -0.3940  0.2887 -0.0109
   65TMC2     H 1014   2.365   0.775  15.180 -1.0742  0.4427 -1.7853
   65TMC2    H1 1015   2.352   1.053  15.501 -1.9478  1.7117 -0.3313
   65TMC2    H2 1016   2.253   1.178  15.102  4.9523  0.2773 -2.2587
   65TMC2    C7 1017   2.248   1.261  15.354 -0.2642 -0.5679 -0.1582
   65TMC2    C8 1018   2.313   0.935  15.005 -0.0345  0.1538  0.2635
   65TMC2    O1 1019   2.259   1.351  15.273 -0.0426  0.1061  0.4828
   65TMC2    O2 1020   2.424   0.891  14.977 -0.2209  0.5802 -0.5486
   65TMC2    O5 1021   2.222   0.995  14.922 -0.2827  0.6242 -0.4340
   65TMC2    H5 1022   2.142   1.024  14.970 -0.0700 -1.2533  1.0961
   66MPD2     C 1023   2.327   0.557  15.617 -0.3108 -0.2728  0.0449
   66MPD2    C1 1024   2.288   0.561  15.486 -0.0174 -0.1507 -0.0065
   66MPD2    C2 1025   2.232   0.451  15.428 -0.4363 -0.0645 -0.1802
   66MPD2    C3 1026   2.210   0.335  15.500 -0.5446 -0.9559 -0.0282
   66MPD2    C4 1027   2.225   0.346  15.634 -0.0616  0.0965 -0.5467
   66MPD2    C5 1028   2.296   0.448  15.686  0.0178 -0.0531  0.3153
   66MPD2     H 1029   2.196   0.477  15.329 -1.1319  0.4631  0.2051
   66MPD2    H1 1030   2.195   0.270  15.704  0.7405  1.0136  0.7901
   66MPD2    H2 1031   2.368   0.642  15.670 -1.6039  0.0263  0.5506
   66MPD2    H3 1032   2.313   0.451  15.793  0.4667  0.5800  0.2265
   66MPD2     N 1033   2.141   0.227  15.433  0.4513  0.2076  0.7947
   66MPD2    H5 1034   2.101   0.149  15.484  0.5955 -0.8660 -0.7295
   66MPD2    N1 1035   2.304   0.683  15.412 -0.6829 -0.3143  0.0487
   66MPD2    H7 1036   2.261   0.689  15.320  1.8456  0.4085 -1.0829
   67TMC2    C1 1037   2.892   0.353  14.027 -0.0446  0.0579 -0.0891
   67TMC2    C2 1038   2.790   0.445  14.012 -1.0895  0.0958 -0.9611
   67TMC2    C3 1039   2.761   0.505  14.139 -0.3926  0.2514 -0.3083
   67TMC2    C4 1040   2.947   0.320  14.148 -0.0784 -0.2738  0.1552
   67TMC2    C5 1041   2.911   0.388  14.266 -0.6365 -0.0520  0.7795
   67TMC2    C6 1042   2.799   0.469  14.264  0.2385  0.0097 -0.3906
   67TMC2     C 1043   2.918   0.257  13.915  0.0251 -0.6104 -0.5333
   67TMC2     O 1044   3.019   0.187  13.918  0.0954 -0.1285  0.3333
   67TMC2     H 1045   2.743   0.473  13.919 -0.7723  1.6121 -0.6536
   67TMC2    H1 1046   3.035   0.257  14.153  0.4657  0.3933 -1.0368
   67TMC2    H2 1047   2.771   0.522  14.354  1.0845 -0.9934  0.4737
   67TMC2    C7 1048   2.957   0.311  14.389  0.4130  0.9150  0.5585
   67TMC2    C8 1049   2.706   0.637  14.138 -0.1835  0.1158  0.0508
   67TMC2    O1 1050   3.068   0.259  14.384 -0.0904  0.2502  0.7051
   67TMC2    O2 1051   2.748   0.728  14.208  0.0655 -0.0627 -0.3505
   67TMC2    O5 1052   2.648   0.660  14.013 -0.4184 -0.0103  0.1917
   67TMC2    H5 1053   2.589   0.584  13.995 -1.7987  0.9804  0.5160
   68MPD2     C 1054   2.958   0.145  13.635 -0.1960 -0.6562 -0.0435
   68MPD2    C1 1055   2.839   0.178  13.695 -0.2897  0.0602 -0.0970
   68MPD2    C2 1056   2.722   0.136  13.632 -0.5469 -0.6079  0.0608
   68MPD2    C3 1057   2.725   0.049  13.525 -0.1344  0.2731 -0.1226
   68MPD2    C4 1058   2.844   0.014  13.474 -0.4818  0.9243 -0.2910
   68MPD2    C5 1059   2.955   0.070  13.526  0.1363  0.2991 -0.3214
   68MPD2     H 1060   2.628   0.157  13.682 -1.2892 -0.3890 -1.4287
   68MPD2    H1 1061   2.864   4.681  13.395 -1.4261  0.2080  0.1281
   68MPD2    H2 1062   3.053   0.188  13.666 -0.3378 -0.4376  0.0891
   68MPD2    H3 1063   3.048   0.056  13.473 -0.2163 -0.3358 -0.7726
   68MPD2     N 1064   2.604   4.720  13.486  0.1499  0.2678  0.5004
   68MPD2    H5 1065   2.614   4.651  13.412 -1.5778  0.1231  0.4175
   68MPD2    N1 1066   2.824   0.261  13.813 -0.5330 -0.3542  0.3561
   68MPD2    H7 1067   2.739   0.315  13.826 -0.1249  0.4191 -0.2125
   69TMC2    C1 1068   4.590   1.969  12.306  0.1409  0.1187  0.2752
   69TMC2    C2 1069   4.474   2.029  12.263 -0.7980 -0.0851 -0.1914
   69TMC2    C3 1070   4.486   2.114  12.155  0.7038 -0.1348 -0.3059
   69TMC2    C4 1071   4.714   1.986  12.242  0.2620  0.1029  0.4688
   69TMC2    C5 1072   4.721   2.061  12.125 -0.2119  0.3805 -0.0668
   69TMC2    C6 1073   4.608   2.133  12.084  0.4809 -0.4133 -0.0573
   69TMC2     C 1074   4.567   1.907  12.433 -0.1676  0.5905 -0.2583
   69TMC2     O 1075   4.451   1.896  12.469 -0.5546  0.2683  0.5525
   69TMC2     H 1076   4.379   2.016  12.312 -0.0816  0.8381  1.4436
   69TMC2    H1 1077   0.068   1.951  12.286  0.9433 -0.5044 -1.4631
   69TMC2    H2 1078   4.606   2.195  11.995  0.1504 -0.8704 -0.3685
   69TMC2    C7 1079   0.093   2.036  12.038  0.2268 -0.2487  0.6507
   69TMC2    C8 1080   4.382   2.209  12.139 -0.5085  0.4105  0.1804
   69TMC2    O1 1081   0.195   1.986  12.086  0.0239 -0.5560 -0.1801
   69TMC2    O2 1082   4.302   2.224  12.235  0.0099  0.2564 -0.2860
   69TMC2    O5 1083   4.345   2.172  12.011  0.5880  0.3361 -0.2857
   69TMC2    H5 1084   4.415   2.148  11.946  0.8175 -2.0877  0.8461
   70MPD2     C 1085   0.087   1.864  12.697 -1.1119 -0.6983 -0.5297
   70MPD2    C1 1086   4.704   1.850  12.634  0.0250 -0.4213  0.3956
   70MPD2    C2 1087   4.606   1.768  12.685  0.3498  0.3174 -0.4649
   70MPD2    C3 1088   4.634   1.703  12.805  0.1934  0.6218  0.6239
   70MPD2    C4 1089   0.015   1.722  12.869  0.6816 -1.0301 -0.0865
   70MPD2    C5 1090   0.111   1.804  12.815 -0.0253 -0.3591  0.3792
   70MPD2     H 1091   4.511   1.739  12.642 -0.1126  0.8956  0.1567
   70MPD2    H1 1092   0.041   1.673  12.962 -0.9024 -1.8532 -0.0824
   70MPD2    H2 1093   0.159   1.932  12.653  0.6217 -1.4903  1.1063
   70MPD2    H3 1094   0.204   1.826  12.867  0.5370 -2.4024  0.2350
   70MPD2     N 1095   4.559   1.603  12.863  0.2048 -0.3759  0.2286
   70MPD2    H5 1096   4.600   1.536  12.928 -0.4710  0.2916  1.3419
   70MPD2    N1 1097   4.685   1.906  12.504  0.4942  0.2634  0.0666
   70MPD2    H7 1098   0.020   1.962  12.463  1.7712  0.0674  2.0904
   71TMC2    C1 1099   1.920   2.423   1.523 -0.1958  0.2213 -0.6685
   71TMC2    C2 1100   2.028   2.496   1.573 -0.0233  0.8112  0.0868
   71TMC2    C3 1101   1.991   2.588   1.668  0.3733 -0.5241  1.1364
   71TMC2    C4 1102   1.798   2.432   1.576  0.0421 -0.0533  0.2461
   71TMC2    C5 1103   1.779   2.522   1.676  0.2373 -0.3210  0.0451
   71TMC2    C6 1104   1.870   2.606   1.726 -0.1315 -0.4866  0.2505
   71TMC2     C 1105   1.932   2.343   1.405  0.0254 -0.4475  0.5671
   71TMC2     O 1106   1.844   2.333   1.322  0.2945  0.6323 -0.4056
   71TMC2     H 1107   2.128   2.498   1.530 -1.0218 -0.5243 -2.2761
   71TMC2    H1 1108   1.729   2.355   1.544  0.1583 -0.3902  0.8110
   71TMC2    H2 1109   1.840   2.672   1.806 -0.4537 -0.6817  0.2903
   71TMC2    C7 1110   1.642   2.564   1.690  0.1358  0.0392 -0.0231
   71TMC2    C8 1111   2.101   2.665   1.723 -0.4044  0.1656 -0.1006
   71TMC2    O1 1112   1.630   2.678   1.736 -0.3532 -0.2979  0.4751
   71TMC2    O2 1113   2.219   2.631   1.724  0.2216  0.5670  0.1130
   71TMC2    O5 1114   2.050   2.771   1.787 -0.3501  0.3896 -0.1147
   71TMC2    H5 1115   1.963   2.796   1.750 -0.0708  1.6866  0.1017
   72MPD2     C 1116   2.236   2.080   1.083  0.4402 -0.2138  0.1704
   72MPD2    C1 1117   2.112   2.145   1.067 -0.5485  0.6568 -0.2549
   72MPD2    C2 1118   2.064   2.223   1.165 -0.1065  0.3044 -0.8007
   72MPD2    C3 1119   2.127   2.231   1.289 -0.4974 -0.7549 -0.0869
   72MPD2    C4 1120   2.246   2.164   1.304 -0.2975  0.6268  0.1020
   72MPD2    C5 1121   2.301   2.099   1.204  0.2542  0.2944 -0.3264
   72MPD2     H 1122   1.979   2.289   1.153 -0.5968 -0.2995 -0.5951
   72MPD2    H1 1123   2.303   2.170   1.396  0.6827 -0.3027 -0.4497
   72MPD2    H2 1124   2.295   2.030   1.007  0.2490  2.8966 -2.0424
   72MPD2    H3 1125   2.401   2.065   1.227  0.4332 -0.0650 -1.5991
   72MPD2     N 1126   2.066   2.296   1.401  0.6668  0.4883  0.7235
   72MPD2    H5 1127   2.124   2.310   1.483 -0.9782 -2.6184  2.4301
   72MPD2    N1 1128   2.031   2.142   0.951  1.3629 -0.5701  0.4482
   72MPD2    H7 1129   1.946   2.196   0.960  1.6650 -0.2834  1.6113
   73TMC2    C1 1130   1.131   3.020  13.587 -0.5527 -0.2728  0.0224
   73TMC2    C2 1131   1.023   3.003  13.668  0.3771 -0.0787  0.6584
   73TMC2    C3 1132   1.048   2.950  13.789  0.4596 -0.1351 -0.6396
   73TMC2    C4 1133   1.257   2.978  13.620 -0.5147  0.7473 -0.3873
   73TMC2    C5 1134   1.276   2.931  13.746  0.1441  0.4552 -0.1253
   73TMC2    C6 1135   1.172   2.911  13.832  0.3369  0.2209 -0.5385
   73TMC2     C 1136   1.132   3.155  13.534 -0.1680  0.6240 -0.2842
   73TMC2     O 1137   1.239   3.208  13.558 -0.2689  0.2476 -0.7262
   73TMC2     H 1138   0.928   3.048  13.640 -0.4911 -2.5258 -0.3623
   73TMC2    H1 1139   1.341   3.015  13.563  0.1789  1.3952  1.0620
   73TMC2    H2 1140   1.184   2.881  13.935  0.5328 -0.5623 -0.7853
   73TMC2    C7 1141   1.394   2.988  13.809  0.8252 -0.4474 -0.0326
   73TMC2    C8 1142   0.946   2.962  13.891 -0.1069 -0.5696 -0.0234
   73TMC2    O1 1143   1.436   2.943  13.912  0.0926  0.2801 -0.4357
   73TMC2    O2 1144   0.974   2.962  14.009 -0.2143  0.4976 -0.3949
   73TMC2    O5 1145   0.831   2.929  13.831  0.0150  0.1537  0.3406
   73TMC2    H5 1146   0.829   2.910  13.735  0.5221 -0.8055  0.5246
   74MPD2     C 1147   0.966   3.626  13.355 -0.4995  0.0947 -0.4557
   74MPD2    C1 1148   1.071   3.595  13.431  0.3868  0.2502  0.2053
   74MPD2    C2 1149   1.091   3.464  13.469  0.0135  0.6859 -0.0298
   74MPD2    C3 1150   1.000   3.355  13.442  0.1766 -0.8023 -0.6992
   74MPD2    C4 1151   0.881   3.395  13.375 -0.1843  0.1907 -0.3209
   74MPD2    C5 1152   0.869   3.529  13.334  0.0005 -0.1802  0.9324
   74MPD2     H 1153   1.184   3.424  13.507 -2.2287 -3.1025  1.5094
   74MPD2    H1 1154   0.809   3.321  13.343  0.3320 -0.3591 -0.2264
   74MPD2    H2 1155   0.948   3.726  13.318 -3.2516 -0.5463 -0.8713
   74MPD2    H3 1156   0.771   3.551  13.293  0.5622  0.6562  0.0426
   74MPD2     N 1157   1.015   3.213  13.481 -0.1858 -0.0568  0.1554
   74MPD2    H5 1158   0.928   3.163  13.465  0.4754 -1.1446 -0.0410
   74MPD2    N1 1159   1.161   3.701  13.464  0.2588  0.1001  0.1153
   74MPD2    H7 1160   1.148   3.789  13.415  0.5139 -0.5889 -1.2110
   75TMC2    C1 1161   2.386   4.654  13.471  0.1260  0.3017 -1.0746
   75TMC2    C2 1162   2.422   4.521  13.466 -0.0781  0.0807  0.0795
   75TMC2    C3 1163   2.320   4.441  13.416 -0.1959 -0.0975 -0.1615
   75TMC2    C4 1164   2.265   4.711  13.441 -0.9760 -0.8638  0.9647
   75TMC2    C5 1165   2.174   4.630  13.379  0.2234  0.5449 -0.1045
   75TMC2    C6 1166   2.200   4.496  13.367 -0.5875 -0.4915 -0.0615
   75TMC2     C 1167   2.481   4.736  13.541 -0.0702  0.4810  0.3663
   75TMC2     O 1168   2.425   0.084  13.607 -0.2272  0.4393  0.6158
   75TMC2     H 1169   2.517   4.487  13.507 -0.3265  0.9788  1.3827
   75TMC2    H1 1170   2.258   0.079  13.428  0.5940 -1.0126 -1.0067
   75TMC2    H2 1171   2.132   4.428  13.317  0.8237 -1.9356 -0.0410
   75TMC2    C7 1172   2.061   4.681  13.304  0.1465  0.0475 -0.2589
   75TMC2    C8 1173   2.320   4.299  13.446 -0.1080  0.3283 -0.6506
   75TMC2    O1 1174   2.041   4.613  13.205  0.6364  0.8249  0.5674
   75TMC2    O2 1175   2.217   4.231  13.438 -0.2923  0.5415  0.0270
   75TMC2    O5 1176   2.429   4.250  13.510 -0.1553  0.0678  0.2831
   75TMC2    H5 1177   2.502   4.308  13.479  3.3195 -3.0072  2.6571
   76TMC2    C1 1178   0.937   0.987  12.075  0.2755  0.3401  0.9131
   76TMC2    C2 1179   0.856   0.892  12.013  0.3318 -0.2073 -0.6183
   76TMC2    C3 1180   0.853   0.766  12.071 -0.4348  0.3415  0.7475
   76TMC2    C4 1181   1.013   0.956  12.187  0.2231 -0.1976 -0.1627
   76TMC2    C5 1182   1.009   0.826  12.233 -0.1027  0.3833 -0.0602
   76TMC2    C6 1183   0.930   0.726  12.180  0.2993  0.2777 -0.2124
   76TMC2     C 1184   0.960   1.116  12.002 -1.1529 -0.0778 -0.1742
   76TMC2     O 1185   0.916   1.132  11.888 -0.3100 -0.1909  0.0358
   76TMC2     H 1186   0.793   0.924  11.931  0.0154 -0.6103 -0.5342
   76TMC2    H1 1187   1.089   1.026  12.220 -0.3909  0.3361  0.1369
   76TMC2    H2 1188   0.925   0.620  12.201  1.1373 -0.1306 -2.0809
   76TMC2    C7 1189   1.091   0.794  12.348  0.2316 -0.1964 -0.3386
   76TMC2    C8 1190   0.774   0.667  12.012 -0.2842  0.3372 -0.0081
   76TMC2    O1 1191   1.124   0.681  12.375  0.2093  0.0979 -0.2906
   76TMC2    O2 1192   0.730   0.572  12.071 -0.3556  0.2098 -0.0978
   76TMC2    O5 1193   0.768   0.679  11.878  0.5243 -0.6598 -0.0117
   76TMC2    H5 1194   0.827   0.739  11.827 -1.5273  0.1260 -1.4750
   77MPD2     C 1195   1.116   1.606  12.008 -0.7634 -0.0459  0.4475
   77MPD2    C1 1196   1.019   1.545  11.930 -0.0928  0.0567  0.4420
   77MPD2    C2 1197   1.013   1.404  11.936  0.1341  0.7341  1.0306
   77MPD2    C3 1198   1.055   1.347  12.052 -0.6449 -0.6315 -0.2461
   77MPD2    C4 1199   1.134   1.410  12.146  0.4219  0.8610 -0.3315
   77MPD2    C5 1200   1.172   1.542  12.118  0.4808 -0.8089  0.1609
   77MPD2     H 1201   0.944   1.351  11.872 -0.0119  2.4079 -0.2097
   77MPD2    H1 1202   1.167   1.366  12.240  0.4060  0.3187 -0.5769
   77MPD2    H2 1203   1.143   1.710  11.994 -2.1014  0.3657  0.9398
   77MPD2    H3 1204   1.237   1.606  12.176  0.0478 -0.7734  0.6024
   77MPD2     N 1205   1.023   1.211  12.082  0.3656 -0.4218 -0.3584
   77MPD2    H5 1206   1.036   1.176  12.176  1.7539 -0.1679 -0.4665
   77MPD2    N1 1207   0.958   1.618  11.827  0.3219 -0.1049 -0.4063
   77MPD2    H7 1208   0.913   1.570  11.750  1.8846 -1.7306 -0.2966
   78TMC2    C1 1209   3.372   4.616   1.661 -0.5213 -0.2341  0.4477
   78TMC2    C2 1210   3.305   4.498   1.676  0.5473 -0.0796  0.1516
   78TMC2    C3 1211   3.183   4.503   1.733  0.4154  0.2687  0.4446
   78TMC2    C4 1212   3.319   4.735   1.699  0.0015 -0.4385 -0.7089
   78TMC2    C5 1213   3.201   4.732   1.765 -0.7625 -0.6663  0.0741
   78TMC2    C6 1214   3.132   4.611   1.794 -0.5495  0.4533  0.4372
   78TMC2     C 1215   3.509   4.632   1.620 -0.2070 -0.2617  0.4200
   78TMC2     O 1216   3.563   0.001   1.603  0.3812 -0.0517  0.2266
   78TMC2     H 1217   3.338   4.407   1.627  0.8548  1.3706 -2.3304
   78TMC2    H1 1218   3.358   0.094   1.673 -0.2239  0.6073  2.9116
   78TMC2    H2 1219   3.045   4.602   1.858 -0.4143 -3.4617  0.0580
   78TMC2    C7 1220   3.143   0.125   1.800  0.4966 -0.7238  0.5133
   78TMC2    C8 1221   3.131   4.373   1.781  0.4192 -0.1476 -0.1125
   78TMC2    O1 1222   3.213   0.224   1.800  0.3566 -0.3700  0.0291
   78TMC2    O2 1223   3.197   4.267   1.778  0.0661 -0.2283 -0.1926
   78TMC2    O5 1224   2.995   4.390   1.767  0.5394 -0.0382 -0.0164
   78TMC2    H5 1225   2.972   4.480   1.734 -1.5238 -1.1365 -1.5654
   79MPD1     C 1226   3.938   4.440   1.412 -0.7121 -0.3047 -0.1043
   79MPD1    C1 1227   3.870   4.558   1.380 -0.6061  0.0933  0.3973
   79MPD1    C2 1228   3.748   4.584   1.442 -0.4746 -0.2904  0.0708
   79MPD1    C3 1229   3.691   4.489   1.527  0.1531 -0.1630  0.1700
   79MPD1    C4 1230   3.756   4.370   1.553 -0.1535  0.0271 -0.3453
   79MPD1    C5 1231   3.880   4.351   1.505  0.5891 -0.4554  0.6327
   79MPD1     H 1232   3.704   4.680   1.415 -1.7761 -0.8754  0.0886
   79MPD1    H1 1233   3.713   4.298   1.622 -1.3293  2.2617  1.2637
   79MPD1    H2 1234   4.032   4.425   1.359 -1.4484 -1.0609 -1.2033
   79MPD1    H3 1235   3.924   4.259   1.538  2.0266  0.0511  0.1077
   79MPD1     N 1236   3.569   4.510   1.596 -0.3190 -0.7465 -0.2008
   79MPD1    H5 1237   3.527   4.427   1.636 -1.1120  1.1654  2.9923
   79MPD1    N1 1238   3.940   4.660   1.316 -0.6636  0.4488 -0.0377
   79MPD1    H6 1239   3.895   0.007   1.288  1.3329  0.8147 -2.1168
   79MPD1    H7 1240   4.020   4.637   1.257 -0.4693 -0.5052  0.5904
   80TMC2    C1 1241   4.340   0.432  11.811 -0.7791 -0.2739  0.3385
   80TMC2    C2 1242   4.291   0.492  11.697  0.8504 -0.8122 -0.2945
   80TMC2    C3 1243   4.177   0.444  11.655 -0.4691 -0.0639 -0.3581
   80TMC2    C4 1244   4.266   0.335  11.882  0.0631 -0.2461 -0.6438
   80TMC2    C5 1245   4.145   0.289  11.831 -0.1378  0.1415  0.5918
   80TMC2    C6 1246   4.101   0.349  11.722  0.4211  0.5797 -1.4578
   80TMC2     C 1247   4.457   0.483  11.876  0.4191 -0.9846 -0.0942
   80TMC2     O 1248   4.534   0.546  11.806  0.2566 -0.3530 -0.1009
   80TMC2     H 1249   4.342   0.577  11.654 -0.1354  0.0947  0.3215
   80TMC2    H1 1250   4.311   0.281  11.965  0.0037 -1.7140 -1.5673
   80TMC2    H2 1251   4.002   0.319  11.686 -0.1938 -0.5464  1.2022
   80TMC2    C7 1252   4.094   0.151  11.862  0.3314 -0.1305 -0.2348
   80TMC2    C8 1253   4.109   0.535  11.564  0.4539 -0.0051 -0.2451
   80TMC2    O1 1254   4.035   0.091  11.770 -0.2106 -0.1178  0.2300
   80TMC2    O2 1255   4.143   0.652  11.540 -0.4022 -0.0798 -0.1356
   80TMC2    O5 1256   4.037   0.448  11.480 -0.4710 -0.0369 -0.5327
   80TMC2    H5 1257   4.032   0.355  11.511 -2.7692  0.3239  0.2280
   81MPD2     C 1258   4.705   0.491  12.043  0.6613  0.4054 -0.1420
   81MPD2    C1 1259   4.574   0.483  12.092 -0.0778  0.0977 -0.0934
   81MPD2    C2 1260   4.551   0.494  12.228  0.2088  0.0686 -0.5949
   81MPD2    C3 1261   4.659   0.524  12.313 -0.3733 -0.8968  0.0226
   81MPD2    C4 1262   0.052   0.526  12.266 -0.0978 -1.0469  0.6337
   81MPD2    C5 1263   0.076   0.516  12.128  0.4419 -0.7913 -0.4045
   81MPD2     H 1264   4.451   0.497  12.270  0.2959 -1.4334 -0.2475
   81MPD2    H1 1265   0.141   0.535  12.328  0.1053 -0.8798  0.3191
   81MPD2    H2 1266   4.731   0.473  11.939 -1.7452 -0.0751 -0.6457
   81MPD2    H3 1267   0.175   0.518  12.085  0.6057 -0.4315 -0.0062
   81MPD2     N 1268   4.620   0.547  12.449 -0.4426  0.4851 -0.1391
   81MPD2    H5 1269   4.520   0.550  12.467 -0.1069 -2.6751  2.3439
   81MPD2    N1 1270   4.462   0.462  12.007  0.0521 -0.4710  0.4084
   81MPD2    H7 1271   4.376   0.437  12.055 -0.0299 -1.5977 -0.3251
   82TMC2    C1 1272   2.459   0.101  11.276 -0.3381  0.9100  0.8704
   82TMC2    C2 1273   2.523   0.177  11.361  0.3789  0.5738  0.3273
   82TMC2    C3 1274   2.546   0.129  11.489  0.7233 -0.7341 -0.4864
   82TMC2    C4 1275   2.412   4.711  11.299 -0.2714  0.7128 -0.0920
   82TMC2    C5 1276   2.453   4.665  11.426 -0.0836  0.6024  0.5672
   82TMC2    C6 1277   2.517   0.004  11.517  0.3499 -0.6006 -0.1190
   82TMC2     C 1278   2.434   0.156  11.149 -0.2879 -0.3293  0.1286
   82TMC2     O 1279   2.429   0.082  11.052 -0.2156 -0.0415  0.2567
   82TMC2     H 1280   2.563   0.274  11.333 -0.5175  0.1442 -2.4370
   82TMC2    H1 1281   2.343   4.662  11.231  0.4410  0.0623 -0.3404
   82TMC2    H2 1282   2.540   4.704  11.615  0.8934 -0.0364 -0.0207
   82TMC2    C7 1283   2.408   4.536  11.461  0.7745  0.1123 -0.2280
   82TMC2    C8 1284   2.617   0.220  11.574  0.4954  0.0081  0.6144
   82TMC2    O1 1285   2.377   4.522  11.579 -0.2982  0.3028 -0.2135
   82TMC2    O2 1286   2.692   0.310  11.539 -0.1851  0.1384  0.1902
   82TMC2    O5 1287   2.590   0.193  11.703 -0.1916 -0.2891 -0.5466
   82TMC2    H5 1288   2.529   0.118  11.719 -0.6110  0.8503  3.3894
   83MPD2     C 1289   2.272   0.573  10.867 -1.0858  0.5829  0.6908
   83MPD2    C1 1290   2.266   0.435  10.835  0.2211 -0.0226 -0.2969
   83MPD2    C2 1291   2.302   0.337  10.929  0.2494  0.0162 -0.1058
   83MPD2    C3 1292   2.360   0.382  11.051 -0.1583  0.4198  0.3580
   83MPD2    C4 1293   2.369   0.519  11.080 -0.3864  0.2496  0.5199
   83MPD2    C5 1294   2.324   0.610  10.986  0.9372  0.6228  0.4217
   83MPD2     H 1295   2.301   0.229  10.918 -1.7749 -0.2229  2.3325
   83MPD2    H1 1296   2.427   0.554  11.164  0.1344  0.0961  0.2232
   83MPD2    H2 1297   2.237   0.653  10.802 -0.2973 -0.5190 -1.0803
   83MPD2    H3 1298   2.337   0.714  11.010 -3.4796  0.7700  2.1856
   83MPD2     N 1299   2.411   0.295  11.158  0.5765 -0.4375  0.7132
   83MPD2    H5 1300   2.434   0.345  11.244 -1.2849  1.9377 -0.1883
   83MPD2    N1 1301   2.199   0.400  10.714  0.1703  0.0496  1.4164
   83MPD2    H7 1302   2.159   0.478  10.664  0.0235 -1.5156 -0.9350
   84TMC2    C1 1303   3.415   4.198  10.843  0.0270 -0.0560 -0.0307
   84TMC2    C2 1304   3.301   4.169  10.779  0.7843  0.2755  0.7057
   84TMC2    C3 1305   3.281   4.231  10.655 -0.4990  0.4199 -0.4732
   84TMC2    C4 1306   3.503   4.294  10.801  0.3755 -0.1122 -0.8601
   84TMC2    C5 1307   3.475   4.361  10.677  0.1779  0.3572  0.4949
   84TMC2    C6 1308   3.368   4.323  10.597  0.4652 -0.0105 -0.1661
   84TMC2     C 1309   3.431   4.149  10.983 -0.6700 -0.0297  0.3458
   84TMC2     O 1310   3.327   4.125  11.045  0.2663  0.6530 -0.0266
   84TMC2     H 1311   3.223   4.109  10.823 -0.4628  0.1648 -1.6578
   84TMC2    H1 1312   3.595   4.301  10.859  0.3095  2.2514 -1.0606
   84TMC2    H2 1313   3.350   4.376  10.504 -0.0324  1.2885  0.6796
   84TMC2    C7 1314   3.566   4.456  10.631  0.2569 -0.0846 -0.3813
   84TMC2    C8 1315   3.182   4.182  10.556 -0.4106 -0.0862  0.0398
   84TMC2    O1 1316   3.579   4.466  10.507  0.0390 -0.0943 -0.4085
   84TMC2    O2 1317   3.180   4.216  10.438 -0.0648 -0.0493  0.1421
   84TMC2    O5 1318   3.082   4.114  10.613  0.4090  0.3361  0.7683
   84TMC2    H5 1319   3.112   4.065  10.693 -0.2495  0.5703  1.1573
   85TMC2    C1 1320   4.276   1.918  15.953 -0.0253  0.3938 -0.2936
   85TMC2    C2 1321   4.141   1.928  15.936  0.8259  0.6756  0.1102
   85TMC2    C3 1322   4.103   2.042  15.871  0.0413 -0.9398 -0.0788
   85TMC2    C4 1323   4.364   2.015  15.934  0.1485  0.5697  0.6168
   85TMC2    C5 1324   4.311   2.123  15.862 -0.4186 -0.5765 -0.6033
   85TMC2    C6 1325   4.185   2.136  15.835 -1.1388  0.6665  0.7411
   85TMC2     C 1326   4.331   1.826  16.048  0.0759 -0.0527 -0.1013
   85TMC2     O 1327   4.434   1.851  16.102 -0.5430  0.1802  0.8492
   85TMC2     H 1328   4.068   1.851  15.957 -1.6401  3.1636  0.7108
   85TMC2    H1 1329   4.467   2.028  15.965  0.5448  1.6066 -1.1020
   85TMC2    H2 1330   4.141   2.231  15.807 -1.5796  0.4205  0.5967
   85TMC2    C7 1331   4.393   2.174  15.765 -0.1513 -0.1646  0.1180
   85TMC2    C8 1332   3.967   2.094  15.883 -0.0181 -0.3282  0.0928
   85TMC2    O1 1333   4.493   2.103  15.748  0.0142 -0.1788  0.6546
   85TMC2    O2 1334   3.916   2.192  15.833  0.4667 -0.0526  0.0756
   85TMC2    O5 1335   3.938   2.056  16.004 -0.5967  0.1219  0.0543
   85TMC2    H5 1336   4.005   2.004  16.052 -1.3867 -1.2321 -0.3230
   86MPD2     C 1337   4.241   1.459  16.378  0.2790 -0.2012 -0.4266
   86MPD2    C1 1338   4.183   1.422  16.261 -0.5242  0.6404  0.1531
   86MPD2    C2 1339   4.190   1.515  16.156  0.1262 -0.0266  0.5430
   86MPD2    C3 1340   4.253   1.634  16.161 -0.3413  0.1886  0.4634
   86MPD2    C4 1341   4.305   1.670  16.289  0.2847  0.2131 -0.1312
   86MPD2    C5 1342   4.296   1.586  16.392 -0.0257  0.9622  0.3464
   86MPD2     H 1343   4.140   1.497  16.061 -2.2698  1.1315  1.5725
   86MPD2    H1 1344   4.335   1.773  16.306 -1.8910  1.0341 -1.3184
   86MPD2    H2 1345   4.246   1.394  16.464 -1.7547  0.3187  0.0797
   86MPD2    H3 1346   4.329   1.605  16.494  3.2659 -0.0270 -0.5361
   86MPD2     N 1347   4.248   1.720  16.056  0.2837  0.3948 -0.4680
   86MPD2    H5 1348   4.172   1.712  15.989  1.7650  0.8535 -2.2217
   86MPD2    N1 1349   4.130   1.290  16.239 -0.0758  0.4665  0.2483
   86MPD2    H7 1350   4.097   1.271  16.145  0.4427  0.6101  0.0391
   87TMC2    C1 1351   1.345   4.560   0.774 -0.8294  0.0417 -0.2669
   87TMC2    C2 1352   1.239   4.594   0.853  0.9568 -0.2153  0.3868
   87TMC2    C3 1353   1.249   4.719   0.917 -0.6742  0.0841 -0.6042
   87TMC2    C4 1354   1.452   4.637   0.755 -0.0099  1.1081 -0.0896
   87TMC2    C5 1355   1.461   0.013   0.828 -0.3969  0.0940  0.0305
   87TMC2    C6 1356   1.362   0.062   0.908 -0.2113 -0.5513  0.5737
   87TMC2     C 1357   1.332   4.440   0.700  0.5477 -0.0762  0.7759
   87TMC2     O 1358   1.241   4.366   0.733  0.0653  0.3148 -0.7520
   87TMC2     H 1359   1.155   4.527   0.866  0.1981  0.5345 -0.6908
   87TMC2    H1 1360   1.543   4.607   0.705 -0.7361 -0.3387 -0.5431
   87TMC2    H2 1361   1.376   0.151   0.967 -0.8352  0.2547 -0.4991
   87TMC2    C7 1362   1.573   0.107   0.804 -0.0946  0.5151  0.1283
   87TMC2    C8 1363   1.132   0.027   0.987 -0.1236  0.0343  0.2076
   87TMC2    O1 1364   1.651   0.071   0.714  0.4382 -0.5333 -0.0049
   87TMC2    O2 1365   1.047   4.691   1.032 -0.2733  0.2369 -0.5151
   87TMC2    O5 1366   1.115   0.161   0.965  0.4357  0.0007  0.1165
   87TMC2    H5 1367   1.190   0.207   0.922 -0.1300 -0.2725 -1.1407
   88MPD2     C 1368   1.719   0.376   1.007 -0.1760  0.3606 -0.8186
   88MPD2    C1 1369   1.701   0.295   0.893  0.0159 -0.0640 -0.1031
   88MPD2    C2 1370   1.788   0.309   0.786  0.9783  0.0297 -0.1983
   88MPD2    C3 1371   1.883   0.406   0.792 -0.1028  0.7214 -0.4558
   88MPD2    C4 1372   1.908   0.477   0.908  0.2128  0.2128 -0.6450
   88MPD2    C5 1373   1.826   0.460   1.019  0.2927  0.4392  0.4039
   88MPD2     H 1374   1.779   0.246   0.698 -0.3992 -1.3510  0.9356
   88MPD2    H1 1375   1.987   0.551   0.914  1.1492 -0.7928 -0.3806
   88MPD2    H2 1376   1.651   0.370   1.091  0.6139 -1.4054 -0.3058
   88MPD2    H3 1377   1.835   0.523   1.107  1.2866  1.4715 -0.4356
   88MPD2     N 1378   1.977   0.429   0.688  0.0794  0.1440 -0.3598
   88MPD2    H5 1379   2.046   0.502   0.705  0.6163 -0.3941 -0.1957
   88MPD2    N1 1380   1.595   0.203   0.898  0.3670  0.8257 -0.5222
   88MPD2    H7 1381   1.538   0.201   0.982 -1.6082  0.7157 -1.8857
   89TMC2    C1 1382   2.157   4.013   1.717  0.1585  0.1234  0.0631
   89TMC2    C2 1383   2.205   4.139   1.743  0.8952 -0.0090  0.4339
   89TMC2    C3 1384   2.285   4.177   1.638 -0.5608  0.0419  0.3007
   89TMC2    C4 1385   2.145   3.960   1.591 -0.3566  0.0218  0.0584
   89TMC2    C5 1386   2.203   4.024   1.486  0.0023 -0.6707  0.2950
   89TMC2    C6 1387   2.280   4.132   1.509 -0.2652  0.1017 -0.2457
   89TMC2     C 1388   2.145   3.923   1.834  0.1363  0.0167  0.9532
   89TMC2     O 1389   2.143   3.983   1.934 -0.3921  0.1482  0.3229
   89TMC2     H 1390   2.210   4.184   1.842  0.8044 -2.1950  1.4237
   89TMC2    H1 1391   2.101   3.863   1.575 -2.0815  0.7355  0.4104
   89TMC2    H2 1392   2.340   4.180   1.433 -2.1894  0.5504 -1.4889
   89TMC2    C7 1393   2.180   3.966   1.356 -0.2128 -0.2947  0.2095
   89TMC2    C8 1394   2.369   4.294   1.647  0.0546 -0.0146 -0.2341
   89TMC2    O1 1395   2.087   3.886   1.350  0.2718 -0.5530  0.1715
   89TMC2    O2 1396   2.474   4.311   1.586  0.5093  0.2249  0.5865
   89TMC2    O5 1397   2.303   4.386   1.722  0.4392  0.2497  0.3316
   89TMC2    H5 1398   2.211   4.363   1.745  0.2546  1.1184  0.4533
   90MPD2     C 1399   2.183   3.463   2.051  0.0340  0.0573 -0.0402
   90MPD2    C1 1400   2.188   3.440   1.913 -0.6164  0.6644  0.1582
   90MPD2    C2 1401   2.185   3.553   1.833  0.2863 -0.1020 -0.1276
   90MPD2    C3 1402   2.175   3.679   1.890 -0.0545 -0.0745  0.2038
   90MPD2    C4 1403   2.160   3.693   2.032  0.0836 -0.2104  0.3775
   90MPD2    C5 1404   2.175   3.585   2.106 -0.0337 -0.4001  0.5466
   90MPD2     H 1405   2.197   3.533   1.727  0.1537 -1.0040  0.0295
   90MPD2    H1 1406   2.139   3.790   2.075  0.0645 -1.4285  3.1130
   90MPD2    H2 1407   2.199   3.383   2.122 -2.1618 -0.2316  0.1253
   90MPD2    H3 1408   2.153   3.599   2.211 -1.5033 -1.2320  0.3487
   90MPD2     N 1409   2.168   3.790   1.798  0.1883 -0.4539  0.5775
   90MPD2    H5 1410   2.193   3.761   1.704  1.1106 -1.7006  1.2129
   90MPD2    N1 1411   2.228   3.317   1.851 -0.4051  0.1350 -0.3573
   90MPD2    H7 1412   2.236   3.313   1.750  0.2806 -0.4286 -0.2790
   91TMC2    C1 1413   4.139   2.584  16.472  0.4317 -0.0563 -0.1816
   91TMC2    C2 1414   4.194   2.639  16.360 -0.2221  0.2220  0.0679
   91TMC2    C3 1415   4.111   2.694  16.264  0.0791  0.1459 -0.6439
   91TMC2    C4 1416   3.999   2.592  16.489  0.2735 -0.5347 -0.3989
   91TMC2    C5 1417   3.921   2.639  16.388 -0.7539 -0.1653 -0.2821
   91TMC2    C6 1418   3.972   2.705  16.281 -0.1309  0.0154 -0.0154
   91TMC2     C 1419   4.213   2.503  16.564  0.7901 -1.0411 -0.2756
   91TMC2     O 1420   4.138   2.448  16.639  0.1188  0.2877  0.0403
   91TMC2     H 1421   4.301   2.643  16.344 -0.3544  1.0155 -0.6072
   91TMC2    H1 1422   3.949   2.561  16.580  0.8689 -3.2009 -0.9799
   91TMC2    H2 1423   3.913   2.762  16.210  1.7603  1.0327 -0.7884
   91TMC2    C7 1424   3.793   2.575  16.373  0.4322 -0.0482 -0.3451
   91TMC2    C8 1425   4.168   2.743  16.138  0.4202  1.0929  0.0214
   91TMC2    O1 1426   3.776   2.490  16.455 -0.1666 -0.0221 -0.2745
   91TMC2    O2 1427   4.288   2.743  16.125 -0.5248 -0.0242 -0.0274
   91TMC2    O5 1428   4.087   2.707  16.033  0.1110  0.3685  0.1865
   91TMC2    H5 1429   3.992   2.686  16.047 -0.2257 -0.6125 -3.6042
   92MPD2     C 1430   4.378   2.324  16.723  0.4400  0.4411  0.2112
   92MPD2    C1 1431   4.427   2.414  16.628  0.2335  0.8250  0.3166
   92MPD2    C2 1432   4.566   2.428  16.614 -0.7000 -0.2194  0.1068
   92MPD2    C3 1433   4.649   2.343  16.686 -0.1542 -0.4195  0.2587
   92MPD2    C4 1434   4.599   2.258  16.784 -0.0336 -0.4361 -0.4290
   92MPD2    C5 1435   4.465   2.257  16.809  0.2293  0.0674  0.0089
   92MPD2     H 1436   4.606   2.492  16.536  0.0128 -2.1864 -1.1492
   92MPD2    H1 1437   4.667   2.201  16.847 -1.6632 -4.3681 -2.2347
   92MPD2    H2 1438   4.276   2.314  16.760  0.9438  1.6139  1.9169
   92MPD2    H3 1439   4.423   2.202  16.892  0.6005  0.2080  0.2885
   92MPD2     N 1440   0.043   2.351  16.657 -0.7276  0.3054 -1.1558
   92MPD2    H5 1441   0.071   2.422  16.590 -2.7651 -0.6805 -3.0528
   92MPD2    N1 1442   4.347   2.493  16.545  0.6660 -0.0753 -0.6417
   92MPD2    H7 1443   4.387   2.559  16.479  0.5940  2.1564  1.5543
   93TMC2    C1 1444   1.570   2.699  14.046 -0.8587  0.0489 -0.7261
   93TMC2    C2 1445   1.514   2.670  14.169  0.7442 -0.2300 -0.4046
   93TMC2    C3 1446   1.551   2.744  14.278  0.0004 -0.4857 -0.4166
   93TMC2    C4 1447   1.660   2.797  14.035 -0.0487  0.1816 -0.0813
   93TMC2    C5 1448   1.690   2.873  14.148 -0.0677  0.3090 -0.0465
   93TMC2    C6 1449   1.641   2.849  14.272 -0.1776  0.2539 -0.7359
   93TMC2     C 1450   1.513   2.640  13.934  0.1267 -0.3324  0.5661
   93TMC2     O 1451   1.584   2.644  13.835 -0.3519 -0.1931 -0.4766
   93TMC2     H 1452   1.431   2.601  14.181  1.3083 -0.7254  0.6358
   93TMC2    H1 1453   1.705   2.826  13.941 -0.4676 -1.9887 -0.9518
   93TMC2    H2 1454   1.685   2.897  14.359 -0.7774  0.9322 -0.7997
   93TMC2    C7 1455   1.815   2.952  14.141 -0.6697 -0.5793  0.1671
   93TMC2    C8 1456   1.443   2.745  14.377  0.4542 -0.5415 -0.4537
   93TMC2    O1 1457   1.878   2.939  14.035 -0.0260  0.5220  0.2210
   93TMC2    O2 1458   1.327   2.718  14.344 -0.2050 -0.3300  0.2621
   93TMC2    O5 1459   1.477   2.831  14.477 -0.4103  0.4881 -0.2422
   93TMC2    H5 1460   1.574   2.821  14.494 -0.4152 -1.4612 -1.3000
   94MPD2     C 1461   1.341   2.542  13.709  0.3921 -0.3140  0.4419
   94MPD2    C1 1462   1.294   2.562  13.835 -0.2541 -0.0139 -0.2113
   94MPD2    C2 1463   1.162   2.544  13.871  0.7117 -0.4938 -0.2091
   94MPD2    C3 1464   1.064   2.510  13.781  0.1825  0.0740  0.1815
   94MPD2    C4 1465   1.108   2.478  13.656 -0.7583  0.6744 -0.0034
   94MPD2    C5 1466   1.239   2.496  13.624  0.8596  0.0862  0.2451
   94MPD2     H 1467   1.133   2.570  13.972 -0.4088  0.4084 -0.7689
   94MPD2    H1 1468   1.033   2.455  13.581 -1.5835  1.9668  0.4143
   94MPD2    H2 1469   1.443   2.545  13.673  0.8894  0.0979  1.9096
   94MPD2    H3 1470   1.275   2.461  13.528 -0.3361 -0.0501 -0.1478
   94MPD2     N 1471   0.924   2.507  13.805 -0.2361  0.0542  0.0841
   94MPD2    H5 1472   0.861   2.474  13.732 -1.6616  0.7569  0.9963
   94MPD2    N1 1473   1.378   2.615  13.941 -0.2620 -0.1335 -0.3929
   94MPD2    H7 1474   1.329   2.644  14.025 -1.1121 -2.8153  0.0473
   95TMC2    C1 1475   1.170   4.446  15.629  0.4233  0.3352  0.0802
   95TMC2    C2 1476   1.166   4.309  15.616 -0.7483  0.8381 -0.1063
   95TMC2    C3 1477   1.051   4.240  15.637 -0.1579 -0.2660  0.5738
   95TMC2    C4 1478   1.057   4.509  15.678  0.2066  0.2848  0.6878
   95TMC2    C5 1479   0.946   4.436  15.711 -0.2749  0.3559 -0.4094
   95TMC2    C6 1480   0.936   4.303  15.682  0.9241  0.5799  0.0385
   95TMC2     C 1481   1.291   4.518  15.603  0.6245  0.1593  0.1575
   95TMC2     O 1482   1.389   4.451  15.579  0.2043  0.0815  0.9345
   95TMC2     H 1483   1.249   4.256  15.570 -1.4247  0.1770 -0.5532
   95TMC2    H1 1484   1.067   4.616  15.696 -0.4234  0.8777 -2.5908
   95TMC2    H2 1485   0.853   4.237  15.706  0.0211  1.0655 -1.7474
   95TMC2    C7 1486   0.847   4.497  15.804 -0.4656  0.4879  0.0543
   95TMC2    C8 1487   1.061   4.098  15.621 -0.2515 -0.0860 -0.0596
   95TMC2    O1 1488   0.831   4.620  15.802  0.2432  0.1878 -0.1784
   95TMC2    O2 1489   1.166   4.040  15.590 -0.3818 -0.6024 -0.6945
   95TMC2    O5 1490   0.948   4.038  15.647 -0.1590  0.2420 -0.0091
   95TMC2    H5 1491   0.939   3.942  15.626 -0.3195  0.6773 -1.8989
   96MPD2     C 1492   1.544   0.220  15.533 -0.1327  0.1148 -0.8945
   96MPD2    C1 1493   1.577   0.092  15.493  0.7672 -0.7301 -0.0229
   96MPD2    C2 1494   1.498   4.727  15.539  0.1667  0.2810  0.0385
   96MPD2    C3 1495   1.379   0.017  15.601 -0.2747 -0.1619 -0.0593
   96MPD2    C4 1496   1.343   0.145  15.640 -0.0679 -0.4289 -0.9841
   96MPD2    C5 1497   1.428   0.251  15.607  0.2197  0.1233 -0.0799
   96MPD2     H 1498   1.519   4.623  15.517 -2.4913 -0.1617 -0.4199
   96MPD2    H1 1499   1.251   0.171  15.693  1.3842  1.2840  0.7289
   96MPD2    H2 1500   1.601   0.301  15.491  0.5236 -1.4246 -2.9899
   96MPD2    H3 1501   1.402   0.351  15.639  1.4662 -0.1751  1.8464
   96MPD2     N 1502   1.279   4.657  15.622 -0.8919  0.4510  0.1956
   96MPD2    H5 1503   1.183   4.683  15.643 -0.3579  2.4785  0.1226
   96MPD2    N1 1504   1.692   0.080  15.408  0.4964 -0.6997 -0.2827
   96MPD2    H7 1505   1.751   0.161  15.393  1.3737 -1.0746  1.1917
   97TMC2    C1 1506   3.446   2.309  17.621  0.9742 -0.6380  0.3409
   97TMC2    C2 1507   3.393   2.253  17.501  0.3970  0.3300  0.6854
   97TMC2    C3 1508   3.377   2.339  17.387  0.2762  0.7179  0.2148
   97TMC2    C4 1509   3.485   2.438  17.630  0.2635 -0.1651 -0.5259
   97TMC2    C5 1510   3.454   2.523  17.523 -0.0360  0.7460 -0.2349
   97TMC2    C6 1511   3.403   2.476  17.400  0.4735  0.0129  0.4830
   97TMC2     C 1512   3.428   2.229  17.745  0.6231 -0.3659  0.1827
   97TMC2     O 1513   3.374   2.119  17.732 -0.6032 -0.1477  0.5931
   97TMC2     H 1514   3.355   2.152  17.494  1.1917  0.1707 -1.4868
   97TMC2    H1 1515   3.532   2.483  17.717  0.3754 -1.4284  0.0566
   97TMC2    H2 1516   3.367   2.543  17.323  2.6035 -2.1624 -2.4146
   97TMC2    C7 1517   3.473   2.660  17.546  0.0488  0.0405  0.8054
   97TMC2    C8 1518   3.306   2.304  17.271  0.5041  1.1763 -0.4831
   97TMC2    O1 1519   3.475   2.697  17.662 -0.2011 -0.2365  0.1146
   97TMC2    O2 1520   3.303   2.373  17.170  0.6561  0.3015 -0.4532
   97TMC2    O5 1521   3.202   2.248  17.324  0.1659 -0.8630  0.6815
   97TMC2    H5 1522   3.192   2.223  17.418  0.2111 -1.1313  0.6146
   98MPD2     C 1523   3.440   2.184   0.509 -0.1417  0.3660 -0.1418
   98MPD2    C1 1524   3.361   2.125   0.412 -0.4571 -0.1403  0.4885
   98MPD2    C2 1525   3.378   2.149   0.282  0.1047  0.0564  0.0679
   98MPD2    C3 1526   3.477   2.236   0.238  0.3221  0.0680 -0.2411
   98MPD2    C4 1527   3.550   2.297   0.332  0.9813  0.1668 -0.2305
   98MPD2    C5 1528   3.536   2.273   0.464  0.1396 -0.6512 -0.7378
   98MPD2     H 1529   3.310   2.108   0.209 -2.2970  1.7264  1.3871
   98MPD2    H1 1530   3.625   2.369   0.301  1.4779 -0.0502  0.4894
   98MPD2    H2 1531   3.422   2.194   0.615  1.1139  3.6510 -0.2594
   98MPD2    H3 1532   3.589   2.334   0.536  0.0961 -0.3688 -0.9449
   98MPD2     N 1533   3.500   2.273   0.102  0.8123 -0.2096 -1.1637
   98MPD2    H5 1534   3.564   2.350   0.085  0.5477  0.0544 -0.9661
   98MPD2    N1 1535   3.251   2.059   0.459 -0.7006 -0.3185 -1.3172
   98MPD2    H7 1536   3.228   2.057   0.558  0.9217 -0.9805 -0.9471
   99TMC2    C1 1537   1.929   4.541   1.437  0.1251 -0.0137  0.4740
   99TMC2    C2 1538   1.938   4.667   1.494  0.3921 -0.0925  0.4023
   99TMC2    C3 1539   1.828   4.712   1.559 -0.4439  0.6292  0.4882
   99TMC2    C4 1540   1.823   4.462   1.474  0.7879  0.2507  0.2313
   99TMC2    C5 1541   1.715   4.518   1.538  0.8545  0.4484 -0.2242
   99TMC2    C6 1542   1.718   4.645   1.594  0.0805 -0.2859  0.2260
   99TMC2     C 1543   2.048   4.486   1.371 -0.3672  0.2012 -0.1894
   99TMC2     O 1544   2.144   4.550   1.400  0.1267 -0.3126 -0.7351
   99TMC2     H 1545   2.009   4.738   1.453 -0.7560  0.7150 -0.2072
   99TMC2    H1 1546   1.822   4.362   1.431  2.2847  1.0229 -1.5860
   99TMC2    H2 1547   1.629   4.686   1.640  0.2933 -0.8216  1.1333
   99TMC2    C7 1548   1.586   4.446   1.561  0.0891 -0.1933  0.0844
   99TMC2    C8 1549   1.825   0.116   1.571  0.5485 -0.3073  0.1007
   99TMC2    O1 1550   1.511   4.499   1.643 -0.1248 -0.0191 -0.1943
   99TMC2    O2 1551   1.839   0.181   1.466  0.1673  0.1396 -0.2667
   99TMC2    O5 1552   1.742   0.148   1.673  0.2844 -0.1300 -0.5430
   99TMC2    H5 1553   1.742   0.076   1.739 -0.9774  0.6327  0.2775
  100MPD2     C 1554   2.247   4.401   1.182 -0.6957 -0.1826 -0.3772
  100MPD2    C1 1555   2.113   4.365   1.175 -0.2448 -0.7571  0.7867
  100MPD2    C2 1556   2.075   4.298   1.062  0.2455 -0.8027  0.3427
  100MPD2    C3 1557   2.157   4.287   0.954  0.8736  0.0802 -0.4677
  100MPD2    C4 1558   2.291   4.332   0.959  0.2784 -1.1095  0.2081
  100MPD2    C5 1559   2.337   4.387   1.076  0.1154 -0.3687 -0.1143
  100MPD2     H 1560   1.971   4.266   1.056  0.2213 -0.0832 -2.7280
  100MPD2    H1 1561   2.362   4.311   0.880 -0.7956 -1.8041 -0.5660
  100MPD2    H2 1562   2.295   4.432   1.275 -2.6766 -0.7400  0.8287
  100MPD2    H3 1563   2.443   4.408   1.091  0.0187  0.9726 -1.3262
  100MPD2     N 1564   2.111   4.215   0.843 -0.0897 -0.8773 -0.1082
  100MPD2    H5 1565   2.020   4.173   0.859 -0.0268 -0.9450  0.0650
  100MPD2    N1 1566   2.022   4.396   1.273  0.4132  0.1721  0.5517
  100MPD2    H7 1567   1.927   4.366   1.255  0.9012 -0.9192 -0.1765
  101TMC2    C1 1568   3.274   0.978  12.771 -0.7895  0.4328  0.4498
  101TMC2    C2 1569   3.271   1.079  12.860  0.2738 -0.3479  0.3445
  101TMC2    C3 1570   3.311   1.199  12.816 -0.3411  0.1837 -0.2229
  101TMC2    C4 1571   3.332   0.986  12.648 -0.8458  0.8348  0.1342
  101TMC2    C5 1572   3.380   1.110  12.616  0.0564 -0.6529  0.0731
  101TMC2    C6 1573   3.362   1.221  12.690 -0.2808 -0.5374  0.1012
  101TMC2     C 1574   3.222   0.842  12.815 -0.1065 -0.1472 -0.1001
  101TMC2     O 1575   3.166   0.835  12.928  0.3003 -0.2631 -0.6503
  101TMC2     H 1576   3.255   1.056  12.965 -1.1258  2.7755  0.8256
  101TMC2    H1 1577   3.338   0.906  12.575 -0.0576  0.7583  0.2761
  101TMC2    H2 1578   3.405   1.313  12.653  1.1067 -0.6680  1.4227
  101TMC2    C7 1579   3.458   1.112  12.495  0.2980  0.1566 -0.3934
  101TMC2    C8 1580   3.321   1.312  12.913  0.5221 -0.1705  1.1248
  101TMC2    O1 1581   3.525   1.009  12.476  0.5741  0.6219  0.2492
  101TMC2    O2 1582   3.378   1.417  12.893 -0.0356 -0.2941 -0.1332
  101TMC2    O5 1583   3.198   1.317  12.970  0.6888 -0.8784 -0.0728
  101TMC2    H5 1584   3.141   1.237  12.961 -0.5778 -0.0193  0.3948
  102MPD2     C 1585   3.221   0.523  12.636 -0.2005  0.0660 -0.1845
  102MPD2    C1 1586   3.204   0.605  12.746 -0.6755  1.3144  0.4306
  102MPD2    C2 1587   3.135   0.563  12.857 -0.1991 -0.4010  0.1243
  102MPD2    C3 1588   3.107   0.428  12.869  0.2511  0.5043  0.0190
  102MPD2    C4 1589   3.117   0.347  12.761 -0.3180  0.0719 -0.1288
  102MPD2    C5 1590   3.182   0.392  12.652 -0.2178 -0.2999  0.1911
  102MPD2     H 1591   3.116   0.623  12.945  2.4458 -0.7275  0.8986
  102MPD2    H1 1592   3.086   0.243  12.766  2.3509 -0.5284  4.0596
  102MPD2    H2 1593   3.284   0.559  12.556 -0.4226 -1.2008 -0.9282
  102MPD2    H3 1594   3.192   0.315  12.577 -0.5737  0.6050 -0.7959
  102MPD2     N 1595   3.067   0.384  12.993  0.1551 -0.9653  0.2751
  102MPD2    H5 1596   3.069   0.441  13.077  1.1518  1.4624 -1.3985
  102MPD2    N1 1597   3.243   0.741  12.722 -0.8023 -0.4075 -0.3729
  102MPD2    H7 1598   3.301   0.760  12.641 -0.4128 -1.7605 -0.4058
  103TMC2    C1 1599   1.065   1.199  13.038  0.9180  0.5725  0.2020
  103TMC2    C2 1600   1.163   1.262  13.119  0.6121 -0.8114 -0.0479
  103TMC2    C3 1601   1.131   1.282  13.251 -0.0398  0.5373  0.0085
  103TMC2    C4 1602   0.945   1.151  13.084 -0.3003 -0.2508 -0.4094
  103TMC2    C5 1603   0.925   1.167  13.220  1.0477  0.6665 -1.0408
  103TMC2    C6 1604   1.019   1.227  13.303  0.2008 -0.2720  0.1482
  103TMC2     C 1605   1.092   1.171  12.898  0.2428 -0.6318  0.1785
  103TMC2     O 1606   0.995   1.173  12.823 -0.1151 -0.5761 -0.0561
  103TMC2     H 1607   1.254   1.304  13.077 -0.7629  2.1741 -0.0402
  103TMC2    H1 1608   0.873   1.113  13.012 -3.2172  0.5669  2.0906
  103TMC2    H2 1609   1.000   1.237  13.409  0.5329  0.4578  0.1370
  103TMC2    C7 1610   0.817   1.094  13.294  0.4020 -0.0639 -0.0999
  103TMC2    C8 1611   1.230   1.330  13.341  0.6441 -0.0837  0.3588
  103TMC2    O1 1612   0.820   1.108  13.415 -0.1189 -0.1466  0.5166
  103TMC2    O2 1613   1.231   1.298  13.457  0.4848 -0.6121 -1.0451
  103TMC2    O5 1614   1.308   1.423  13.279 -0.0373 -0.0484  0.1504
  103TMC2    H5 1615   1.272   1.449  13.192  0.3174  0.0043  0.0210
  104MPD2     C 1616   1.332   0.912  12.777  0.3024  0.2415  0.2587
  104MPD2    C1 1617   1.231   1.002  12.770 -0.6440 -0.1583 -0.1888
  104MPD2    C2 1618   1.160   1.002  12.643  0.5378  0.2209  0.0764
  104MPD2    C3 1619   1.191   0.901  12.545 -1.2005  0.3185 -0.0708
  104MPD2    C4 1620   1.276   0.797  12.572  0.3881 -0.2019  0.1697
  104MPD2    C5 1621   1.355   0.812  12.688  0.0161 -0.6228 -0.1463
  104MPD2     H 1622   1.093   1.086  12.627  2.9591  1.9068 -1.2660
  104MPD2    H1 1623   1.303   0.720  12.500  0.2207  1.0565 -1.2366
  104MPD2    H2 1624   1.380   0.910  12.874  0.7294  2.8866  0.0876
  104MPD2    H3 1625   1.428   0.736  12.712  0.9790  0.0071 -1.0788
  104MPD2     N 1626   1.114   0.907  12.425  0.2018  0.3112 -0.7699
  104MPD2    H5 1627   1.062   0.992  12.406 -0.4244  0.3229  0.9931
  104MPD2    N1 1628   1.203   1.084  12.879  0.1509  0.0905 -0.6485
  104MPD2    H7 1629   1.260   1.077  12.962 -0.6705  0.4392 -0.0497
  105TMC2    C1 1630   1.808   4.339  17.491  0.3505 -0.8530  0.0606
  105TMC2    C2 1631   1.829   4.473  17.491 -0.7328  0.2132 -0.6208
  105TMC2    C3 1632   1.799   4.532  17.610  0.5718 -0.7504  0.1833
  105TMC2    C4 1633   1.743   4.270  17.593  0.1696  0.5221 -0.4922
  105TMC2    C5 1634   1.717   4.335  17.706  0.9152  0.1410  0.2370
  105TMC2    C6 1635   1.761   4.467  17.725 -0.2025 -0.7707 -0.0891
  105TMC2     C 1636   1.847   4.261  17.374  0.0632 -0.6847 -0.1691
  105TMC2     O 1637   1.805   4.148  17.366  0.0720  0.6134  0.0994
  105TMC2     H 1638   1.883   4.532  17.418 -1.9989  1.4378 -0.5805
  105TMC2    H1 1639   1.738   4.162  17.584  0.9576  0.4765 -0.3859
  105TMC2    H2 1640   1.742   4.522   0.062  1.2089 -0.8081  0.2232
  105TMC2    C7 1641   1.644   4.267   0.054  0.3815 -0.2204 -0.4721
  105TMC2    C8 1642   1.809   4.674  17.616 -0.6923 -0.9217 -0.0580
  105TMC2    O1 1643   1.625   4.147   0.028  0.5099 -0.1039  0.1832
  105TMC2    O2 1644   1.894   4.715  17.697 -0.8026 -0.1296 -0.6116
  105TMC2    O5 1645   1.673   4.695  17.629 -0.2099 -0.4346  0.2346
  105TMC2    H5 1646   1.623   4.627  17.579  1.7615 -0.7935 -1.2401
  106MPD2     C 1647   2.209   4.176  17.011 -0.4980 -0.0634 -0.4910
  106MPD2    C1 1648   2.227   4.303  17.060  0.2222  0.2237 -0.0352
  106MPD2    C2 1649   2.137   4.352  17.153 -0.8266 -0.6464 -0.6687
  106MPD2    C3 1650   2.034   4.269  17.201  0.5512  0.7811 -0.2752
  106MPD2    C4 1651   2.016   4.147  17.143  0.1856 -0.5343 -0.2753
  106MPD2    C5 1652   2.098   4.108  17.042  0.2246 -0.3654  0.0821
  106MPD2     H 1653   2.149   4.452  17.192  2.0493 -1.2499 -0.0167
  106MPD2    H1 1654   1.936   4.079  17.169 -0.5979  0.2466 -0.6518
  106MPD2    H2 1655   2.250   4.137  16.919  1.1771  2.6869 -0.9137
  106MPD2    H3 1656   2.085   4.012  16.994 -0.2154 -1.1404  1.7724
  106MPD2     N 1657   1.954   4.322  17.305 -0.2687 -0.4066  0.4709
  106MPD2    H5 1658   1.983   4.412  17.342  0.8640 -0.6546  0.1893
  106MPD2    N1 1659   2.334   4.378  17.026  0.6324 -0.2200  0.6651
  106MPD2    H7 1660   2.337   4.472  17.065 -0.7501  0.3095 -0.5505
  107TMC2    C1 1661   3.320   4.281  11.906 -0.5036  0.1392  0.0484
  107TMC2    C2 1662   3.251   4.387  11.846 -0.5271 -0.4806  0.0403
  107TMC2    C3 1663   3.246   4.385  11.705  0.5475  0.2991 -0.7756
  107TMC2    C4 1664   3.383   4.185  11.833  0.2391  0.6479  0.8009
  107TMC2    C5 1665   3.361   4.183  11.696  0.2526 -0.0383 -0.1137
  107TMC2    C6 1666   3.299   4.286  11.633 -0.9258 -0.0798  0.4620
  107TMC2     C 1667   3.320   4.283  12.049 -0.0456  0.2467 -0.0913
  107TMC2     O 1668   3.247   4.370  12.102 -0.6792 -0.3934 -0.0856
  107TMC2     H 1669   3.199   4.456  11.912 -0.2445 -2.6473  2.5222
  107TMC2    H1 1670   3.426   4.102  11.888  2.2550  0.3943 -1.1516
  107TMC2    H2 1671   3.287   4.294  11.525 -0.8807  3.3736  0.7204
  107TMC2    C7 1672   3.432   4.075  11.619 -0.2487 -0.2525  0.2165
  107TMC2    C8 1673   3.156   4.466  11.641 -0.1255  0.3281  0.4834
  107TMC2    O1 1674   3.506   4.000  11.676 -0.1062 -0.5174  0.2170
  107TMC2    O2 1675   3.090   4.431  11.541  0.0722 -0.5133  0.1110
  107TMC2    O5 1676   3.154   4.589  11.699  0.2763  0.0743  0.1180
  107TMC2    H5 1677   3.235   4.618  11.746 -0.8067  0.8015  1.5205
  108MPD2     C 1678   3.541   4.122  12.301  1.1722  0.1431 -0.3128
  108MPD2    C1 1679   3.422   4.173  12.250  0.8465 -0.5109 -0.0884
  108MPD2    C2 1680   3.316   4.199  12.337 -0.7316 -0.2764 -0.5810
  108MPD2    C3 1681   3.323   4.181  12.476  0.7456 -0.3579 -0.4508
  108MPD2    C4 1682   3.448   4.139  12.529 -0.1029 -0.0681  0.0400
  108MPD2    C5 1683   3.550   4.114  12.439 -0.3514  0.5882 -0.0535
  108MPD2     H 1684   3.223   4.239  12.297 -1.6367 -2.0752 -0.2858
  108MPD2    H1 1685   3.470   4.129  12.635 -1.3635  3.2361  0.5930
  108MPD2    H2 1686   3.623   4.094  12.237  0.3465  0.8675 -1.6877
  108MPD2    H3 1687   3.642   4.079  12.485  0.4705 -2.1578 -3.7390
  108MPD2     N 1688   3.214   4.186  12.564 -0.2998 -0.6887 -0.1698
  108MPD2    H5 1689   3.238   4.163  12.660 -2.6161 -0.7440  0.3967
  108MPD2    N1 1690   3.416   4.202  12.110  0.2297  0.0332  0.1505
  108MPD2    H7 1691   3.502   4.180  12.060  2.8063  3.0583  3.1769
  109TMC2    C1 1692   2.597   0.831   0.648 -0.6736  0.3463 -0.5287
  109TMC2    C2 1693   2.561   0.757   0.535  0.6300 -0.1484  0.6890
  109TMC2    C3 1694   2.588   0.818   0.413 -0.0221 -0.1568  0.2617
  109TMC2    C4 1695   2.643   0.964   0.638 -0.1936 -0.3951  0.9834
  109TMC2    C5 1696   2.634   1.023   0.515  0.4669  0.4110 -0.0480
  109TMC2    C6 1697   2.617   0.951   0.401  1.1143  0.3566 -0.2292
  109TMC2     C 1698   2.560   0.776   0.779 -0.8666 -0.1938  0.4729
  109TMC2     O 1699   2.495   0.672   0.781  0.0676 -0.8906 -0.4060
  109TMC2     H 1700   2.524   0.655   0.540 -0.9100  0.4149  0.7856
  109TMC2    H1 1701   2.652   1.027   0.725 -0.5698  3.1808 -1.5644
  109TMC2    H2 1702   2.612   0.990   0.300 -0.2248  0.8518  0.0256
  109TMC2    C7 1703   2.630   1.166   0.509 -0.0883  0.0909  0.2390
  109TMC2    C8 1704   2.553   0.739   0.295 -0.3688 -1.6958 -0.0641
  109TMC2    O1 1705   2.680   1.228   0.602  0.7747  0.2135  0.2144
  109TMC2    O2 1706   2.494   0.631   0.300  0.2613 -0.0163 -0.3710
  109TMC2    O5 1707   2.633   0.783   0.205 -0.2800 -0.3908  0.1150
  109TMC2    H5 1708   2.704   0.839   0.244  0.8935 -0.8258 -1.3956
  110MPD2     C 1709   2.550   0.761   1.294 -0.6401 -0.0097 -0.1062
  110MPD2    C1 1710   2.667   0.822   1.252 -0.1029  0.1505 -0.4920
  110MPD2    C2 1711   2.684   0.851   1.122 -0.4691 -0.3667 -0.0361
  110MPD2    C3 1712   2.594   0.806   1.027 -0.1535  0.0110 -0.7873
  110MPD2    C4 1713   2.481   0.734   1.063 -0.4562  0.2845  0.4587
  110MPD2    C5 1714   2.456   0.726   1.200 -0.4621 -0.6084  0.2318
  110MPD2     H 1715   2.777   0.894   1.085 -0.1146  0.2642  1.5478
  110MPD2    H1 1716   2.408   0.705   0.988  0.3029 -1.3945  0.3676
  110MPD2    H2 1717   2.533   0.750   1.400  2.4118 -2.0856  0.1422
  110MPD2    H3 1718   2.370   0.677   1.242 -1.1115  0.5538  0.2606
  110MPD2     N 1719   2.625   0.835   0.888  0.1358  0.2116  0.3266
  110MPD2    H5 1720   2.699   0.901   0.864  0.8503  0.9372  4.6303
  110MPD2    N1 1721   2.763   0.847   1.355 -0.4728  0.1367  0.0684
  110MPD2    H7 1722   2.728   0.827   1.448  0.5070 -1.0894  0.1712
  111TMC2    C1 1723   4.017   1.086  11.136 -0.1172 -0.1385 -0.4253
  111TMC2    C2 1724   4.084   1.101  11.015  0.4508 -0.6598  0.2491
  111TMC2    C3 1725   4.215   1.103  11.022  0.2978  0.5476  0.0076
  111TMC2    C4 1726   4.077   1.071  11.255 -0.5356  0.2822 -0.3201
  111TMC2    C5 1727   4.208   1.094  11.261 -0.2250 -0.2958 -0.3881
  111TMC2    C6 1728   4.276   1.104  11.139 -0.9319  0.4239 -0.2589
  111TMC2     C 1729   3.874   1.103  11.131 -0.1151  0.2804 -0.7774
  111TMC2     O 1730   3.816   1.081  11.029  0.2336  0.2649  0.0920
  111TMC2     H 1731   4.025   1.107  10.925  2.1633 -3.0504 -1.0244
  111TMC2    H1 1732   4.034   1.051  11.352  1.7527  1.9046  1.0380
  111TMC2    H2 1733   4.383   1.089  11.136 -0.5054  3.8064 -2.0692
  111TMC2    C7 1734   4.274   1.084  11.387 -0.4355  0.2634  0.0161
  111TMC2    C8 1735   4.293   1.145  10.907  0.3184 -0.0732  0.4692
  111TMC2    O1 1736   4.216   1.024  11.478 -0.3207  0.0272  0.4010
  111TMC2    O2 1737   4.394   1.206  10.924  0.3055 -0.1122  0.1237
  111TMC2    O5 1738   4.272   1.047  10.812 -0.0052 -0.0562  0.0972
  111TMC2    H5 1739   4.201   0.981  10.830 -2.0396  1.9582 -0.5183
  112MPD2     C 1740   3.417   1.115  11.372  0.0186  0.1378  0.1708
  112MPD2    C1 1741   3.450   1.129  11.238 -0.8459  0.0097  0.7711
  112MPD2    C2 1742   3.583   1.128  11.197  0.1452 -0.1228 -0.5152
  112MPD2    C3 1743   3.686   1.110  11.289 -0.0072  1.0501  0.2647
  112MPD2    C4 1744   3.650   1.096  11.422 -0.0927  0.3166 -0.1015
  112MPD2    C5 1745   3.526   1.102  11.463  0.0963  0.8159 -1.1746
  112MPD2     H 1746   3.606   1.143  11.092  0.8696 -1.6044 -0.5709
  112MPD2    H1 1747   3.721   1.107  11.504  1.8267  3.4319 -2.1793
  112MPD2    H2 1748   3.322   1.135  11.420 -1.4192  2.7389 -3.7805
  112MPD2    H3 1749   3.505   1.103  11.569 -0.5687  0.6257 -1.3014
  112MPD2     N 1750   3.822   1.113  11.258 -0.0013  0.1068 -0.3060
  112MPD2    H5 1751   3.886   1.142  11.331  1.9007  1.2454 -2.4433
  112MPD2    N1 1752   3.347   1.150  11.143  0.3602  0.1975 -0.2260
  112MPD2    H7 1753   3.369   1.145  11.044  1.1791  0.8517 -0.0695
  113TMC2    C1 1754   0.789   3.581   0.295  0.4151  0.2378 -0.4095
  113TMC2    C2 1755   0.765   3.622   0.170  0.1500  0.7142  0.2654
  113TMC2    C3 1756   0.698   3.543   0.084 -0.5817 -0.5103 -0.7519
  113TMC2    C4 1757   0.750   3.460   0.341 -0.2250  0.1823  0.3915
  113TMC2    C5 1758   0.688   3.384   0.257  0.2183  0.0570 -0.2132
  113TMC2    C6 1759   0.658   3.418   0.126  0.0568 -0.1193  0.4612
  113TMC2     C 1760   0.894   3.656   0.354  0.2834  0.1086 -0.1740
  113TMC2     O 1761   0.923   3.764   0.302 -0.6051 -0.8081 -0.3459
  113TMC2     H 1762   0.783   3.726   0.148  1.5811  0.7233  1.4667
  113TMC2    H1 1763   0.777   3.417   0.437  1.3927  1.3454  0.4603
  113TMC2    H2 1764   0.607   3.344   0.066 -0.2923  1.9871 -1.8293
  113TMC2    C7 1765   0.640   3.251   0.294 -0.6771 -0.7796 -0.1367
  113TMC2    C8 1766   0.619   3.607  17.741 -0.0010 -1.1975  0.0320
  113TMC2    O1 1767   0.640   3.169   0.206  0.0280 -0.2096 -0.5376
  113TMC2    O2 1768   0.587   3.724  17.753  0.3058 -0.1916 -0.0416
  113TMC2    O5 1769   0.611   3.532  17.628  0.3310 -0.2470 -0.3164
  113TMC2    H5 1770   0.643   3.439  17.633 -0.6961 -0.4520  2.3439
  114MPD2     C 1771   1.252   3.724   0.711  0.5729 -0.1043 -0.5806
  114MPD2    C1 1772   1.161   3.812   0.663 -0.2464 -0.0356  0.3019
  114MPD2    C2 1773   1.072   3.768   0.561  0.8524 -0.0266 -0.1355
  114MPD2    C3 1774   1.058   3.633   0.539  0.1143  0.4860 -0.5015
  114MPD2    C4 1775   1.142   3.547   0.598 -0.4480  0.3344 -0.3500
  114MPD2    C5 1776   1.241   3.590   0.680  0.4019 -0.7267 -0.2631
  114MPD2     H 1777   1.007   3.839   0.511 -0.3356 -0.0600  1.3804
  114MPD2    H1 1778   1.136   3.440   0.582  0.9989  0.4437 -1.5756
  114MPD2    H2 1779   1.331   3.745   0.781 -0.2946 -1.2509  0.7478
  114MPD2    H3 1780   1.314   3.517   0.712  1.3229  1.0008  1.5651
  114MPD2     N 1781   0.961   3.584   0.454 -0.6400 -0.2099 -0.5151
  114MPD2    H5 1782   0.952   3.483   0.452 -2.4290 -0.1483  3.7756
  114MPD2    N1 1783   1.158   3.950   0.709 -0.1628  0.3937  0.4978
  114MPD2    H7 1784   1.092   4.015   0.667 -0.8693 -1.1729 -0.8515
  115TMC2    C1 1785   2.314   1.908   0.057 -0.4455 -0.0871  0.7543
  115TMC2    C2 1786   2.362   1.834   0.164  0.2203  0.0159  0.2757
  115TMC2    C3 1787   2.454   1.882   0.245  0.5908 -0.8225  1.3549
  115TMC2    C4 1788   2.363   2.033   0.026 -0.2343  0.2682 -0.9357
  115TMC2    C5 1789   2.458   2.076   0.114  0.5193  0.5736 -0.3752
  115TMC2    C6 1790   2.506   2.007   0.225  0.3969  0.1367  0.0462
  115TMC2     C 1791   2.236   1.834  17.714  0.2799 -1.3876 -0.0775
  115TMC2     O 1792   2.275   1.718  17.699  0.1038  0.7306 -0.1677
  115TMC2     H 1793   2.331   1.732   0.185 -1.2356  0.6359  1.1848
  115TMC2    H1 1794   2.328   2.089  17.695 -0.1546  1.9754  0.1504
  115TMC2    H2 1795   2.595   2.029   0.283  1.2108  0.4458 -1.3231
  115TMC2    C7 1796   2.528   2.209   0.097 -0.5147  0.2760 -0.1857
  115TMC2    C8 1797   2.489   1.815   0.368 -0.3294 -0.0564 -0.1554
  115TMC2    O1 1798   2.601   2.235   0.193 -0.0685 -0.0165  0.1817
  115TMC2    O2 1799   2.433   1.704   0.389 -0.0287  1.0230  0.2021
  115TMC2    O5 1800   2.489   1.909   0.468 -0.0213  0.0076 -0.1611
  115TMC2    H5 1801   2.501   1.999   0.431 -1.3682  0.2264 -0.0461
  116MPD2     C 1802   1.896   1.793  17.344 -1.0830  0.2198 -0.1534
  116MPD2    C1 1803   1.947   1.693  17.425 -0.6692  0.6052 -0.3579
  116MPD2    C2 1804   2.038   1.736  17.524  0.3999 -0.0933  0.8972
  116MPD2    C3 1805   2.078   1.867  17.531  0.1801  0.3293  0.5123
  116MPD2    C4 1806   2.033   1.964  17.445 -0.0090  0.8668  0.7346
  116MPD2    C5 1807   1.933   1.924  17.359 -0.5228  0.3284  0.4785
  116MPD2     H 1808   2.067   1.661  17.597  0.3148 -1.1599 -0.1737
  116MPD2    H1 1809   2.079   2.062  17.442  0.5303  0.6248  1.0803
  116MPD2    H2 1810   1.807   1.770  17.287 -0.8128 -0.8525 -0.1540
  116MPD2    H3 1811   1.882   1.995  17.295  1.1110 -1.6270 -3.0217
  116MPD2     N 1812   2.168   1.917  17.623  0.5658  0.2980  0.1128
  116MPD2    H5 1813   2.175   2.018  17.633  2.3892  0.1602  0.2703
  116MPD2    N1 1814   1.909   1.561  17.395  0.3031 -0.1032  0.1532
  116MPD2    H7 1815   1.844   1.553  17.317 -0.5048 -0.1314  0.8280
  117TMC2    C1 1816   0.484   3.060  14.026 -0.2750  0.4019 -0.7781
  117TMC2    C2 1817   0.534   2.936  14.081  0.0039 -0.1445 -0.6610
  117TMC2    C3 1818   0.659   2.950  14.140  0.4838  0.1921 -0.2144
  117TMC2    C4 1819   0.547   3.182  14.037  0.5233 -0.6546 -0.8534
  117TMC2    C5 1820   0.663   3.184  14.103  0.8737  0.1762  0.0977
  117TMC2    C6 1821   0.730   3.068  14.140  0.0339  0.9379 -0.2853
  117TMC2     C 1822   0.354   3.052  13.956 -0.1450  0.5884 -1.2201
  117TMC2     O 1823   0.316   2.946  13.911  0.0864 -0.1227 -0.6635
  117TMC2     H 1824   0.481   2.842  14.074 -0.2111  0.0694 -1.9190
  117TMC2    H1 1825   0.508   3.267  13.983  1.7130  0.5230  0.1225
  117TMC2    H2 1826   0.831   3.075  14.180  0.1777  0.1575 -0.4971
  117TMC2    C7 1827   0.737   3.311  14.079 -0.2950 -0.0403 -0.0891
  117TMC2    C8 1828   0.710   2.827  14.174 -0.3450  0.5442 -0.2405
  117TMC2    O1 1829   0.720   3.380  13.979  0.2034 -0.3750 -0.1987
  117TMC2    O2 1830   0.632   2.736  14.202 -0.2570  0.5068  0.5513
  117TMC2    O5 1831   0.840   2.821  14.185 -0.5141  0.0182 -0.1127
  117TMC2    H5 1832   0.885   2.904  14.159 -0.1882  0.2628  1.2353
  118MPD2     C 1833   0.902   3.481  14.359 -0.0494 -0.1977 -0.1380
  118MPD2    C1 1834   0.863   3.472  14.232  0.3817 -0.3333  0.3820
  118MPD2    C2 1835   0.903   3.556  14.131 -0.0342 -0.7908 -0.1959
  118MPD2    C3 1836   0.967   3.669  14.174  0.6679  0.6962  0.3213
  118MPD2    C4 1837   1.003   3.687  14.306 -0.7922  0.5292  0.9279
  118MPD2    C5 1838   0.972   3.596  14.398 -0.8918 -0.2880  0.1369
  118MPD2     H 1839   0.860   3.546  14.032  1.5150 -0.0170 -0.9437
  118MPD2    H1 1840   1.065   3.773  14.329 -3.4912  2.4187  1.0814
  118MPD2    H2 1841   0.883   3.409  14.437 -1.9506  1.1856  0.6795
  118MPD2    H3 1842   0.984   3.617  14.504 -0.3769 -3.3560  0.6901
  118MPD2     N 1843   0.990   3.768  14.077  0.0200  0.4190 -0.3755
  118MPD2    H5 1844   0.986   3.738  13.980 -2.4933 -1.7269  0.4144
  118MPD2    N1 1845   0.784   3.353  14.203  0.4026  0.4112  0.4072
  118MPD2    H7 1846   0.759   3.291  14.279 -3.2673 -2.0656 -2.8004
  119TMC2    C1 1847   3.785   0.380  12.920  0.1562  0.3961  0.1325
  119TMC2    C2 1848   3.759   0.461  12.817  0.2843 -0.3403 -0.3695
  119TMC2    C3 1849   3.642   0.442  12.748 -0.5414 -0.4604  0.3381
  119TMC2    C4 1850   3.685   0.296  12.967 -0.3439 -0.2335 -0.0933
  119TMC2    C5 1851   3.562   0.296  12.906  0.3071  0.8122  0.0320
  119TMC2    C6 1852   3.541   0.375  12.795  0.3846  0.1993 -0.6525
  119TMC2     C 1853   3.896   0.399  13.018  0.4161 -0.7172  0.0079
  119TMC2     O 1854   3.897   0.316  13.108 -0.4194  0.5649 -0.2339
  119TMC2     H 1855   3.824   0.545  12.793 -1.3203  0.8840 -0.4526
  119TMC2    H1 1856   3.705   0.230  13.051  1.1244 -1.5521 -1.4746
  119TMC2    H2 1857   3.455   0.369  12.730 -1.7678 -1.1612  2.2953
  119TMC2    C7 1858   3.460   0.207  12.949 -0.7241  0.1058 -0.1469
  119TMC2    C8 1859   3.608   0.552  12.663  0.3512 -0.7278  0.2712
  119TMC2    O1 1860   3.372   0.178  12.867 -0.1601 -0.3284  0.4279
  119TMC2    O2 1861   3.682   0.590  12.576  0.0585 -0.0584 -0.0655
  119TMC2    O5 1862   3.577   0.646  12.752 -0.0739 -0.3354  0.3996
  119TMC2    H5 1863   3.537   0.609  12.833 -1.2184  0.8187  0.3488
  120MPD2     C 1864   4.277   0.640  13.262  0.0806 -0.0210  0.2226
  120MPD2    C1 1865   4.194   0.539  13.301  0.0001  0.3809 -0.7904
  120MPD2    C2 1866   4.102   0.490  13.210  0.2592 -0.3307 -0.3434
  120MPD2    C3 1867   4.080   0.546  13.089  0.3534 -0.3305  0.2378
  120MPD2    C4 1868   4.150   0.659  13.056 -0.1322 -0.1986  0.3941
  120MPD2    C5 1869   4.258   0.697  13.135 -0.3028 -0.0136  0.0299
  120MPD2     H 1870   4.049   0.398  13.235 -1.1655  0.7757  0.6862
  120MPD2    H1 1871   4.135   0.701  12.957 -1.4137 -2.1865 -0.2508
  120MPD2    H2 1872   4.348   0.685  13.330  0.1487  1.1554 -0.6199
  120MPD2    H3 1873   4.327   0.778  13.115 -1.1455  0.5083 -0.7665
  120MPD2     N 1874   3.971   0.508  13.004  0.1784  0.1060  0.1328
  120MPD2    H5 1875   3.941   0.572  12.932  1.7372  0.1298 -0.4894
  120MPD2    N1 1876   4.204   0.479  13.431  0.2403  0.5519  0.1001
  120MPD2    H7 1877   4.285   0.487  13.491 -1.2469  1.4346  1.9660
  121TMC2    C1 1878   1.038   1.823  14.285  0.2262  0.6307  0.7685
  121TMC2    C2 1879   0.964   1.795  14.396 -0.0839 -0.2778 -0.1632
  121TMC2    C3 1880   0.839   1.853  14.395  0.1837 -0.3470  0.4732
  121TMC2    C4 1881   1.004   1.902  14.180  0.0023  0.1177  0.0260
  121TMC2    C5 1882   0.877   1.956  14.193  0.5192  0.4643 -0.1479
  121TMC2    C6 1883   0.790   1.919  14.290  0.0460  0.9298 -0.1403
  121TMC2     C 1884   1.169   1.766  14.266  0.0880  0.0320  0.3589
  121TMC2     O 1885   1.234   1.738  14.368 -0.5459 -0.1105 -0.5680
  121TMC2     H 1886   1.010   1.742  14.479 -0.7855 -2.5604 -1.2128
  121TMC2    H1 1887   1.070   1.939  14.102 -0.3980 -3.1741 -1.8577
  121TMC2    H2 1888   0.682   1.930  14.288  0.2930  2.9472 -2.8173
  121TMC2    C7 1889   0.830   2.010  14.066 -0.0372  0.7487  0.3002
  121TMC2    C8 1890   0.735   1.806  14.483 -0.1839 -0.4926 -0.2479
  121TMC2    O1 1891   0.900   2.001  13.964 -0.3459  0.6994 -0.4419
  121TMC2    O2 1892   0.614   1.791  14.458 -0.3886 -0.1815  0.9289
  121TMC2    O5 1893   0.795   1.758  14.595  0.3945  0.2895  0.1887
  121TMC2    H5 1894   0.884   1.798  14.609 -0.2541  1.2099  1.6904
  122MPD2     C 1895   1.434   1.663  14.170 -0.0161  0.4959  0.8956
  122MPD2    C1 1896   1.338   1.718  14.088  0.5423  0.4551  0.0027
  122MPD2    C2 1897   1.370   1.734  13.957  0.0972  0.6096  0.4506
  122MPD2    C3 1898   1.500   1.717  13.905  0.0807  0.2029 -0.1042
  122MPD2    C4 1899   1.596   1.665  13.993  0.0393 -0.0971 -0.3494
  122MPD2    C5 1900   1.565   1.637  14.125  0.4481  0.3722 -0.5316
  122MPD2     H 1901   1.288   1.755  13.890 -2.2796 -3.2536  2.1607
  122MPD2    H1 1902   1.701   1.671  13.967  0.5576 -1.8825  1.3356
  122MPD2    H2 1903   1.409   1.635  14.271 -0.8522 -2.0601 -0.0239
  122MPD2    H3 1904   1.649   1.604  14.183 -1.2962 -3.2636 -0.0962
  122MPD2     N 1905   1.542   1.748  13.773  0.5534  0.0394 -0.1878
  122MPD2    H5 1906   1.641   1.752  13.751  0.5654 -1.1372 -0.3487
  122MPD2    N1 1907   1.210   1.754  14.137  0.2284  0.4827  0.5669
  122MPD2    H7 1908   1.151   1.791  14.063 -0.4819 -0.0375  0.8679
  123TMC2    C1 1909   3.806   0.504  10.760 -0.3585 -0.4647 -0.3584
  123TMC2    C2 1910   3.843   0.607  10.847  0.2133  0.7110  0.7581
  123TMC2    C3 1911   3.916   0.712  10.793  0.0727 -0.1852  0.7658
  123TMC2    C4 1912   3.845   0.497  10.626  0.0728  0.2458  0.6431
  123TMC2    C5 1913   3.922   0.598  10.585  0.1338 -0.3331 -0.3689
  123TMC2    C6 1914   3.955   0.709  10.662  0.8076 -0.5326 -0.0581
  123TMC2     C 1915   3.729   0.403  10.826 -0.2674  0.2775 -0.7175
  123TMC2     O 1916   3.722   0.423  10.950 -0.5529  0.2472  0.0528
  123TMC2     H 1917   3.806   0.626  10.947 -0.6274 -0.2445  0.6369
  123TMC2    H1 1918   3.806   0.422  10.558 -0.0911  0.2490  0.7337
  123TMC2    H2 1919   4.025   0.785  10.629 -1.4587  1.6238  0.1325
  123TMC2    C7 1920   3.965   0.592  10.446  0.2154  0.4293 -0.4244
  123TMC2    C8 1921   3.982   0.806  10.880  0.3286  0.4941 -0.0275
  123TMC2    O1 1922   3.941   0.487  10.390  0.2094 -0.6138 -0.3202
  123TMC2    O2 1923   4.088   0.845  10.833  0.3508 -0.0035 -0.7133
  123TMC2    O5 1924   3.970   0.753  11.008  0.2600 -0.1599  0.3271
  123TMC2    H5 1925   3.878   0.763  11.041 -0.7017  0.2653 -2.5297
  124MPD2     C 1926   3.360   0.062  10.843  0.3313  0.0282 -0.0602
  124MPD2    C1 1927   3.410   0.061  10.717  0.7189 -0.3176 -0.1339
  124MPD2    C2 1928   3.518   0.136  10.691  0.5180  0.0522  0.5746
  124MPD2    C3 1929   3.576   0.213  10.787  0.1502 -0.7073  0.3415
  124MPD2    C4 1930   3.540   0.197  10.917 -0.2694  0.2847 -0.0820
  124MPD2    C5 1931   3.423   0.118  10.947 -0.1257  0.1723 -0.1479
  124MPD2     H 1932   3.573   0.128  10.597  0.4815 -1.0631  0.6523
  124MPD2    H1 1933   3.586   0.249  11.001  1.8631  0.0666 -1.1132
  124MPD2    H2 1934   3.264   0.016  10.866  0.7330 -1.6203 -1.6514
  124MPD2    H3 1935   3.401   0.101  11.052 -1.6066 -1.6802 -0.7644
  124MPD2     N 1936   3.672   0.306  10.748  0.0636 -0.1455  0.5143
  124MPD2    H5 1937   3.689   0.304  10.648  0.6778  0.1818  0.6123
  124MPD2    N1 1938   3.341   4.723  10.623 -0.0356 -1.1504  0.2641
  124MPD2    H7 1939   3.276   4.652  10.656  0.5952 -1.7919  0.1234
  125TMC2    C1 1940   4.495   1.578  10.876 -1.1003 -0.7385 -0.8058
  125TMC2    C2 1941   4.419   1.678  10.940 -0.6143  0.3280 -0.3480
  125TMC2    C3 1942   4.293   1.712  10.888 -0.6033  0.0376 -0.5904
  125TMC2    C4 1943   4.447   1.518  10.759  0.2417 -0.5612 -0.7391
  125TMC2    C5 1944   4.337   1.573  10.707  0.0912  0.1169 -0.2765
  125TMC2    C6 1945   4.245   1.657  10.770  0.2240 -0.3402 -0.1607
  125TMC2     C 1946   4.617   1.524  10.933  0.7420 -0.3269  0.0295
  125TMC2     O 1947   4.682   1.600  11.009  0.6631 -0.4132 -0.1280
  125TMC2     H 1948   4.453   1.731  11.028  1.0282  0.5848 -1.1369
  125TMC2    H1 1949   4.503   1.435  10.717 -0.4207  0.3841 -3.4891
  125TMC2    H2 1950   4.150   1.684  10.724  0.1365  0.1987  0.3492
  125TMC2    C7 1951   4.275   1.502  10.595 -0.2582 -0.5485  0.2560
  125TMC2    C8 1952   4.221   1.835  10.914  0.6003 -0.1503  0.5639
  125TMC2    O1 1953   4.159   1.462  10.611 -0.7480 -0.1222 -0.4952
  125TMC2    O2 1954   4.100   1.848  10.902  0.0256 -0.2531 -0.2157
  125TMC2    O5 1955   4.311   1.920  10.863 -0.2757 -0.9339  0.5314
  125TMC2    H5 1956   4.405   1.894  10.874 -0.8887 -2.9830  1.0050
  126MPD1     C 1957   0.202   1.152  11.048  0.1700 -0.5383 -0.1986
  126MPD1    C1 1958   0.106   1.099  10.962 -0.9169  0.0835 -0.1086
  126MPD1    C2 1959   0.006   1.182  10.923 -0.0469  0.5321 -0.8485
  126MPD1    C3 1960   0.004   1.315  10.956  0.5676 -1.3295  1.1204
  126MPD1    C4 1961   0.104   1.367  11.039  0.4071 -0.2537  0.1409
  126MPD1    C5 1962   0.196   1.280  11.093 -0.3117 -0.3170  0.0360
  126MPD1     H 1963   4.668   1.147  10.855  0.9602  1.3610 -2.4134
  126MPD1    H1 1964   0.118   1.471  11.065 -0.3963 -0.4587  1.3512
  126MPD1    H2 1965   0.271   1.083  11.096 -0.0448 -1.0829 -0.6751
  126MPD1    H3 1966   0.271   1.328  11.155  0.5654 -1.5775 -0.0459
  126MPD1     N 1967   4.631   1.393  10.914 -0.1037  0.5917 -0.4691
  126MPD1    H5 1968   4.553   1.336  10.882 -0.5234  0.5222  0.6905
  126MPD1    N1 1969   0.102   0.965  10.934  0.2310 -0.1618 -0.1963
  126MPD1    H6 1970   0.056   0.939  10.847 -0.2153  1.4228 -0.4205
  126MPD1    H7 1971   0.191   0.915  10.934  0.0367 -0.5097  0.8744
  127TMC2    C1 1972   0.574   0.591   9.456  0.2411 -0.2545  0.7404
  127TMC2    C2 1973   0.663   0.565   9.558  0.1565 -0.0099  0.3554
  127TMC2    C3 1974   0.637   0.462   9.643  0.0366  1.2935 -0.0076
  127TMC2    C4 1975   0.468   0.508   9.439  0.3192  0.3466  0.1654
  127TMC2    C5 1976   0.468   0.390   9.510 -0.1480  0.2874  0.1300
  127TMC2    C6 1977   0.539   0.369   9.623 -0.6085  0.5158 -0.1572
  127TMC2     C 1978   0.593   0.705   9.381 -0.0138 -0.0408  0.2702
  127TMC2     O 1979   0.708   0.747   9.369 -0.2112  0.3959 -0.1383
  127TMC2     H 1980   0.744   0.632   9.583  0.2075 -0.7187  2.1066
  127TMC2    H1 1981   0.405   0.521   9.352 -1.6079 -0.6226  1.4045
  127TMC2    H2 1982   0.522   0.280   9.683  1.3418 -1.5227 -2.5807
  127TMC2    C7 1983   0.391   0.289   9.447  0.2031 -0.0440  0.0807
  127TMC2    C8 1984   0.696   0.465   9.771  0.1778 -0.1457 -0.0099
  127TMC2    O1 1985   0.338   0.316   9.338 -0.1089  0.1542  0.0761
  127TMC2    O2 1986   0.807   0.514   9.782 -0.1505  0.4658  0.4260
  127TMC2    O5 1987   0.634   0.388   9.859  0.1283 -0.6021 -0.0005
  127TMC2    H5 1988   0.539   0.377   9.835  0.4564  2.6090 -2.6889
  128MPD2     C 1989   0.365   0.885   9.162  0.6020 -0.4940 -0.2254
  128MPD2    C1 1990   0.479   0.866   9.230 -0.5937 -0.1499 -0.3668
  128MPD2    C2 1991   0.585   0.955   9.211 -0.2247 -0.1300 -0.2628
  128MPD2    C3 1992   0.573   1.060   9.127 -0.1787 -0.5625 -0.0368
  128MPD2    C4 1993   0.462   1.075   9.045  0.2287 -0.5380 -0.3050
  128MPD2    C5 1994   0.357   0.986   9.070  0.2640 -0.6089 -0.2687
  128MPD2     H 1995   0.676   0.953   9.270 -0.3611  0.4168 -0.0366
  128MPD2    H1 1996   0.445   1.148   8.967  3.6583 -0.0293 -0.5668
  128MPD2    H2 1997   0.282   0.818   9.182 -0.9588  0.3866 -3.7710
  128MPD2    H3 1998   0.262   0.994   9.018  0.4334 -1.0384 -0.6458
  128MPD2     N 1999   0.673   1.152   9.130  0.0525  0.1515 -0.6385
  128MPD2    H5 2000   0.738   1.144   9.208 -1.1364 -3.0639  0.0319
  128MPD2    N1 2001   0.479   0.757   9.319 -0.2033  0.0492 -0.1036
  128MPD2    H7 2002   0.393   0.703   9.312  1.4857 -2.5188 -1.0999
  129TMC2    C1 2003   3.793   4.398   1.022 -0.0454  0.9990 -0.7638
  129TMC2    C2 2004   3.766   4.269   0.974  0.2119  0.1054 -0.4438
  129TMC2    C3 2005   3.639   4.226   1.000 -0.1385 -0.5226 -0.3231
  129TMC2    C4 2006   3.704   4.455   1.119  0.7100  0.1417 -0.7163
  129TMC2    C5 2007   3.590   4.390   1.152  0.2908 -0.3354  0.1460
  129TMC2    C6 2008   3.553   4.277   1.083 -0.4333 -0.3179  0.1283
  129TMC2     C 2009   3.928   4.453   0.992  0.6885  0.6961 -0.5979
  129TMC2     O 2010   4.008   4.378   0.942 -0.6082  0.4936  0.4786
  129TMC2     H 2011   3.829   4.220   0.900  1.2283 -1.0128  1.1598
  129TMC2    H1 2012   3.727   4.549   1.168  0.2203 -1.1815  2.0746
  129TMC2    H2 2013   3.453   4.234   1.090 -0.7919  0.7367  1.5276
  129TMC2    C7 2014   3.484   4.455   1.225 -0.3874  0.2334  0.6656
  129TMC2    C8 2015   3.598   4.112   0.915 -0.7822 -0.5335 -0.2604
  129TMC2    O1 2016   3.493   4.575   1.259  0.0419  0.0275  0.3800
  129TMC2    O2 2017   3.480   4.107   0.871 -0.8269 -0.0149 -0.9683
  129TMC2    O5 2018   3.667   4.001   0.952 -0.6423  0.3869  0.2852
  129TMC2    H5 2019   3.738   4.025   1.016 -0.5913 -0.7161  0.6370
  130MPD2     C 2020   4.180   4.607   1.014  0.6836 -0.0063  0.0345
  130MPD2    C1 2021   4.054   4.669   1.019  0.5130  0.3779  0.1440
  130MPD2    C2 2022   4.044   0.064   1.025 -0.6597  0.0840  0.3390
  130MPD2    C3 2023   4.152   0.149   0.995  0.7799 -0.2679  0.6602
  130MPD2    C4 2024   4.275   0.086   0.973  0.2962  0.3732  0.6604
  130MPD2    C5 2025   4.289   4.686   0.983  0.0904  0.3346 -0.4648
  130MPD2     H 2026   3.945   0.106   1.036 -0.8502 -0.3781  0.3882
  130MPD2    H1 2027   4.366   0.143   0.961  1.3450 -1.6711 -1.0505
  130MPD2    H2 2028   4.200   4.502   1.029  0.2559 -0.2855 -1.2694
  130MPD2    H3 2029   4.390   4.645   0.978 -0.3671 -0.9806  1.0674
  130MPD2     N 2030   4.123   0.287   0.994 -0.4358 -0.3197 -0.0185
  130MPD2    H5 2031   4.029   0.319   1.017 -0.1399  0.7040 -0.2107
  130MPD2    N1 2032   3.941   4.586   1.023 -1.0992 -0.1957  0.6312
  130MPD2    H7 2033   3.857   4.642   1.036  0.4647  2.1835  0.4117
  131TMC2    C1 2034   3.682   0.528  10.043 -0.0721  0.2552  0.3133
  131TMC2    C2 2035   3.675   0.603  10.164  0.0938  0.2092  0.5720
  131TMC2    C3 2036   3.706   0.735  10.153 -0.2837  0.3631  0.3468
  131TMC2    C4 2037   3.727   0.588   9.926  0.8439  0.7531 -0.3526
  131TMC2    C5 2038   3.752   0.720   9.921 -0.2447 -0.9260 -0.4371
  131TMC2    C6 2039   3.736   0.795  10.038  1.3910  0.0362  0.3178
  131TMC2     C 2040   3.624   0.399  10.046 -0.1080 -0.5722 -0.1873
  131TMC2     O 2041   3.558   0.383  10.146 -0.6136  0.1317 -0.5261
  131TMC2     H 2042   3.668   0.550  10.258 -0.2052 -0.6148  0.0829
  131TMC2    H1 2043   3.755   0.523   9.843 -0.4270 -1.4513  0.9490
  131TMC2    H2 2044   3.733   0.903  10.043  1.4068  0.1331 -1.7426
  131TMC2    C7 2045   3.797   0.784   9.795  0.2557 -0.3615  0.4590
  131TMC2    C8 2046   3.715   0.813  10.281  0.1970  0.0061 -0.1372
  131TMC2    O1 2047   3.824   0.713   9.696 -0.4537  0.5765 -0.1277
  131TMC2    O2 2048   3.755   0.930  10.285 -0.3443 -0.3708  0.5662
  131TMC2    O5 2049   3.647   0.745  10.381 -0.1083 -0.3158  0.1127
  131TMC2    H5 2050   3.606   0.659  10.358  0.9223 -1.0837  1.0986
  132MPD2     C 2051   3.502   0.182   9.778  0.3499 -0.6086  1.0689
  132MPD2    C1 2052   3.535   0.221   9.906 -0.2211  0.0803 -0.2764
  132MPD2    C2 2053   3.504   0.130  10.006  0.3206 -0.4923 -1.2068
  132MPD2    C3 2054   3.437   0.011   9.967 -0.2694 -0.2794  0.1574
  132MPD2    C4 2055   3.408   4.720   9.839  0.0028 -0.1335 -0.4102
  132MPD2    C5 2056   3.451   0.061   9.738 -0.3868 -0.3648 -1.0573
  132MPD2     H 2057   3.526   0.144  10.111  1.8852  0.7031 -1.6913
  132MPD2    H1 2058   3.373   4.621   9.813 -1.7618  1.0730 -2.6460
  132MPD2    H2 2059   3.535   0.250   9.700 -1.8912  1.9547  2.3255
  132MPD2    H3 2060   3.444   0.023   9.637 -1.3098 -1.5412 -0.5422
  132MPD2     N 2061   3.397   4.675  10.080  0.4358  0.3070 -0.1995
  132MPD2    H5 2062   3.436   4.696  10.171  0.8252 -0.2319 -0.2433
  132MPD2    N1 2063   3.610   0.342   9.925 -0.0679  0.7453  0.5560
  132MPD2    H7 2064   3.620   0.392   9.837 -0.4775  0.0668  0.1215
  133TMC2    C1 2065   2.786   1.815   9.030  0.6355 -0.4786  0.1014
  133TMC2    C2 2066   2.919   1.834   8.984 -0.0975  0.6990  0.1419
  133TMC2    C3 2067   2.957   1.966   8.978  0.0928  0.6633 -0.5218
  133TMC2    C4 2068   2.703   1.919   9.068 -0.4822  0.4132 -0.3039
  133TMC2    C5 2069   2.756   2.042   9.077 -0.0755 -0.0127 -0.0186
  133TMC2    C6 2070   2.882   2.068   9.027  1.3515  0.2588  0.7323
  133TMC2     C 2071   2.731   1.680   9.033  0.5015 -0.2551 -0.5364
  133TMC2     O 2072   2.627   1.665   9.099  1.5147 -0.5393 -0.2965
  133TMC2     H 2073   2.995   1.758   8.968  0.7140  1.6350 -0.4303
  133TMC2    H1 2074   2.609   1.896   9.117  0.3977 -1.2169  0.6132
  133TMC2    H2 2075   2.916   2.169   9.005  0.9486 -0.0063 -1.1487
  133TMC2    C7 2076   2.664   2.146   9.115 -0.2058  0.1891 -0.4641
  133TMC2    C8 2077   3.097   1.998   8.942 -0.3219 -0.4540 -0.7911
  133TMC2    O1 2078   2.550   2.114   9.076  0.2985  0.0317  0.1801
  133TMC2    O2 2079   3.157   2.094   8.991  0.2262 -0.6710  0.2307
  133TMC2    O5 2080   3.140   1.914   8.850  0.0365  0.0067  0.3276
  133TMC2    H5 2081   3.072   1.845   8.833 -0.0867  0.6513 -1.7003
  134MPD2     C 2082   2.857   1.382   8.866 -0.1414 -0.1218  0.0013
  134MPD2    C1 2083   2.772   1.454   8.947 -0.2445 -0.4634  0.4742
  134MPD2    C2 2084   2.674   1.387   9.016 -0.4533  0.0900  0.4699
  134MPD2    C3 2085   2.676   1.247   9.021 -0.0337  0.1792  0.0119
  134MPD2    C4 2086   2.757   1.177   8.939  0.2616  0.1641  0.9543
  134MPD2    C5 2087   2.845   1.246   8.863 -0.0703 -0.1356  0.5542
  134MPD2     H 2088   2.619   1.439   9.094 -1.1573  1.0335 -0.6597
  134MPD2    H1 2089   2.753   1.069   8.946  2.3212  0.0659  0.6512
  134MPD2    H2 2090   2.934   1.432   8.807 -0.6378 -0.0960 -0.6211
  134MPD2    H3 2091   2.911   1.201   8.789  0.2768  1.6599 -0.2371
  134MPD2     N 2092   2.610   1.165   9.117 -0.5285 -0.2205 -0.3777
  134MPD2    H5 2093   2.627   1.065   9.124 -0.3649 -0.1490  0.2367
  134MPD2    N1 2094   2.796   1.588   8.956 -0.0004 -0.0775 -0.2420
  134MPD2    H7 2095   2.859   1.626   8.886  0.5988 -0.8610 -0.1315
  135TMC2    C1 2096   1.074   2.316   9.926  0.2991  0.7103  0.2367
  135TMC2    C2 2097   1.071   2.395   9.811 -0.5258 -0.3294  0.1659
  135TMC2    C3 2098   1.029   2.525   9.837  0.4077  0.7485 -0.4606
  135TMC2    C4 2099   1.031   2.368  10.049 -0.4082  0.5779 -0.4172
  135TMC2    C5 2100   0.986   2.499  10.054 -1.0322 -0.3762 -0.6329
  135TMC2    C6 2101   0.993   2.586   9.950 -1.1436  0.1474 -0.1255
  135TMC2     C 2102   1.184   2.220   9.942  0.0156 -0.1684  0.4752
  135TMC2     O 2103   1.235   2.205  10.049 -0.2187 -0.5808  0.4019
  135TMC2     H 2104   1.103   2.358   9.714  0.2048 -1.3342  0.7860
  135TMC2    H1 2105   1.036   2.308  10.139  0.6212  2.7357  0.9611
  135TMC2    H2 2106   0.938   2.680   9.950  0.6648  1.2086  0.9645
  135TMC2    C7 2107   0.887   2.542  10.155 -0.3689  0.1020  0.0372
  135TMC2    C8 2108   1.031   2.611   9.714  0.2885 -0.2275  0.3433
  135TMC2    O1 2109   0.857   2.663  10.156  0.3906 -0.0362 -0.1873
  135TMC2    O2 2110   1.038   2.572   9.599 -0.0393  0.0056  0.2818
  135TMC2    O5 2111   1.028   2.743   9.739  0.5619  0.2645  0.3405
  135TMC2    H5 2112   1.059   2.757   9.831  0.2115 -1.1008  0.6608
  136MPD2     C 2113   1.413   2.041   9.891  0.5448 -0.1066  0.3019
  136MPD2    C1 2114   1.307   2.061   9.805 -0.1008 -0.3378  0.1210
  136MPD2    C2 2115   1.326   1.994   9.684 -0.1817 -0.0056 -0.0698
  136MPD2    C3 2116   1.426   1.901   9.660 -0.7277 -0.3651 -0.6623
  136MPD2    C4 2117   1.522   1.885   9.748  0.2025  0.1789 -0.2159
  136MPD2    C5 2118   1.523   1.966   9.854 -0.1343 -0.4339  0.0115
  136MPD2     H 2119   1.249   2.013   9.610  1.1394  1.5070 -1.0808
  136MPD2    H1 2120   1.607   1.818   9.741 -0.0977 -0.3457  0.9908
  136MPD2    H2 2121   1.424   2.094   9.985 -0.2230 -0.3431  0.5212
  136MPD2    H3 2122   1.610   1.969   9.919  1.1777 -0.1134 -1.7443
  136MPD2     N 2123   1.417   1.806   9.551  0.4690  0.4526  0.7950
  136MPD2    H5 2124   1.501   1.751   9.532 -0.5223 -0.8400  0.1848
  136MPD2    N1 2125   1.204   2.153   9.827 -0.0869  0.0940 -0.5215
  136MPD2    H7 2126   1.138   2.174   9.752 -0.8462 -0.0282  0.1073
  137TMC2    C1 2127   0.377   1.770   9.842 -0.3147  0.0591  0.3306
  137TMC2    C2 2128   0.493   1.811   9.787  0.1372  0.2768 -0.6494
  137TMC2    C3 2129   0.501   1.924   9.725  0.1161  0.4153  0.4893
  137TMC2    C4 2130   0.265   1.847   9.833  0.1657 -0.4053  0.1605
  137TMC2    C5 2131   0.272   1.960   9.761 -0.2686 -1.2543 -0.0772
  137TMC2    C6 2132   0.393   2.003   9.707  0.3447 -0.4297 -0.0526
  137TMC2     C 2133   0.385   1.654   9.931 -0.5173  0.5833 -0.4828
  137TMC2     O 2134   0.490   1.593   9.912 -0.0532  0.5206  0.5689
  137TMC2     H 2135   0.578   1.745   9.797  0.0257  0.2600  0.1866
  137TMC2    H1 2136   0.170   1.806   9.868 -0.4820 -0.0050 -1.1021
  137TMC2    H2 2137   0.398   2.094   9.649  1.0020  1.4050  2.8912
  137TMC2    C7 2138   0.158   2.047   9.743 -0.0048  0.1904 -0.3020
  137TMC2    C8 2139   0.631   1.971   9.694  0.3409  0.6632  0.2052
  137TMC2    O1 2140   0.175   2.166   9.725 -0.0836 -0.1225  0.4341
  137TMC2    O2 2141   0.655   2.042   9.591 -0.3471 -0.5330 -0.2912
  137TMC2    O5 2142   0.705   1.967   9.805  0.0543  0.7080 -0.2335
  137TMC2    H5 2143   0.674   1.930   9.890  2.4286 -1.7236 -0.4618
  138MPD2     C 2144   0.163   1.491  10.171  0.6250 -0.3641  0.6931
  138MPD2    C1 2145   0.276   1.521  10.103 -0.5750  0.0255  0.7370
  138MPD2    C2 2146   0.380   1.428  10.112  0.3483  0.2063  0.2296
  138MPD2    C3 2147   0.377   1.321  10.197 -0.1645  0.0766 -0.0159
  138MPD2    C4 2148   0.252   1.286  10.255  0.0981 -0.7266  0.3070
  138MPD2    C5 2149   0.151   1.380  10.247  0.7779  0.4451 -0.5898
  138MPD2     H 2150   0.471   1.422  10.053  0.6499  1.8917  0.5215
  138MPD2    H1 2151   0.237   1.197  10.314 -0.5960 -1.2171 -0.6099
  138MPD2    H2 2152   0.078   1.559  10.174  0.1000 -0.8637 -2.5990
  138MPD2    H3 2153   0.058   1.364  10.300  0.1340  0.2834 -1.7612
  138MPD2     N 2154   0.490   1.236  10.209  0.0496  0.1098  0.7503
  138MPD2    H5 2155   0.570   1.292  10.181  0.7051 -0.6179  1.1714
  138MPD2    N1 2156   0.281   1.640  10.023 -0.1793  0.3173 -0.0810
  138MPD2    H7 2157   0.197   1.695  10.012 -0.0525  0.5977  0.3632
  139TMC2    C1 2158   0.630   4.231  13.423  1.2015  0.2367  0.2160
  139TMC2    C2 2159   0.759   4.205  13.375  0.7875  0.0307 -0.1569
  139TMC2    C3 2160   0.839   4.316  13.338 -0.4667  0.0963 -0.6523
  139TMC2    C4 2161   0.589   4.364  13.438  0.0911 -0.2948  0.3086
  139TMC2    C5 2162   0.669   4.467  13.390  0.4545 -0.1876  0.0236
  139TMC2    C6 2163   0.795   4.443  13.352 -0.5035 -0.0104 -0.4877
  139TMC2     C 2164   0.539   4.129  13.444  0.1172  0.6574 -0.0949
  139TMC2     O 2165   0.594   4.022  13.427 -0.4457 -0.5419  0.4111
  139TMC2     H 2166   0.800   4.105  13.369  3.3739  1.0157  1.0013
  139TMC2    H1 2167   0.504   4.390  13.501  1.0126  0.9512  1.0284
  139TMC2    H2 2168   0.855   4.530  13.329 -0.4769 -0.0853 -0.6983
  139TMC2    C7 2169   0.633   4.609  13.408  0.4354 -0.4304  0.3497
  139TMC2    C8 2170   0.959   4.283  13.266  0.5383 -0.5022  0.1626
  139TMC2    O1 2171   0.716   4.693  13.396  0.1546 -0.3406  0.5480
  139TMC2    O2 2172   0.983   4.176  13.211 -0.0589 -0.2881  0.1335
  139TMC2    O5 2173   1.051   4.360  13.321 -0.2997 -0.5036 -0.7135
  139TMC2    H5 2174   1.016   4.434  13.375  0.2820 -0.2201 -0.7242
  140MPD2     C 2175   0.172   4.119  13.490 -0.1778 -0.4552 -0.7180
  140MPD2    C1 2176   0.301   4.075  13.494  0.2445  0.1351 -0.2894
  140MPD2    C2 2177   0.313   3.939  13.520 -0.1915  0.1190 -0.0100
  140MPD2    C3 2178   0.208   3.851  13.517  0.0627 -0.1083 -0.0561
  140MPD2    C4 2179   0.085   3.901  13.507  0.3739  0.7901  0.1251
  140MPD2    C5 2180   0.065   4.036  13.487  0.3449  0.2431 -0.1427
  140MPD2     H 2181   0.411   3.898  13.541 -0.5771 -0.1908  1.1538
  140MPD2    H1 2182   4.735   3.843  13.487 -0.1105  1.3071  0.7932
  140MPD2    H2 2183   0.138   4.221  13.474  1.1687 -0.1055 -1.3034
  140MPD2    H3 2184   4.702   4.073  13.483 -0.3283 -1.8051 -2.8379
  140MPD2     N 2185   0.238   3.715  13.529  0.5163 -0.4236  0.2781
  140MPD2    H5 2186   0.335   3.691  13.546  0.7471  0.5489  0.3065
  140MPD2    N1 2187   0.406   4.166  13.467 -0.0303  0.1135  0.0988
  140MPD2    H7 2188   0.368   4.260  13.462  0.3426  0.2563 -0.0057
  141TMC2    C1 2189   0.726   0.930  14.654 -0.5772 -0.1503 -0.9161
  141TMC2    C2 2190   0.731   0.830  14.753  0.0184  0.5992  0.1412
  141TMC2    C3 2191   0.844   0.829  14.829  0.2071  0.2737 -0.6074
  141TMC2    C4 2192   0.838   0.997  14.614  0.0414 -0.4883 -0.4358
  141TMC2    C5 2193   0.961   0.956  14.660  0.1817 -0.7012  0.2819
  141TMC2    C6 2194   0.965   0.884  14.778  0.4151  0.0680 -0.3875
  141TMC2     C 2195   0.600   0.945  14.580  0.2351 -0.5904  0.1273
  141TMC2     O 2196   0.522   0.852  14.585 -0.1811  0.6533  0.0364
  141TMC2     H 2197   0.635   0.792  14.785 -0.1134  1.3349  0.6259
  141TMC2    H1 2198   0.841   1.073  14.537 -0.3825 -2.5301 -2.4580
  141TMC2    H2 2199   1.062   0.842  14.801  1.2563  2.7225  0.8895
  141TMC2    C7 2200   1.086   1.021  14.616  0.0825  0.0826  0.1514
  141TMC2    C8 2201   0.859   0.705  14.904  0.5067 -0.3463 -0.1254
  141TMC2    O1 2202   1.184   0.986  14.680 -0.2637  0.2167  0.1600
  141TMC2    O2 2203   0.815   0.596  14.864  0.1933 -0.3961  0.0491
  141TMC2    O5 2204   0.955   0.710  14.998  0.6083 -0.1949 -0.4007
  141TMC2    H5 2205   0.980   0.803  15.016 -0.2610 -0.0464  0.0323
  142TMC2    C1 2206   4.106   0.156   9.800 -0.4191  0.3908 -0.0894
  142TMC2    C2 2207   4.240   0.148   9.779  0.7133 -0.4686 -0.3249
  142TMC2    C3 2208   4.307   0.267   9.762 -0.4448  0.2522  0.4551
  142TMC2    C4 2209   4.047   0.277   9.805  0.2946  0.2472 -0.3469
  142TMC2    C5 2210   4.120   0.389   9.791 -0.8901  0.2589  0.0762
  142TMC2    C6 2211   4.253   0.387   9.755  0.1217 -0.0480 -0.8633
  142TMC2     C 2212   4.048   0.063   9.897 -0.0913 -0.3020  0.1488
  142TMC2     O 2213   4.070   4.682   9.890  0.6785  0.0895  0.7782
  142TMC2     H 2214   4.290   0.053   9.794  3.6607  0.7085 -2.8221
  142TMC2    H1 2215   3.945   0.291   9.841  0.1906  2.7381 -1.5793
  142TMC2    H2 2216   4.317   0.475   9.754 -0.3697  0.3654  3.7249
  142TMC2    C7 2217   4.096   0.458   9.916  0.1150 -0.0072  0.2205
  142TMC2    C8 2218   4.439   0.260   9.703 -0.5435  0.0498 -0.4825
  142TMC2    O1 2219   4.060   0.388  10.006  0.6066 -0.2898  0.1674
  142TMC2    O2 2220   4.485   0.358   9.649 -0.1632  0.1852 -0.4374
  142TMC2    O5 2221   4.510   0.163   9.763  0.3999 -0.1939  0.6509
  142TMC2    H5 2222   4.466   0.116   9.837 -0.0438 -1.0627 -0.1723
  143MPD2     C 2223   3.782   4.732  10.322  0.6445 -0.0748 -0.0977
  143MPD2    C1 2224   3.788   4.651  10.212  0.7821 -0.5170  0.2664
  143MPD2    C2 2225   3.872   4.694  10.113  0.0571 -0.3522  0.6876
  143MPD2    C3 2226   3.934   0.075  10.112  0.3012 -0.2899  0.4375
  143MPD2    C4 2227   3.912   0.158  10.221  0.3832  0.3753 -0.3287
  143MPD2    C5 2228   3.833   0.116  10.326  0.5994 -0.8672 -0.0830
  143MPD2     H 2229   3.864   4.639  10.020  0.3436  1.5017 -0.4230
  143MPD2    H1 2230   3.950   0.260  10.218 -1.4202  1.0685  0.1543
  143MPD2    H2 2231   3.721   4.708  10.408  1.4841 -3.0362 -0.3161
  143MPD2    H3 2232   3.826   0.180  10.414  0.3297 -0.5250 -0.3545
  143MPD2     N 2233   3.996   0.130   9.997 -0.1389  0.1813 -0.2381
  143MPD2    H5 2234   4.002   0.231   9.989 -0.4786  0.0766 -1.8562
  143MPD2    N1 2235   3.720   4.524  10.217  0.8460  0.2664  0.5075
  143MPD2    H7 2236   3.676   4.498  10.305 -0.6032  2.8979  0.5756
  144TMC2    C1 2237   1.729   2.750   0.552 -0.3749 -0.4761  0.0494
  144TMC2    C2 2238   1.845   2.684   0.587  0.7686 -0.2800  0.3034
  144TMC2    C3 2239   1.924   2.753   0.680 -0.5620  0.0426 -0.7532
  144TMC2    C4 2240   1.697   2.877   0.593 -0.0920  0.3756  0.5248
  144TMC2    C5 2241   1.778   2.937   0.680  0.4858  0.4407 -0.1547
  144TMC2    C6 2242   1.894   2.878   0.725  0.8054  0.1906  1.1058
  144TMC2     C 2243   1.640   2.694   0.454  0.6426 -0.2916  0.4216
  144TMC2     O 2244   1.574   2.774   0.386  0.3207  0.1498  0.5208
  144TMC2     H 2245   1.862   2.580   0.560 -0.4971 -0.8009  1.5022
  144TMC2    H1 2246   1.604   2.927   0.567  0.4119  0.8382 -0.3672
  144TMC2    H2 2247   1.965   2.927   0.790  1.1682  1.1720 -0.0531
  144TMC2    C7 2248   1.733   3.064   0.736  0.4155  0.3767  0.4268
  144TMC2    C8 2249   2.015   2.675   0.766 -0.2984 -0.6524  0.8403
  144TMC2    O1 2250   1.613   3.086   0.751 -0.4205  0.1185  0.4734
  144TMC2    O2 2251   2.041   2.703   0.880 -0.3115  0.1099 -0.2588
  144TMC2    O5 2252   2.091   2.599   0.683 -0.0176  0.0014 -0.4124
  144TMC2    H5 2253   2.077   2.620   0.588  0.3181 -2.5099 -1.0141
  145MPD2     C 2254   1.480   2.350   0.117  0.1910  0.0351  0.2036
  145MPD2    C1 2255   1.458   2.484   0.115  0.7798 -0.3278 -0.5692
  145MPD2    C2 2256   1.514   2.553   0.220  0.4952  0.5904  0.3586
  145MPD2    C3 2257   1.588   2.492   0.317  1.1949 -0.5026  0.7507
  145MPD2    C4 2258   1.599   2.352   0.320  0.2143 -0.2329 -0.1742
  145MPD2    C5 2259   1.544   2.285   0.218 -0.8792  0.3865  0.2709
  145MPD2     H 2260   1.499   2.660   0.222  2.0104  0.7315  2.8354
  145MPD2    H1 2261   1.654   2.291   0.391 -2.5650 -1.6304  0.7513
  145MPD2    H2 2262   1.431   2.288   0.043  1.1391 -3.2042  2.2622
  145MPD2    H3 2263   1.551   2.177   0.216  0.3660  0.4592  0.2993
  145MPD2     N 2264   1.654   2.562   0.421  0.8970 -0.0266  0.1936
  145MPD2    H5 2265   1.706   2.504   0.487  1.2144  1.3849  1.1780
  145MPD2    N1 2266   1.392   2.558   0.018  0.3969  0.1489  0.1754
  145MPD2    H7 2267   1.400   2.659   0.015 -0.9078  0.3369  2.4716
  146TMC2    C1 2268   3.688   1.690  11.876 -0.0782 -0.3112  0.2902
  146TMC2    C2 2269   3.677   1.625  11.754  0.1580 -0.7297  0.4576
  146TMC2    C3 2270   3.769   1.534  11.721  0.3150 -0.4773  0.0127
  146TMC2    C4 2271   3.799   1.674  11.954  0.3501  0.2775 -0.1307
  146TMC2    C5 2272   3.891   1.578  11.916 -0.5206  0.2177  0.3822
  146TMC2    C6 2273   3.875   1.511  11.800 -0.3755  0.3746  0.4116
  146TMC2     C 2274   3.583   1.774  11.918  0.3143  0.1484 -0.4899
  146TMC2     O 2275   3.509   1.815  11.830 -0.4876 -0.6198  0.1371
  146TMC2     H 2276   3.586   1.631  11.695  0.6729  2.6046  0.0012
  146TMC2    H1 2277   3.813   1.751  12.029  2.6407 -2.4027  2.2180
  146TMC2    H2 2278   3.941   1.429  11.773 -1.9230 -0.0479 -2.0502
  146TMC2    C7 2279   4.005   1.553  11.993  0.6101  0.2467  0.4064
  146TMC2    C8 2280   3.725   1.429  11.627 -0.3163 -0.5183 -0.1569
  146TMC2    O1 2281   4.088   1.488  11.931 -0.4219  0.5590  0.1932
  146TMC2    O2 2282   3.734   1.309  11.654  0.1782  0.1304 -0.4209
  146TMC2    O5 2283   3.757   1.493  11.513 -0.0752 -0.0517  0.4024
  146TMC2    H5 2284   3.756   1.590  11.524  0.3711 -0.1203  1.0529
  147MPD2     C 2285   4.266   1.641  12.417 -0.3665 -0.4845 -0.3033
  147MPD2    C1 2286   4.134   1.624  12.449  0.0000 -0.0205  0.4139
  147MPD2    C2 2287   4.039   1.611  12.354  0.0993 -0.1729  0.3480
  147MPD2    C3 2288   4.086   1.600  12.225 -0.9427 -0.1727 -0.2279
  147MPD2    C4 2289   4.220   1.606  12.191 -0.4295  0.0509  0.1349
  147MPD2    C5 2290   4.314   1.630  12.284  0.5464  0.4255  0.4529
  147MPD2     H 2291   3.936   1.603  12.387  0.5639  3.0354  2.6425
  147MPD2    H1 2292   4.248   1.602  12.086 -0.3364  0.9211  0.1205
  147MPD2    H2 2293   4.343   1.661  12.490 -1.6279 -1.3364  1.2707
  147MPD2    H3 2294   4.420   1.632  12.261  0.3088  1.2210 -0.6116
  147MPD2     N 2295   3.989   1.584  12.127 -0.4093  0.2259  0.1420
  147MPD2    H5 2296   3.896   1.602  12.164 -1.4081 -0.6082 -1.9890
  147MPD2    N1 2297   4.111   1.624  12.589 -0.1063 -0.2474  0.3862
  147MPD2    H7 2298   4.186   1.643  12.655  2.6512  1.4769 -3.2381
  148TMC2    C1 2299   3.400   1.233  10.326  0.5682 -0.4064  0.0567
  148TMC2    C2 2300   3.524   1.285  10.323 -0.7789  0.6157 -0.0604
  148TMC2    C3 2301   3.625   1.227  10.402 -0.8307  1.1699 -0.0777
  148TMC2    C4 2302   3.381   1.119  10.400 -0.2698  0.0603  0.6183
  148TMC2    C5 2303   3.476   1.057  10.466 -0.0838  0.1455  0.6050
  148TMC2    C6 2304   3.603   1.111  10.466 -0.2593  0.0793  0.4254
  148TMC2     C 2305   3.299   1.291  10.234  0.3537  0.2923  0.6664
  148TMC2     O 2306   3.313   1.410  10.203 -0.1628  0.0973 -0.1005
  148TMC2     H 2307   3.528   1.374  10.261  3.3629  1.5090  1.5178
  148TMC2    H1 2308   3.279   1.083  10.410 -0.5333  1.1005  1.7140
  148TMC2    H2 2309   3.688   1.052  10.497 -0.9162 -2.1917 -2.0174
  148TMC2    C7 2310   3.444   0.935  10.543  0.0788  0.3336  0.2813
  148TMC2    C8 2311   3.762   1.277  10.390  0.3666  0.5417  0.3233
  148TMC2    O1 2312   3.334   0.888  10.516 -0.4890  0.7474  0.2407
  148TMC2    O2 2313   3.853   1.204  10.432 -0.0306 -0.2737 -1.0947
  148TMC2    O5 2314   3.766   1.390  10.322  0.1840  0.0831 -0.7902
  148TMC2    H5 2315   3.686   1.446  10.316  1.0414  1.5019  1.1411
  149MPD2     C 2316   3.064   1.339  10.070 -0.3918  0.0719 -0.4376
  149MPD2    C1 2317   3.074   1.229  10.155  0.3338 -0.3985  0.3033
  149MPD2    C2 2318   2.966   1.152  10.178 -0.1406  0.2443  0.0407
  149MPD2    C3 2319   2.845   1.194  10.129  0.0408  0.1455  0.6867
  149MPD2    C4 2320   2.837   1.316  10.061 -0.0734 -0.3892 -0.2596
  149MPD2    C5 2321   2.949   1.385  10.024 -0.3886  1.0390  0.7534
  149MPD2     H 2322   2.980   1.058  10.230  2.9749  0.2020 -0.8795
  149MPD2    H1 2323   2.744   1.361  10.027 -0.1177 -1.5957 -1.7335
  149MPD2    H2 2324   3.149   1.392  10.030 -0.8710  2.5282  1.8445
  149MPD2    H3 2325   2.948   1.477   9.966 -0.0311  0.6310  0.1068
  149MPD2     N 2326   2.726   1.127  10.166 -0.3488 -0.3564  0.4561
  149MPD2    H5 2327   2.638   1.176  10.151 -0.5833 -0.8569  0.2194
  149MPD2    N1 2328   3.196   1.197  10.218  0.5046  0.1293  0.7418
  149MPD2    H7 2329   3.198   1.104  10.258  0.9392  0.0251  0.4851
  150TMC2    C1 2330   0.172   0.217  12.419  0.0207 -0.1025  0.1212
  150TMC2    C2 2331   0.193   0.218  12.557 -0.2498  0.0154  0.5696
  150TMC2    C3 2332   0.317   0.241  12.607 -0.9369  0.1746 -0.1138
  150TMC2    C4 2333   0.276   0.258  12.332  0.1716 -0.2488  0.3875
  150TMC2    C5 2334   0.397   0.284  12.390 -0.0417 -0.2645  0.6570
  150TMC2    C6 2335   0.419   0.279  12.527 -0.7565 -0.4232 -0.0798
  150TMC2     C 2336   0.037   0.195  12.371  0.5883 -0.3886  1.1079
  150TMC2     O 2337   4.687   0.172  12.456  0.1263  0.8328  0.0046
  150TMC2     H 2338   0.101   0.208  12.614 -0.2899 -0.8944  0.3296
  150TMC2    H1 2339   0.261   0.257  12.225 -1.2100 -0.7709  0.5838
  150TMC2    H2 2340   0.513   0.303  12.575 -0.4562  1.4085 -1.5981
  150TMC2    C7 2341   0.516   0.269  12.301  0.4655 -0.2799  0.5591
  150TMC2    C8 2342   0.323   0.297  12.737 -0.1474  0.2288  0.1475
  150TMC2    O1 2343   0.496   0.285  12.178  0.4759 -0.4147  0.1138
  150TMC2    O2 2344   0.417   0.372  12.770 -0.1179 -0.6207  0.3246
  150TMC2    O5 2345   0.229   0.234  12.819  0.0614  0.6767  0.0651
  150TMC2    H5 2346   0.186   0.160  12.771  2.6368  0.0176 -1.1800
  151MPD2     C 2347   4.439   0.058  12.013 -0.7870  0.7599 -0.3008
  151MPD2    C1 2348   4.555   0.100  11.950  0.8723 -0.9219  0.7016
  151MPD2    C2 2349   4.672   0.137  12.014  0.2185  0.2564  0.0878
  151MPD2    C3 2350   4.666   0.137  12.149  0.2869 -0.2308  0.0312
  151MPD2    C4 2351   4.549   0.089  12.211 -0.5374  0.2784  0.0227
  151MPD2    C5 2352   4.435   0.050  12.147  0.5883 -0.0797 -0.8521
  151MPD2     H 2353   0.021   0.175  11.964  0.6075  0.8982  1.2788
  151MPD2    H1 2354   4.544   0.098  12.319  3.2603  0.4474  0.1921
  151MPD2    H2 2355   4.359   0.009  11.959 -0.5819 -1.4530  1.4278
  151MPD2    H3 2356   4.347   0.016  12.200  1.9244 -1.4832  0.4633
  151MPD2     N 2357   0.036   0.173  12.232  0.2483 -0.2819  0.3594
  151MPD2    H5 2358   0.120   0.191  12.177  0.0589  0.8329  0.4354
  151MPD2    N1 2359   4.545   0.088  11.807  0.0849  0.0530  0.7844
  151MPD2    H7 2360   4.467   0.034  11.771  0.5606  0.0359 -0.2122
  152TMC2    C1 2361   0.330   4.386  12.738 -0.1726 -0.1942  0.9369
  152TMC2    C2 2362   0.408   4.285  12.694  0.8763  0.2536 -0.0177
  152TMC2    C3 2363   0.534   4.313  12.663  0.1903 -0.7540 -0.1768
  152TMC2    C4 2364   0.366   4.517  12.735  0.2522 -0.5360 -0.1706
  152TMC2    C5 2365   0.493   4.545  12.688 -0.0300 -0.3633  0.9921
  152TMC2    C6 2366   0.584   4.442  12.661 -0.2840  0.0425  0.9770
  152TMC2     C 2367   0.199   4.356  12.786  0.1984  0.7234  0.4925
  152TMC2     O 2368   0.131   4.445  12.839  0.5135 -0.1944  0.1371
  152TMC2     H 2369   0.380   4.180  12.686  2.5237 -0.3751  2.4268
  152TMC2    H1 2370   0.291   4.593  12.750  0.6044 -0.5595  1.6676
  152TMC2    H2 2371   0.690   4.464  12.656 -0.5119  0.5938 -1.3636
  152TMC2    C7 2372   0.530   4.686  12.703 -0.3639 -0.6079 -0.1901
  152TMC2    C8 2373   0.622   4.205  12.628  0.1473  0.3858  0.7112
  152TMC2    O1 2374   0.447   0.031  12.733 -0.5046  0.2215 -0.1176
  152TMC2    O2 2375   0.740   4.225  12.651 -0.6812  0.3620 -0.3411
  152TMC2    O5 2376   0.571   4.170  12.507  0.2722 -0.0951  0.1782
  152TMC2    H5 2377   0.477   4.195  12.499  0.0048 -0.3078  2.6768
  153MPD2     C 2378   0.030   4.026  12.717 -0.5857  0.0540 -0.3025
  153MPD2    C1 2379   0.032   4.160  12.758 -0.4826  0.2370  0.4140
  153MPD2    C2 2380   4.654   4.230  12.787 -0.2185 -0.3798 -0.0854
  153MPD2    C3 2381   4.530   4.173  12.757  0.4153 -0.3660  0.3894
  153MPD2    C4 2382   4.528   4.035  12.730  0.2157 -0.0257  0.2110
  153MPD2    C5 2383   4.648   3.964  12.713  0.0835  0.6243  0.3983
  153MPD2     H 2384   4.661   4.336  12.807  0.7189 -0.9635  2.7053
  153MPD2    H1 2385   4.429   3.993  12.734 -0.1499  0.6327 -1.8784
  153MPD2    H2 2386   0.115   3.967  12.684  0.2873  0.0194  1.9938
  153MPD2    H3 2387   4.640   3.856  12.699  0.0181  0.7232 -0.3194
  153MPD2     N 2388   4.416   4.255  12.760  0.9016  0.3241 -0.7384
  153MPD2    H5 2389   4.434   4.349  12.790  1.3640  0.8628 -2.6953
  153MPD2    N1 2390   0.162   4.226  12.749  0.2561 -0.3930  0.1942
  153MPD2    H7 2391   0.242   4.169  12.723  1.4040 -0.1748  3.2098
  154TMC2    C1 2392   1.197   3.789  17.334 -0.1732  1.1892 -0.3916
  154TMC2    C2 2393   1.146   3.779  17.206  0.0663  0.4233 -0.3146
  154TMC2    C3 2394   1.124   3.654  17.161  0.8712 -0.5837  0.4216
  154TMC2    C4 2395   1.228   3.679  17.410  0.1758  0.7038 -0.0740
  154TMC2    C5 2396   1.209   3.557  17.353  0.1057  0.7003  0.8463
  154TMC2    C6 2397   1.153   3.540  17.232  0.1790 -0.2267  0.5385
  154TMC2     C 2398   1.230   3.920  17.374  0.2365 -0.2588 -0.1723
  154TMC2     O 2399   1.228   3.949  17.491  0.0509  0.0497 -0.4218
  154TMC2     H 2400   1.107   3.861  17.146 -1.8880  0.7030  1.3175
  154TMC2    H1 2401   1.261   3.689  17.512 -1.7148  2.7693  0.3365
  154TMC2    H2 2402   1.150   3.443  17.183  0.8050  1.1829 -2.2755
  154TMC2    C7 2403   1.237   3.444  17.428  0.2243  0.1462  0.2829
  154TMC2    C8 2404   1.029   3.635  17.055 -0.2714 -0.0535  0.3909
  154TMC2    O1 2405   1.206   3.335  17.384  0.3976  0.9408 -0.6771
  154TMC2    O2 2406   0.989   3.521  17.029  0.5898 -0.0563  0.4885
  154TMC2    O5 2407   1.064   3.733  16.961 -0.1807 -0.0743  0.3669
  154TMC2    H5 2408   1.141   3.787  16.988 -1.3638  0.3849  2.9008
  155MPD2     C 2409   1.422   4.167  17.201  0.7137 -0.3663 -0.5558
  155MPD2    C1 2410   1.322   4.122  17.281  0.1548 -0.5752  0.1500
  155MPD2    C2 2411   1.284   4.209  17.382  0.5111  0.5848  0.5353
  155MPD2    C3 2412   1.331   4.337  17.398  0.2245 -0.1725 -0.3921
  155MPD2    C4 2413   1.428   4.383  17.308 -0.2684 -0.0591  0.0222
  155MPD2    C5 2414   1.466   4.298  17.208  0.2214 -0.5582 -0.1139
  155MPD2     H 2415   1.229   4.178  17.470 -1.9500  0.5719 -0.9878
  155MPD2    H1 2416   1.473   4.481  17.315  2.1118 -1.1823  0.5827
  155MPD2    H2 2417   1.466   4.100  17.128  0.6783  0.0771 -0.9786
  155MPD2    H3 2418   1.539   4.339  17.139 -1.0773  0.7852 -0.6989
  155MPD2     N 2419   1.300   4.418  17.512 -0.3591  0.5162  0.1381
  155MPD2    H5 2420   1.212   4.384  17.551  0.4628  0.1817  1.6979
  155MPD2    N1 2421   1.286   3.989  17.271 -0.2521 -0.0438  0.0487
  155MPD2    H7 2422   1.310   3.945  17.182 -0.6891 -3.3898  1.5571
  156TMC2    C1 2423   0.584   2.183  11.137  0.9263  0.1659 -0.0883
  156TMC2    C2 2424   0.586   2.063  11.073 -0.5223 -0.4462 -0.6480
  156TMC2    C3 2425   0.517   2.064  10.959  0.0793  0.0558 -0.1677
  156TMC2    C4 2426   0.519   2.288  11.090  0.3216  0.2355 -0.1164
  156TMC2    C5 2427   0.442   2.279  10.973 -0.2261  0.0287 -0.2479
  156TMC2    C6 2428   0.445   2.168  10.898 -0.3489  0.3390 -1.0259
  156TMC2     C 2429   0.663   2.216  11.248  0.5626 -0.6513 -0.0051
  156TMC2     O 2430   0.626   2.300  11.329  0.1387  0.0158 -0.5485
  156TMC2     H 2431   0.642   1.976  11.103  0.7392  1.1196  1.5271
  156TMC2    H1 2432   0.496   2.376  11.150  2.6247 -0.4478  1.7911
  156TMC2    H2 2433   0.403   2.150  10.800  2.4448 -0.4424 -2.0664
  156TMC2    C7 2434   0.436   2.402  10.900 -0.1161 -0.4171  0.2802
  156TMC2    C8 2435   0.560   1.964  10.863  0.6641 -0.0097 -0.0777
  156TMC2    O1 2436   0.525   2.482  10.922 -0.9257  0.3238  0.0705
  156TMC2    O2 2437   0.494   1.909  10.775 -0.0214 -0.1021 -0.2610
  156TMC2    O5 2438   0.696   1.971  10.864 -0.3092 -0.4020  0.3557
  156TMC2    H5 2439   0.745   2.027  10.929 -0.8127  0.8013 -0.2966
  157MPD2     C 2440   1.002   2.102  11.336  0.6681 -0.3993 -0.0248
  157MPD2    C1 2441   0.872   2.146  11.360  0.2709 -0.5288  0.6951
  157MPD2    C2 2442   0.846   2.193  11.487 -0.7720  0.3955 -0.5648
  157MPD2    C3 2443   0.945   2.220  11.576 -0.2542 -0.7448 -0.0452
  157MPD2    C4 2444   1.074   2.182  11.552 -0.4880 -0.4409  0.1093
  157MPD2    C5 2445   1.105   2.116  11.434  0.0478  0.2211 -0.6678
  157MPD2     H 2446   0.745   2.221  11.512 -0.1859  0.0126  2.1919
  157MPD2    H1 2447   1.153   2.206  11.622 -0.5762 -2.3814  0.8729
  157MPD2    H2 2448   1.028   2.073  11.235 -2.7148  0.4213 -1.1301
  157MPD2    H3 2449   1.207   2.093  11.408  0.2511 -0.6721  0.9233
  157MPD2     N 2450   0.899   2.285  11.694 -0.2791 -0.0015  0.2616
  157MPD2    H5 2451   0.801   2.311  11.689  0.4047  2.7277  0.7690
  157MPD2    N1 2452   0.787   2.157  11.246 -0.1664  0.2667 -0.1596
  157MPD2    H7 2453   0.822   2.125  11.156  1.9012 -0.9306  1.0944
  158TMC2    C1 2454   1.869   0.815  13.982  0.2975  0.1184 -0.0647
  158TMC2    C2 2455   1.989   0.888  13.976 -0.0968 -0.0994  0.3194
  158TMC2    C3 2456   1.987   0.999  13.891 -0.1374  0.4990 -0.0187
  158TMC2    C4 2457   1.759   0.845  13.906 -0.5080  0.5047  0.1635
  158TMC2    C5 2458   1.764   0.959  13.824  0.3860 -0.8771  0.3260
  158TMC2    C6 2459   1.879   1.034  13.815  0.1584  0.3447  0.1581
  158TMC2     C 2460   1.870   0.720  14.087  0.2099 -0.5519  0.3251
  158TMC2     O 2461   1.979   0.691  14.133 -0.1833 -0.2132 -0.5907
  158TMC2     H 2462   2.074   0.871  14.042  0.8332  4.3405  0.2634
  158TMC2    H1 2463   1.679   0.772  13.902 -0.0869  0.0382  0.3176
  158TMC2    H2 2464   1.882   1.127  13.758  0.0870  0.5567  0.5008
  158TMC2    C7 2465   1.667   1.000  13.720 -0.5696 -0.6275 -0.5842
  158TMC2    C8 2466   2.069   1.114  13.933 -0.4736  0.0974  0.5070
  158TMC2    O1 2467   1.697   1.085  13.639  0.0296 -0.2598 -0.4446
  158TMC2    O2 2468   2.088   1.147  14.051 -0.2688 -0.5062  0.1299
  158TMC2    O5 2469   2.090   1.195  13.823 -0.0461  0.7588  0.0142
  158TMC2    H5 2470   2.082   1.152  13.736  1.9624  0.8389 -0.2308
  159MPD2     C 2471   1.640   0.436  14.460 -0.0113 -0.6710 -0.3643
  159MPD2    C1 2472   1.551   0.537  14.427  0.2035  0.2937 -0.1635
  159MPD2    C2 2473   1.595   0.632  14.329  0.2228  0.2454 -0.2577
  159MPD2    C3 2474   1.714   0.619  14.252 -0.6194  0.0641 -0.1215
  159MPD2    C4 2475   1.796   0.511  14.283 -0.0324  0.6715  1.1891
  159MPD2    C5 2476   1.761   0.430  14.390  0.8575  0.6562  0.4533
  159MPD2     H 2477   1.533   0.717  14.301  0.6148  0.9734  1.0770
  159MPD2    H1 2478   1.878   0.480  14.221 -0.9474 -1.2281  0.9488
  159MPD2    H2 2479   1.615   0.374  14.545 -1.7712  2.4258  1.3690
  159MPD2    H3 2480   1.816   0.342  14.417 -0.3976 -0.7418 -1.4972
  159MPD2     N 2481   1.747   0.705  14.142  0.7353 -0.3357 -0.2913
  159MPD2    H5 2482   1.673   0.770  14.116  1.4567  0.3036 -0.7360
  159MPD2    N1 2483   1.436   0.558  14.506  0.3638  0.1382  0.3612
  159MPD2    H7 2484   1.415   0.482  14.570  0.2996 -1.2209 -1.2512
  160TMC2    C1 2485   4.325   2.820   1.373 -0.0223 -0.4622 -0.1012
  160TMC2    C2 2486   4.309   2.723   1.474  0.3028  0.1771  0.3111
  160TMC2    C3 2487   4.364   2.604   1.452 -0.4454 -0.5573 -0.2389
  160TMC2    C4 2488   4.401   2.794   1.264 -0.2360  0.4181  0.0559
  160TMC2    C5 2489   4.460   2.673   1.248  0.1887  0.1042 -0.3409
  160TMC2    C6 2490   4.440   2.573   1.344 -0.3581 -0.3846  0.3060
  160TMC2     C 2491   4.294   2.959   1.411  0.1538  0.2179 -0.0709
  160TMC2     O 2492   4.251   2.977   1.524  0.3979  0.6851 -0.0571
  160TMC2     H 2493   4.217   2.728   1.531 -0.7194  0.3141 -1.3651
  160TMC2    H1 2494   4.415   2.866   1.184 -1.3513 -0.1502 -0.6439
  160TMC2    H2 2495   4.490   2.477   1.334 -0.5096 -0.3753 -0.5926
  160TMC2    C7 2496   4.564   2.651   1.154 -0.7723  0.1389  0.6056
  160TMC2    C8 2497   4.323   2.502   1.536  0.5611  0.4167  0.6653
  160TMC2    O1 2498   4.566   2.539   1.106 -0.6157  0.3182 -0.2597
  160TMC2    O2 2499   4.337   2.383   1.514  0.2631 -0.3844 -0.0005
  160TMC2    O5 2500   4.331   2.559   1.657 -0.2023  0.3297 -0.0407
  160TMC2    H5 2501   4.352   2.654   1.665  2.4559 -0.4071  1.8049
  161MPD2     C 2502   4.305   3.257   1.443 -0.3925 -0.3857  0.1058
  161MPD2    C1 2503   4.296   3.190   1.326 -0.4773 -0.9242  0.0303
  161MPD2    C2 2504   4.262   3.267   1.216 -0.1096  0.2877 -0.0216
  161MPD2    C3 2505   4.238   3.402   1.221 -0.4954  0.0026  0.6131
  161MPD2    C4 2506   4.259   3.470   1.339 -0.2614  0.3695 -0.0116
  161MPD2    C5 2507   4.298   3.392   1.449  0.1371  0.3848  0.1677
  161MPD2     H 2508   4.252   3.213   1.123  0.1294  1.9767 -1.0353
  161MPD2    H1 2509   4.248   3.578   1.347 -2.7929  0.0732  0.5432
  161MPD2    H2 2510   4.321   3.199   1.534 -0.1588 -1.6226 -0.7175
  161MPD2    H3 2511   4.308   3.444   1.544 -2.7301  0.4409  0.4269
  161MPD2     N 2512   4.197   3.471   1.105  0.5675  0.2262  0.1629
  161MPD2    H5 2513   4.189   3.572   1.112 -0.8120 -0.0669  2.6757
  161MPD2    N1 2514   4.310   3.049   1.309  0.1379  0.7023 -0.1753
  161MPD2    H7 2515   4.311   3.006   1.216 -1.3710 -0.5191  0.3750
  162TMC2    C1 2516   3.124   0.923   0.680 -0.1197 -0.1919  0.8795
  162TMC2    C2 2517   3.164   1.040   0.619  0.0501  0.3655 -0.5384
  162TMC2    C3 2518   3.274   1.104   0.674  0.1512 -0.1241 -0.2948
  162TMC2    C4 2519   3.200   0.869   0.779  0.5501 -0.1485 -0.1499
  162TMC2    C5 2520   3.318   0.920   0.816 -0.5622 -0.3273  0.1968
  162TMC2    C6 2521   3.349   1.043   0.766  0.3832 -0.5832 -0.6250
  162TMC2     C 2522   3.015   0.844   0.619 -1.0005  0.2758  0.2467
  162TMC2     O 2523   2.996   0.863   0.499 -0.8163 -0.1336  0.0532
  162TMC2     H 2524   3.113   1.095   0.541  0.3345 -0.1500 -1.0798
  162TMC2    H1 2525   3.190   0.767   0.813  1.3019 -0.0187  0.4664
  162TMC2    H2 2526   3.445   1.084   0.795  0.6104 -0.1266 -1.9986
  162TMC2    C7 2527   3.398   0.879   0.933  0.3526 -0.1291 -1.3671
  162TMC2    C8 2528   3.264   1.253   0.673  0.1293 -0.5224  0.3809
  162TMC2    O1 2529   3.507   0.925   0.951 -0.4709 -0.4094  0.1681
  162TMC2    O2 2530   3.209   1.322   0.587 -0.6526 -0.3995  0.8774
  162TMC2    O5 2531   3.328   1.305   0.782 -0.2009  0.4360 -0.0706
  162TMC2    H5 2532   3.337   1.245   0.859 -0.0628  0.1918 -0.2756
  163MPD2     C 2533   2.738   0.425   0.611  0.1318 -0.2389  0.4498
  163MPD2    C1 2534   2.781   0.490   0.503  0.4686 -0.3310 -0.5373
  163MPD2    C2 2535   2.857   0.606   0.535 -0.9449 -0.1008 -0.2269
  163MPD2    C3 2536   2.876   0.644   0.668  0.0135 -0.3957 -0.7792
  163MPD2    C4 2537   2.829   0.569   0.773 -0.4461  0.2537 -0.2648
  163MPD2    C5 2538   2.762   0.453   0.740 -0.0148 -0.2310 -0.3526
  163MPD2     H 2539   2.903   0.659   0.453 -1.2279 -0.2785 -0.4993
  163MPD2    H1 2540   2.841   0.589   0.879 -0.1014  1.0063 -0.4479
  163MPD2    H2 2541   2.668   0.346   0.587  0.8319 -2.0217  4.2898
  163MPD2    H3 2542   2.706   0.409   0.822 -0.4934 -0.6519 -0.9034
  163MPD2     N 2543   2.953   0.757   0.704 -0.5308 -0.7717 -0.4612
  163MPD2    H5 2544   2.970   0.776   0.802 -0.5489 -0.0962 -0.5900
  163MPD2    N1 2545   2.760   0.435   0.377  0.7109  0.2818 -0.1488
  163MPD2    H7 2546   2.718   0.343   0.373  1.4636 -0.1789  2.4579
  164TMC2    C1 2547   3.513   0.292  11.603 -0.4574  0.3924  0.3142
  164TMC2    C2 2548   3.494   0.263  11.733 -0.0711  0.5492 -0.3229
  164TMC2    C3 2549   3.449   0.361  11.817  0.1290  0.7808  0.2449
  164TMC2    C4 2550   3.463   0.406  11.542  0.3916 -0.0614  0.6039
  164TMC2    C5 2551   3.410   0.497  11.631  0.1971 -0.9175 -0.3500
  164TMC2    C6 2552   3.403   0.481  11.767  0.9402  0.2058  0.0813
  164TMC2     C 2553   3.580   0.186  11.527 -0.3707  0.0344 -0.2822
  164TMC2     O 2554   3.607   0.078  11.578  0.4244 -0.3322  0.2328
  164TMC2     H 2555   3.515   0.162  11.767 -4.1842 -0.4099 -0.7323
  164TMC2    H1 2556   3.468   0.421  11.435 -0.7526  0.2643  0.6027
  164TMC2    H2 2557   3.342   0.546  11.828  0.9088 -0.4309  0.7427
  164TMC2    C7 2558   3.356   0.619  11.585  0.1071  0.8480 -0.7515
  164TMC2    C8 2559   3.393   0.310  11.941 -0.3656 -0.6303 -0.0068
  164TMC2    O1 2560   3.295   0.622  11.481  0.7221  0.1565  0.8842
  164TMC2    O2 2561   3.300   0.375  11.990 -0.5232 -0.4314  0.1255
  164TMC2    O5 2562   3.487   0.244  12.017  0.3342  0.2199 -0.8009
  164TMC2    H5 2563   3.571   0.227  11.970  0.3393 -1.6800 -0.0914
  165TMC2    C1 2564   4.731   2.050   1.202  0.1083 -0.2090  0.6178
  165TMC2    C2 2565   0.091   1.956   1.223  0.4132 -1.5847  0.5992
  165TMC2    C3 2566   0.214   1.974   1.168  0.1902  0.9542  0.4070
  165TMC2    C4 2567   0.015   2.167   1.130  0.0296  0.2682  0.5384
  165TMC2    C5 2568   0.151   2.195   1.094  0.0242  0.5136  0.1925
  165TMC2    C6 2569   0.240   2.090   1.099 -0.3238  0.2140 -0.9876
  165TMC2     C 2570   4.644   2.069   1.313  0.2375  0.0901 -0.8073
  165TMC2     O 2571   4.637   2.187   1.339 -0.2709  0.2897  0.3200
  165TMC2     H 2572   0.086   1.870   1.288 -3.3664  0.0384  2.3959
  165TMC2    H1 2573   4.681   2.246   1.116 -0.5279 -1.1306 -4.5416
  165TMC2    H2 2574   0.342   2.103   1.062  0.1157  0.0395  0.1581
  165TMC2    C7 2575   0.204   2.320   1.147 -0.0870  0.2137 -0.2682
  165TMC2    C8 2576   0.309   1.862   1.183 -0.9821  0.6530 -0.6710
  165TMC2    O1 2577   0.321   2.333   1.120 -0.2792 -0.6908  0.1155
  165TMC2    O2 2578   0.326   1.814   1.291  0.3856 -0.3607  0.2568
  165TMC2    O5 2579   0.397   1.868   1.082 -0.1149  0.0647 -0.3652
  165TMC2    H5 2580   0.346   1.889   1.001 -2.8388  2.4831  1.9494
  166MPD2     C 2581   4.330   1.982   1.700  0.2229  0.4368 -0.2464
  166MPD2    C1 2582   4.347   1.865   1.624  0.2786 -0.2281 -0.7878
  166MPD2    C2 2583   4.443   1.856   1.524 -0.2762 -0.0926  0.4979
  166MPD2    C3 2584   4.521   1.966   1.493 -1.2778  0.2030  0.3407
  166MPD2    C4 2585   4.516   2.075   1.584  0.0926  0.7790 -0.5059
  166MPD2    C5 2586   4.420   2.085   1.678  0.8099  0.1525  0.0984
  166MPD2     H 2587   4.459   1.763   1.470 -2.1338 -0.4336  0.5372
  166MPD2    H1 2588   4.583   2.159   1.568 -0.1358  1.0373 -0.1216
  166MPD2    H2 2589   4.268   1.993   1.788  1.0191 -0.4069  0.4240
  166MPD2    H3 2590   4.415   2.177   1.736 -0.6196 -1.1460  2.0429
  166MPD2     N 2591   4.607   1.959   1.379  0.2150  0.6103 -0.1502
  166MPD2    H5 2592   4.620   1.872   1.328 -0.8627 -1.2286  2.6745
  166MPD2    N1 2593   4.275   1.753   1.671 -0.6385  0.3315 -0.3762
  166MPD2    H7 2594   4.219   1.773   1.753  0.9199 -0.2145  0.8084
  167TMC2    C1 2595   2.701   0.004  12.827 -0.1312  0.1850 -0.4813
  167TMC2    C2 2596   2.615   4.681  12.913 -0.4655 -0.6257 -0.1326
  167TMC2    C3 2597   2.669   4.602  13.005  0.6475 -0.4952  0.2193
  167TMC2    C4 2598   2.833   4.710  12.809  0.9293 -0.7021  0.2268
  167TMC2    C5 2599   2.875   4.611  12.897  0.3746  0.0627  0.4699
  167TMC2    C6 2600   2.795   4.560  12.999 -0.3000  1.0953 -0.1242
  167TMC2     C 2601   2.641   0.093  12.735 -0.0162 -0.1947  0.8319
  167TMC2     O 2602   2.524   0.067  12.696  0.0997  0.4632 -0.3062
  167TMC2     H 2603   2.522   4.733  12.931  0.3220  1.0913 -1.0536
  167TMC2    H1 2604   2.897   0.018  12.736  0.2025  0.7788  0.5608
  167TMC2    H2 2605   2.847   4.501  13.074  2.9336  1.2228 -2.2757
  167TMC2    C7 2606   3.013   4.551  12.892 -0.4772 -0.5143  0.2061
  167TMC2    C8 2607   2.596   4.589  13.129  0.2580 -0.0641 -0.4534
  167TMC2    O1 2608   3.054   4.498  12.997  0.0146 -0.3134 -0.3724
  167TMC2    O2 2609   2.649   4.590  13.235  0.3133 -0.2005 -0.5356
  167TMC2    O5 2610   2.465   4.567  13.112  0.0814 -0.2485 -0.2715
  167TMC2    H5 2611   2.431   4.559  13.020 -1.7980 -1.0606  0.4982
  168MPD2     C 2612   2.646   0.239  12.484 -0.3254  0.5090  0.1760
  168MPD2    C1 2613   2.724   0.274  12.597 -0.2201  0.7528  0.0660
  168MPD2    C2 2614   2.820   0.376  12.580 -0.3305  0.6301 -0.2462
  168MPD2    C3 2615   2.842   0.432  12.453 -0.1561  0.2674 -0.0786
  168MPD2    C4 2616   2.769   0.386  12.339 -0.2209  0.3199 -0.3516
  168MPD2    C5 2617   2.668   0.298  12.358 -0.7016 -0.6958 -0.5042
  168MPD2     H 2618   2.891   0.398  12.659  0.1834 -1.9182  0.0109
  168MPD2    H1 2619   2.796   0.415  12.239  1.0239 -0.1441 -0.1506
  168MPD2    H2 2620   2.568   0.163  12.491  0.4656 -0.1271  2.3018
  168MPD2    H3 2621   2.604   0.261  12.279  0.7401 -3.3308 -0.4125
  168MPD2     N 2622   2.942   0.532  12.444  0.5725 -0.3164  0.7917
  168MPD2    H5 2623   2.985   0.576  12.525  2.1270 -0.3933 -0.0061
  168MPD2    N1 2624   2.728   0.197  12.716  0.5405  0.0241  0.4551
  168MPD2    H7 2625   2.809   0.199  12.777 -0.8902 -0.7206  2.3723
  169MPD1     C 2626   0.167   4.584   8.422  0.3822 -0.1609 -0.3862
  169MPD1    C1 2627   0.166   4.692   8.507  0.5136 -0.8542  0.7301
  169MPD1    C2 2628   0.191   4.673   8.640  0.5757  0.6280  0.3122
  169MPD1    C3 2629   0.191   4.552   8.696  0.4126 -0.7846  0.0787
  169MPD1    C4 2630   0.195   4.440   8.620  0.3053  0.3868  0.6136
  169MPD1    C5 2631   0.182   4.459   8.482 -0.1719 -0.4792  0.0913
  169MPD1     H 2632   0.202   0.023   8.701 -1.2917  1.3047 -0.3145
  169MPD1    H1 2633   0.197   4.338   8.656 -2.7953  0.1790  0.1846
  169MPD1    H2 2634   0.167   4.595   8.314  0.6487  0.2408 -0.3459
  169MPD1    H3 2635   0.188   4.371   8.418  1.6254 -0.2565 -0.0257
  169MPD1     N 2636   0.212   4.544   8.835  0.4305 -0.0622  0.2553
  169MPD1    H5 2637   0.230   4.631   8.885 -1.2207 -1.1335  2.7417
  169MPD1    N1 2638   0.175   0.083   8.444 -0.6616  0.5255  0.4378
  169MPD1    H6 2639   0.131   0.159   8.496 -1.1116  1.0915 -0.7781
  169MPD1    H7 2640   0.133   0.088   8.352 -1.9734 -1.1216  0.9557
  170MPD1     C 2641   3.969   2.755  12.920  0.3478 -0.1552  0.5492
  170MPD1    C1 2642   3.976   2.685  13.040  0.3792  0.2728  0.0227
  170MPD1    C2 2643   3.919   2.734  13.152  0.1254  0.3105  0.3352
  170MPD1    C3 2644   3.841   2.849  13.148  0.9043  0.0825 -0.0903
  170MPD1    C4 2645   3.835   2.915  13.025 -0.1469  0.3494  0.4161
  170MPD1    C5 2646   3.886   2.861  12.912 -0.2181  0.2067  0.2420
  170MPD1     H 2647   3.926   2.686  13.249 -0.1088  0.7416  0.5657
  170MPD1    H1 2648   3.784   3.010  13.015 -0.6525  0.0571  0.2149
  170MPD1    H2 2649   4.021   2.719  12.833 -0.4823 -0.4672  0.1767
  170MPD1    H3 2650   3.873   2.912  12.818  0.1142 -0.1875 -0.0221
  170MPD1     N 2651   3.786   2.907  13.264 -0.3313 -0.0022  0.3044
  170MPD1    H5 2652   3.754   3.002  13.246  0.3934 -0.3006 -2.5270
  170MPD1    N1 2653   4.067   2.580  13.050 -0.0061  0.6522 -0.2007
  170MPD1    H6 2654   4.028   2.510  13.112  1.1749  1.4566  1.4341
  170MPD1    H7 2655   4.097   2.531  12.965 -3.0352  0.1977 -0.9937
  171MPD1     C 2656   2.376   3.994  15.152  0.6817  0.5998  0.4733
  171MPD1    C1 2657   2.268   3.915  15.181 -0.8178  0.6580  0.3777
  171MPD1    C2 2658   2.300   3.807  15.270  0.0077 -0.3363 -0.0058
  171MPD1    C3 2659   2.417   3.802  15.347  0.5959  0.4160  0.2417
  171MPD1    C4 2660   2.512   3.896  15.321 -0.8010 -0.8561 -0.0783
  171MPD1    C5 2661   2.494   3.982  15.216 -0.5427  0.4180 -0.0088
  171MPD1     H 2662   2.215   3.743  15.286  0.4071 -1.1536 -1.1109
  171MPD1    H1 2663   2.611   3.889  15.367 -1.4938  0.1367  1.5594
  171MPD1    H2 2664   2.371   4.064  15.070  1.7750 -2.7698 -2.4495
  171MPD1    H3 2665   2.580   4.044  15.193  1.2243 -1.8833  0.3453
  171MPD1     N 2666   2.437   3.714  15.449 -0.3198  0.5842  0.4838
  171MPD1    H5 2667   2.529   3.711  15.492 -0.1653  2.6376  0.2919
  171MPD1    N1 2668   2.149   3.919  15.099  0.3427 -0.4835 -0.1847
  171MPD1    H6 2669   2.071   3.894  15.160  0.1628 -2.1314 -1.0882
  171MPD1    H7 2670   2.133   4.014  15.065  0.6094 -0.6860 -0.8794
  172MPD1     C 2671   0.836   2.537   0.255  0.6830  0.4950  0.3995
  172MPD1    C1 2672   0.870   2.608   0.143  0.7775  0.0212 -0.0409
  172MPD1    C2 2673   0.931   2.732   0.152  0.4037 -0.3849 -0.5849
  172MPD1    C3 2674   0.922   2.789   0.274  0.5116  0.5167 -0.2686
  172MPD1    C4 2675   0.890   2.719   0.387 -0.7019  1.0821 -0.4091
  172MPD1    C5 2676   0.863   2.587   0.377 -0.2233 -0.4371 -0.3826
  172MPD1     H 2677   0.964   2.784   0.063 -0.7023  0.3926 -0.5473
  172MPD1    H1 2678   0.893   2.756   0.489 -1.3924  0.3899 -0.1339
  172MPD1    H2 2679   0.809   2.433   0.244 -2.4088  1.5862 -2.2165
  172MPD1    H3 2680   0.845   2.537   0.472  0.4815  0.1527  0.0579
  172MPD1     N 2681   0.960   2.924   0.289 -0.3261 -0.9412 -0.3092
  172MPD1    H5 2682   0.964   2.954   0.386 -2.5114  1.5837 -0.9770
  172MPD1    N1 2683   0.849   2.544   0.014 -0.7011  0.7472 -0.1706
  172MPD1    H6 2684   0.761   2.500   0.040 -0.7832  1.1049  0.1519
  172MPD1    H7 2685   0.819   2.620  17.707 -0.1885  1.1420  0.0744
  173MPD1     C 2686   3.386   3.543  14.179 -0.7901 -0.4038 -0.1041
  173MPD1    C1 2687   3.323   3.540  14.303  1.5335 -0.1646 -0.4336
  173MPD1    C2 2688   3.251   3.432  14.331 -1.4256 -0.2542 -0.6856
  173MPD1    C3 2689   3.274   3.316  14.270 -0.5174 -0.2539  0.4422
  173MPD1    C4 2690   3.345   3.307  14.158  0.5296 -0.1962 -0.6771
  173MPD1    C5 2691   3.400   3.424  14.117  0.5907  0.4252 -0.0459
  173MPD1     H 2692   3.187   3.440  14.418  0.2507  0.7428  0.4407
  173MPD1    H1 2693   3.375   3.216  14.107  1.5657  1.0434 -2.2672
  173MPD1    H2 2694   3.457   3.619  14.149  0.3817 -1.5397 -0.1977
  173MPD1    H3 2695   3.447   3.424  14.019  0.4149 -2.0651 -0.1263
  173MPD1     N 2696   3.217   3.200  14.331  0.0519 -0.3621  0.5534
  173MPD1    H5 2697   3.152   3.223  14.405  0.5539  0.4299  0.7494
  173MPD1    N1 2698   3.316   3.652  14.389 -0.6058 -0.8967 -0.2464
  173MPD1    H6 2699   3.319   3.629  14.488 -0.5693 -0.4753 -0.1489
  173MPD1    H7 2700   3.396   3.712  14.373  0.0937 -1.8038 -0.1296
  174MPD1     C 2701   3.462   2.222  14.703  0.2406  0.1443 -0.0772
  174MPD1    C1 2702   3.535   2.341  14.701  0.7064 -0.1125 -1.0234
  174MPD1    C2 2703   3.475   2.456  14.661 -0.4375 -0.4724 -0.9857
  174MPD1    C3 2704   3.341   2.465  14.650 -0.2279 -0.1953 -0.9085
  174MPD1    C4 2705   3.269   2.352  14.665  0.0408  0.8540  0.0155
  174MPD1    C5 2706   3.328   2.232  14.688  0.1472 -0.7403 -0.6199
  174MPD1     H 2707   3.539   2.543  14.651  0.5650 -1.0702  0.2678
  174MPD1    H1 2708   3.162   2.338  14.657 -0.1885  0.5823  3.5828
  174MPD1    H2 2709   3.512   2.127  14.715 -3.4150 -1.7617  0.0227
  174MPD1    H3 2710   3.261   2.148  14.702 -0.2822 -0.5633 -1.6055
  174MPD1     N 2711   3.266   2.580  14.612 -0.2139 -0.1559 -0.5420
  174MPD1    H5 2712   3.168   2.560  14.594  0.0644 -2.3048  0.3367
  174MPD1    N1 2713   3.667   2.334  14.749  0.0450  0.4314 -0.2667
  174MPD1    H6 2714   3.723   2.400  14.696 -2.1894  2.8335  0.3096
  174MPD1    H7 2715   3.699   2.239  14.734  2.6721  1.5713 -1.8428
  175MPD1     C 2716   1.122   3.348  15.369 -0.1985  0.0031 -0.7177
  175MPD1    C1 2717   1.037   3.343  15.475  0.0550  0.1573  0.1405
  175MPD1    C2 2718   1.081   3.401  15.592  0.3791 -0.5640  0.7785
  175MPD1    C3 2719   1.206   3.468  15.603  0.5786  0.0827 -0.5907
  175MPD1    C4 2720   1.275   3.487  15.491  0.1746 -0.4147  0.1255
  175MPD1    C5 2721   1.232   3.425  15.384  0.7155  0.4597 -0.5032
  175MPD1     H 2722   1.018   3.386  15.678  0.3378 -0.2891  0.7959
  175MPD1    H1 2723   1.365   3.546  15.479 -0.3298  0.3535  0.1122
  175MPD1    H2 2724   1.102   3.313  15.268  0.3220 -0.4001 -0.6809
  175MPD1    H3 2725   1.292   3.437  15.294  1.7483  3.0389  0.5232
  175MPD1     N 2726   1.261   3.541  15.712 -0.1054 -0.0479  0.4761
  175MPD1    H5 2727   1.349   3.585  15.686  0.2057 -0.3411  1.0411
  175MPD1    N1 2728   0.906   3.292  15.467 -0.2044  0.0073 -0.1331
  175MPD1    H6 2729   0.894   3.216  15.400 -3.4422  1.3083 -0.9858
  175MPD1    H7 2730   0.875   3.249  15.554 -0.4753  0.5157  0.0230
  176MPD1     C 2731   2.975   1.182   0.248  0.0479 -0.0489  0.1490
  176MPD1    C1 2732   2.917   1.177   0.123 -0.3172 -0.4087 -0.2249
  176MPD1    C2 2733   2.914   1.289   0.046  0.8541  0.6626  0.3068
  176MPD1    C3 2734   2.959   1.410   0.093  0.0462 -0.5918 -0.1150
  176MPD1    C4 2735   3.015   1.413   0.217  0.1525 -0.2547  0.0622
  176MPD1    C5 2736   3.034   1.300   0.290  1.2291  0.4624 -0.0477
  176MPD1     H 2737   2.884   1.265  17.699  3.7439  1.3914 -0.7172
  176MPD1    H1 2738   3.058   1.504   0.257 -2.0572  1.2749 -1.0143
  176MPD1    H2 2739   2.987   1.096   0.313  0.8235  1.2896  1.7938
  176MPD1    H3 2740   3.067   1.308   0.393 -1.9295 -0.3822  1.0103
  176MPD1     N 2741   2.947   1.521   0.004  0.8712  0.6679 -0.0275
  176MPD1    H5 2742   2.912   1.495  17.667  2.7495  0.7620 -0.7733
  176MPD1    N1 2743   2.864   1.059   0.065  0.1020 -0.4576 -0.0852
  176MPD1    H6 2744   2.871   0.979   0.128 -0.8244 -1.8423 -1.7377
  176MPD1    H7 2745   2.778   1.065   0.011  0.0809  2.0963  0.2451
  177MPD1     C 2746   1.577   1.366   9.396 -0.5967  0.0335  0.1598
  177MPD1    C1 2747   1.511   1.435   9.497  0.7750  0.1098  0.5680
  177MPD1    C2 2748   1.376   1.409   9.503  0.6998  0.0908  0.4045
  177MPD1    C3 2749   1.315   1.330   9.410  0.3970  0.2855 -0.4524
  177MPD1    C4 2750   1.389   1.258   9.319 -0.6839  0.6082 -0.5995
  177MPD1    C5 2751   1.521   1.269   9.319 -0.0544  0.3768  0.3829
  177MPD1     H 2752   1.316   1.478   9.562  2.6256  2.4288 -0.4154
  177MPD1    H1 2753   1.346   1.184   9.253 -0.4273  1.5747 -1.8343
  177MPD1    H2 2754   1.684   1.378   9.397 -1.0012  3.6718  0.8368
  177MPD1    H3 2755   1.576   1.217   9.242  1.0143  2.2523 -0.1433
  177MPD1     N 2756   1.178   1.343   9.401  0.1494 -0.2059  0.4144
  177MPD1    H5 2757   1.129   1.408   9.462 -0.6192 -1.6148  1.2997
  177MPD1    N1 2758   1.565   1.545   9.554  0.1469  0.6415  0.1251
  177MPD1    H6 2759   1.524   1.552   9.647  1.5331  1.1069  0.6887
  177MPD1    H7 2760   1.664   1.523   9.559 -0.1319 -0.3366  1.5405
  178MPD1     C 2761   3.241   1.420  17.671 -1.4813  0.2876 -0.0886
  178MPD1    C1 2762   3.209   1.363  17.543 -0.5668  0.4850 -0.2616
  178MPD1    C2 2763   3.270   1.419  17.433 -1.3833 -0.0658 -0.4921
  178MPD1    C3 2764   3.355   1.521  17.436 -0.1038  0.2559 -0.6748
  178MPD1    C4 2765   3.390   1.576  17.561  0.0653 -0.8089 -0.1946
  178MPD1    C5 2766   3.327   1.526  17.673  0.2233  0.3256 -0.0211
  178MPD1     H 2767   3.240   1.373  17.339  0.5114 -0.1546 -1.0561
  178MPD1    H1 2768   3.446   1.667  17.579 -0.8960 -0.0786 -0.8969
  178MPD1    H2 2769   3.196   1.382   0.008  0.4572 -0.4277  0.5652
  178MPD1    H3 2770   3.356   1.574   0.012 -0.1670  0.0330  0.2519
  178MPD1     N 2771   3.429   1.577  17.321  0.2136 -0.0674 -0.0677
  178MPD1    H5 2772   3.493   1.652  17.345 -0.4382  1.3961 -2.9042
  178MPD1    N1 2773   3.140   1.242  17.533 -0.0004  0.1763  0.6571
  178MPD1    H6 2774   3.076   1.233  17.611 -0.7035 -0.4095  0.0103
  178MPD1    H7 2775   3.087   1.242  17.446  1.0273  2.0382  0.0116
  179MPD1     C 2776   4.146   0.362  15.763 -0.0461 -0.7516  0.2519
  179MPD1    C1 2777   4.014   0.389  15.750 -0.1306 -1.0119 -0.1834
  179MPD1    C2 2778   3.919   0.290  15.717 -0.0415  0.4601  0.4723
  179MPD1    C3 2779   3.962   0.161  15.693 -1.2405 -0.3130 -0.8225
  179MPD1    C4 2780   4.099   0.136  15.699 -0.1132  0.6278  0.2592
  179MPD1    C5 2781   4.187   0.232  15.737  0.2511 -0.2711 -0.3321
  179MPD1     H 2782   3.814   0.318  15.727 -0.0303  1.1503 -1.3710
  179MPD1    H1 2783   4.137   0.037  15.678 -1.9168  0.4054 -2.0054
  179MPD1    H2 2784   4.220   0.428  15.806 -0.2668 -0.6101  0.4086
  179MPD1    H3 2785   4.292   0.210  15.730 -0.0486 -0.9352 -2.5400
  179MPD1     N 2786   3.880   0.047  15.668  0.2198  0.4851 -0.4507
  179MPD1    H5 2787   3.934   4.701  15.654 -0.5107 -0.0679  0.0987
  179MPD1    N1 2788   3.970   0.513  15.796  0.7062  0.2643  0.4773
  179MPD1    H6 2789   3.886   0.538  15.744 -1.0471 -3.9975  1.2304
  179MPD1    H7 2790   4.030   0.592  15.775  1.0481 -0.0499  0.2840
  180MPD1     C 2791   2.286   1.316  14.756  0.0844 -0.2362 -0.0233
  180MPD1    C1 2792   2.339   1.235  14.663  0.1135 -0.2115 -0.6327
  180MPD1    C2 2793   2.438   1.290  14.584  0.3159 -0.2746  0.8743
  180MPD1    C3 2794   2.493   1.416  14.605  0.1593  0.1527 -0.1412
  180MPD1    C4 2795   2.442   1.485  14.710 -0.3725  0.5397 -0.1061
  180MPD1    C5 2796   2.333   1.437  14.789 -0.4396  0.7523  0.5090
  180MPD1     H 2797   2.465   1.231  14.497 -0.4833 -0.6412  0.8752
  180MPD1    H1 2798   2.471   1.586  14.735  0.1093  0.6219 -0.9849
  180MPD1    H2 2799   2.197   1.286  14.811  0.3483  0.0245  0.5548
  180MPD1    H3 2800   2.290   1.494  14.870 -3.1253 -1.8268  0.9240
  180MPD1     N 2801   2.587   1.464  14.509  0.1450  0.0396  0.4840
  180MPD1    H5 2802   2.600   1.419  14.419  0.1876  1.1245 -0.0494
  180MPD1    N1 2803   2.276   1.115  14.635 -0.2686  0.2064  0.3732
  180MPD1    H6 2804   2.246   1.079  14.726 -0.4884  0.0098  0.2264
  180MPD1    H7 2805   2.351   1.054  14.605  1.5726  1.9145  1.5486
  181MPD1     C 2806   0.314   2.694  10.158 -0.0886 -0.8785  0.2422
  181MPD1    C1 2807   0.328   2.803  10.242 -0.1079 -0.0941  1.4366
  181MPD1    C2 2808   0.438   2.881  10.223  0.4335 -0.8695  0.0334
  181MPD1    C3 2809   0.546   2.834  10.148 -0.6481 -0.2861  0.1833
  181MPD1    C4 2810   0.532   2.725  10.065 -0.2105 -0.2642 -0.5149
  181MPD1    C5 2811   0.416   2.665  10.069 -0.1333  0.1061  0.2341
  181MPD1     H 2812   0.451   2.975  10.275  1.2396 -0.7512 -0.3825
  181MPD1    H1 2813   0.614   2.683  10.008  0.1400 -0.1566 -0.0865
  181MPD1    H2 2814   0.225   2.633  10.147  0.1323 -1.1818  0.1014
  181MPD1    H3 2815   0.399   2.571  10.016 -0.2971 -1.5394  3.2081
  181MPD1     N 2816   0.673   2.888  10.147 -0.1713  0.1453  0.1127
  181MPD1    H5 2817   0.745   2.838  10.096  0.9259  3.1420 -1.2821
  181MPD1    N1 2818   0.216   2.853  10.317 -0.0798 -0.5164 -0.0137
  181MPD1    H6 2819   0.157   2.777  10.351  1.4567 -1.3497  0.7829
  181MPD1    H7 2820   0.257   2.902  10.396  0.2256  0.4137 -0.7400
  182MPD1     C 2821   4.149   0.486   1.704  0.0006  0.4689 -0.1685
  182MPD1    C1 2822   4.175   0.423   1.581  0.4878  0.1346 -0.8916
  182MPD1    C2 2823   4.252   0.493   1.494  0.8732 -0.4175 -0.0783
  182MPD1    C3 2824   4.320   0.608   1.527  0.1292 -0.2152  0.8355
  182MPD1    C4 2825   4.309   0.656   1.654  0.2716 -0.4973  0.0381
  182MPD1    C5 2826   4.218   0.597   1.737  0.4987  0.5480 -0.5266
  182MPD1     H 2827   4.256   0.457   1.391 -0.9540  1.6337 -0.8784
  182MPD1    H1 2828   4.364   0.744   1.685 -0.3108  0.7798 -2.5879
  182MPD1    H2 2829   4.076   0.447   1.774 -0.5399  0.9995 -0.4372
  182MPD1    H3 2830   4.211   0.631   1.839  2.7763 -0.8675  0.1076
  182MPD1     N 2831   4.413   0.672   1.443  0.3902  0.0123  0.6054
  182MPD1    H5 2832   4.469   0.750   1.477 -1.2577  0.2303  2.8186
  182MPD1    N1 2833   4.109   0.301   1.548  0.3106 -0.5253  0.3312
  182MPD1    H6 2834   4.151   0.258   1.466  4.5564  1.0148  1.6814
  182MPD1    H7 2835   4.105   0.231   1.623 -0.4183  0.3597  1.1208
  183MPD1     C 2836   1.371   2.288   8.965  0.2522 -0.3270  0.1224
  183MPD1    C1 2837   1.291   2.399   8.969 -0.4078  0.2681  0.3564
  183MPD1    C2 2838   1.338   2.509   9.040 -0.5977 -0.0328 -0.1704
  183MPD1    C3 2839   1.449   2.496   9.128 -0.2558 -0.5408 -0.4551
  183MPD1    C4 2840   1.531   2.383   9.117 -0.0579  0.3352  0.1400
  183MPD1    C5 2841   1.487   2.284   9.040  0.9643 -0.7245  0.4416
  183MPD1     H 2842   1.284   2.603   9.048 -0.1996  0.1356  0.5546
  183MPD1    H1 2843   1.614   2.361   9.183  0.9372 -0.2883 -1.3070
  183MPD1    H2 2844   1.358   2.194   8.914 -0.7703 -0.7755  1.2288
  183MPD1    H3 2845   1.541   2.190   9.032 -2.0301 -2.1462 -3.1634
  183MPD1     N 2846   1.473   2.598   9.226 -0.4834  0.2438  0.8305
  183MPD1    H5 2847   1.416   2.681   9.211 -1.0209 -0.1091  0.9416
  183MPD1    N1 2848   1.181   2.399   8.884 -0.6454  0.6729  0.2181
  183MPD1    H6 2849   1.132   2.309   8.875  2.7648 -1.2276  0.8807
  183MPD1    H7 2850   1.105   2.459   8.914 -0.7012  0.8835 -0.3403
  184MPD1     C 2851   0.151   1.301   9.275 -0.0545  0.1814  0.2236
  184MPD1    C1 2852   0.284   1.335   9.301 -0.5742 -0.5394 -0.3119
  184MPD1    C2 2853   0.362   1.245   9.373 -0.2955  0.4957  0.3210
  184MPD1    C3 2854   0.318   1.123   9.420 -0.0065  0.6392  0.0226
  184MPD1    C4 2855   0.184   1.098   9.395 -0.1082  0.7498  0.4707
  184MPD1    C5 2856   0.108   1.181   9.323 -0.3222  0.4565  0.0147
  184MPD1     H 2857   0.468   1.268   9.382 -0.5660  0.6012  3.2050
  184MPD1    H1 2858   0.138   1.005   9.423 -1.3102  0.8974 -0.9588
  184MPD1    H2 2859   0.081   1.366   9.225 -0.6519 -1.2530 -0.7801
  184MPD1    H3 2860   0.009   1.142   9.303  0.2789 -0.3235 -1.4142
  184MPD1     N 2861   0.386   1.032   9.503  0.3237 -0.1552 -0.1402
  184MPD1    H5 2862   0.337   0.953   9.543  0.6271 -0.5857 -0.6225
  184MPD1    N1 2863   0.338   1.445   9.228 -0.0421  0.7987 -0.0536
  184MPD1    H6 2864   0.417   1.493   9.270 -0.2800  0.3513  0.8950
  184MPD1    H7 2865   0.274   1.519   9.198 -1.6023 -1.6847 -2.7747
  185MPD1     C 2866   0.082   0.822  10.269 -0.7567  0.1914  0.1363
  185MPD1    C1 2867   0.083   0.945  10.210 -0.5101 -0.0353 -0.3911
  185MPD1    C2 2868   0.174   0.963  10.106  0.1475  0.1442  0.1452
  185MPD1    C3 2869   0.264   0.867  10.067 -0.3637 -0.1823  0.3233
  185MPD1    C4 2870   0.256   0.746  10.129 -0.1308 -0.3505 -0.4534
  185MPD1    C5 2871   0.166   0.721  10.223  0.6394  0.1418 -0.5640
  185MPD1     H 2872   0.180   1.057  10.053  2.1323  0.2042  0.4631
  185MPD1    H1 2873   0.314   0.664  10.088 -0.1416 -2.2992  3.3456
  185MPD1    H2 2874   0.023   0.800  10.357  0.0225 -1.5167  0.2419
  185MPD1    H3 2875   0.151   0.625  10.271  1.5923  0.6525  0.7477
  185MPD1     N 2876   0.362   0.899   9.972  0.1482 -0.1318 -0.4533
  185MPD1    H5 2877   0.348   0.982   9.915 -2.0265 -2.5609 -3.4356
  185MPD1    N1 2878   4.724   1.041  10.237 -0.1862 -0.1517  0.2834
  185MPD1    H6 2879   4.669   1.033  10.322 -1.4172  3.0204 -0.2159
  185MPD1    H7 2880   0.033   1.131  10.235  0.9112 -0.7538 -0.3579
  186MPD1     C 2881   4.277   4.223  15.857 -0.0037  0.2692 -0.1887
  186MPD1    C1 2882   4.349   4.338  15.834  0.0365  0.3969 -0.0627
  186MPD1    C2 2883   4.319   4.452  15.911 -0.7111  0.5058  0.6739
  186MPD1    C3 2884   4.209   4.454  15.989  0.7048 -0.0494 -0.3866
  186MPD1    C4 2885   4.128   4.343  16.003 -0.2820  0.3878 -0.0306
  186MPD1    C5 2886   4.162   4.230  15.934 -1.3339  1.0527  0.4598
  186MPD1     H 2887   4.372   4.544  15.891 -0.2939 -0.1879 -1.4793
  186MPD1    H1 2888   4.048   4.344  16.076 -0.1134  0.9498  0.1526
  186MPD1    H2 2889   4.293   4.127  15.809 -0.6281  0.3677 -0.6095
  186MPD1    H3 2890   4.115   4.137  15.963 -1.1093  0.4029 -1.2364
  186MPD1     N 2891   4.155   4.569  16.052  0.0348 -0.0816 -0.3671
  186MPD1    H5 2892   4.073   4.550  16.109 -0.9877  0.2636 -1.7160
  186MPD1    N1 2893   4.463   4.337  15.759  0.2289 -1.0323  0.1750
  186MPD1    H6 2894   4.466   4.275  15.678  0.9943  0.7218 -1.1193
  186MPD1    H7 2895   4.489   4.427  15.720  2.2180 -1.4824  0.4375
  187MPD1     C 2896   3.089   2.761  17.652  0.3542  0.1584  0.5816
  187MPD1    C1 2897   2.984   2.671  17.657 -0.4810  0.4506  0.9934
  187MPD1    C2 2898   2.956   2.593  17.541 -0.5020  0.2963  0.4192
  187MPD1    C3 2899   3.027   2.607  17.426 -0.2553  0.8922 -0.2141
  187MPD1    C4 2900   3.131   2.700  17.417  0.7111 -0.2216  0.0679
  187MPD1    C5 2901   3.160   2.772  17.532 -0.3098 -0.3011  0.0390
  187MPD1     H 2902   2.876   2.520  17.550 -1.1185  0.9101 -0.0999
  187MPD1    H1 2903   3.182   2.712  17.323 -0.7824  1.1407 -0.5599
  187MPD1    H2 2904   3.122   2.818  17.739  1.5419 -1.7748  1.3988
  187MPD1    H3 2905   3.243   2.841  17.530  0.1760 -0.8109  2.4335
  187MPD1     N 2906   3.006   2.533  17.307  0.3572 -0.1116 -0.6241
  187MPD1    H5 2907   3.073   2.548  17.233  0.4975  0.2168 -0.4315
  187MPD1    N1 2908   2.898   2.663   0.015  0.0811  0.2862  0.0956
  187MPD1    H6 2909   2.822   2.595   0.009  1.4665 -1.3296  0.9076
  187MPD1    H7 2910   2.957   2.642   0.095  2.9998 -0.5023 -2.2715
  188MPD1     C 2911   3.777   2.349   9.850  0.3832  0.4470 -0.0514
  188MPD1    C1 2912   3.731   2.290   9.971  0.6839  0.3452 -0.1436
  188MPD1    C2 2913   3.653   2.179   9.952 -0.4658  0.0671  0.4550
  188MPD1    C3 2914   3.606   2.143   9.831 -0.6172  0.1390  0.4684
  188MPD1    C4 2915   3.642   2.207   9.718 -0.3372 -0.2309  0.4319
  188MPD1    C5 2916   3.725   2.313   9.729  0.3471 -0.4304 -0.1587
  188MPD1     H 2917   3.624   2.120  10.038  1.2637  0.6757  1.4694
  188MPD1    H1 2918   3.620   2.165   9.621  0.6517  0.4265 -0.0758
  188MPD1    H2 2919   3.842   2.435   9.859  1.3416 -0.4963  2.0055
  188MPD1    H3 2920   3.775   2.360   9.645 -0.5094  0.0628 -0.3882
  188MPD1     N 2921   3.524   2.025   9.833 -0.2152 -0.8354 -0.0119
  188MPD1    H5 2922   3.517   1.979   9.923  1.1479  0.2041  0.6359
  188MPD1    N1 2923   3.780   2.328  10.091 -0.2489 -0.2520 -0.1908
  188MPD1    H6 2924   3.721   2.301  10.169 -1.1397 -1.2484 -1.2096
  188MPD1    H7 2925   3.790   2.429  10.104 -2.9462  0.0299 -0.4176
  189MPD1     C 2926   4.376   2.578   0.417  0.2571 -0.9749  0.2176
  189MPD1    C1 2927   4.261   2.534   0.344  0.4586  0.2703  0.1881
  189MPD1    C2 2928   4.167   2.631   0.326 -0.4129  0.3827 -0.1245
  189MPD1    C3 2929   4.163   2.755   0.392 -0.2736 -0.0418  0.2768
  189MPD1    C4 2930   4.269   2.786   0.477 -0.3187 -0.4835  0.4303
  189MPD1    C5 2931   4.376   2.698   0.479 -0.0181 -0.9178 -0.5174
  189MPD1     H 2932   4.086   2.602   0.260  0.0672  1.8492 -1.3492
  189MPD1    H1 2933   4.291   2.884   0.518 -1.3364 -0.5272  1.0782
  189MPD1    H2 2934   4.464   2.517   0.431  2.3679  2.0050  0.1009
  189MPD1    H3 2935   4.470   2.738   0.515 -2.0653  0.4959  3.2152
  189MPD1     N 2936   4.065   2.850   0.358 -0.7979  0.4150 -0.2230
  189MPD1    H5 2937   4.013   2.835   0.273  0.7755 -1.6770 -0.8184
  189MPD1    N1 2938   4.258   2.410   0.272  0.2663 -0.3819  0.2855
  189MPD1    H6 2939   4.307   2.338   0.324  2.3527  0.0361 -1.0721
  189MPD1    H7 2940   4.165   2.371   0.286  0.4252 -0.7367  0.3285
  190MPD1     C 2941   3.515   1.390  15.039 -0.5900 -0.2190 -0.2312
  190MPD1    C1 2942   3.644   1.338  15.027  1.0753 -0.4573 -0.5578
  190MPD1    C2 2943   3.719   1.324  15.144  0.0507 -0.3101  0.2679
  190MPD1    C3 2944   3.666   1.373  15.261 -0.4699  0.0066 -0.5658
  190MPD1    C4 2945   3.545   1.439  15.272 -0.0097  0.5121  0.2855
  190MPD1    C5 2946   3.466   1.449  15.156 -0.1107  0.1897 -0.2796
  190MPD1     H 2947   3.811   1.266  15.145  1.8030  2.4448 -1.8819
  190MPD1    H1 2948   3.506   1.472  15.368 -1.0444 -0.1999  0.1162
  190MPD1    H2 2949   3.453   1.401  14.951 -1.3539  1.0654  0.4715
  190MPD1    H3 2950   3.368   1.496  15.160  0.4985  1.2733  1.5392
  190MPD1     N 2951   3.738   1.340  15.377 -0.0297 -0.7844  0.3825
  190MPD1    H5 2952   3.832   1.304  15.362 -0.2302 -0.9317 -0.5488
  190MPD1    N1 2953   3.678   1.270  14.913 -0.0719  0.0181 -0.5186
  190MPD1    H6 2954   3.646   1.313  14.827  0.2283  1.6525  0.1918
  190MPD1    H7 2955   3.779   1.273  14.908  0.0532 -3.4531  0.1055
  191MPD1     C 2956   2.810   3.804  12.902 -0.0411 -0.0800  0.3709
  191MPD1    C1 2957   2.733   3.814  12.787  0.4185 -0.7380  0.6208
  191MPD1    C2 2958   2.783   3.832  12.665  0.2532  0.0580  0.0099
  191MPD1    C3 2959   2.920   3.867  12.660 -0.3620  0.4501  0.4785
  191MPD1    C4 2960   3.003   3.870  12.773 -0.3443  1.1269  0.6683
  191MPD1    C5 2961   2.945   3.833  12.893  0.3901 -0.0728 -0.1926
  191MPD1     H 2962   2.728   3.820  12.573 -0.9580  0.1550  0.7272
  191MPD1    H1 2963   3.110   3.885  12.779  0.2269 -2.5073  0.0727
  191MPD1    H2 2964   2.767   3.782  12.999 -1.8628  0.8526 -0.2182
  191MPD1    H3 2965   3.001   3.814  12.984  0.5914  1.9679  0.1096
  191MPD1     N 2966   2.976   3.899  12.531 -0.0657 -0.2587  0.0481
  191MPD1    H5 2967   3.077   3.892  12.531 -0.0279  0.3463  0.7094
  191MPD1    N1 2968   2.599   3.787  12.799  0.4114  0.8292 -0.1379
  191MPD1    H6 2969   2.542   3.811  12.719 -0.2624  0.0583  0.1088
  191MPD1    H7 2970   2.562   3.808  12.891 -0.2431 -1.7106  0.1895
  192MPD1     C 2971   2.720   4.677  11.960 -0.3203 -0.3144  0.3384
  192MPD1    C1 2972   2.815   4.609  11.877  0.0152 -0.3154 -0.1186
  192MPD1    C2 2973   2.842   4.476  11.908  0.1737 -1.1424  0.5934
  192MPD1    C3 2974   2.798   4.423  12.031 -0.4524 -0.2593  0.3130
  192MPD1    C4 2975   2.708   4.490  12.109 -0.6702 -0.0986  0.4586
  192MPD1    C5 2976   2.667   4.618  12.076 -0.6355  0.3770  0.2173
  192MPD1     H 2977   2.898   4.407  11.846  2.0882  1.0349 -0.0932
  192MPD1    H1 2978   2.662   4.445  12.196 -0.6751  1.2381  1.1473
  192MPD1    H2 2979   2.671   0.030  11.933 -1.0488 -0.4455  1.2393
  192MPD1    H3 2980   2.598   4.670  12.141  0.5066  0.6591  1.1958
  192MPD1     N 2981   2.843   4.301  12.080 -0.0891  0.3729  0.5832
  192MPD1    H5 2982   2.792   4.272  12.163  2.4744  1.1804  2.4208
  192MPD1    N1 2983   2.857   4.661  11.749 -0.2015  0.7117 -0.3500
  192MPD1    H6 2984   2.860   0.023  11.749 -1.4725  0.7532  2.2718
  192MPD1    H7 2985   2.950   4.627  11.724  0.2140 -0.4943  2.8039
  193MPD1     C 2986   2.350   3.389  15.944 -0.4741  0.0067  0.4793
  193MPD1    C1 2987   2.302   3.516  15.928  0.3359 -0.0297  0.3938
  193MPD1    C2 2988   2.379   3.631  15.976 -0.0879  0.2738 -0.3753
  193MPD1    C3 2989   2.482   3.615  16.062  0.5576  0.0184  0.3070
  193MPD1    C4 2990   2.515   3.481  16.092 -0.1571  0.4673  0.4691
  193MPD1    C5 2991   2.457   3.375  16.032  0.3236  0.1135 -0.3248
  193MPD1     H 2992   2.346   3.729  15.945  0.5512  0.5070 -0.3184
  193MPD1    H1 2993   2.604   3.472  16.154  0.1227  1.2150  0.1812
  193MPD1    H2 2994   2.302   3.300  15.905  0.3357 -0.3810  0.3519
  193MPD1    H3 2995   2.481   3.273  16.062 -1.2367 -0.0398  0.4708
  193MPD1     N 2996   2.563   3.713  16.113  0.4355 -0.5687  0.0032
  193MPD1    H5 2997   2.638   3.684  16.174 -0.7550 -2.7982  0.3982
  193MPD1    N1 2998   2.192   3.539  15.847  0.2200 -0.1400 -0.0499
  193MPD1    H6 2999   2.140   3.617  15.886  0.7992  0.0801  0.2827
  193MPD1    H7 3000   2.136   3.454  15.836 -0.9108 -0.0498  4.6719
  194MPD1     C 3001   4.332   0.542  17.536  0.5996 -0.1309  0.1843
  194MPD1    C1 3002   4.415   0.610  17.446  0.3553  1.0653 -0.4365
  194MPD1    C2 3003   4.501   0.539  17.370  0.5580  0.1391  0.0270
  194MPD1    C3 3004   4.520   0.401  17.378  0.4155 -0.3621 -0.5959
  194MPD1    C4 3005   4.438   0.346  17.463 -0.2463  0.0141  0.4363
  194MPD1    C5 3006   4.346   0.410  17.540  0.6078 -0.3056  0.3271
  194MPD1     H 3007   4.549   0.597  17.291 -0.8942 -1.0301 -1.7074
  194MPD1    H1 3008   4.458   0.244  17.494 -0.8121 -0.3248 -0.3205
  194MPD1    H2 3009   4.256   0.587  17.599 -2.4087 -2.6428 -1.6504
  194MPD1    H3 3010   4.277   0.359  17.606  0.9260  2.4891  2.8406
  194MPD1     N 3011   4.615   0.323  17.305 -0.8179  0.4332  0.1810
  194MPD1    H5 3012   4.628   0.227  17.336  1.1236  0.6129 -0.0786
  194MPD1    N1 3013   4.372   0.740  17.410 -0.0217 -0.1001 -0.7623
  194MPD1    H6 3014   4.452   0.784  17.364  0.2909 -2.1872 -2.2361
  194MPD1    H7 3015   4.324   0.808  17.468 -0.7966  0.1375 -1.7029
  195MPD1     C 3016   2.452   3.271   0.578 -0.2980 -0.0988 -0.0999
  195MPD1    C1 3017   2.405   3.180   0.661  0.0421  0.0934 -0.4804
  195MPD1    C2 3018   2.430   3.042   0.629 -0.5723 -0.7101 -0.4311
  195MPD1    C3 3019   2.509   3.003   0.524 -0.0026 -0.9907 -0.4977
  195MPD1    C4 3020   2.569   3.098   0.451 -0.4220  0.2854 -0.6634
  195MPD1    C5 3021   2.537   3.229   0.473  0.7291  0.3296  0.6330
  195MPD1     H 3022   2.388   2.968   0.696  0.5851 -1.0244 -0.0404
  195MPD1    H1 3023   2.628   3.071   0.365 -0.6578  1.6508 -1.2494
  195MPD1    H2 3024   2.439   3.377   0.597  2.3903  0.1633  0.2544
  195MPD1    H3 3025   2.574   3.313   0.415  0.7385  0.1048  0.3183
  195MPD1     N 3026   2.530   2.869   0.485 -0.5650  0.5385  0.8010
  195MPD1    H5 3027   2.601   2.861   0.413  0.3052 -1.5287  1.8817
  195MPD1    N1 3028   2.327   3.217   0.771  0.1429  0.5902 -0.2935
  195MPD1    H6 3029   2.338   3.317   0.784  2.6590  0.3812 -0.8346
  195MPD1    H7 3030   2.337   3.157   0.853  0.4377 -0.1098 -0.8377
  196MPD1     C 3031   1.841   1.362   0.403  0.8561 -0.0997 -0.0765
  196MPD1    C1 3032   1.790   1.465   0.333  0.1815  0.4091  0.7951
  196MPD1    C2 3033   1.792   1.591   0.397  0.5136 -0.4186  0.1983
  196MPD1    C3 3034   1.820   1.603   0.532  0.1351  0.9083 -0.6401
  196MPD1    C4 3035   1.863   1.492   0.601 -0.2114 -0.4713 -0.2945
  196MPD1    C5 3036   1.874   1.372   0.534  0.3458 -0.1500  0.6006
  196MPD1     H 3037   1.761   1.678   0.340 -0.0372 -0.1492  0.9067
  196MPD1    H1 3038   1.894   1.497   0.705 -0.8772 -2.4698 -0.0035
  196MPD1    H2 3039   1.856   1.266   0.355 -1.1725 -0.4788  0.0456
  196MPD1    H3 3040   1.929   1.292   0.581 -1.2633 -1.4898  0.1992
  196MPD1     N 3041   1.804   1.718   0.608 -0.0039 -0.1398 -0.5768
  196MPD1    H5 3042   1.829   1.713   0.706 -0.1485  3.1649 -0.3814
  196MPD1    N1 3043   1.773   1.440   0.190 -0.3312  0.2854  0.1208
  196MPD1    H6 3044   1.740   1.345   0.176  1.9357 -0.2359 -1.8076
  196MPD1    H7 3045   1.700   1.499   0.150 -0.3014 -1.4739 -2.5353
  197MPD1     C 3046   0.935   4.494  17.228  0.5003 -0.3790  0.4210
  197MPD1    C1 3047   1.047   4.562  17.264 -0.1026 -0.4044  0.6447
  197MPD1    C2 3048   1.153   4.566  17.177  0.0645 -0.4185 -0.3917
  197MPD1    C3 3049   1.146   4.496  17.058 -0.2742 -0.6745 -0.3407
  197MPD1    C4 3050   1.039   4.411  17.033  0.4722  0.8263 -0.1350
  197MPD1    C5 3051   0.937   4.410  17.124  0.0469  0.5329 -0.6578
  197MPD1     H 3052   1.244   4.619  17.202  0.0473 -0.5494 -0.0559
  197MPD1    H1 3053   1.037   4.337  16.954  2.0427 -0.2306  0.7879
  197MPD1    H2 3054   0.850   4.498  17.296  2.0223  1.3274  2.2282
  197MPD1    H3 3055   0.851   4.346  17.106  2.1254 -1.8161 -2.3233
  197MPD1     N 3056   1.254   4.493  16.971  0.0115  0.1946 -1.0565
  197MPD1    H5 3057   1.243   4.430  16.892 -0.1363  0.0069 -0.8866
  197MPD1    N1 3058   1.038   4.643  17.377  0.3238 -0.1935  0.2605
  197MPD1    H6 3059   0.979   4.606  17.451 -0.3429  0.4009  0.0285
  197MPD1    H7 3060   1.131   4.653  17.417  0.1026 -1.7098  1.1549
  198MPD1     C 3061   2.967   2.143  15.176  0.3787  0.0370  0.1094
  198MPD1    C1 3062   2.958   2.113  15.312 -0.4861 -0.0497 -0.1202
  198MPD1    C2 3063   2.990   2.214  15.401 -0.0903  0.0870  0.2935
  198MPD1    C3 3064   3.056   2.335  15.355  0.3422  0.5899 -0.2414
  198MPD1    C4 3065   3.080   2.359  15.224 -0.6276 -0.0930  0.5230
  198MPD1    C5 3066   3.029   2.263  15.130  0.3100 -0.3456  0.3154
  198MPD1     H 3067   2.972   2.206  15.508  0.0668  2.3356  0.4965
  198MPD1    H1 3068   3.135   2.442  15.182 -1.4074  1.4703  2.5539
  198MPD1    H2 3069   2.947   2.082  15.088 -2.3480  2.0689 -0.6776
  198MPD1    H3 3070   3.054   2.274  15.025  2.0868 -1.0113  0.6646
  198MPD1     N 3071   3.103   2.424  15.452 -0.1851 -0.4258  0.2764
  198MPD1    H5 3072   3.086   2.403  15.550  1.5887  3.1200  1.3567
  198MPD1    N1 3073   2.887   1.994  15.349 -0.0241  0.8012 -0.3034
  198MPD1    H6 3074   2.913   1.970  15.445 -0.4767  1.8226  0.0770
  198MPD1    H7 3075   2.919   1.915  15.294 -0.2791  1.8290 -1.9149
  199MPD1     C 3076   1.891   4.213   9.816 -0.6045 -0.7840 -0.2578
  199MPD1    C1 3077   1.790   4.293   9.773  0.0367  0.3358  0.0081
  199MPD1    C2 3078   1.673   4.234   9.748  0.1886  0.5361 -0.0548
  199MPD1    C3 3079   1.660   4.095   9.743  0.3635  0.3416  0.0447
  199MPD1    C4 3080   1.761   4.012   9.781  0.1040  0.3180  0.7604
  199MPD1    C5 3081   1.879   4.076   9.809 -0.1284 -0.7318  0.5626
  199MPD1     H 3082   1.591   4.294   9.711 -0.9033  0.1728  1.7831
  199MPD1    H1 3083   1.754   3.904   9.774  1.4848  0.3085 -0.6266
  199MPD1    H2 3084   1.977   4.257   9.866 -2.3361  1.4011  0.7952
  199MPD1    H3 3085   1.956   4.014   9.855 -0.9854 -1.6900  0.7171
  199MPD1     N 3086   1.532   4.033   9.724  0.0089 -0.1924  0.1762
  199MPD1    H5 3087   1.530   3.932   9.732 -0.1059 -0.1071  1.2480
  199MPD1    N1 3088   1.790   4.430   9.784  0.4351  0.3997  0.6193
  199MPD1    H6 3089   1.883   4.469   9.795  0.2775  0.6747  0.9957
  199MPD1    H7 3090   1.730   4.483   9.721  0.5134  0.4863  0.6178
  200MPD1     C 3091   0.432   0.085  15.764  0.0755  0.3757 -0.0081
  200MPD1    C1 3092   0.294   0.099  15.755 -0.0138  0.1340 -0.4305
  200MPD1    C2 3093   0.221   0.034  15.654  0.0488  1.1246  0.9536
  200MPD1    C3 3094   0.288   4.705  15.554 -0.1293 -0.4550 -0.1282
  200MPD1    C4 3095   0.427   4.701  15.559  0.3339 -0.1583  0.1926
  200MPD1    C5 3096   0.496   0.020  15.663 -0.2501 -0.9872  0.2825
  200MPD1     H 3097   0.114   0.047  15.656 -0.1757 -0.2641 -1.0354
  200MPD1    H1 3098   0.489   4.668  15.476 -0.3381 -0.0219 -0.3623
  200MPD1    H2 3099   0.493   0.129  15.841 -0.6554  1.6526 -0.1587
  200MPD1    H3 3100   0.603   0.000  15.667 -0.4779 -2.2226  0.0778
  200MPD1     N 3101   0.211   4.658  15.447  0.4704  0.7540  0.8827
  200MPD1    H5 3102   0.115   4.691  15.443  0.1422 -0.1432  1.5399
  200MPD1    N1 3103   0.229   0.138  15.870  0.0714 -0.2820  0.0169
  200MPD1    H6 3104   0.142   0.184  15.845  0.8402  1.0777 -0.1604
  200MPD1    H7 3105   0.289   0.203  15.921  0.8162 -0.8669 -0.1135
  201MPD1     C 3106   2.116   3.550  12.994 -0.1364 -0.2258  0.3003
  201MPD1    C1 3107   2.206   3.486  12.904  0.2531  0.8773  0.0648
  201MPD1    C2 3108   2.238   3.357  12.942  0.1693  1.2511 -0.2266
  201MPD1    C3 3109   2.197   3.293  13.061 -0.0447  0.8972  0.1169
  201MPD1    C4 3110   2.112   3.360  13.148  0.0868  0.1031  0.9738
  201MPD1    C5 3111   2.072   3.485  13.109  0.6205  0.1785  0.0691
  201MPD1     H 3112   2.299   3.308  12.867  1.4823 -1.3141  2.5056
  201MPD1    H1 3113   2.072   3.313  13.238  0.8030 -0.9780  0.7211
  201MPD1    H2 3114   2.069   3.644  12.968  0.3386  0.0528  0.4656
  201MPD1    H3 3115   2.005   3.555  13.158  0.3942  0.4045 -0.5585
  201MPD1     N 3116   2.244   3.165  13.084 -0.2472 -0.4865 -0.8167
  201MPD1    H5 3117   2.294   3.122  13.006 -0.3627  1.8055 -2.1578
  201MPD1    N1 3118   2.256   3.548  12.790  0.7998  0.6238 -0.4007
  201MPD1    H6 3119   2.343   3.520  12.746  0.7269  1.2433 -0.9405
  201MPD1    H7 3120   2.274   3.648  12.797  0.5347  0.7831 -2.2002
  202MPD1     C 3121   2.140   1.843   9.186 -0.2626 -0.0451  0.4415
  202MPD1    C1 3122   2.268   1.808   9.222  0.1759  0.4720  0.3707
  202MPD1    C2 3123   2.344   1.908   9.288  0.1951  0.7114 -0.1685
  202MPD1    C3 3124   2.290   2.025   9.329  0.4240 -0.1346  0.5192
  202MPD1    C4 3125   2.161   2.055   9.305 -0.0851  0.0053 -0.7859
  202MPD1    C5 3126   2.087   1.962   9.237 -0.3750  0.4153 -0.2054
  202MPD1     H 3127   2.450   1.886   9.286  0.1434  0.5356 -1.0372
  202MPD1    H1 3128   2.113   2.148   9.334 -0.5697 -0.7181  0.6950
  202MPD1    H2 3129   2.075   1.793   9.115  0.6513 -0.1964 -0.2800
  202MPD1    H3 3130   1.982   1.985   9.224 -1.3664 -4.1354 -0.4685
  202MPD1     N 3131   2.365   2.119   9.404  0.1085 -0.2138 -0.2233
  202MPD1    H5 3132   2.316   2.205   9.428  0.8791  0.3596 -0.7146
  202MPD1    N1 3133   2.341   1.716   9.141 -0.2098  0.2620  0.2345
  202MPD1    H6 3134   2.419   1.676   9.193 -0.7192 -1.6977 -0.4802
  202MPD1    H7 3135   2.275   1.639   9.126 -1.0867  0.7466  1.6151
  203MPD1     C 3136   1.361   3.485  13.227  0.2019  0.4880  0.4162
  203MPD1    C1 3137   1.397   3.371  13.299  0.4993 -0.3401 -0.0994
  203MPD1    C2 3138   1.407   3.259  13.225  0.9651 -0.4301  0.3245
  203MPD1    C3 3139   1.355   3.246  13.101  0.2876 -0.0529  0.6857
  203MPD1    C4 3140   1.326   3.359  13.023  0.0405  0.0865 -0.4579
  203MPD1    C5 3141   1.325   3.480  13.095  0.1638  0.3381 -0.5433
  203MPD1     H 3142   1.451   3.173  13.275  0.9580 -0.7622 -0.2492
  203MPD1    H1 3143   1.290   3.355  12.921  1.0037  1.4162 -0.8604
  203MPD1    H2 3144   1.362   3.585  13.268  0.9101  0.4956  0.3892
  203MPD1    H3 3145   1.287   3.574  13.056 -0.9211  0.1191  0.0118
  203MPD1     N 3146   1.358   3.122  13.042 -0.3078 -0.0578 -0.2396
  203MPD1    H5 3147   1.405   3.051  13.097 -1.5388 -0.5562  0.1672
  203MPD1    N1 3148   1.451   3.372  13.432  0.1705  0.5955  0.3117
  203MPD1    H6 3149   1.409   3.447  13.486 -2.4300 -0.0870 -0.7697
  203MPD1    H7 3150   1.421   3.284  13.474  0.8038 -0.7319 -1.9965
  204MPD1     C 3151   4.492   3.960   0.036  0.3447 -0.3735  0.2851
  204MPD1    C1 3152   4.580   3.989  17.686 -0.1796 -0.1894  0.3312
  204MPD1    C2 3153   4.634   3.874  17.630 -0.2713  1.1434  0.3641
  204MPD1    C3 3154   4.586   3.745  17.657  0.6060 -0.6506 -0.3799
  204MPD1    C4 3155   4.491   3.732   0.001 -0.3085 -0.1438  0.0743
  204MPD1    C5 3156   4.445   3.842   0.067  0.6376  0.2653  0.1676
  204MPD1     H 3157   4.713   3.888  17.557 -0.5367 -0.5041 -0.2550
  204MPD1    H1 3158   4.457   3.636   0.037 -1.1342 -0.2753 -1.0664
  204MPD1    H2 3159   4.457   4.038   0.103 -1.4619 -0.2356 -0.8288
  204MPD1    H3 3160   4.381   3.827   0.153 -1.4483 -1.5606 -1.6877
  204MPD1     N 3161   4.630   3.632  17.583 -0.0608  0.6880  0.3036
  204MPD1    H5 3162   4.681   3.651  17.497  1.0983 -1.9338  0.4253
  204MPD1    N1 3163   4.630   4.121  17.663 -0.2578 -0.7787  0.3723
  204MPD1    H6 3164   4.659   4.132  17.566 -3.1204  0.5371 -0.3198
  204MPD1    H7 3165   4.568   4.192  17.702  1.7967  0.3750  1.5304
  205MPD1     C 3166   0.345   1.824  17.062 -0.3546 -0.1800  0.6752
  205MPD1    C1 3167   0.309   1.953  17.039  1.8541 -0.1969 -0.3919
  205MPD1    C2 3168   0.272   2.039  17.141 -0.9882  0.0767 -0.5858
  205MPD1    C3 3169   0.276   1.985  17.264  0.7941  0.4961 -0.5576
  205MPD1    C4 3170   0.311   1.853  17.290 -0.0668  0.3352 -0.3539
  205MPD1    C5 3171   0.352   1.771  17.187  0.3062  0.1015  0.0813
  205MPD1     H 3172   0.249   2.142  17.117  0.8568  1.0161  1.6697
  205MPD1    H1 3173   0.295   1.817  17.390  1.6686  1.7111  0.4222
  205MPD1    H2 3174   0.379   1.763  16.979  0.3772  1.4272 -0.2043
  205MPD1    H3 3175   0.378   1.667  17.205  1.2683  0.0712 -1.5330
  205MPD1     N 3176   0.243   2.054  17.388 -0.8843 -0.6647 -0.3403
  205MPD1    H5 3177   0.255   2.004  17.476 -0.7022  0.2223  0.1441
  205MPD1    N1 3178   0.328   2.006  16.908  0.7101 -0.1300 -0.1721
  205MPD1    H6 3179   0.270   2.087  16.889  1.8192  0.5771 -0.5047
  205MPD1    H7 3180   0.301   1.935  16.840  0.8280 -0.2663 -0.0788
  206MPD1     C 3181   4.735   0.887  17.543 -0.0875 -0.2346 -0.1243
  206MPD1    C1 3182   0.041   0.783  17.472  0.5824  0.2547 -0.0436
  206MPD1    C2 3183   0.080   0.796  17.347  0.2163 -0.1198 -0.0485
  206MPD1    C3 3184   0.068   0.918  17.284  0.2004 -0.7390 -0.0107
  206MPD1    C4 3185   0.019   1.026  17.352  0.3667  0.0759 -0.1771
  206MPD1    C5 3186   4.725   1.015  17.482  0.4533  0.9251  0.2398
  206MPD1     H 3187   0.116   0.709  17.293 -2.7918 -1.3381 -0.1579
  206MPD1    H1 3188   4.727   1.116  17.300  1.3695  0.7956  0.4784
  206MPD1    H2 3189   4.711   0.865  17.647 -3.6129  0.1079 -0.8612
  206MPD1    H3 3190   4.673   1.095  17.533  1.4267  1.6149  0.1493
  206MPD1     N 3191   0.092   0.939  17.149  0.2295 -0.2885 -0.3207
  206MPD1    H5 3192   0.089   1.032  17.108 -1.8892 -1.6078 -3.1178
  206MPD1    N1 3193   0.068   0.664  17.540  0.0621 -0.1507 -0.6184
  206MPD1    H6 3194   0.071   0.576  17.489  2.2717  0.5813 -1.7278
  206MPD1    H7 3195   0.004   0.649  17.618  2.1437 -0.5049  1.0142
  207MPD1     C 3196   2.789   4.064  10.020  0.7396 -0.5486 -0.0348
  207MPD1    C1 3197   2.863   4.137   9.929 -0.0069  0.2988 -0.4492
  207MPD1    C2 3198   2.995   4.165   9.966 -0.7726 -0.5734  0.3567
  207MPD1    C3 3199   3.040   4.143  10.095 -0.3461 -0.0883 -0.5931
  207MPD1    C4 3200   2.948   4.105  10.193 -0.3673  0.5159  0.6567
  207MPD1    C5 3201   2.825   4.062  10.150  0.0284  0.2514 -0.9767
  207MPD1     H 3202   3.057   4.211   9.890 -0.7888  1.9184  1.8672
  207MPD1    H1 3203   2.992   4.079  10.288 -1.4410 -2.1923  0.4163
  207MPD1    H2 3204   2.689   4.026  10.003  0.5505 -0.1745  0.2490
  207MPD1    H3 3205   2.760   4.023  10.228  2.1309  1.1872  1.2406
  207MPD1     N 3206   3.167   4.169  10.143  0.3481 -0.0263  0.3618
  207MPD1    H5 3207   3.173   4.160  10.244  0.2103  1.4467  0.5035
  207MPD1    N1 3208   2.806   4.171   9.801 -0.2801 -0.2277 -0.1893
  207MPD1    H6 3209   2.854   4.250   9.756 -0.2671 -0.4611 -0.5868
  207MPD1    H7 3210   2.710   4.205   9.801 -0.4376 -0.6711 -0.8749
  208MPD1     C 3211   4.236   1.134  17.481  0.1907 -0.3909  0.0325
  208MPD1    C1 3212   4.250   1.033  17.580  0.6700  0.9843 -0.4975
  208MPD1    C2 3213   4.357   1.033  17.656  0.2918 -0.4712 -0.0422
  208MPD1    C3 3214   4.441   1.146  17.668  0.0495 -0.8630 -0.5315
  208MPD1    C4 3215   4.414   1.258  17.588  0.8061  0.1962  0.1121
  208MPD1    C5 3216   4.321   1.244  17.484 -0.0442  0.0949  0.4097
  208MPD1     H 3217   4.378   0.952  17.725 -0.1061  1.2769  2.1321
  208MPD1    H1 3218   4.485   1.340  17.580  1.3933 -0.0492  2.8510
  208MPD1    H2 3219   4.167   1.133  17.397 -0.2432  0.6556  0.3736
  208MPD1    H3 3220   4.308   1.326  17.415  0.5027  1.3077  1.7666
  208MPD1     N 3221   4.542   1.133   0.011  0.4508 -0.4624  0.5043
  208MPD1    H5 3222   4.533   1.043   0.057 -4.1915  0.9636  2.2870
  208MPD1    N1 3223   4.170   0.923  17.571  0.2222  0.3512  0.3198
  208MPD1    H6 3224   4.081   0.936  17.523 -0.3301 -0.2880  1.1645
  208MPD1    H7 3225   4.153   0.878  17.661  1.6712 -0.9713 -0.0744
  209MPD1     C 3226   2.899   3.261  10.865  0.1319  0.1422  0.5007
  209MPD1    C1 3227   2.991   3.319  10.774  0.3254  0.1711  0.5572
  209MPD1    C2 3228   3.090   3.399  10.826  0.0668  0.2301 -0.4180
  209MPD1    C3 3229   3.094   3.436  10.961 -0.2223 -0.1627  0.2943
  209MPD1    C4 3230   2.994   3.392  11.046 -0.3937  0.3669  0.1572
  209MPD1    C5 3231   2.901   3.297  10.995  0.5684  0.1248 -0.0254
  209MPD1     H 3232   3.166   3.437  10.760  0.3862 -0.5575 -0.5019
  209MPD1    H1 3233   2.997   3.410  11.152  0.4278  2.1276 -0.1640
  209MPD1    H2 3234   2.825   3.190  10.829 -1.7236  1.1562  2.2589
  209MPD1    H3 3235   2.832   3.256  11.068 -1.4261 -0.3084 -2.1301
  209MPD1     N 3236   3.207   3.514  11.008  0.5950  0.1070  0.5259
  209MPD1    H5 3237   3.281   3.532  10.941 -0.7648 -1.3179 -1.3651
  209MPD1    N1 3238   3.010   3.272  10.643 -0.1371 -0.7657 -0.2106
  209MPD1    H6 3239   3.064   3.335  10.585  0.1808 -2.5748 -1.8668
  209MPD1    H7 3240   2.925   3.245  10.594 -2.0563 -0.5692  3.0129
  210MPD1     C 3241   4.058   3.786  11.653  0.6577 -0.7010  0.1743
  210MPD1    C1 3242   3.936   3.736  11.690 -0.1629  0.4883 -0.4085
  210MPD1    C2 3243   3.838   3.712  11.594 -0.7827 -0.4909 -0.1468
  210MPD1    C3 3244   3.860   3.735  11.461 -0.6479 -0.1684  0.5421
  210MPD1    C4 3245   3.976   3.789  11.426  0.1742 -0.4801  0.0751
  210MPD1    C5 3246   4.075   3.818  11.521 -0.3711 -0.5006  0.4664
  210MPD1     H 3247   3.738   3.679  11.619 -1.4214  1.8731  0.4772
  210MPD1    H1 3248   4.001   3.810  11.323 -0.8638 -0.8965 -0.2562
  210MPD1    H2 3249   4.148   3.805  11.711  0.2249  0.2410  0.5411
  210MPD1    H3 3250   4.173   3.850  11.487 -0.7276  1.3670  1.2174
  210MPD1     N 3251   3.761   3.716  11.356 -0.1425 -0.3360 -0.5031
  210MPD1    H5 3252   3.790   3.747  11.264  0.9978  2.1898  0.7076
  210MPD1    N1 3253   3.907   3.731  11.829  0.3019  0.3234  0.6818
  210MPD1    H6 3254   3.838   3.657  11.843 -0.7168  0.5771 -3.0514
  210MPD1    H7 3255   3.990   3.702  11.881 -1.0605 -1.6717  1.7758
  211MPD1     C 3256   1.094   2.174  16.903 -0.1638  0.3103  0.3494
  211MPD1    C1 3257   1.076   2.306  16.869 -0.0732 -0.3514 -0.1119
  211MPD1    C2 3258   0.975   2.342  16.789 -0.2446 -0.2447  0.1773
  211MPD1    C3 3259   0.861   2.261  16.783 -0.2549 -0.5201  0.1984
  211MPD1    C4 3260   0.870   2.132  16.833 -0.5636  0.2145  0.2820
  211MPD1    C5 3261   0.988   2.090  16.896 -0.2390 -0.7145 -0.0589
  211MPD1     H 3262   0.956   2.443  16.755 -0.8145 -0.8799 -1.3792
  211MPD1    H1 3263   0.789   2.061  16.833 -1.5561  1.3435 -1.7086
  211MPD1    H2 3264   1.181   2.132  16.952 -1.7475 -2.1712  1.0451
  211MPD1    H3 3265   0.988   1.994  16.948 -1.1834  0.6624  2.5056
  211MPD1     N 3266   0.739   2.312  16.729 -0.1543 -0.4726  0.0112
  211MPD1    H5 3267   0.728   2.411  16.707 -0.9681 -0.6765 -0.4924
  211MPD1    N1 3268   1.192   2.391  16.864  0.3289  0.3618  0.0396
  211MPD1    H6 3269   1.168   2.490  16.868  2.9196  0.9543  1.1070
  211MPD1    H7 3270   1.239   2.374  16.953 -0.6251 -0.0081  0.4651
  212MPD1     C 3271   4.541   1.200  17.070 -1.0617 -0.9221  0.0944
  212MPD1    C1 3272   4.551   1.109  16.967  0.1378 -0.2244  1.0058
  212MPD1    C2 3273   4.488   0.983  16.980  0.1079  0.4348 -0.0743
  212MPD1    C3 3274   4.424   0.956  17.097 -0.9367 -0.4159 -0.2589
  212MPD1    C4 3275   4.409   1.051  17.194  0.1158 -0.1747  0.5823
  212MPD1    C5 3276   4.469   1.170  17.182  0.0640 -0.3529  0.3318
  212MPD1     H 3277   4.481   0.905  16.905  0.0976 -0.1790  0.5655
  212MPD1    H1 3278   4.351   1.031  17.284 -0.8861  0.4339  0.0685
  212MPD1    H2 3279   4.563   1.304  17.051 -0.2633 -1.0870  0.1011
  212MPD1    H3 3280   4.444   1.248  17.252 -1.4518 -0.2221 -0.3348
  212MPD1     N 3281   4.354   0.834  17.126  0.3669 -0.7928  0.7022
  212MPD1    H5 3282   4.307   0.827  17.215 -0.5203 -0.3859  0.2574
  212MPD1    N1 3283   4.596   1.154  16.835 -0.2861  0.1794  0.3499
  212MPD1    H6 3284   4.674   1.220  16.836 -1.1311  1.1759 -0.0207
  212MPD1    H7 3285   4.622   1.079  16.772  0.1549  1.1327 -0.5978
  213MPD1     C 3286   2.952   1.514  15.645  0.2391 -0.4753  0.7862
  213MPD1    C1 3287   3.015   1.564  15.528  0.1461 -0.3762 -0.6087
  213MPD1    C2 3288   2.927   1.603  15.431  0.9430  0.6622 -0.5860
  213MPD1    C3 3289   2.795   1.635  15.461 -0.4778  0.3179 -0.2077
  213MPD1    C4 3290   2.748   1.612  15.591 -0.2902 -0.1808 -0.1587
  213MPD1    C5 3291   2.825   1.549  15.675 -0.3011 -0.3189 -0.4639
  213MPD1     H 3292   2.955   1.619  15.328  0.0824  1.6775 -0.6604
  213MPD1    H1 3293   2.654   1.648  15.632 -0.4372 -1.1021  0.3049
  213MPD1    H2 3294   3.008   1.469  15.725 -0.1945 -0.5187  1.0673
  213MPD1    H3 3295   2.784   1.520  15.772 -2.0096 -0.8155 -1.3339
  213MPD1     N 3296   2.705   1.681  15.361 -0.1846 -0.3258 -0.6858
  213MPD1    H5 3297   2.741   1.669  15.267 -3.8334 -0.4396 -2.0904
  213MPD1    N1 3298   3.130   1.496  15.484 -0.3809 -0.3384  0.3629
  213MPD1    H6 3299   3.176   1.558  15.417  0.4485 -0.8944  0.4100
  213MPD1    H7 3300   3.197   1.483  15.560  1.2147 -0.4294 -1.0549
  214MPD1     C 3301   1.705   1.507  15.171 -0.5220 -0.4086  0.5760
  214MPD1    C1 3302   1.751   1.589  15.067  0.2253 -0.0825 -0.4131
  214MPD1    C2 3303   1.891   1.607  15.064  0.3407 -0.2291  0.0214
  214MPD1    C3 3304   1.984   1.538  15.142 -0.2425 -0.1170  0.0454
  214MPD1    C4 3305   1.937   1.448  15.222 -0.8161  0.0094  0.4861
  214MPD1    C5 3306   1.804   1.433  15.237 -0.0166  0.2972  0.4446
  214MPD1     H 3307   1.926   1.679  14.992 -0.1146  0.2685  0.2998
  214MPD1    H1 3308   2.001   1.386  15.283  0.7307 -0.6143 -1.7448
  214MPD1    H2 3309   1.600   1.490  15.191 -0.2776 -2.8909 -0.2264
  214MPD1    H3 3310   1.777   1.354  15.307  0.7470 -0.0279  0.3736
  214MPD1     N 3311   2.127   1.560  15.135  0.0747 -0.3760  0.0119
  214MPD1    H5 3312   2.182   1.499  15.195  3.2616  1.4439 -1.0250
  214MPD1    N1 3313   1.662   1.677  15.002  0.5210  0.2198  0.1658
  214MPD1    H6 3314   1.568   1.641  14.986  1.2945 -1.6828 -0.0634
  214MPD1    H7 3315   1.694   1.699  14.908 -0.6134  1.0262 -0.0286
  215MPD1     C 3316   2.372   2.929  11.203  0.4708  0.7339  1.2079
  215MPD1    C1 3317   2.363   2.918  11.341 -0.5682 -0.2293 -0.2106
  215MPD1    C2 3318   2.443   3.004  11.418  0.6478 -0.1208  0.6344
  215MPD1    C3 3319   2.512   3.113  11.361  0.4568 -1.4376  0.4127
  215MPD1    C4 3320   2.493   3.135  11.226  0.2200 -0.1405  0.1378
  215MPD1    C5 3321   2.429   3.044  11.149  0.5660 -0.0500 -0.2625
  215MPD1     H 3322   2.429   2.993  11.525  0.6431  1.4999  0.7951
  215MPD1    H1 3323   2.536   3.226  11.185  0.7071  0.6200  2.3521
  215MPD1    H2 3324   2.323   2.863  11.133  0.1788  2.6584 -0.3913
  215MPD1    H3 3325   2.417   3.054  11.041 -1.6442  2.1138  0.1765
  215MPD1     N 3326   2.595   3.189  11.447 -0.1098  0.1979 -0.3118
  215MPD1    H5 3327   2.580   3.162  11.544 -1.6759  2.8097  0.1860
  215MPD1    N1 3328   2.294   2.809  11.404 -0.1546 -0.2045 -0.0848
  215MPD1    H6 3329   2.224   2.761  11.349 -0.8988  1.7338 -0.8481
  215MPD1    H7 3330   2.266   2.824  11.501  0.6676  3.6645 -0.4279
  216MPD1     C 3331   3.989   0.633  17.717 -0.6577 -0.5140 -0.2649
  216MPD1    C1 3332   4.004   0.566   0.080 -0.2203 -0.3547  0.1024
  216MPD1    C2 3333   4.008   0.424   0.072 -0.7909 -0.1911  0.4502
  216MPD1    C3 3334   4.001   0.363  17.700  0.0801 -0.5657  0.2018
  216MPD1    C4 3335   3.991   0.437  17.586  0.8248 -0.1696  0.4479
  216MPD1    C5 3336   3.983   0.574  17.591  0.6750  0.0407 -0.1025
  216MPD1     H 3337   4.031   0.364   0.158  0.9136  0.6246  0.5577
  216MPD1    H1 3338   3.981   0.403  17.484 -0.4171 -2.4071  1.3253
  216MPD1    H2 3339   3.986   0.741  17.727  1.6468 -0.3157 -1.9565
  216MPD1    H3 3340   3.975   0.638  17.504  1.2481  0.2406 -0.0123
  216MPD1     N 3341   4.002   0.220  17.696  0.1976 -0.0171 -0.0124
  216MPD1    H5 3342   4.000   0.173   0.032 -0.8019  0.3230  0.1521
  216MPD1    N1 3343   4.028   0.635   0.200  0.2428  0.1421  0.0105
  216MPD1    H6 3344   3.966   0.715   0.213  2.5451  1.7154  1.2721
  216MPD1    H7 3345   4.017   0.566   0.274  0.9849  0.3498  0.3117
  217MPD1     C 3346   0.870   1.453   8.748  0.9536  0.0267  0.2071
  217MPD1    C1 3347   0.965   1.361   8.772  0.1736  0.4344  0.0012
  217MPD1    C2 3348   1.065   1.403   8.863  0.4059  1.0779 -0.6863
  217MPD1    C3 3349   1.044   1.509   8.949 -0.5216 -1.2429  0.2718
  217MPD1    C4 3350   0.936   1.594   8.936 -0.0726 -0.0989  0.0446
  217MPD1    C5 3351   0.855   1.567   8.827 -1.0650 -0.7926  0.6808
  217MPD1     H 3352   1.150   1.335   8.867 -0.3123  0.1759 -0.6306
  217MPD1    H1 3353   0.914   1.685   8.991 -4.4202 -1.9057  1.3587
  217MPD1    H2 3354   0.800   1.428   8.669  1.0283  1.1452 -0.2001
  217MPD1    H3 3355   0.775   1.636   8.802 -0.3449  0.4694  1.8122
  217MPD1     N 3356   1.137   1.553   9.039 -0.8100  0.1434  0.2895
  217MPD1    H5 3357   1.106   1.639   9.084  1.2082  0.4843  1.0416
  217MPD1    N1 3358   0.978   1.255   8.677  0.4673  0.3358 -0.4299
  217MPD1    H6 3359   0.888   1.213   8.654  1.3077 -1.3706 -0.6654
  217MPD1    H7 3360   1.040   1.181   8.709  0.6761  0.5735 -0.2872
  218MPD1     C 3361   3.350   3.543  12.590 -0.4390  0.2836  0.2332
  218MPD1    C1 3362   3.275   3.501  12.482  0.0870  0.5890 -0.0511
  218MPD1    C2 3363   3.206   3.385  12.480 -0.3680  0.5056  0.1590
  218MPD1    C3 3364   3.218   3.300  12.587 -0.8632  0.1007  0.0030
  218MPD1    C4 3365   3.282   3.338  12.699  0.1991 -0.0439 -0.2886
  218MPD1    C5 3366   3.358   3.449  12.692 -0.0770 -0.3656 -0.7413
  218MPD1     H 3367   3.136   3.361  12.401  1.9840 -1.3029 -1.3885
  218MPD1    H1 3368   3.283   3.278  12.790  0.5433  0.9218  0.3433
  218MPD1    H2 3369   3.408   3.634  12.590 -1.4356  0.9125 -0.1516
  218MPD1    H3 3370   3.425   3.481  12.770 -1.1593 -2.8086  1.1999
  218MPD1     N 3371   3.153   3.175  12.584 -0.0324 -0.2719  0.1075
  218MPD1    H5 3372   3.100   3.155  12.500  2.8694 -1.2987 -1.4767
  218MPD1    N1 3373   3.259   3.587  12.367  0.0116  0.2758 -0.5946
  218MPD1    H6 3374   3.180   3.560  12.308  0.6316 -0.0455 -1.2845
  218MPD1    H7 3375   3.340   3.595  12.306  0.3340 -0.1092 -0.2184
  219MPD1     C 3376   2.745   2.639  11.851 -0.0977  0.6232 -0.2920
  219MPD1    C1 3377   2.815   2.760  11.869  0.0145  0.2708  0.0122
  219MPD1    C2 3378   2.851   2.794  11.998  0.6854 -0.3099 -0.1233
  219MPD1    C3 3379   2.823   2.717  12.112 -0.5909  0.5696  0.0666
  219MPD1    C4 3380   2.760   2.600  12.090  0.1208 -0.0382 -0.4349
  219MPD1    C5 3381   2.726   2.565  11.959  0.3416  0.8189  0.0966
  219MPD1     H 3382   2.909   2.885  12.008  0.7150 -0.4834  1.3270
  219MPD1    H1 3383   2.730   2.534  12.172  0.2785  0.0125 -0.3367
  219MPD1    H2 3384   2.713   2.610  11.752 -0.3159 -1.6873  0.4516
  219MPD1    H3 3385   2.671   2.473  11.951  1.7296 -0.1184  1.3038
  219MPD1     N 3386   2.859   2.748  12.250 -0.0279 -1.3747  0.4069
  219MPD1    H5 3387   2.846   2.677  12.322 -1.4225 -0.4604  1.0539
  219MPD1    N1 3388   2.865   2.834  11.755  0.2183 -0.0051  0.1423
  219MPD1    H6 3389   2.816   2.824  11.667  0.5153 -2.0080  0.2056
  219MPD1    H7 3390   2.868   2.935  11.756 -0.6714  0.0400 -1.4794
  220MPD1     C 3391   3.422   3.812  10.044 -0.1852 -0.0681  0.4939
  220MPD1    C1 3392   3.459   3.815  10.172 -0.0228  0.3162 -0.2267
  220MPD1    C2 3393   3.364   3.809  10.271  0.6767  0.6299  1.2842
  220MPD1    C3 3394   3.226   3.813  10.243  0.9109  0.1196  0.1612
  220MPD1    C4 3395   3.190   3.832  10.112  0.6816 -0.0889  0.4070
  220MPD1    C5 3396   3.292   3.822  10.024  0.0407  0.4649 -0.2106
  220MPD1     H 3397   3.394   3.818  10.375  1.1486  3.9142  0.8550
  220MPD1    H1 3398   3.087   3.844  10.078  1.2613 -2.5174 -2.3279
  220MPD1    H2 3399   3.492   3.805   9.961 -1.0039  0.1148 -0.2094
  220MPD1    H3 3400   3.259   3.843   9.923  1.0194  3.9071  0.1971
  220MPD1     N 3401   3.130   3.800  10.350  0.1497  0.0221  0.2218
  220MPD1    H5 3402   3.176   3.794  10.440  0.8352  0.8800 -0.0657
  220MPD1    N1 3403   3.596   3.801  10.201 -0.4683 -0.2788 -0.5976
  220MPD1    H6 3404   3.620   3.818  10.298  0.6536 -0.4074 -0.8563
  220MPD1    H7 3405   3.647   3.867  10.143  1.2441 -2.7755 -1.9739
  221MPD1     C 3406   3.952   2.344  16.182 -0.2332 -0.3044  0.4648
  221MPD1    C1 3407   3.992   2.271  16.293 -0.4078 -0.3807 -0.3878
  221MPD1    C2 3408   4.112   2.208  16.297  0.0357  0.0946  0.2788
  221MPD1    C3 3409   4.204   2.250  16.212  0.2003 -0.4367  0.2263
  221MPD1    C4 3410   4.172   2.314  16.099  0.1051 -0.3768  0.4246
  221MPD1    C5 3411   4.050   2.357  16.086  0.0729  0.1230 -0.1198
  221MPD1     H 3412   4.125   2.145  16.384 -1.4218  0.7606  0.9746
  221MPD1    H1 3413   4.246   2.342  16.025 -1.4609 -0.4794 -1.2011
  221MPD1    H2 3414   3.849   2.372  16.167 -0.3984  1.0770  4.1147
  221MPD1    H3 3415   4.039   2.419  15.998  0.9901 -0.4124 -0.6162
  221MPD1     N 3416   4.342   2.204  16.216 -0.1868 -0.5568 -0.1104
  221MPD1    H5 3417   4.412   2.249  16.158 -0.5175 -1.7708 -1.4528
  221MPD1    N1 3418   3.893   2.231  16.386  0.2891  0.3925  0.3636
  221MPD1    H6 3419   3.829   2.307  16.405  0.6835  0.9653 -0.5899
  221MPD1    H7 3420   3.939   2.215  16.475 -0.1227  0.2648  0.5527
  222MPD1     C 3421   3.598   0.018  17.592  0.3786 -0.4759 -0.0986
  222MPD1    C1 3422   3.611   0.137  17.529 -0.6942  0.1411  0.1385
  222MPD1    C2 3423   3.639   0.250  17.607  0.4635 -0.3430 -0.2425
  222MPD1    C3 3424   3.625   0.240  17.743 -0.3740  0.0148 -0.2382
  222MPD1    C4 3425   3.596   0.122   0.050  0.4848  0.4494  0.0058
  222MPD1    C5 3426   3.586   0.000  17.731 -0.0742 -0.2016  0.0231
  222MPD1     H 3427   3.659   0.346  17.561 -0.0043 -0.0875  0.0790
  222MPD1    H1 3428   3.591   0.116   0.158 -1.2621  1.1012 -0.0423
  222MPD1    H2 3429   3.600   4.661  17.541  0.3976 -0.3031 -0.4219
  222MPD1    H3 3430   3.558   4.646   0.024  0.1901  0.7674  2.0885
  222MPD1     N 3431   3.637   0.355   0.079  0.4298 -0.3987  0.4791
  222MPD1    H5 3432   3.627   0.327   0.176 -0.8406  0.9702  0.7483
  222MPD1    N1 3433   3.614   0.149  17.387 -0.2408 -0.6352  0.7246
  222MPD1    H6 3434   3.566   0.065  17.355 -2.9723  1.2615 -0.1848
  222MPD1    H7 3435   3.567   0.232  17.350 -0.5315 -2.0088 -1.9467
  223MPD1     C 3436   3.522   0.351   0.921 -0.5393 -0.2938  0.1358
  223MPD1    C1 3437   3.515   0.279   0.805  0.0766  0.1385 -0.1082
  223MPD1    C2 3438   3.551   0.333   0.681 -0.3980 -0.1452 -0.2298
  223MPD1    C3 3439   3.577   0.463   0.676  0.7420 -0.0753  0.0944
  223MPD1    C4 3440   3.578   0.542   0.792 -0.2836  0.4619 -0.3932
  223MPD1    C5 3441   3.539   0.488   0.914 -0.1115 -0.3730  0.4964
  223MPD1     H 3442   3.562   0.276   0.590  4.3254  3.1980 -1.7324
  223MPD1    H1 3443   3.606   0.647   0.795 -0.5058  0.4644  1.7658
  223MPD1    H2 3444   3.496   0.307   1.017  1.5782 -0.0982  0.8010
  223MPD1    H3 3445   3.551   0.544   1.006  0.3556  1.2842 -0.5741
  223MPD1     N 3446   3.614   0.500   0.549 -0.4680  0.1384 -0.1264
  223MPD1    H5 3447   3.628   0.424   0.484  0.1071  0.4727 -0.3987
  223MPD1    N1 3448   3.499   0.144   0.816  0.4468  0.6340  0.0134
  223MPD1    H6 3449   3.431   0.119   0.888 -0.0068  0.6042 -0.4275
  223MPD1    H7 3450   3.459   0.106   0.730  2.0383  0.6112 -0.7165
  224MPD1     C 3451   1.196   1.944   8.983  0.6579 -0.2505  0.4336
  224MPD1    C1 3452   1.124   2.030   9.066  0.6365 -0.2032  0.6368
  224MPD1    C2 3453   1.182   2.085   9.180  0.1998 -0.0042 -0.8830
  224MPD1    C3 3454   1.314   2.059   9.203 -0.5625 -0.1328 -0.2065
  224MPD1    C4 3455   1.385   1.977   9.124  0.7888 -0.2322  0.3105
  224MPD1    C5 3456   1.324   1.908   9.017  0.5713  0.3271 -0.4154
  224MPD1     H 3457   1.124   2.149   9.245  0.6392  0.4040 -0.8886
  224MPD1    H1 3458   1.491   1.966   9.144  0.6083  0.1355  1.4454
  224MPD1    H2 3459   1.150   1.896   8.898  0.8402  1.0729 -0.4137
  224MPD1    H3 3460   1.372   1.841   8.947 -1.7066 -0.3698 -1.3080
  224MPD1     N 3461   1.381   2.115   9.320 -0.5316  0.8281  0.1195
  224MPD1    H5 3462   1.481   2.101   9.332 -0.9336 -1.2225  1.1394
  224MPD1    N1 3463   0.985   2.056   9.050 -0.4730 -1.3967 -0.2652
  224MPD1    H6 3464   0.942   2.142   9.085  2.9604 -0.2938  1.2317
  224MPD1    H7 3465   0.962   2.049   8.951  0.3603  0.5474 -0.6005
  225MPD1     C 3466   2.397   4.175  13.075 -0.5500  0.1037  0.1146
  225MPD1    C1 3467   2.467   4.105  12.981  0.3385  0.3206  0.4219
  225MPD1    C2 3468   2.402   4.054  12.872  0.7526  0.0194 -0.1960
  225MPD1    C3 3469   2.266   4.076  12.850 -0.5571 -0.1200 -0.3398
  225MPD1    C4 3470   2.204   4.170  12.934 -0.8015  0.0947 -0.1498
  225MPD1    C5 3471   2.271   4.211  13.047 -0.1569 -0.7247 -0.3639
  225MPD1     H 3472   2.462   3.995  12.803  2.2993 -0.9261  1.9640
  225MPD1    H1 3473   2.099   4.195  12.927 -0.9238 -0.2416  0.4647
  225MPD1    H2 3474   2.443   4.216  13.164  0.9484  0.4246 -0.8072
  225MPD1    H3 3475   2.220   4.282  13.110 -0.7686 -1.0351 -0.5110
  225MPD1     N 3476   2.185   4.017  12.751  0.4034 -0.4024  0.2406
  225MPD1    H5 3477   2.087   4.040  12.759  0.5278 -0.2313  1.3400
  225MPD1    N1 3478   2.599   4.061  13.019 -0.3839 -0.0250  0.4690
  225MPD1    H6 3479   2.654   4.128  13.074  1.2463 -1.0305  0.0679
  225MPD1    H7 3480   2.652   4.034  12.937  0.1756 -0.4272  0.9659
  226MPD1     C 3481   0.381   3.981   8.883 -0.6098 -0.6158  0.0560
  226MPD1    C1 3482   0.360   3.853   8.940  0.1675  0.1885  0.0060
  226MPD1    C2 3483   0.459   3.813   9.025  0.1970 -0.2609  0.3704
  226MPD1    C3 3484   0.566   3.890   9.067  0.0098 -0.0528 -0.6652
  226MPD1    C4 3485   0.573   4.016   9.013 -0.5956  0.2646  0.9327
  226MPD1    C5 3486   0.486   4.057   8.917 -0.3792 -0.3061  0.1663
  226MPD1     H 3487   0.453   3.717   9.076  1.3292 -1.3040 -1.4872
  226MPD1    H1 3488   0.654   4.080   9.046 -1.2656  1.5956 -0.0253
  226MPD1    H2 3489   0.315   4.022   8.808  1.4636  0.6867 -1.0440
  226MPD1    H3 3490   0.500   4.152   8.868 -1.3206 -0.4020 -0.2876
  226MPD1     N 3491   0.656   3.832   9.162  0.1484  0.1100 -0.1496
  226MPD1    H5 3492   0.629   3.739   9.192  0.4521  1.0407  3.0243
  226MPD1    N1 3493   0.246   3.779   8.903 -0.1899 -0.3075 -0.5404
  226MPD1    H6 3494   0.178   3.819   8.839  0.5247  0.9735 -0.4960
  226MPD1    H7 3495   0.189   3.732   8.973  0.7886 -2.8945 -1.5029
  227MPD1     C 3496   1.723   3.857   9.446  0.1175 -0.2718 -0.3971
  227MPD1    C1 3497   1.674   3.728   9.451  0.2639 -0.2600 -0.2415
  227MPD1    C2 3498   1.535   3.714   9.453 -0.0944 -0.2272 -0.2572
  227MPD1    C3 3499   1.459   3.819   9.423 -0.2900 -0.0822  0.3339
  227MPD1    C4 3500   1.507   3.947   9.410  0.6228  0.6848 -0.1872
  227MPD1    C5 3501   1.643   3.968   9.420 -0.1029 -0.1298  0.3289
  227MPD1     H 3502   1.483   3.623   9.481  0.4298 -0.3640  0.2697
  227MPD1    H1 3503   1.456   4.032   9.365 -3.0246 -1.9496 -1.0724
  227MPD1    H2 3504   1.826   3.866   9.479  0.0044  0.7290 -0.3164
  227MPD1    H3 3505   1.689   4.066   9.419 -2.1539  0.7569 -3.8847
  227MPD1     N 3506   1.330   3.791   9.385  0.6065  0.1563 -0.4145
  227MPD1    H5 3507   1.301   3.695   9.372  1.1864  0.1062 -1.3214
  227MPD1    N1 3508   1.746   3.629   9.521 -0.5147 -0.6235 -0.0339
  227MPD1    H6 3509   1.711   3.534   9.509 -0.8053 -0.6167  0.7527
  227MPD1    H7 3510   1.847   3.621   9.515 -0.6305 -1.7607 -0.6239
  228MPD1     C 3511   3.915   2.345  12.917  0.4906  0.8253 -0.6883
  228MPD1    C1 3512   3.970   2.280  12.806 -0.1977 -0.2963  0.7871
  228MPD1    C2 3513   3.994   2.143  12.815 -0.3396  0.5869  0.0199
  228MPD1    C3 3514   3.971   2.073  12.937  0.1489 -0.0317  0.3262
  228MPD1    C4 3515   3.931   2.152  13.049 -0.2566 -0.0582  0.2545
  228MPD1    C5 3516   3.907   2.282  13.035 -0.7232 -0.0967 -0.2995
  228MPD1     H 3517   4.028   2.093  12.725 -2.3116  0.0332 -0.3975
  228MPD1    H1 3518   3.919   2.106  13.146  0.8251  0.9161  0.8398
  228MPD1    H2 3519   3.879   2.447  12.905  2.1960  1.2840 -2.0134
  228MPD1    H3 3520   3.871   2.333  13.124 -0.4246 -0.8987  0.2759
  228MPD1     N 3521   3.976   1.933  12.931  0.2020  0.1174 -0.2974
  228MPD1    H5 3522   4.001   1.896  12.840 -1.3148  0.4778 -0.8680
  228MPD1    N1 3523   3.967   2.341  12.681 -0.0859  0.4123 -0.1341
  228MPD1    H6 3524   3.983   2.441  12.685 -0.4118  0.3449  3.0619
  228MPD1    H7 3525   4.018   2.290  12.609 -0.8304  0.1452 -0.4691
  229MPD1     C 3526   4.269   0.803  14.057  0.0119  0.7819 -0.4944
  229MPD1    C1 3527   4.382   0.721  14.065  0.5688  0.3093 -0.5428
  229MPD1    C2 3528   4.388   0.608  14.138  0.1397 -0.2502 -0.1274
  229MPD1    C3 3529   4.287   0.583  14.230  0.2183 -0.5446 -0.2766
  229MPD1    C4 3530   4.175   0.665  14.232 -0.1110  0.2197  0.6213
  229MPD1    C5 3531   4.168   0.774  14.147 -1.1513 -0.0534 -0.8124
  229MPD1     H 3532   4.481   0.553  14.133  0.2518 -0.0894  0.1907
  229MPD1    H1 3533   4.091   0.652  14.299  0.3334 -3.5407  0.4934
  229MPD1    H2 3534   4.266   0.895  14.000  0.3098  0.6509 -0.7193
  229MPD1    H3 3535   4.085   0.843  14.152 -0.1522  0.9464  1.9976
  229MPD1     N 3536   4.291   0.461  14.310  0.6004  0.3163  0.1729
  229MPD1    H5 3537   4.208   0.452  14.369  0.4414  0.5848 -0.0099
  229MPD1    N1 3538   4.492   0.751  13.983 -0.0717  0.1779  0.4427
  229MPD1    H6 3539   4.578   0.723  14.029 -0.2155  1.5308  1.5377
  229MPD1    H7 3540   4.498   0.849  13.955 -0.5081  0.2448  0.5806
  230MPD1     C 3541   3.758   0.367  14.975  0.0486 -0.2446 -0.0147
  230MPD1    C1 3542   3.791   0.464  14.876  0.2047 -0.2438  0.0342
  230MPD1    C2 3543   3.906   0.432  14.795 -0.4767 -0.2247 -0.3594
  230MPD1    C3 3544   3.975   0.314  14.798 -0.3285  0.3291 -0.0846
  230MPD1    C4 3545   3.925   0.220  14.895  0.3838 -0.0189 -0.0675
  230MPD1    C5 3546   3.822   0.247  14.981  0.5508  0.0704  0.0268
  230MPD1     H 3547   3.949   0.515  14.741  1.0587 -0.3051  0.7426
  230MPD1    H1 3548   3.970   0.121  14.894  0.5013  0.0293  1.9568
  230MPD1    H2 3549   3.667   0.377  15.033  1.4601 -0.7137  2.2676
  230MPD1    H3 3550   3.793   0.169  15.050 -2.9757 -0.0553 -1.6165
  230MPD1     N 3551   4.080   0.293  14.708 -0.0014  0.1695  0.2842
  230MPD1    H5 3552   4.087   0.359  14.631 -1.3807  0.0703  0.0769
  230MPD1    N1 3553   3.725   0.587  14.869 -0.8672 -0.1230  0.5382
  230MPD1    H6 3554   3.630   0.565  14.900 -0.9716  0.5800  0.7066
  230MPD1    H7 3555   3.727   0.634  14.779  0.8746 -1.2368  0.0079
  231MPD1     C 3556   1.886   1.913  15.488  0.0178  0.0880  0.6010
  231MPD1    C1 3557   1.875   1.872  15.358  0.2171 -0.0854  0.0204
  231MPD1    C2 3558   1.974   1.915  15.269  0.6614 -0.6880  1.1766
  231MPD1    C3 3559   2.090   1.967  15.313 -0.2105 -0.5863 -0.1986
  231MPD1    C4 3560   2.105   1.985  15.444  0.3169  0.1946 -0.3572
  231MPD1    C5 3561   1.998   1.972  15.530  0.8459 -0.0726 -0.3284
  231MPD1     H 3562   1.981   1.895  15.163 -0.1791  0.4786  0.8982
  231MPD1    H1 3563   2.192   2.027  15.493  0.1268  0.7745 -0.5261
  231MPD1    H2 3564   1.806   1.907  15.560 -1.7999 -0.9763 -1.4849
  231MPD1    H3 3565   1.993   2.005  15.633  2.9397 -0.9092  0.0346
  231MPD1     N 3566   2.183   2.007  15.218  0.2448 -0.0448  0.4358
  231MPD1    H5 3567   2.155   1.984  15.123  3.0156  0.2056 -0.4496
  231MPD1    N1 3568   1.763   1.813  15.291 -0.0408  0.0238  0.1285
  231MPD1    H6 3569   1.708   1.759  15.358 -0.9692  0.2846 -0.4306
  231MPD1    H7 3570   1.794   1.750  15.218 -0.3025  1.6399 -1.3883
  232MPD1     C 3571   3.578   3.756  17.573 -0.1862 -1.0816  0.6265
  232MPD1    C1 3572   3.483   3.792  17.658  0.0839 -0.2705 -0.2231
  232MPD1    C2 3573   3.356   3.822  17.608  0.3589  0.2188 -0.1939
  232MPD1    C3 3574   3.320   3.806  17.474 -1.0182  0.5330 -0.6926
  232MPD1    C4 3575   3.414   3.748  17.393  0.5037 -0.4128  0.0202
  232MPD1    C5 3576   3.539   3.730  17.444  0.0390 -0.5262  0.1601
  232MPD1     H 3577   3.286   3.872  17.675  1.4687  1.1679  0.2516
  232MPD1    H1 3578   3.395   3.724  17.289  1.8544  0.5077 -0.4368
  232MPD1    H2 3579   3.682   3.746  17.601 -0.0115  2.5159  1.2736
  232MPD1    H3 3580   3.603   3.685  17.369 -0.5312 -0.3616 -0.4200
  232MPD1     N 3581   3.188   3.838  17.433 -0.0854  0.0873  0.5021
  232MPD1    H5 3582   3.121   3.872  17.501 -2.4009 -0.2820 -1.5840
  232MPD1    N1 3583   3.512   3.845   0.035  0.3210 -0.2511 -0.1634
  232MPD1    H6 3584   3.435   3.834   0.101  0.0196  0.3251 -0.4224
  232MPD1    H7 3585   3.595   3.809   0.083 -1.6918 -3.1709  1.1009
  233MPD1     C 3586   4.268   1.862   2.266  0.1177  0.0097  0.2109
  233MPD1    C1 3587   4.314   1.731   2.247  0.0470  0.0515  0.0697
  233MPD1    C2 3588   4.414   1.722   2.150  0.0590 -0.5983  0.4886
  233MPD1    C3 3589   4.447   1.831   2.063 -0.6934 -0.4994 -0.3245
  233MPD1    C4 3590   4.399   1.959   2.087  0.1838 -0.3125  0.1779
  233MPD1    C5 3591   4.317   1.970   2.193  0.5924  0.2632 -0.0216
  233MPD1     H 3592   4.468   1.628   2.146  0.1938 -0.6128  2.7990
  233MPD1    H1 3593   4.438   2.049   2.041  1.2104 -1.9969 -2.3165
  233MPD1    H2 3594   4.189   1.882   2.338  1.0698 -0.1491  1.3144
  233MPD1    H3 3595   4.286   2.069   2.223  0.6940  0.8857 -2.0019
  233MPD1     N 3596   4.534   1.830   1.958 -0.4676 -0.7431  0.4073
  233MPD1    H5 3597   4.562   1.917   1.915  0.3510 -0.2936  1.8276
  233MPD1    N1 3598   4.270   1.613   2.317 -0.6441  0.3435  0.2427
  233MPD1    H6 3599   4.247   1.634   2.414  0.0935  0.4088  0.4009
  233MPD1    H7 3600   4.327   1.528   2.317 -0.2875  0.5889 -1.4807
  234MPD1     C 3601   3.138   1.805   9.299  0.2710  0.0772 -0.0431
  234MPD1    C1 3602   3.060   1.910   9.321 -0.5964 -0.3795  0.0695
  234MPD1    C2 3603   2.926   1.886   9.353  0.2093  0.7491  0.0859
  234MPD1    C3 3604   2.878   1.756   9.366 -0.6071  0.0877  0.1876
  234MPD1    C4 3605   2.964   1.649   9.345 -0.2081 -0.4128  0.3430
  234MPD1    C5 3606   3.088   1.675   9.309 -0.2987  0.3530  0.6232
  234MPD1     H 3607   2.869   1.977   9.365  0.9422  1.3128 -0.6684
  234MPD1    H1 3608   2.925   1.548   9.335 -1.3848  0.0745 -0.0420
  234MPD1    H2 3609   3.241   1.818   9.270 -0.0662  0.9118 -0.8767
  234MPD1    H3 3610   3.148   1.589   9.283 -0.1075  0.4099  0.8809
  234MPD1     N 3611   2.738   1.746   9.406  0.5246 -0.4605 -0.4186
  234MPD1    H5 3612   2.690   1.836   9.404 -1.2475 -1.3659  2.2259
  234MPD1    N1 3613   3.114   2.044   9.308  0.8709  0.2297  0.1133
  234MPD1    H6 3614   3.205   2.029   9.264  0.3237 -0.6126 -0.7451
  234MPD1    H7 3615   3.056   2.108   9.253  0.1352  1.1313  1.9568
  235MPD1     C 3616   2.486   4.307  10.332  0.5502  0.4376  0.7106
  235MPD1    C1 3617   2.541   4.320  10.207 -0.2889 -0.3733 -0.2332
  235MPD1    C2 3618   2.668   4.372  10.201 -0.3291 -0.5637 -0.2395
  235MPD1    C3 3619   2.738   4.404  10.313  0.5410  0.1961 -0.5978
  235MPD1    C4 3620   2.682   4.394  10.436  0.6764 -0.2132 -0.8196
  235MPD1    C5 3621   2.551   4.364  10.443 -0.5910 -0.4483  0.0845
  235MPD1     H 3622   2.722   4.363  10.107 -0.5848  1.0931 -0.5491
  235MPD1    H1 3623   2.720   4.425  10.533  3.5693  0.4564 -2.1555
  235MPD1    H2 3624   2.384   4.273  10.340  0.4831  0.6660  0.8205
  235MPD1    H3 3625   2.502   4.343  10.537 -0.2330 -0.0037  0.3694
  235MPD1     N 3626   2.869   4.459  10.300  0.8134 -0.6799 -0.4136
  235MPD1    H5 3627   2.901   4.468  10.204 -0.2499  0.6635 -0.6443
  235MPD1    N1 3628   2.492   4.242  10.098  0.8105  0.7466 -0.1495
  235MPD1    H6 3629   2.390   4.240  10.097  0.8240 -0.9817  0.8970
  235MPD1    H7 3630   2.522   4.269  10.005 -1.6345  2.4426 -0.4436
  236MPD1     C 3631   2.029   0.566   9.740  0.2095  0.4013  0.6587
  236MPD1    C1 3632   2.104   0.675   9.714  1.2141 -0.4718 -0.2340
  236MPD1    C2 3633   2.170   0.737   9.821  0.0621  0.7813  0.4805
  236MPD1    C3 3634   2.185   0.678   9.943  0.5011 -0.6768  0.3454
  236MPD1    C4 3635   2.105   0.569   9.963  0.5135 -0.5704  0.3082
  236MPD1    C5 3636   2.026   0.510   9.866 -0.3186  0.4129 -0.3130
  236MPD1     H 3637   2.214   0.833   9.795 -0.6643  0.1439 -3.1333
  236MPD1    H1 3638   2.100   0.518  10.059  2.0189 -1.5795 -0.1426
  236MPD1    H2 3639   1.979   0.502   9.668  1.4982  0.2279 -0.0621
  236MPD1    H3 3640   1.982   0.411   9.874  2.9788 -1.1611 -1.9755
  236MPD1     N 3641   2.266   0.727  10.051 -0.6884  0.2122  0.6720
  236MPD1    H5 3642   2.279   0.665  10.130  2.5364  0.4977  0.3418
  236MPD1    N1 3643   2.094   0.735   9.582  0.6327  0.3305  0.7040
  236MPD1    H6 3644   2.183   0.782   9.567  1.1487  0.1529  3.0658
  236MPD1    H7 3645   2.087   0.666   9.508 -2.5813  1.2833  0.1422
  237MPD1     C 3646   2.664   3.417  15.174 -0.2102  0.5416  0.2415
  237MPD1    C1 3647   2.671   3.281  15.163 -0.1807 -0.2359 -0.2720
  237MPD1    C2 3648   2.551   3.208  15.152 -0.5759  0.1619  0.7238
  237MPD1    C3 3649   2.442   3.273  15.195 -0.6862 -0.2401 -0.5232
  237MPD1    C4 3650   2.436   3.405  15.222 -0.4566  0.2768  0.5651
  237MPD1    C5 3651   2.552   3.481  15.212 -0.3064 -0.4100  0.0614
  237MPD1     H 3652   2.547   3.102  15.128  0.7817 -0.1072  1.6719
  237MPD1    H1 3653   2.342   3.453  15.247 -0.6826  0.5244 -0.7629
  237MPD1    H2 3654   2.754   3.476  15.171  0.6439 -0.7188  0.8623
  237MPD1    H3 3655   2.556   3.587  15.235  0.5339 -0.0315 -1.7884
  237MPD1     N 3656   2.316   3.206  15.210 -0.3525 -0.3486  0.2096
  237MPD1    H5 3657   2.246   3.260  15.260 -0.3673  1.6450 -1.9382
  237MPD1    N1 3658   2.793   3.224  15.132  0.2290 -0.3218 -0.1823
  237MPD1    H6 3659   2.872   3.277  15.169 -1.2469  0.3950  1.9614
  237MPD1    H7 3660   2.785   3.132  15.175 -0.2835  0.8354  2.2253
  238MPD1     C 3661   3.600   2.670  15.410  0.4757 -0.3010  0.2328
  238MPD1    C1 3662   3.571   2.589  15.521  0.0760  0.8040 -0.2033
  238MPD1    C2 3663   3.529   2.460  15.487 -0.0175 -0.3087 -0.1600
  238MPD1    C3 3664   3.542   2.413  15.357 -0.2854 -0.6768  0.3375
  238MPD1    C4 3665   3.599   2.489  15.258 -0.6031 -0.6596  0.3349
  238MPD1    C5 3666   3.628   2.617  15.284  0.1598 -0.6983 -0.1935
  238MPD1     H 3667   3.461   2.405  15.551 -1.4559  0.2311 -1.2464
  238MPD1    H1 3668   3.610   2.452  15.157  1.0697 -1.1040  0.6805
  238MPD1    H2 3669   3.614   2.776  15.428 -0.7627 -0.0359 -0.3536
  238MPD1    H3 3670   3.660   2.686  15.206  1.8462  0.0338  1.1432
  238MPD1     N 3671   3.516   2.279  15.325  0.3850  0.0669  0.0135
  238MPD1    H5 3672   3.543   2.260  15.229 -1.3531 -0.1337 -0.4364
  238MPD1    N1 3673   3.554   2.637  15.652 -0.2857 -0.7663 -0.0237
  238MPD1    H6 3674   3.555   2.559  15.717 -2.4732  0.5136  1.5492
  238MPD1    H7 3675   3.621   2.710  15.677 -2.3628  1.8899 -2.2007
  239MPD1     C 3676   3.981   2.472  15.048 -0.3263 -0.8180 -0.1280
  239MPD1    C1 3677   4.098   2.523  14.992  0.4307  0.5284  0.2986
  239MPD1    C2 3678   4.086   2.642  14.913  0.0088 -0.1026 -0.0293
  239MPD1    C3 3679   3.968   2.707  14.903 -0.0005  0.2478 -0.1645
  239MPD1    C4 3680   3.857   2.660  14.970  0.2516 -0.2771  0.0107
  239MPD1    C5 3681   3.868   2.542  15.040  0.2180  0.1296 -0.1756
  239MPD1     H 3682   4.167   2.672  14.847  0.1966 -0.4048  0.0648
  239MPD1    H1 3683   3.764   2.714  14.961 -0.0011 -0.6409  0.4482
  239MPD1    H2 3684   3.972   2.383  15.108 -0.1114 -0.0468  1.0505
  239MPD1    H3 3685   3.772   2.511  15.081  0.4375  1.0741  1.0602
  239MPD1     N 3686   3.957   2.816  14.817  0.2564 -0.2011 -0.4886
  239MPD1    H5 3687   3.860   2.837  14.792  0.4282  1.2455  0.0367
  239MPD1    N1 3688   4.219   2.446  14.988 -0.1460 -0.0048 -0.1253
  239MPD1    H6 3689   4.299   2.510  14.986  0.4122 -0.7108 -0.3700
  239MPD1    H7 3690   4.232   2.387  15.070 -0.5596 -0.6836 -0.5537
  240MPD1     C 3691   3.386   2.838  13.494 -0.2689 -0.6936 -0.2101
  240MPD1    C1 3692   3.461   2.723  13.509 -0.3172 -0.4489 -0.1667
  240MPD1    C2 3693   3.479   2.678  13.637  0.6891 -0.8555  0.7247
  240MPD1    C3 3694   3.434   2.745  13.751  0.2697  0.3717 -0.2490
  240MPD1    C4 3695   3.374   2.871  13.731 -0.6566  0.5415 -0.2975
  240MPD1    C5 3696   3.348   2.916  13.600 -0.3521 -0.0205  0.6326
  240MPD1     H 3697   3.526   2.583  13.662  3.5525  0.0127 -1.4644
  240MPD1    H1 3698   3.337   2.923  13.818  1.3922  0.8564  0.3813
  240MPD1    H2 3699   3.367   2.866  13.391  0.5455  0.1606 -0.1272
  240MPD1    H3 3700   3.293   3.009  13.586 -1.5797 -0.6193  1.4701
  240MPD1     N 3701   3.459   2.691  13.878 -0.6741 -0.4010  0.7459
  240MPD1    H5 3702   3.547   2.640  13.887 -2.2736 -3.1706  0.6143
  240MPD1    N1 3703   3.476   2.640  13.395  0.2375  0.6304  0.1248
  240MPD1    H6 3704   3.558   2.582  13.406 -1.1639 -1.5697 -1.0081
  240MPD1    H7 3705   3.478   2.688  13.306  0.9742 -0.1945 -0.2976
  241MPD1     C 3706   4.140   2.271  14.072 -0.2788 -1.0367  0.6814
  241MPD1    C1 3707   4.100   2.300  14.200  0.0887 -0.2383  0.4806
  241MPD1    C2 3708   3.974   2.350  14.215 -0.5196  0.6301  0.1230
  241MPD1    C3 3709   3.894   2.372  14.098  0.8680  0.7201  0.1640
  241MPD1    C4 3710   3.945   2.349  13.969 -0.1100 -0.9330 -0.1535
  241MPD1    C5 3711   4.066   2.293  13.965 -0.3934  0.2029  0.5407
  241MPD1     H 3712   3.926   2.372  14.310 -0.7135 -0.1068  0.1880
  241MPD1    H1 3713   3.890   2.345  13.875  1.1361 -1.8341 -0.8534
  241MPD1    H2 3714   4.240   2.230  14.060  0.7870  2.0623 -0.9118
  241MPD1    H3 3715   4.098   2.232  13.881  0.7234  1.6243 -0.0595
  241MPD1     N 3716   3.760   2.417  14.101  0.6098  0.8746 -0.6355
  241MPD1    H5 3717   3.717   2.438  14.011  1.9912  0.6086 -1.3574
  241MPD1    N1 3718   4.183   2.253  14.307  0.4788  0.4102  0.0844
  241MPD1    H6 3719   4.278   2.262  14.272  0.2953 -1.8799 -1.0024
  241MPD1    H7 3720   4.179   2.309  14.392  0.0144  0.1888  0.2136
  242MPD1     C 3721   3.067   0.900  15.816 -0.5743  0.9652 -0.2331
  242MPD1    C1 3722   3.024   0.775  15.851 -0.0463 -0.3823 -0.0740
  242MPD1    C2 3723   3.012   0.686  15.751  0.4153 -0.8023 -0.9379
  242MPD1    C3 3724   3.055   0.708  15.620 -0.3837  0.2975  0.2945
  242MPD1    C4 3725   3.099   0.827  15.584 -0.6302 -0.2433 -1.1701
  242MPD1    C5 3726   3.116   0.921  15.685  0.4785  0.1022  0.6507
  242MPD1     H 3727   2.960   0.594  15.776  0.4855 -0.9526 -1.3359
  242MPD1    H1 3728   3.123   0.857  15.483  0.7044 -0.2975 -0.8666
  242MPD1    H2 3729   3.077   0.985  15.883  0.6705 -0.9625  2.0136
  242MPD1    H3 3730   3.163   1.015  15.661 -0.4856  0.5304  0.4150
  242MPD1     N 3731   3.044   0.609  15.516 -0.2128 -0.5671 -0.4448
  242MPD1    H5 3732   3.062   0.633  15.419  1.7792  0.0037  0.0593
  242MPD1    N1 3733   2.960   0.748  15.977 -0.5300 -0.2542 -0.1259
  242MPD1    H6 3734   3.006   0.789  16.058 -1.4280 -1.1468  0.8349
  242MPD1    H7 3735   2.946   0.649  15.993 -2.7304 -0.2632 -2.2131
  243MPD1     C 3736   3.839   3.990   0.162  0.1301  0.8298  0.2830
  243MPD1    C1 3737   3.858   3.865   0.118  0.1148 -0.7087 -0.2026
  243MPD1    C2 3738   3.935   3.847   0.006  0.0218  0.8432  0.6458
  243MPD1    C3 3739   3.998   3.956  17.697  0.3031  0.1779 -0.2522
  243MPD1    C4 3740   3.974   4.083  17.742  0.1160  0.0053  0.4451
  243MPD1    C5 3741   3.901   4.095   0.094 -0.9826  0.6808 -0.0563
  243MPD1     H 3742   3.949   3.752  17.710 -0.6013 -0.4409  2.8903
  243MPD1    H1 3743   4.028   4.169  17.703  0.2640 -0.8293 -1.1730
  243MPD1    H2 3744   3.789   4.012   0.256 -0.8457 -0.8099  0.1455
  243MPD1    H3 3745   3.887   4.195   0.135  0.7950  1.9394 -2.5179
  243MPD1     N 3746   4.101   3.928  17.599 -0.0566  0.3062 -0.0731
  243MPD1    H5 3747   4.104   3.831  17.571 -0.8659  0.1532  0.3606
  243MPD1    N1 3748   3.769   3.767   0.165  0.4514 -0.2321  0.0744
  243MPD1    H6 3749   3.737   3.782   0.260 -0.8365  4.0721 -1.0474
  243MPD1    H7 3750   3.808   3.673   0.155  2.9392  0.8980 -0.8835
  244MPD1     C 3751   4.312   3.100  17.540 -0.6500 -0.2825  0.3313
  244MPD1    C1 3752   4.233   3.177  17.611 -0.1728  0.8120 -0.1094
  244MPD1    C2 3753   4.211   3.314  17.583 -0.8009 -0.4106 -0.5055
  244MPD1    C3 3754   4.286   3.377  17.479  0.4726 -0.2489 -0.6897
  244MPD1    C4 3755   4.360   3.288  17.405 -0.2454 -0.4078 -0.0106
  244MPD1    C5 3756   4.377   3.158  17.440 -0.2273 -0.8521  0.2222
  244MPD1     H 3757   4.151   3.373  17.651  0.2414  0.5682 -0.4302
  244MPD1    H1 3758   4.408   3.326  17.316 -1.8442  1.3626 -0.1378
  244MPD1    H2 3759   4.331   2.995  17.561  0.0121 -0.3494 -0.5644
  244MPD1    H3 3760   4.445   3.099  17.380  0.1003  1.0530 -1.2919
  244MPD1     N 3761   4.289   3.523  17.463  0.0567  0.0334 -0.5451
  244MPD1    H5 3762   4.233   3.572  17.533 -1.1833 -1.2305 -0.6573
  244MPD1    N1 3763   4.163   3.124  17.715 -0.4385 -0.2094 -0.6251
  244MPD1    H6 3764   4.153   3.192   0.036 -1.8265 -2.3901  1.1810
  244MPD1    H7 3765   4.213   3.049   0.008 -2.4200 -0.3910  1.2224
  245MPD1     C 3766   1.984   4.596  12.650  0.1946 -0.3602  0.0959
  245MPD1    C1 3767   2.030   4.567  12.777 -0.9714  0.1546  0.0115
  245MPD1    C2 3768   2.060   4.670  12.865  0.3776  1.6025 -0.1591
  245MPD1    C3 3769   2.030   0.060  12.836 -0.6275  0.0882 -0.0107
  245MPD1    C4 3770   1.982   0.090  12.712  0.2195  0.7221 -0.1966
  245MPD1    C5 3771   1.962   4.729  12.623 -0.5325  0.7271 -0.6918
  245MPD1     H 3772   2.085   4.632  12.964 -1.7726 -1.1985 -0.6915
  245MPD1    H1 3773   1.962   0.189  12.672 -1.5882  1.0234  1.4875
  245MPD1    H2 3774   1.957   4.511  12.588 -0.2702 -0.0911 -0.0692
  245MPD1    H3 3775   1.942   0.025  12.522  0.1600 -1.0742 -1.4524
  245MPD1     N 3776   2.042   0.157  12.945 -0.7214 -0.1731 -0.0769
  245MPD1    H5 3777   2.086   0.126  13.032 -0.2576 -2.3635 -1.0758
  245MPD1    N1 3778   2.063   4.434  12.806 -0.5595 -0.2504 -0.4631
  245MPD1    H6 3779   1.999   4.371  12.758 -0.8452  1.6309 -2.5447
  245MPD1    H7 3780   2.036   4.408  12.900  0.1828  1.8039  0.3130
  246MPD1     C 3781   2.457   2.583   9.277 -0.0526 -0.3466  0.4493
  246MPD1    C1 3782   2.404   2.473   9.216 -0.4342  0.3396  0.2423
  246MPD1    C2 3783   2.486   2.362   9.199  0.1664 -0.2632 -0.9000
  246MPD1    C3 3784   2.625   2.366   9.211 -0.0336  0.5985  0.2307
  246MPD1    C4 3785   2.675   2.477   9.272  0.4560 -0.1717  0.2760
  246MPD1    C5 3786   2.599   2.587   9.296 -0.1444 -0.3733  0.4424
  246MPD1     H 3787   2.429   2.275   9.169 -2.5436  1.5224 -0.9565
  246MPD1    H1 3788   2.781   2.485   9.292  0.5798 -0.6716 -0.1865
  246MPD1    H2 3789   2.405   2.672   9.310 -0.7704 -0.4359 -0.4563
  246MPD1    H3 3790   2.634   2.676   9.346 -1.5410 -0.0963  0.9359
  246MPD1     N 3791   2.707   2.261   9.167 -0.6702 -0.1840  0.6304
  246MPD1    H5 3792   2.805   2.263   9.194 -0.0895  0.0549 -1.5537
  246MPD1    N1 3793   2.267   2.472   9.181 -0.3905 -0.2171  0.6731
  246MPD1    H6 3794   2.239   2.567   9.159 -2.9369 -0.7326  1.6649
  246MPD1    H7 3795   2.248   2.410   9.103 -2.8623  0.3356  0.8509
  247MPD1     C 3796   0.476   4.490  16.158  0.1219 -0.5624 -0.4318
  247MPD1    C1 3797   0.541   4.597  16.099 -0.2195 -0.8764 -0.1115
  247MPD1    C2 3798   0.649   4.576  16.021  0.0440 -0.2538 -0.2621
  247MPD1    C3 3799   0.675   4.448  15.971 -0.9981  0.0557 -0.5012
  247MPD1    C4 3800   0.600   4.347  16.023  0.6996  0.1152  0.2004
  247MPD1    C5 3801   0.505   4.365  16.113  0.0543  0.0419  0.2412
  247MPD1     H 3802   0.705   4.667  16.003  1.4370 -1.1238 -0.3261
  247MPD1    H1 3803   0.615   4.246  15.987  0.0880  0.4911 -1.1218
  247MPD1    H2 3804   0.404   4.498  16.238  3.4935  1.8722  2.3468
  247MPD1    H3 3805   0.442   4.281  16.139 -0.9682  1.3043  1.8696
  247MPD1     N 3806   0.774   4.412  15.882 -0.1537  0.8132 -0.4637
  247MPD1    H5 3807   0.785   4.311  15.874  3.3858  1.2877 -1.2755
  247MPD1    N1 3808   0.517   4.723  16.154 -0.0734 -0.4040 -0.4777
  247MPD1    H6 3809   0.564   0.052  16.095  0.7601  0.2228  0.8991
  247MPD1    H7 3810   0.420   0.011  16.163 -0.1265 -0.7738  0.0856
  248MPD1     C 3811   1.427   3.219   0.097 -0.4598  0.0856 -0.2235
  248MPD1    C1 3812   1.463   3.349   0.100 -0.4823 -0.3083  0.3354
  248MPD1    C2 3813   1.417   3.427  17.749  0.5569  0.3257 -0.0443
  248MPD1    C3 3814   1.349   3.372  17.642 -0.1649  0.3643  0.0349
  248MPD1    C4 3815   1.309   3.242  17.643  0.3180  0.2585 -0.1933
  248MPD1    C5 3816   1.360   3.162  17.745 -0.1051 -0.0044 -0.0697
  248MPD1     H 3817   1.442   3.533  17.752  0.9616  0.1695  1.7284
  248MPD1    H1 3818   1.269   3.194  17.554 -0.0036  1.7347 -0.8402
  248MPD1    H2 3819   1.463   3.157   0.178 -1.4318 -1.2833 -0.8439
  248MPD1    H3 3820   1.342   3.055  17.740 -0.8561  0.2361 -2.5474
  248MPD1     N 3821   1.314   3.467  17.534  0.1772 -0.0325  0.0435
  248MPD1    H5 3822   1.359   3.556  17.549 -1.3609  0.7997 -0.2456
  248MPD1    N1 3823   1.552   3.406   0.201 -0.3338 -0.2057  0.7077
  248MPD1    H6 3824   1.514   3.487   0.249 -0.2458 -0.2915  0.9194
  248MPD1    H7 3825   1.574   3.340   0.275  0.9698 -2.2333 -1.4893
  249MPD1     C 3826   4.588   0.574  10.064  0.0613 -0.2066 -0.0786
  249MPD1    C1 3827   4.471   0.590  10.133 -0.3630 -0.1721 -0.1462
  249MPD1    C2 3828   4.406   0.478  10.163 -0.2901  0.6545 -0.3766
  249MPD1    C3 3829   4.452   0.349  10.117 -0.2855 -0.1778 -0.1546
  249MPD1    C4 3830   4.563   0.336  10.040  0.2195 -0.0297  0.4456
  249MPD1    C5 3831   4.631   0.451  10.014 -0.2087  0.4281 -0.1948
  249MPD1     H 3832   4.317   0.496  10.222 -0.1791  2.5544 -0.7797
  249MPD1    H1 3833   4.604   0.239  10.012 -0.6070  0.1283 -1.2908
  249MPD1    H2 3834   4.653   0.658  10.042  0.3557 -0.1134  1.1745
  249MPD1    H3 3835   4.715   0.440   9.946  0.9778 -1.4979  1.6102
  249MPD1     N 3836   4.376   0.244  10.160  0.0371 -0.5464  0.2342
  249MPD1    H5 3837   4.312   0.270  10.234  0.7959  2.2363 -0.0895
  249MPD1    N1 3838   4.447   0.710  10.203 -0.3175  0.1139 -0.3206
  249MPD1    H6 3839   4.473   0.787  10.142  1.0844 -0.4916 -0.4802
  249MPD1    H7 3840   4.350   0.722  10.232 -0.1810 -0.2037  0.2676
  250MPD2     C 3841   0.200   3.348  12.977 -0.3163  0.0300 -0.1359
  250MPD2    C1 3842   0.207   3.458  12.902 -0.3694 -0.4114  0.3837
  250MPD2    C2 3843   0.260   3.465  12.775 -0.1200  0.1193 -0.2986
  250MPD2    C3 3844   0.319   3.349  12.725  0.2276 -0.3904  0.2690
  250MPD2    C4 3845   0.323   3.241  12.806 -0.5051 -0.6517  0.4592
  250MPD2    C5 3846   0.264   3.237  12.931 -0.2380  0.6100 -0.3513
  250MPD2     H 3847   0.253   3.555  12.714  0.6454  1.1095  1.0768
  250MPD2    H1 3848   0.367   3.147  12.776 -1.5197 -0.1499 -2.5436
  250MPD2    H2 3849   0.169   3.346  13.081  1.2934  1.9708  0.3681
  250MPD2    H3 3850   0.278   3.148  12.990  0.1286  1.3127  0.6086
  250MPD2     N 3851   0.368   3.340  12.597 -0.1282 -0.0772 -0.3828
  250MPD2    H5 3852   0.407   3.251  12.569 -0.9890 -0.6158  0.1075
  250MPD2    N1 3853   0.170   3.577  12.965  0.2245 -0.5768 -0.4109
  250MPD2    H7 3854   0.145   3.569  13.063 -0.9080 -0.3904 -0.6827
  251TMC3    C1 3855   0.252   3.786  13.030 -0.5966  0.4406 -0.6934
  251TMC3    C2 3856   0.290   3.915  13.002 -0.7600  0.1236 -0.7221
  251TMC3    C3 3857   0.392   3.976  13.071 -0.4354 -0.4289  0.4720
  251TMC3    C4 3858   0.317   3.715  13.126 -0.3499  0.3288  0.1678
  251TMC3    C5 3859   0.420   3.776  13.191 -0.2683  0.7491 -0.6598
  251TMC3    C6 3860   0.470   3.908  13.168  0.3932  0.3497  0.1149
  251TMC3     C 3861   0.200   3.706  12.919  0.2606  0.0394  0.5717
  251TMC3     O 3862   0.221   3.756  12.811  0.5329  0.0046 -0.8145
  251TMC3     H 3863   0.236   3.970  12.925  0.2735  0.5455 -1.1518
  251TMC3    H1 3864   0.282   3.622  13.168 -0.7988  1.3449  2.0215
  251TMC3    H2 3865   0.565   3.943  13.206  1.0933 -0.3413 -1.0143
  251TMC3    C7 3866   0.502   3.695  13.281  0.1304 -0.5034 -0.4997
  251TMC3    C8 3867   0.421   4.114  13.054 -0.4783  0.2201  0.6396
  251TMC3    O1 3868   0.489   3.576  13.268  0.4148 -0.4578 -0.5421
  251TMC3    O2 3869   0.321   4.183  13.025 -0.0169  0.3496 -0.1161
  252TMC3    C1 3870   0.306   4.428   9.017 -0.1186 -0.3226 -0.0396
  252TMC3    C2 3871   0.386   4.536   9.036 -0.0417 -0.3926 -0.5103
  252TMC3    C3 3872   0.465   4.535   9.142  0.1074  0.2843 -0.4804
  252TMC3    C4 3873   0.330   4.309   9.079  0.2480 -0.4731 -0.2382
  252TMC3    C5 3874   0.426   4.305   9.173 -0.3265 -0.2517  0.0470
  252TMC3    C6 3875   0.487   4.420   9.213  0.0917 -0.1239  0.2882
  252TMC3     C 3876   0.224   4.424   8.899  0.5610 -0.4366  0.6951
  252TMC3     O 3877   0.162   4.319   8.872 -0.2118  0.2349 -0.2874
  252TMC3     H 3878   0.364   4.629   8.984  1.7196 -0.7193 -1.8069
  252TMC3    H1 3879   0.279   4.217   9.053  1.4776 -0.9572 -0.9913
  252TMC3    H2 3880   0.547   4.404   9.301 -0.2653 -0.7034  0.4260
  252TMC3    C7 3881   0.429   4.185   9.261  0.0240 -0.0001 -0.5591
  252TMC3    C8 3882   0.548   4.654   9.158 -0.6013 -0.4169 -0.0145
  252TMC3    O1 3883   0.331   4.110   9.248 -0.4777 -0.4347  0.2012
  252TMC3    O2 3884   0.549   0.002   9.079  0.4188  0.2203 -0.0329
  253MPD2     C 3885   1.677   3.360  15.587  0.5917 -0.0252  0.9844
  253MPD2    C1 3886   1.579   3.262  15.570  0.2604 -0.5065 -0.1257
  253MPD2    C2 3887   1.510   3.223  15.689  0.2772  0.1923  0.4137
  253MPD2    C3 3888   1.531   3.280  15.809 -0.1766 -0.6322  0.5023
  253MPD2    C4 3889   1.632   3.371  15.823  0.1825 -0.5362 -0.1127
  253MPD2    C5 3890   1.703   3.417  15.709  0.7021  0.0837 -0.1919
  253MPD2     H 3891   1.443   3.138  15.687  1.6657 -0.9286  1.7699
  253MPD2    H1 3892   1.656   3.416  15.919  1.1599  0.8980 -1.0345
  253MPD2    H2 3893   1.734   3.399  15.504  2.7126 -0.5080  2.2279
  253MPD2    H3 3894   1.781   3.493  15.715  0.5028  0.2629  0.1221
  253MPD2     N 3895   1.445   3.257  15.915 -0.4294 -0.7086  0.0291
  253MPD2    H5 3896   1.467   3.287  16.010 -1.6832  1.2863 -0.3139
  253MPD2    N1 3897   1.527   3.209  15.448 -0.3507 -0.2906 -0.4285
  253MPD2    H7 3898   1.453   3.141  15.457  1.1272 -1.7213  0.8190
  254TMC3    C1 3899   1.245   3.228  16.034  0.4784 -0.0563 -0.5995
  254TMC3    C2 3900   1.113   3.248  16.012  0.4657 -0.8920 -0.2270
  254TMC3    C3 3901   1.036   3.270  16.122  0.1504  0.0182 -0.5874
  254TMC3    C4 3902   1.301   3.223  16.159 -0.1461 -0.3763  0.3041
  254TMC3    C5 3903   1.221   3.253  16.268  0.1012 -0.4814  0.4201
  254TMC3    C6 3904   1.088   3.265  16.251 -0.1191 -0.2627  0.0398
  254TMC3     C 3905   1.321   3.193  15.914 -0.0200 -0.1980  0.0983
  254TMC3     O 3906   1.254   3.157  15.820 -0.1909  0.2125  0.7048
  254TMC3     H 3907   1.071   3.230  15.913 -0.8671 -1.2327  0.3972
  254TMC3    H1 3908   1.402   3.188  16.175 -0.9240 -2.3743  0.7836
  254TMC3    H2 3909   1.023   3.290  16.334 -1.1577 -1.2898 -0.4676
  254TMC3    C7 3910   1.272   3.250  16.407  0.3343  0.2672  0.1013
  254TMC3    C8 3911   0.899   3.308  16.104 -0.2205 -0.3502 -0.8481
  254TMC3    O1 3912   1.205   3.207  16.501  0.0712  0.3159 -0.1661
  254TMC3    O2 3913   0.820   3.288  16.197  0.2702  0.0763 -0.0884
  255MPD2     C 3914   0.689   1.617  10.750 -0.2052  0.0382  0.1598
  255MPD2    C1 3915   0.625   1.595  10.632 -0.4447 -0.0789  0.1306
  255MPD2    C2 3916   0.647   1.473  10.567 -0.2982  0.1851 -0.1164
  255MPD2    C3 3917   0.745   1.392  10.608  0.2232 -0.5359  0.9108
  255MPD2    C4 3918   0.810   1.408  10.722  0.4326 -0.2100 -0.4191
  255MPD2    C5 3919   0.782   1.516  10.791 -0.3272 -0.2070 -0.3263
  255MPD2     H 3920   0.599   1.456  10.471  1.2244 -4.0130 -0.1204
  255MPD2    H1 3921   0.894   1.347  10.751 -0.4756 -1.0090  0.5615
  255MPD2    H2 3922   0.672   1.702  10.815  1.0445  0.8981 -0.6509
  255MPD2    H3 3923   0.842   1.534  10.880 -0.4194 -0.5769 -0.1883
  255MPD2     N 3924   0.764   1.275  10.532  0.2472 -0.7509 -0.0832
  255MPD2    H5 3925   0.690   1.274  10.463 -1.3206 -0.3965  1.5803
  255MPD2    N1 3926   0.541   1.695  10.584  0.1434  0.1257  0.5314
  255MPD2    H7 3927   0.532   1.781  10.638  0.7641  0.3904  0.2209
  256TMC3    C1 3928   0.365   1.790  10.462 -0.2538 -0.0554  0.9524
  256TMC3    C2 3929   0.404   1.917  10.490  0.4978 -0.2110  0.3529
  256TMC3    C3 3930   0.310   2.014  10.485  0.1152 -0.4368  0.4115
  256TMC3    C4 3931   0.249   1.762  10.397 -0.3046 -0.5553 -0.5448
  256TMC3    C5 3932   0.158   1.866  10.391 -0.0065  0.5724  0.1590
  256TMC3    C6 3933   0.188   1.990  10.438 -0.5110  0.2924 -0.2460
  256TMC3     C 3934   0.461   1.683  10.470 -0.2955  0.1953  0.0957
  256TMC3     O 3935   0.438   1.595  10.392  0.0667  0.2224 -0.0816
  256TMC3     H 3936   0.502   1.952  10.521  1.0025 -2.1800  1.0072
  256TMC3    H1 3937   0.212   1.662  10.377  0.7116 -0.8450 -1.0035
  256TMC3    H2 3938   0.112   2.065  10.422 -1.4217 -0.5221  0.3199
  256TMC3    C7 3939   0.022   1.821  10.367 -0.1266 -0.6352 -0.3799
  256TMC3    C8 3940   0.350   2.151  10.489  0.2101  0.5324 -0.2205
  256TMC3    O1 3941   0.014   1.733  10.280 -0.2549  0.1201 -0.3512
  256TMC3    O2 3942   0.269   2.234  10.533  0.8254 -0.7138  0.5960
  257MPD2     C 3943   3.706   3.738  13.252 -0.5010 -0.1423 -0.7966
  257MPD2    C1 3944   3.767   3.635  13.179 -0.0761  0.6659 -0.3171
  257MPD2    C2 3945   3.759   3.508  13.234 -0.5505  0.4882  0.4336
  257MPD2    C3 3946   3.704   3.485  13.359 -0.7492 -0.1274  0.6565
  257MPD2    C4 3947   3.664   3.590  13.434  0.1103  0.0140  0.9202
  257MPD2    C5 3948   3.673   3.718  13.381  0.3173  0.3722 -0.3634
  257MPD2     H 3949   3.787   3.426  13.168  0.5162  0.5629  0.8087
  257MPD2    H1 3950   3.630   3.577  13.536 -0.4289  1.2038  0.8877
  257MPD2    H2 3951   3.688   3.837  13.214  2.9998  0.2881 -1.3700
  257MPD2    H3 3952   3.645   3.797  13.450 -1.6496 -0.1386 -0.5800
  257MPD2     N 3953   3.688   3.351  13.405  0.3604 -0.4625 -0.2121
  257MPD2    H5 3954   3.719   3.280  13.339  0.6244 -0.6678  0.1347
  257MPD2    N1 3955   3.803   3.655  13.046 -0.8983  0.8320  0.0810
  257MPD2    H7 3956   3.796   3.749  13.007  1.6268  1.0136  0.0771
  258TMC3    C1 3957   3.664   3.168  13.560 -0.3486  0.5663  0.3325
  258TMC3    C2 3958   3.681   3.079  13.459 -0.2709  0.4499 -0.0947
  258TMC3    C3 3959   3.734   2.956  13.496 -0.0186  0.3027 -0.7474
  258TMC3    C4 3960   3.654   3.132  13.690 -0.9427 -0.2951 -0.0734
  258TMC3    C5 3961   3.696   3.011  13.724  0.3017  0.3902  0.6020
  258TMC3    C6 3962   3.754   2.927  13.632 -0.0161 -0.3925 -0.2600
  258TMC3     C 3963   3.647   3.311  13.529  0.0413 -0.5388 -0.2250
  258TMC3     O 3964   3.642   3.379  13.630  0.0850  0.4701 -0.0226
  258TMC3     H 3965   3.658   3.104  13.356 -2.4620 -2.7182 -0.3747
  258TMC3    H1 3966   3.624   3.205  13.765  0.5297  0.9823 -0.7419
  258TMC3    H2 3967   3.795   2.831  13.661  0.2091 -0.6607 -1.4888
  258TMC3    C7 3968   3.689   2.982  13.870  0.7854 -0.0838 -0.9246
  258TMC3    C8 3969   3.788   2.867  13.392 -0.2696  0.3442 -0.0533
  258TMC3    O1 3970   3.606   3.050  13.927 -0.3313  0.4310  0.2429
  258TMC3    O2 3971   3.847   2.767  13.440 -0.0722 -0.0385  0.6368
  259MPD2     C 3972   2.364   0.255   0.539  0.2860 -0.1311 -0.3990
  259MPD2    C1 3973   2.298   0.135   0.517 -0.1042  0.6716 -0.0952
  259MPD2    C2 3974   2.290   0.092   0.386  0.9519  0.0926 -0.2271
  259MPD2    C3 3975   2.350   0.159   0.283 -0.3820 -0.7435 -0.4688
  259MPD2    C4 3976   2.417   0.277   0.309  0.3090  0.0225 -0.2433
  259MPD2    C5 3977   2.413   0.328   0.432  0.0133 -0.1639  0.2309
  259MPD2     H 3978   2.250   4.733   0.362 -0.2475  0.2919  1.0096
  259MPD2    H1 3979   2.464   0.344   0.237  2.6474 -1.3601  0.0029
  259MPD2    H2 3980   2.372   0.293   0.640 -2.4052  1.8806 -0.9465
  259MPD2    H3 3981   2.460   0.426   0.440 -1.6483  0.4849  2.0621
  259MPD2     N 3982   2.350   0.115   0.151  0.4251  0.1530 -0.3316
  259MPD2    H5 3983   2.336   0.015   0.141 -0.5631  0.4296 -1.8109
  259MPD2    N1 3984   2.259   0.056   0.623 -0.0341 -0.1948 -0.0028
  259MPD2    H7 3985   2.265   0.106   0.711 -3.2292  0.2120 -0.0006
  260TMC3    C1 3986   2.377   0.102  17.667 -0.0945  0.4279 -0.5166
  260TMC3    C2 3987   2.468   0.121  17.568  0.7085  0.9659 -0.0350
  260TMC3    C3 3988   2.467   0.035  17.466  0.4281 -0.5537  0.8767
  260TMC3    C4 3989   2.280   0.005  17.657 -0.1439 -0.1948 -0.4076
  260TMC3    C5 3990   2.285   4.656  17.548  0.0168  0.0500 -0.2662
  260TMC3    C6 3991   2.379   4.679  17.445  0.0559 -0.1040 -0.0578
  260TMC3     C 3992   2.386   0.184   0.033 -0.0394 -0.6742 -0.4995
  260TMC3     O 3993   2.444   0.294   0.021 -0.0148 -0.4264  0.3650
  260TMC3     H 3994   2.540   0.201  17.578 -0.3408  2.2718 -2.6860
  260TMC3    H1 3995   2.216   4.733  17.744  0.7752  0.6558  0.3838
  260TMC3    H2 3996   2.364   4.614  17.359  0.4879 -1.5323  0.9520
  260TMC3    C7 3997   2.188   4.544  17.544  0.0222  0.1931  0.5232
  260TMC3    C8 3998   2.586   0.014  17.390  0.5694 -0.3550 -0.2273
  260TMC3    O1 3999   2.155   4.507  17.431 -0.1165 -0.2739 -0.1765
  260TMC3    O2 4000   2.678   0.094  17.401 -0.0146  0.7237 -0.4340
  261MPD2     C 4001   0.242   3.225  11.746  0.4169  0.4862  0.4262
  261MPD2    C1 4002   0.267   3.341  11.805  0.5313  0.0620  1.4791
  261MPD2    C2 4003   0.225   3.460  11.749  0.7663 -0.1974 -0.0161
  261MPD2    C3 4004   0.160   3.455  11.633  0.1175  0.0579  1.0658
  261MPD2    C4 4005   0.119   3.334  11.576  0.1358 -0.0185  0.6363
  261MPD2    C5 4006   0.168   3.219  11.636 -0.6964 -0.3899 -0.4993
  261MPD2     H 4007   0.279   3.547  11.786 -0.9031  0.5830  0.5992
  261MPD2    H1 4008   0.070   3.321  11.480  0.5177 -0.2689  0.4748
  261MPD2    H2 4009   0.281   3.133  11.787  0.0917  0.4752  0.7219
  261MPD2    H3 4010   0.135   3.121  11.603  1.0482 -0.2924 -2.5584
  261MPD2     N 4011   0.147   3.577  11.573 -0.0691  0.3364  0.0309
  261MPD2    H5 4012   0.213   3.647  11.606 -0.1342 -0.2487  1.3943
  261MPD2    N1 4013   0.342   3.338  11.921  0.3790 -0.4838 -0.4793
  261MPD2    H7 4014   0.385   3.246  11.932 -0.6558 -0.8638  0.4434
  262TMC3    C1 4015   0.060   3.732  11.422  0.4922  0.0890 -0.0226
  262TMC3    C2 4016   4.694   3.795  11.366  0.9176  0.1658 -0.0961
  262TMC3    C3 4017   4.712   3.917  11.301 -0.9504  0.2980 -0.6151
  262TMC3    C4 4018   0.184   3.783  11.396 -0.4567 -0.6228 -0.0996
  262TMC3    C5 4019   0.206   3.895  11.330 -0.0054 -0.3075  0.2471
  262TMC3    C6 4020   0.097   3.969  11.281 -0.7456  1.4592  1.0885
  262TMC3     C 4021   0.052   3.600  11.477 -0.2217  0.9655 -0.8951
  262TMC3     O 4022   4.699   3.530  11.443 -0.6668 -0.3239  0.6578
  262TMC3     H 4023   4.598   3.747  11.380  1.3292 -0.8765 -0.8612
  262TMC3    H1 4024   0.278   3.745  11.435 -0.1811 -0.0800 -0.2228
  262TMC3    H2 4025   0.109   4.044  11.205  3.1490 -1.2685 -0.9633
  262TMC3    C7 4026   0.334   3.946  11.298  0.2211 -0.1000  0.1308
  262TMC3    C8 4027   4.608   4.020  11.299  0.2752  0.1986 -0.0409
  262TMC3    O1 4028   0.428   3.869  11.302  0.4671  0.0731  0.0470
  262TMC3    O2 4029   4.626   4.109  11.222 -0.1773 -0.3475  0.3171
  263MPD2     C 4030   0.907   2.902  11.626  0.1156 -0.4456 -0.7610
  263MPD2    C1 4031   1.035   2.909  11.570  0.0514  0.1905 -0.3242
  263MPD2    C2 4032   1.053   2.915  11.433  0.1881  0.4763 -0.4210
  263MPD2    C3 4033   0.939   2.914  11.351 -0.6105 -0.0077  0.1474
  263MPD2    C4 4034   0.818   2.937  11.411  0.1941 -0.1411 -1.0327
  263MPD2    C5 4035   0.804   2.940  11.547  0.2588  0.4763 -0.3723
  263MPD2     H 4036   1.149   2.895  11.386 -0.2395  2.0496 -2.0034
  263MPD2    H1 4037   0.726   2.953  11.357  1.0425  2.2745 -1.7539
  263MPD2    H2 4038   0.894   2.907  11.734 -0.6234 -1.2475 -0.8108
  263MPD2    H3 4039   0.705   2.957  11.586  1.1423  3.5643  0.5520
  263MPD2     N 4040   0.964   2.910  11.211  0.1462 -0.6505  0.7846
  263MPD2    H5 4041   1.062   2.913  11.186 -0.2114  2.2016 -0.2742
  263MPD2    N1 4042   1.137   2.888  11.658  0.2142  0.2650  0.4015
  263MPD2    H7 4043   1.112   2.879  11.756  2.3588  0.1944  0.9532
  264TMC3    C1 4044   0.952   2.975  10.996  0.0167  0.1967 -0.9711
  264TMC3    C2 4045   0.942   3.110  10.977  0.6357  0.5800  0.2624
  264TMC3    C3 4046   1.038   3.167  10.903 -0.9505 -0.3766 -0.1380
  264TMC3    C4 4047   1.061   2.901  10.955 -0.1222 -0.2780  0.8976
  264TMC3    C5 4048   1.151   2.962  10.873 -0.3210  0.3484  0.0743
  264TMC3    C6 4049   1.141   3.098  10.846  0.4006  0.3270  0.6520
  264TMC3     C 4050   0.874   2.935  11.109  0.8945 -0.6233 -0.4362
  264TMC3     O 4051   0.751   2.935  11.115 -0.1010  0.1730 -0.2904
  264TMC3     H 4052   0.866   3.166  11.031 -0.2653  1.9933 -2.4558
  264TMC3    H1 4053   1.078   2.804  10.999 -1.5228 -0.8060  0.2649
  264TMC3    H2 4054   1.211   3.151  10.782  3.0161 -1.0640  2.3560
  264TMC3    C7 4055   1.287   2.917  10.879 -0.4516 -0.3552  0.0763
  264TMC3    C8 4056   1.072   3.297  10.943  0.8893  0.0679 -0.8610
  264TMC3    O1 4057   1.313   2.854  10.982 -0.2203  0.2340 -0.3191
  264TMC3    O2 4058   1.182   3.336  10.907 -0.4251 -0.0046 -0.1231
  265MPD2     C 4059   2.412   2.897  15.464 -0.4886 -0.1938  0.2472
  265MPD2    C1 4060   2.522   2.981  15.456 -0.4645 -0.5041  0.1234
  265MPD2    C2 4061   2.622   2.938  15.371  0.4001 -0.5721  0.2435
  265MPD2    C3 4062   2.604   2.835  15.282  0.1070  0.3507 -0.2234
  265MPD2    C4 4063   2.489   2.761  15.290 -0.0314  0.3488  0.7653
  265MPD2    C5 4064   2.393   2.793  15.378  0.0752  0.0300 -0.5624
  265MPD2     H 4065   2.705   3.008  15.364  0.7519 -0.8521  1.6737
  265MPD2    H1 4066   2.469   2.680  15.222 -1.0910  1.2818 -0.0409
  265MPD2    H2 4067   2.324   2.923  15.522  0.2870  1.0689  0.8500
  265MPD2    H3 4068   2.309   2.727  15.396 -1.0928  1.0827 -2.1473
  265MPD2     N 4069   2.695   2.791  15.184  0.3495  0.6281 -0.3098
  265MPD2    H5 4070   2.660   2.727  15.114 -1.1505 -0.8468  1.7735
  265MPD2    N1 4071   2.539   3.102  15.531 -0.2915  0.1306  0.0331
  265MPD2    H7 4072   2.629   3.147  15.517 -0.4568  0.2614 -0.6208
  266TMC3    C1 4073   2.471   3.310  15.604  0.2147 -0.3159  0.4226
  266TMC3    C2 4074   2.587   3.340  15.664 -0.1059 -0.5322 -0.0936
  266TMC3    C3 4075   2.609   3.476  15.692  0.1252  1.1355 -0.7620
  266TMC3    C4 4076   2.378   3.408  15.576  0.0082 -0.1397 -0.4167
  266TMC3    C5 4077   2.404   3.539  15.597  0.0935  0.3492  0.5186
  266TMC3    C6 4078   2.526   3.577  15.655 -0.3051 -0.3423  0.0784
  266TMC3     C 4079   2.435   3.170  15.589 -0.6707  0.2469 -0.1334
  266TMC3     O 4080   2.323   3.137  15.605 -0.0133 -0.3262 -0.6739
  266TMC3     H 4081   2.657   3.267  15.702  0.1363  0.5142  1.5099
  266TMC3    H1 4082   2.296   3.372  15.515  0.4148  0.4682 -1.3189
  266TMC3    H2 4083   2.542   3.682  15.677  1.6938 -0.6091 -0.0747
  266TMC3    C7 4084   2.346   3.629  15.504  0.0141  0.2012 -0.3736
  266TMC3    C8 4085   2.730   3.511  15.767 -0.2122 -0.2791  0.0495
  266TMC3    O1 4086   2.234   3.601  15.469 -0.4240 -0.3385  0.0065
  266TMC3    O2 4087   2.799   3.420  15.810 -0.1946  0.5473  0.3754
  267MPD2     C 4088   4.208   4.158   0.455 -0.4059 -0.1830  0.1772
  267MPD2    C1 4089   4.277   4.242   0.369  0.2334  0.1610  0.3043
  267MPD2    C2 4090   4.207   4.322   0.280  0.3959  0.1467 -1.0002
  267MPD2    C3 4091   4.068   4.332   0.288  1.0690 -0.5082  0.4905
  267MPD2    C4 4092   4.001   4.255   0.380 -0.3078 -0.5345 -0.3027
  267MPD2    C5 4093   4.069   4.163   0.455  0.0326  0.4905  0.6323
  267MPD2     H 4094   4.264   4.382   0.209  0.9569 -0.9941 -1.5129
  267MPD2    H1 4095   3.894   4.267   0.385 -0.3525 -2.2671  2.7725
  267MPD2    H2 4096   4.254   4.086   0.522 -2.7471 -1.4246  0.4301
  267MPD2    H3 4097   4.006   4.111   0.526  1.3550 -0.5655  1.0220
  267MPD2     N 4098   3.997   4.419   0.204 -0.1556 -0.2115  0.0969
  267MPD2    H5 4099   3.896   4.412   0.218 -0.0933  0.5244  0.9113
  267MPD2    N1 4100   4.419   4.234   0.392  0.1367  0.5612 -0.7054
  267MPD2    H7 4101   4.456   4.157   0.448 -0.8710  0.1617 -0.5796
  268TMC3    C1 4102   4.643   4.329   0.381  1.0713 -1.2909 -0.6475
  268TMC3    C2 4103   4.720   4.428   0.328 -0.4936 -0.0096 -0.7581
  268TMC3    C3 4104   0.116   4.415   0.334  0.1205  0.0059  0.0069
  268TMC3    C4 4105   4.697   4.228   0.458 -1.1205  0.9137 -0.2060
  268TMC3    C5 4106   0.102   4.225   0.476 -1.0752 -0.4007 -0.2856
  268TMC3    C6 4107   0.178   4.331   0.426  0.0086 -0.2227  0.1193
  268TMC3     C 4108   4.505   4.341   0.353 -0.1881  0.3261  0.5756
  268TMC3     O 4109   4.471   4.454   0.316 -0.4140 -0.1115  0.3455
  268TMC3     H 4110   4.671   4.513   0.283  2.9677  2.0268 -0.6410
  268TMC3    H1 4111   4.644   4.139   0.489 -0.5941  0.8473  0.4989
  268TMC3    H2 4112   0.287   4.333   0.422 -0.0393 -1.0720 -1.6551
  268TMC3    C7 4113   0.171   4.110   0.530 -0.1887  0.2857 -0.1281
  268TMC3    C8 4114   0.193   4.525   0.294  0.0202  0.0076 -0.2476
  268TMC3    O1 4115   0.101   4.032   0.592  0.1428  0.0812  0.1479
  268TMC3    O2 4116   0.287   4.559   0.358 -0.5994  0.3341 -0.5710
  269MPD2     C 4117   0.894   3.627  15.325  0.5487 -0.2556 -0.0661
  269MPD2    C1 4118   0.772   3.646  15.379 -0.1248  0.5453  0.2840
  269MPD2    C2 4119   0.705   3.768  15.371  0.1396 -0.2291  0.1180
  269MPD2    C3 4120   0.776   3.881  15.311 -0.1309 -0.2940  0.2175
  269MPD2    C4 4121   0.900   3.863  15.254 -0.3147 -0.0507 -0.4276
  269MPD2    C5 4122   0.950   3.735  15.255  0.0722 -0.1157 -0.3181
  269MPD2     H 4123   0.610   3.784  15.422  0.3336 -1.2292  0.7867
  269MPD2    H1 4124   0.945   3.942  15.195 -0.8435 -0.2559 -1.1082
  269MPD2    H2 4125   0.944   3.531  15.328 -1.4090 -1.2562  1.0565
  269MPD2    H3 4126   1.045   3.732  15.203 -0.2191 -0.1691 -0.8477
  269MPD2     N 4127   0.721   4.002  15.335 -0.3143  0.1463  0.1259
  269MPD2    H5 4128   0.637   3.996  15.393 -0.7703  0.6572 -0.4873
  269MPD2    N1 4129   0.720   3.537  15.448 -0.1474 -0.2486 -0.5976
  269MPD2    H7 4130   0.782   3.458  15.460  0.0775  0.0526  0.2004
  270TMC3    C1 4131   0.562   3.405  15.567 -0.2073 -0.9464  0.3399
  270TMC3    C2 4132   0.435   3.360  15.557  0.4958 -0.6092  0.0481
  270TMC3    C3 4133   0.396   3.240  15.617  0.5429  0.5809 -0.6937
  270TMC3    C4 4134   0.655   3.355  15.649 -0.5975  0.0165 -0.0042
  270TMC3    C5 4135   0.619   3.235  15.713 -0.5047  0.3084 -0.3707
  270TMC3    C6 4136   0.493   3.188  15.699  0.0296  0.4153  1.1284
  270TMC3     C 4137   0.594   3.526  15.494  0.3577  0.4044 -0.6980
  270TMC3     O 4138   0.499   3.591  15.451 -0.2856  0.3157 -0.2044
  270TMC3     H 4139   0.356   3.407  15.500  0.9246 -0.8613 -0.7477
  270TMC3    H1 4140   0.758   3.386  15.664 -0.4881 -0.7122  0.7432
  270TMC3    H2 4141   0.469   3.096  15.751  3.2264 -1.5953 -0.9046
  270TMC3    C7 4142   0.722   3.149  15.776 -0.4709  0.1091 -0.1717
  270TMC3    C8 4143   0.301   3.154  15.547 -0.1808  0.0992 -0.0552
  270TMC3    O1 4144   0.835   3.156  15.728 -0.1181 -0.0929 -0.4889
  270TMC3    O2 4145   0.232   3.076  15.615  0.2062  0.2819 -0.5633
  271MPD2     C 4146   4.426   3.220  13.871  0.2020  0.4025  0.7596
  271MPD2    C1 4147   4.416   3.278  14.000 -0.4178  0.2612  0.0980
  271MPD2    C2 4148   4.336   3.383  14.012 -0.0471  0.0469  0.0467
  271MPD2    C3 4149   4.267   3.434  13.911  0.7995 -0.0486 -0.1794
  271MPD2    C4 4150   4.288   3.391  13.780  0.4039 -0.6305  0.4210
  271MPD2    C5 4151   4.366   3.277  13.763  0.3251 -0.1519  0.8535
  271MPD2     H 4152   4.336   3.426  14.112  1.7305  1.0130 -0.3815
  271MPD2    H1 4153   4.241   3.430  13.690  1.4956 -1.2653 -0.4193
  271MPD2    H2 4154   4.493   3.135  13.857  2.1367  1.9262  0.7961
  271MPD2    H3 4155   4.385   3.237  13.664 -1.2244 -0.5441  0.7198
  271MPD2     N 4156   4.183   3.552  13.929  0.2934 -0.2769  0.2113
  271MPD2    H5 4157   4.129   3.580  13.848  0.9258 -0.4709 -0.2823
  271MPD2    N1 4158   4.496   3.239  14.110  0.1246  0.9115 -0.7614
  271MPD2    H7 4159   4.477   3.287  14.198 -0.7321 -1.1585  0.1910
  272TMC3    C1 4160   4.636   3.112  14.247 -0.0214  0.4028  0.0299
  272TMC3    C2 4161   0.011   3.050  14.253 -0.5284 -0.2269 -0.6083
  272TMC3    C3 4162   0.046   2.980  14.365  0.2242 -0.2474 -0.5824
  272TMC3    C4 4163   4.547   3.106  14.347 -0.1573 -0.3535  0.0653
  272TMC3    C5 4164   4.580   3.034  14.460  0.8424  0.2369  0.2726
  272TMC3    C6 4165   4.707   2.992  14.479 -0.1389 -0.4593  0.1611
  272TMC3     C 4166   4.590   3.140  14.111 -0.5212 -0.7834 -0.1825
  272TMC3     O 4167   4.633   3.078  14.010 -0.9510  0.2200 -0.4378
  272TMC3     H 4168   0.065   3.055  14.159  0.7097 -0.9192  0.0605
  272TMC3    H1 4169   4.447   3.146  14.340 -0.9600 -2.4742 -0.6017
  272TMC3    H2 4170   4.719   2.941  14.574 -1.4768  0.8433  1.0338
  272TMC3    C7 4171   4.519   3.062  14.589  0.3403 -0.2873 -0.6105
  272TMC3    C8 4172   0.183   2.940  14.385 -0.8694  0.6289 -0.3296
  272TMC3    O1 4173   4.409   3.024  14.617  0.2313  0.5180 -0.2644
  272TMC3    O2 4174   0.259   2.970  14.297 -0.0532  0.1731  0.8226
  273MPD2     C 4175   1.512   1.414  11.862 -0.0836  0.3635 -0.3054
  273MPD2    C1 4176   1.621   1.493  11.880 -0.0335  0.1832 -0.8673
  273MPD2    C2 4177   1.663   1.584  11.781 -0.1205 -0.5846  0.3544
  273MPD2    C3 4178   1.602   1.581  11.654 -0.7623 -0.6696 -0.2618
  273MPD2    C4 4179   1.490   1.498  11.638  0.0895  0.2823 -0.6102
  273MPD2    C5 4180   1.443   1.415  11.741  0.0306 -0.2593 -0.3602
  273MPD2     H 4181   1.742   1.656  11.797 -0.7280  0.7301 -2.5494
  273MPD2    H1 4182   1.435   1.500  11.545  0.2539  0.5961 -0.7005
  273MPD2    H2 4183   1.480   1.352  11.945 -1.0301 -0.0180 -0.9553
  273MPD2    H3 4184   1.356   1.355  11.721 -0.8015  0.2653  1.7228
  273MPD2     N 4185   1.635   1.663  11.541  0.3029 -0.4433 -0.5577
  273MPD2    H5 4186   1.575   1.657  11.459 -0.3505 -0.5386 -0.0704
  273MPD2    N1 4187   1.692   1.463  11.995  0.4018  0.2863  0.5119
  273MPD2    H7 4188   1.654   1.388  12.052 -1.1052  1.8752  1.5759
  274TMC3    C1 4189   1.746   1.811  11.409  0.5180  0.2634  0.3770
  274TMC3    C2 4190   1.684   1.765  11.301 -0.1948  0.4871  0.1562
  274TMC3    C3 4191   1.699   1.829  11.184 -0.1076  0.5185  1.0259
  274TMC3    C4 4192   1.829   1.924  11.404 -0.3622 -0.5712 -0.2611
  274TMC3    C5 4193   1.835   1.990  11.283  0.3300 -0.3476  0.0107
  274TMC3    C6 4194   1.775   1.941  11.168 -0.2943  0.5601  0.0151
  274TMC3     C 4195   1.738   1.752  11.535 -0.3831 -0.2157 -0.0083
  274TMC3     O 4196   1.830   1.774  11.612  0.8317 -0.2640  0.4163
  274TMC3     H 4197   1.638   1.667  11.297 -3.0616  1.8997 -0.6823
  274TMC3    H1 4198   1.872   1.968  11.493 -0.2802  0.8412 -1.0073
  274TMC3    H2 4199   1.753   2.013  11.090 -3.2593 -2.5611 -2.0379
  274TMC3    C7 4200   1.879   2.127  11.282  0.0557  0.1857  0.1307
  274TMC3    C8 4201   1.613   1.789  11.074 -0.2156  0.2074  0.1272
  274TMC3    O1 4202   1.940   2.176  11.187 -0.3456  0.6197  0.5468
  274TMC3    O2 4203   1.545   1.689  11.080 -0.5908 -0.4439  0.2182
  275MPD2     C 4204   1.033   4.447  14.152  0.0408 -0.3048  0.4464
  275MPD2    C1 4205   1.016   4.319  14.207  0.2451  0.3092  0.0063
  275MPD2    C2 4206   0.890   4.259  14.197 -0.4284  0.1099 -0.5118
  275MPD2    C3 4207   0.790   4.318  14.120  0.0588 -0.2953  0.1407
  275MPD2    C4 4208   0.821   4.439  14.061  0.1319  0.1071  0.2628
  275MPD2    C5 4209   0.941   4.499  14.064  0.0147 -0.2236 -0.1205
  275MPD2     H 4210   0.869   4.163  14.242  1.2205 -0.3320 -0.6914
  275MPD2    H1 4211   0.748   4.500  14.009 -1.3680  0.1606  2.4269
  275MPD2    H2 4212   1.127   4.500  14.167 -0.3315  0.3097  0.6033
  275MPD2    H3 4213   0.952   4.593  14.011  2.0531  0.5142  1.6186
  275MPD2     N 4214   0.659   4.273  14.096  0.7329 -0.7924 -0.4625
  275MPD2    H5 4215   0.598   4.345  14.057  1.8370  1.2062  1.4774
  275MPD2    N1 4216   1.115   4.246  14.281 -0.0964 -0.4303 -0.4734
  275MPD2    H7 4217   1.075   4.159  14.315  1.4170  0.6093  3.9960
  276TMC3    C1 4218   1.311   4.218  14.417 -0.0354  0.6770 -0.1814
  276TMC3    C2 4219   1.270   4.091  14.435  0.9044  0.4272  0.3256
  276TMC3    C3 4220   1.350   4.007  14.513 -0.8113  0.0075  0.8599
  276TMC3    C4 4221   1.426   4.269  14.476 -0.3239  0.1858 -0.3852
  276TMC3    C5 4222   1.498   4.183  14.559 -0.4093 -0.9942  0.4840
  276TMC3    C6 4223   1.460   4.052  14.574  0.5198  0.0261  0.2070
  276TMC3     C 4224   1.240   4.301  14.322 -0.6283  0.3365 -0.1035
  276TMC3     O 4225   1.299   4.402  14.286  0.8166 -0.5229  0.5752
  276TMC3     H 4226   1.185   4.044  14.388  0.6447 -1.9914  3.1877
  276TMC3    H1 4227   1.448   4.373  14.456  0.2236  0.4445  1.5579
  276TMC3    H2 4228   1.516   3.985  14.638  1.7224  2.1828  1.3790
  276TMC3    C7 4229   1.597   4.235  14.644  0.1373  0.1825 -0.5213
  276TMC3    C8 4230   1.349   3.867  14.470  0.0922  0.1816 -0.0907
  276TMC3    O1 4231   1.595   4.206  14.763  1.1285 -0.0363  0.2816
  276TMC3    O2 4232   1.315   3.845  14.355 -0.3535 -0.0613  0.2946
  277MPD2     C 4233   2.986   3.510  13.817  0.0922  0.7783 -0.0878
  277MPD2    C1 4234   2.854   3.519  13.837 -0.0310 -0.2121 -0.5560
  277MPD2    C2 4235   2.796   3.456  13.948 -0.3447 -0.3228  0.3621
  277MPD2    C3 4236   2.876   3.368  14.023 -0.1250 -0.0111 -0.8260
  277MPD2    C4 4237   3.010   3.363  14.003 -0.7057  0.4341  0.8003
  277MPD2    C5 4238   3.066   3.434  13.901  0.5437 -0.3823  0.1417
  277MPD2     H 4239   2.694   3.484  13.972  0.4338  3.2678 -0.5299
  277MPD2    H1 4240   3.079   3.311  14.069 -0.8158 -1.5480 -0.6644
  277MPD2    H2 4241   3.040   3.561  13.739  1.2446  0.8608  0.7616
  277MPD2    H3 4242   3.172   3.421  13.880  0.8171 -0.1383  1.3373
  277MPD2     N 4243   2.808   3.295  14.125  0.1255 -0.0054 -0.0919
  277MPD2    H5 4244   2.709   3.315  14.137  0.4399  0.3915  1.8592
  277MPD2    N1 4245   2.778   3.602  13.746 -0.4435 -0.0011 -0.0005
  277MPD2    H7 4246   2.835   3.635  13.668 -2.6571 -0.1698 -1.6864
  278TMC3    C1 4247   2.741   3.100  14.228 -0.1659  0.2386  0.2287
  278TMC3    C2 4248   2.727   2.972  14.186  0.3022  1.0824 -0.8166
  278TMC3    C3 4249   2.596   2.934  14.174 -0.1223 -0.6204  0.1966
  278TMC3    C4 4250   2.637   3.184  14.269  0.4378  1.2705  0.2781
  278TMC3    C5 4251   2.513   3.125  14.265  0.8659 -0.5054  0.1489
  278TMC3    C6 4252   2.482   3.002  14.214  0.5049  0.0528 -0.8548
  278TMC3     C 4253   2.850   3.171  14.165  0.2427 -0.2247  0.5441
  278TMC3     O 4254   2.946   3.104  14.133 -0.4937  0.3683 -0.1842
  278TMC3     H 4255   2.802   2.921  14.127 -0.9562  0.1191 -1.5955
  278TMC3    H1 4256   2.650   3.282  14.313  0.7832  1.9598 -1.3682
  278TMC3    H2 4257   2.385   2.956  14.203  0.4604 -0.2841  0.8883
  278TMC3    C7 4258   2.399   3.215  14.280 -0.3235  0.2685 -0.0930
  278TMC3    C8 4259   2.574   2.812  14.100 -0.4553  0.1993  0.1390
  278TMC3    O1 4260   2.419   3.318  14.341 -0.0416  0.1904  0.9216
  278TMC3    O2 4261   2.655   2.730  14.136  0.2897  0.4337 -0.1143
  279MPD2     C 4262   1.605   3.426   0.558 -0.2197  0.1252 -0.7096
  279MPD2    C1 4263   1.559   3.318   0.487  0.2718  0.3448  0.3590
  279MPD2    C2 4264   1.652   3.228   0.438 -0.6971  0.2730  0.3933
  279MPD2    C3 4265   1.786   3.247   0.452  0.3055  1.5710 -0.2128
  279MPD2    C4 4266   1.823   3.358   0.527  0.0889 -1.1364 -0.4542
  279MPD2    C5 4267   1.734   3.443   0.584 -0.2159 -0.1686  0.2848
  279MPD2     H 4268   1.620   3.137   0.389 -3.2484  1.5744 -0.3818
  279MPD2    H1 4269   1.927   3.376   0.549 -0.2464  0.0542  0.1496
  279MPD2    H2 4270   1.532   3.491   0.603  2.1147  1.7884  0.6750
  279MPD2    H3 4271   1.766   3.533   0.635 -1.7435  0.9633 -0.7761
  279MPD2     N 4272   1.876   3.157   0.389  0.2934  0.9010  0.3555
  279MPD2    H5 4273   1.829   3.089   0.329  0.1826  1.9403 -0.7530
  279MPD2    N1 4274   1.419   3.315   0.460  0.5739  0.1469  0.2843
  279MPD2    H7 4275   1.377   3.407   0.465 -1.2659 -0.7126  0.7181
  280TMC3    C1 4276   1.213   3.241   0.364 -0.2997 -0.1489  0.3859
  280TMC3    C2 4277   1.133   3.131   0.338 -0.1080 -0.1025  0.5941
  280TMC3    C3 4278   1.034   3.143   0.247 -0.6660 -0.0708  0.2029
  280TMC3    C4 4279   1.203   3.352   0.291  0.0936  0.1345 -0.3938
  280TMC3    C5 4280   1.107   3.357   0.190 -0.6708  0.5348 -0.4371
  280TMC3    C6 4281   1.016   3.251   0.167  0.0461 -0.6971 -0.4662
  280TMC3     C 4282   1.346   3.208   0.423  0.4683  0.4386 -0.1210
  280TMC3     O 4283   1.374   3.088   0.426  0.2770  0.0142  0.2063
  280TMC3     H 4284   1.150   3.045   0.401  2.1726  0.0229  0.1500
  280TMC3    H1 4285   1.272   3.435   0.303  0.0214  0.3744 -1.6086
  280TMC3    H2 4286   0.933   3.245   0.098  0.9208 -0.5548 -1.5401
  280TMC3    C7 4287   1.109   3.476   0.118  0.2168  0.2252 -0.5845
  280TMC3    C8 4288   0.989   3.018   0.190 -0.5534 -0.0414  0.3366
  280TMC3    O1 4289   1.168   3.578   0.153  0.1606  0.1261 -0.5961
  280TMC3    O2 4290   1.008   2.995   0.068  0.5263  0.1327 -0.4991
  281TMC3    C1 4291   0.212   3.483  13.504 -0.7333  0.7305 -0.4283
  281TMC3    C2 4292   0.312   3.466  13.595  0.6777 -0.1426  0.2480
  281TMC3    C3 4293   0.393   3.355  13.576 -0.1934 -0.0669 -0.4789
  281TMC3    C4 4294   0.170   3.387  13.410  0.9402  0.4127 -0.4763
  281TMC3    C5 4295   0.247   3.272  13.406  0.4788 -0.3778  0.3895
  281TMC3    C6 4296   0.364   3.256  13.489  0.7446 -0.2887  0.2582
  281TMC3     C 4297   0.150   3.612  13.501  0.9237 -0.2351 -0.3333
  281TMC3     O 4298   0.034   3.613  13.468  0.1265  0.1508  0.5960
  281TMC3     H 4299   0.330   3.533  13.678 -1.4912  1.1028 -0.3107
  281TMC3    H1 4300   0.089   3.413  13.343  0.6049  0.9649  0.1493
  281TMC3    H2 4301   0.438   3.177  13.483 -0.7197 -1.5153 -1.3897
  281TMC3    C7 4302   0.174   3.147  13.406  0.9853 -0.7478  0.6154
  281TMC3    C8 4303   0.503   3.314  13.668 -0.2709  0.3037 -0.4911
  281TMC3    O1 4304   0.060   3.148  13.356  0.3666  0.6785  0.3759
  281TMC3    O2 4305   0.505   3.198  13.695 -0.4436  0.4802  0.4008
  282MPD2     C 4306   2.839   0.020  14.788 -0.0822  0.1475  0.4151
  282MPD2    C1 4307   2.790   0.149  14.811  0.2948  0.1076 -0.3937
  282MPD2    C2 4308   2.801   0.252  14.716  0.2946  1.1139 -0.7403
  282MPD2    C3 4309   2.865   0.222  14.600 -0.2549  0.2666 -0.0217
  282MPD2    C4 4310   2.910   0.092  14.574 -0.5966 -0.3825  0.7798
  282MPD2    C5 4311   2.901   4.733  14.667 -0.1715 -0.5535  0.1047
  282MPD2     H 4312   2.776   0.355  14.738 -0.2234  1.2947 -2.1919
  282MPD2    H1 4313   2.952   0.065  14.478 -0.7470  3.8870 -0.5035
  282MPD2    H2 4314   2.827   4.675  14.856  0.1644 -0.0161  0.2544
  282MPD2    H3 4315   2.937   4.630  14.665  1.5205  0.0881 -2.0427
  282MPD2     N 4316   2.878   0.323  14.503 -0.1940  0.0757 -0.1946
  282MPD2    H5 4317   2.818   0.404  14.511 -3.2120 -2.0662 -1.0952
  282MPD2    N1 4318   2.727   0.184  14.934 -0.2701 -0.4008 -0.1756
  282MPD2    H7 4319   2.683   0.276  14.939  1.0356  0.2457 -0.6281
  283TMC3    C1 4320   2.621   0.144  15.143  0.1914  1.0898 -0.4173
  283TMC3    C2 4321   2.619   0.273  15.182  0.4762 -0.9036  0.2930
  283TMC3    C3 4322   2.582   0.308  15.309  0.3345 -0.1753 -0.2377
  283TMC3    C4 4323   2.595   0.042  15.238 -0.1810  1.3289 -0.0600
  283TMC3    C5 4324   2.548   0.080  15.358 -0.4720 -1.1350  0.6313
  283TMC3    C6 4325   2.547   0.207  15.396  1.2161 -0.0597  0.1467
  283TMC3     C 4326   2.711   0.102  15.042  0.1024  0.6829  1.4367
  283TMC3     O 4327   2.758   4.728  15.054  0.0188 -0.0475  0.1737
  283TMC3     H 4328   2.652   0.350  15.114 -0.1640  0.6364  1.7185
  283TMC3    H1 4329   2.595   4.676  15.209  1.2168  0.6066  2.6051
  283TMC3    H2 4330   2.501   0.230  15.492 -0.0887  0.0885 -0.5220
  283TMC3    C7 4331   2.456   4.723  15.416 -0.0088  1.2156 -0.3735
  283TMC3    C8 4332   2.635   0.425  15.365  0.0857  0.0774  0.1975
  283TMC3    O1 4333   2.388   0.040  15.500 -0.4716  0.2480 -0.5767
  283TMC3    O2 4334   2.652   0.423  15.483  0.1062  0.4012 -0.0294
  284MPD2     C 4335   0.817   4.615  11.935  0.3216  0.6672 -0.4276
  284MPD2    C1 4336   0.943   4.578  11.963 -0.2053 -0.3846 -0.3142
  284MPD2    C2 4337   0.965   4.461  12.040 -0.1064  0.4549 -0.0677
  284MPD2    C3 4338   0.858   4.385  12.084 -0.3152  0.2454 -0.5193
  284MPD2    C4 4339   0.737   4.424  12.046  1.0390 -0.5546 -1.0743
  284MPD2    C5 4340   0.709   4.543  11.985 -0.4737 -0.2175  0.7467
  284MPD2     H 4341   1.070   4.432  12.048 -0.6649 -1.0458  2.0714
  284MPD2    H1 4342   0.655   4.355  12.062  0.2376  0.2142 -1.9179
  284MPD2    H2 4343   0.792   4.699  11.871 -2.7961  1.2394  1.5089
  284MPD2    H3 4344   0.604   4.561  11.969  0.2801  2.4945 -1.2234
  284MPD2     N 4345   0.876   4.253  12.133  0.8201  0.3036 -0.5085
  284MPD2    H5 4346   0.795   4.193  12.122  0.4978  0.4722  0.8255
  284MPD2    N1 4347   1.050   4.636  11.898 -0.3960  0.6249 -0.6345
  284MPD2    H7 4348   1.141   4.593  11.905 -0.1411  0.9728 -1.8735
  285TMC3    C1 4349   1.170   0.043  11.758 -0.3363 -0.2773  0.0746
  285TMC3    C2 4350   1.201   4.692  11.662  0.2902  0.0801 -0.8602
  285TMC3    C3 4351   1.284   4.727  11.563  0.1786 -0.7469 -0.5893
  285TMC3    C4 4352   1.218   0.170  11.755  0.1305  0.0158 -0.5902
  285TMC3    C5 4353   1.300   0.207  11.649 -0.6307  0.1087 -0.3423
  285TMC3    C6 4354   1.330   0.115  11.550 -0.6608 -0.1265  0.0720
  285TMC3     C 4355   1.049   0.018  11.831  0.0699  0.6046  1.0359
  285TMC3     O 4356   0.966   0.108  11.818 -0.2384 -0.2775 -0.2737
  285TMC3     H 4357   1.152   4.595  11.657 -2.1674  1.3579 -1.6641
  285TMC3    H1 4358   1.176   0.253  11.810  1.4984 -0.7692  1.6235
  285TMC3    H2 4359   1.398   0.150  11.472  0.7774 -1.5159  0.7121
  285TMC3    C7 4360   1.369   0.336  11.647 -0.4278 -0.3641  0.6440
  285TMC3    C8 4361   1.322   4.626  11.468  0.0973 -0.2015 -0.3825
  285TMC3    O1 4362   1.414   0.361  11.538 -0.1485 -0.1766  0.4070
  285TMC3    O2 4363   1.262   4.517  11.475  0.2768 -0.0326 -0.2055
  286MPD2     C 4364   1.022   3.124   1.506  0.2144 -0.0046 -0.9132
  286MPD2    C1 4365   0.990   3.050   1.397  0.3928 -0.3057 -0.0304
  286MPD2    C2 4366   1.084   2.957   1.356 -0.2935 -0.0809 -0.0793
  286MPD2    C3 4367   1.201   2.941   1.426  0.3897 -0.2163  0.0253
  286MPD2    C4 4368   1.219   3.003   1.543  1.0046 -0.1137  0.1417
  286MPD2    C5 4369   1.128   3.099   1.583 -0.4303 -0.6329 -0.2554
  286MPD2     H 4370   1.058   2.902   1.266  2.6126  0.4080 -1.2114
  286MPD2    H1 4371   1.297   2.972   1.612  0.0939 -0.9169  0.7969
  286MPD2    H2 4372   0.958   3.206   1.535 -0.7818 -1.6785  1.5406
  286MPD2    H3 4373   1.135   3.154   1.676  0.4266 -0.0726 -0.6428
  286MPD2     N 4374   1.302   2.853   1.389 -0.2902  0.1691 -0.0868
  286MPD2    H5 4375   1.386   2.860   1.446 -0.0113  0.3335 -0.5160
  286MPD2    N1 4376   0.865   3.068   1.331 -0.2886  0.2321  0.1081
  286MPD2    H7 4377   0.844   3.009   1.252  0.1245 -1.4866  1.2801
  287TMC3    C1 4378   1.421   2.687   1.271  0.4770  0.7567 -0.5803
  287TMC3    C2 4379   1.406   2.566   1.206 -0.1735 -0.5837  0.0477
  287TMC3    C3 4380   1.512   2.495   1.163  0.2783  0.2136  0.2781
  287TMC3    C4 4381   1.546   2.729   1.300 -0.0996  0.6176  0.6225
  287TMC3    C5 4382   1.655   2.647   1.272 -0.1841  0.0364  0.0863
  287TMC3    C6 4383   1.638   2.527   1.202 -0.4996  0.1709  0.5053
  287TMC3     C 4384   1.303   2.773   1.276 -0.4487 -0.9604 -0.6829
  287TMC3     O 4385   1.214   2.760   1.195 -0.0785 -0.5582 -0.1877
  287TMC3     H 4386   1.305   2.543   1.175 -0.6063  0.2905  0.8273
  287TMC3    H1 4387   1.561   2.830   1.338  2.1070  0.2850  0.6067
  287TMC3    H2 4388   1.721   2.462   1.178 -2.4388 -1.6605 -1.2148
  287TMC3    C7 4389   1.791   2.691   1.312 -0.1914  0.4290  0.4061
  287TMC3    C8 4390   1.495   2.369   1.093  0.6556 -0.6867  0.5836
  287TMC3    O1 4391   1.798   2.779   1.402  0.2549 -0.2375 -0.1736
  287TMC3    O2 4392   1.591   2.303   1.063 -0.1350  0.2497  0.3278
  288TMC3    C1 4393   3.219   2.781  14.515  0.4708  0.3743 -0.5872
  288TMC3    C2 4394   3.090   2.797  14.573  0.2550 -0.7760  1.0763
  288TMC3    C3 4395   3.018   2.908  14.544  0.5590  0.2947 -0.5761
  288TMC3    C4 4396   3.257   2.867  14.418  0.3355  0.8006 -0.0281
  288TMC3    C5 4397   3.184   2.974  14.387  0.8858 -0.5374  0.8132
  288TMC3    C6 4398   3.061   3.002  14.450  0.6340 -0.5696 -0.6572
  288TMC3     C 4399   3.321   2.697  14.568  0.2696  0.8304  0.1898
  288TMC3     O 4400   3.442   2.726  14.556  0.4996  0.3922  0.2045
  288TMC3     H 4401   3.072   2.728  14.655 -1.8873 -1.0535  0.3848
  288TMC3    H1 4402   3.357   2.865  14.377 -0.3625 -0.0674 -1.6942
  288TMC3    H2 4403   3.004   3.091  14.424  1.8205  0.2727 -0.3251
  288TMC3    C7 4404   3.242   3.065  14.295  0.0687 -0.6553 -0.3952
  288TMC3    C8 4405   2.893   2.937  14.613  0.4603 -0.4936  0.0276
  288TMC3    O1 4406   3.318   3.017  14.213  0.4722  0.0036 -0.0260
  288TMC3    O2 4407   2.881   3.052  14.653 -0.3372 -0.3174 -0.2542
  289MPD2     C 4408   3.179   2.078  14.356 -0.0833 -0.0207  0.1468
  289MPD2    C1 4409   3.144   2.206  14.335  0.4713  0.2529 -0.0146
  289MPD2    C2 4410   3.011   2.230  14.317 -0.8710  0.9226  0.2915
  289MPD2    C3 4411   2.916   2.134  14.318 -0.3785 -1.5100 -0.1271
  289MPD2    C4 4412   2.953   2.005  14.340 -0.1157  0.4006 -0.1355
  289MPD2    C5 4413   3.083   1.977  14.356 -0.0680 -0.4878 -0.0712
  289MPD2     H 4414   2.981   2.333  14.300  1.5143  1.5114 -0.3468
  289MPD2    H1 4415   2.874   1.931  14.330 -0.1603  0.0198  3.2864
  289MPD2    H2 4416   3.282   2.049  14.368  0.3581  0.6476 -2.1486
  289MPD2    H3 4417   3.108   1.873  14.379 -2.4571 -1.4620 -1.9297
  289MPD2     N 4418   2.779   2.167  14.291 -0.8794 -0.7808 -0.6296
  289MPD2    H5 4419   2.706   2.097  14.291 -3.3529  1.7792 -1.0100
  289MPD2    N1 4420   3.239   2.309  14.328  0.6143 -0.2036  0.0195
  289MPD2    H7 4421   3.334   2.274  14.326  0.6491 -0.0919 -0.2609
  290TMC3    C1 4422   2.599   2.288  14.211  0.2367  0.6299  0.1558
  290TMC3    C2 4423   2.521   2.399  14.218 -0.6351 -0.4836  0.0238
  290TMC3    C3 4424   2.421   2.420  14.124 -0.0573 -0.3162 -0.7025
  290TMC3    C4 4425   2.568   2.182  14.121  0.2573  0.5311 -0.4185
  290TMC3    C5 4426   2.462   2.204  14.034  0.6201 -0.1806  0.1606
  290TMC3    C6 4427   2.396   2.324  14.034 -0.3701  0.3336 -0.3713
  290TMC3     C 4428   2.731   2.292  14.275 -0.2581  0.1457 -0.0144
  290TMC3     O 4429   2.782   2.404  14.285  0.4953  0.1030  0.6736
  290TMC3     H 4430   2.553   2.470  14.293  0.6298  1.2504 -2.1626
  290TMC3    H1 4431   2.619   2.087  14.115  1.2764  1.1287 -1.3313
  290TMC3    H2 4432   2.325   2.347  13.955 -0.2958  0.1594 -0.4874
  290TMC3    C7 4433   2.423   2.118  13.928 -0.1917 -0.8455 -0.4700
  290TMC3    C8 4434   2.307   2.503  14.154 -0.2176 -0.2038 -0.7820
  290TMC3    O1 4435   2.373   2.174  13.831  0.2171 -0.1787 -0.6059
  290TMC3    O2 4436   2.199   2.467  14.116 -0.2412  0.0554 -0.2891
  291MPD2     C 4437   1.962   2.028   0.332 -0.8682 -0.4095 -0.2985
  291MPD2    C1 4438   2.086   1.979   0.372 -0.3131 -0.0703  0.1536
  291MPD2    C2 4439   2.173   2.076   0.408  0.2582  0.1050  0.2901
  291MPD2    C3 4440   2.146   2.209   0.422 -0.5408  0.5304  0.3398
  291MPD2    C4 4441   2.032   2.256   0.380 -0.4824  0.0348 -0.7166
  291MPD2    C5 4442   1.938   2.164   0.333  0.3550  0.8687 -0.4195
  291MPD2     H 4443   2.272   2.038   0.432  0.1121 -0.3482  0.1756
  291MPD2    H1 4444   2.007   2.361   0.389  0.2723  0.1979 -0.5422
  291MPD2    H2 4445   1.874   1.980   0.290 -1.4043 -0.5017  0.9482
  291MPD2    H3 4446   1.840   2.196   0.299 -0.4310 -1.9266 -0.8084
  291MPD2     N 4447   2.246   2.303   0.461  0.2133  0.0718 -0.5290
  291MPD2    H5 4448   2.224   2.403   0.460  2.0777  0.4593 -2.3206
  291MPD2    N1 4449   2.110   1.844   0.372  0.3398  0.6376 -0.5529
  291MPD2    H7 4450   2.197   1.818   0.417  0.4386 -0.0439 -1.1318
  292TMC3    C1 4451   2.100   1.629   0.287 -0.0479 -0.5318 -0.4177
  292TMC3    C2 4452   2.170   1.589   0.398  0.0484  0.0578 -0.1767
  292TMC3    C3 4453   2.246   1.478   0.390 -0.3950 -0.4575 -0.0957
  292TMC3    C4 4454   2.090   1.553   0.174  0.2736 -0.6933 -0.0417
  292TMC3    C5 4455   2.168   1.441   0.175  0.1149  0.6116 -0.2012
  292TMC3    C6 4456   2.250   1.409   0.274  0.1808  0.1223 -0.5794
  292TMC3     C 4457   2.041   1.761   0.291 -0.3901  0.2456  0.3616
  292TMC3     O 4458   1.970   1.792   0.195  0.0494  0.0181  0.2126
  292TMC3     H 4459   2.149   1.634   0.495  2.1082  1.3834 -0.3339
  292TMC3    H1 4460   2.053   1.586   0.078  0.0448 -1.3119 -0.1712
  292TMC3    H2 4461   2.303   1.315   0.278 -0.0737  0.0273  0.6306
  292TMC3    C7 4462   2.148   1.330   0.086  1.1049 -0.2394 -0.3503
  292TMC3    C8 4463   2.263   1.411   0.516  0.5080  1.1292 -0.8184
  292TMC3    O1 4464   2.239   1.253   0.067  0.0408 -0.6430  0.4966
  292TMC3    O2 4465   2.229   1.470   0.620  0.1980 -0.1232  0.0951
  293MPD2     C 4466   4.073   3.043  12.610 -0.2588  0.1058 -0.1321
  293MPD2    C1 4467   3.971   3.124  12.651  0.4437  0.4008  0.0659
  293MPD2    C2 4468   3.974   3.175  12.782  0.3877  0.2444 -0.1604
  293MPD2    C3 4469   4.064   3.143  12.873 -0.0816  0.1914  0.0100
  293MPD2    C4 4470   4.154   3.049  12.835  0.1790 -0.3010  0.1833
  293MPD2    C5 4471   4.161   2.997  12.704  0.2343  0.0238  0.6933
  293MPD2     H 4472   3.895   3.247  12.801  0.2445 -0.2278  1.0081
  293MPD2    H1 4473   4.223   3.004  12.906 -0.5360 -1.5499  0.0999
  293MPD2    H2 4474   4.103   3.006  12.513  2.0692 -0.8922  0.9805
  293MPD2    H3 4475   4.235   2.927  12.666 -1.1916 -2.0134  1.6943
  293MPD2     N 4476   4.056   3.187  13.008 -0.3083 -0.4567 -0.0470
  293MPD2    H5 4477   3.994   3.266  13.029 -0.1346 -0.3654  0.1211
  293MPD2    N1 4478   3.877   3.150  12.554 -0.0665  0.3671  0.0435
  293MPD2    H7 4479   3.887   3.102  12.465 -2.0780  1.1993 -0.6363
  294TMC3    C1 4480   3.671   3.225  12.459 -0.0654  0.0627  0.0103
  294TMC3    C2 4481   3.631   3.101  12.423  0.2360  0.2507  0.6999
  294TMC3    C3 4482   3.523   3.085  12.335 -0.0957 -0.5422  0.6156
  294TMC3    C4 4483   3.612   3.339  12.412 -0.9330  1.2760 -0.3381
  294TMC3    C5 4484   3.505   3.322  12.324 -0.8594 -0.4251  0.2033
  294TMC3    C6 4485   3.455   3.196  12.285 -0.8167 -0.6850  0.0975
  294TMC3     C 4486   3.773   3.242  12.562  0.3760 -0.3577 -0.3534
  294TMC3     O 4487   3.765   3.346  12.626 -0.2574 -0.5927  0.4834
  294TMC3     H 4488   3.669   3.007  12.462 -3.5098 -0.5564  2.4434
  294TMC3    H1 4489   3.655   3.436  12.435 -0.7579  0.8753  1.0072
  294TMC3    H2 4490   3.392   3.180  12.199 -1.2593 -1.1942  0.5169
  294TMC3    C7 4491   3.515   3.404  12.204  0.7168 -0.7773 -0.2089
  294TMC3    C8 4492   3.447   2.964  12.346 -0.7133  0.8752 -0.8446
  294TMC3    O1 4493   3.415   3.431  12.141  0.1083 -0.9044  0.1456
  294TMC3    O2 4494   3.326   2.968  12.333 -0.3059  0.7116  0.2327
  295MPD2     C 4495   4.619   1.265   0.882  0.0535  0.0959 -0.1813
  295MPD2    C1 4496   4.549   1.198   0.784  0.0329 -0.4048  0.0879
  295MPD2    C2 4497   4.480   1.077   0.811 -0.2789 -0.4117  0.3632
  295MPD2    C3 4498   4.458   1.039   0.942  0.3553  0.0804 -0.2614
  295MPD2    C4 4499   4.525   1.115   1.043  0.3187  0.2438 -0.1657
  295MPD2    C5 4500   4.603   1.224   1.013  0.1402  0.7461 -0.5890
  295MPD2     H 4501   4.435   1.023   0.729  1.1764  0.8695 -1.2460
  295MPD2    H1 4502   4.515   1.085   1.147 -0.4353  2.4620  0.4044
  295MPD2    H2 4503   4.672   1.358   0.865 -0.3884  0.3186 -0.3413
  295MPD2    H3 4504   4.652   1.273   1.096  0.1595 -0.8403  0.3231
  295MPD2     N 4505   4.377   0.926   0.979  0.6882 -0.1006  0.3859
  295MPD2    H5 4506   4.360   0.921   1.079 -0.0561 -0.3542  0.2483
  295MPD2    N1 4507   4.558   1.237   0.646 -0.1412 -0.0114 -0.4386
  295MPD2    H7 4508   4.522   1.163   0.588  0.5944 -3.2283  3.2204
  296TMC3    C1 4509   4.231   0.739   0.966  0.0832 -0.5565 -0.3815
  296TMC3    C2 4510   4.171   0.755   1.081 -0.0977  0.2697  0.2462
  296TMC3    C3 4511   4.130   0.651   1.156 -0.5673 -0.2909 -0.7460
  296TMC3    C4 4512   4.234   0.613   0.906 -0.0677  0.4193 -0.1269
  296TMC3    C5 4513   4.177   0.511   0.976 -0.0452 -0.1091  0.3743
  296TMC3    C6 4514   4.130   0.521   1.102 -0.8459  0.3433  0.1022
  296TMC3     C 4515   4.297   0.848   0.891 -0.0224 -0.0577  0.7998
  296TMC3     O 4516   4.284   0.854   0.770 -0.0780 -0.2137 -0.3573
  296TMC3     H 4517   4.160   0.856   1.119  2.9924  0.7533 -0.2091
  296TMC3    H1 4518   4.276   0.600   0.808 -0.8686  0.0835 -0.4287
  296TMC3    H2 4519   4.090   0.441   1.163  2.6684 -1.3249  0.2118
  296TMC3    C7 4520   4.207   0.376   0.938 -0.5742  0.2494 -0.5230
  296TMC3    C8 4521   4.044   0.668   1.277 -0.9803  0.3687 -0.4657
  296TMC3    O1 4522   4.288   0.357   0.852  0.7851 -0.2252 -0.2105
  296TMC3    O2 4523   3.987   0.569   1.309 -0.3373  0.3608  0.0282
  297MPD2     C 4524   1.879   3.669  16.092 -1.0118  0.4432  0.8872
  297MPD2    C1 4525   1.833   3.758  16.002  0.3600  0.3716 -0.3910
  297MPD2    C2 4526   1.926   3.843  15.946  0.5355  0.5327  1.2902
  297MPD2    C3 4527   2.060   3.850  15.997  0.3245 -0.2359  0.1878
  297MPD2    C4 4528   2.099   3.749  16.079 -0.7303 -0.4387 -0.1582
  297MPD2    C5 4529   2.014   3.658  16.120  0.0169 -0.0467 -0.4377
  297MPD2     H 4530   1.897   3.925  15.881  3.5412  1.3350  0.9515
  297MPD2    H1 4531   2.199   3.734  16.119  0.7797  1.2559 -3.1974
  297MPD2    H2 4532   1.811   3.594  16.131 -0.6847 -0.0458  0.5040
  297MPD2    H3 4533   2.058   3.577  16.177  1.5532  2.0032  1.2729
  297MPD2     N 4534   2.163   3.929  15.947  0.2369  0.0092 -0.4712
  297MPD2    H5 4535   2.255   3.908  15.985  1.3363 -1.0292 -3.6570
  297MPD2    N1 4536   1.702   3.790  15.974  0.1182 -0.6537 -0.5688
  297MPD2    H7 4537   1.692   3.853  15.895  1.2384 -1.0132 -0.9995
  298TMC3    C1 4538   1.476   3.753  15.949  0.2662  0.3683  0.3801
  298TMC3    C2 4539   1.405   3.638  15.930  0.6675  0.2190  0.0616
  298TMC3    C3 4540   1.270   3.649  15.921  0.5185  0.0631  0.4491
  298TMC3    C4 4541   1.414   3.873  15.960  0.3010 -0.1937 -0.3687
  298TMC3    C5 4542   1.282   3.887  15.936  0.1322  0.6347  0.1697
  298TMC3    C6 4543   1.207   3.771  15.920 -0.1877 -0.3075 -0.0989
  298TMC3     C 4544   1.587   3.735  16.039 -0.0047 -0.7602 -0.0910
  298TMC3     O 4545   1.587   3.658  16.136  0.2531  0.0003  0.3767
  298TMC3     H 4546   1.468   3.550  15.929 -0.4377 -0.5598 -1.6412
  298TMC3    H1 4547   1.472   3.957  15.995  0.5546 -0.8643  0.8280
  298TMC3    H2 4548   1.099   3.778  15.910 -0.0145  0.1678 -1.5792
  298TMC3    C7 4549   1.209   4.000  15.983  0.3577  0.0286  0.0721
  298TMC3    C8 4550   1.204   3.552  15.839 -0.1548 -0.3893  0.3863
  298TMC3    O1 4551   1.105   3.972  16.049  0.4591 -0.3296 -0.4666
  298TMC3    O2 4552   1.098   3.502  15.873  0.5115 -0.3890  0.0597
  299MPD2     C 4553   2.790   4.183  10.730  0.5264 -0.2286 -0.3038
  299MPD2    C1 4554   2.722   4.105  10.821 -0.0524  0.0855 -0.7506
  299MPD2    C2 4555   2.655   3.995  10.766 -0.6663  1.0346 -0.7048
  299MPD2    C3 4556   2.648   3.965  10.636  0.0522  0.1753 -0.0621
  299MPD2    C4 4557   2.719   4.039  10.548 -0.9214 -0.5897  0.0645
  299MPD2    C5 4558   2.795   4.148  10.593 -0.0359 -0.7273 -0.5237
  299MPD2     H 4559   2.588   3.940  10.831 -0.9988 -0.7777 -2.5771
  299MPD2    H1 4560   2.701   4.034  10.442 -2.3951  1.6102  0.2147
  299MPD2    H2 4561   2.866   4.253  10.764  1.0840 -1.2153  0.4871
  299MPD2    H3 4562   2.850   4.204  10.518  0.3923 -0.8786 -0.3237
  299MPD2     N 4563   2.554   3.873  10.584 -0.0932 -0.6675 -0.6637
  299MPD2    H5 4564   2.539   3.886  10.484  1.1261  1.3443 -0.5912
  299MPD2    N1 4565   2.725   4.135  10.962  0.7993 -0.1574  0.1206
  299MPD2    H7 4566   2.780   4.211  10.999 -0.3846 -0.1743  1.8996
  300TMC3    C1 4567   2.406   3.690  10.586  0.0330 -0.4566 -0.1578
  300TMC3    C2 4568   2.407   3.678  10.450 -0.2702  0.0320 -0.8282
  300TMC3    C3 4569   2.310   3.618  10.377  0.0721 -0.0010  0.0387
  300TMC3    C4 4570   2.313   3.621  10.661  0.1899 -0.2629  0.1361
  300TMC3    C5 4571   2.213   3.556  10.585 -0.2998  0.3704 -0.1884
  300TMC3    C6 4572   2.210   3.556  10.449  0.1947 -0.0092 -0.6007
  300TMC3     C 4573   2.501   3.766  10.662  0.4407  0.6281  0.5445
  300TMC3     O 4574   2.516   3.734  10.779  0.0393  0.4268 -0.2689
  300TMC3     H 4575   2.472   3.743  10.391 -1.3432  0.2745 -1.7483
  300TMC3    H1 4576   2.314   3.613  10.769  0.6680 -3.8494 -0.1403
  300TMC3    H2 4577   2.127   3.510  10.397  1.0743 -1.5222 -0.6658
  300TMC3    C7 4578   2.088   3.515  10.657 -0.7783  0.0561 -0.0539
  300TMC3    C8 4579   2.243   3.702  10.282 -0.1794 -0.8519  0.1922
  300TMC3    O1 4580   2.012   3.457  10.580  0.0430  0.2047 -0.1277
  300TMC3    O2 4581   2.178   3.655  10.187 -0.1180 -0.3557 -0.2872
  301MPD2     C 4582   4.441   4.272   0.713  1.1434 -0.0020  0.5192
  301MPD2    C1 4583   4.307   4.262   0.750 -0.1251 -0.3533  0.3770
  301MPD2    C2 4584   4.253   4.141   0.796 -0.4010 -0.8618  0.7164
  301MPD2    C3 4585   4.327   4.025   0.796  0.5563  0.1282  0.8441
  301MPD2    C4 4586   4.463   4.029   0.769 -0.8504 -0.2113  0.1540
  301MPD2    C5 4587   4.516   4.151   0.729  0.5289 -0.4842 -0.8841
  301MPD2     H 4588   4.148   4.130   0.821 -0.1439  1.6136  2.9080
  301MPD2    H1 4589   4.517   3.936   0.780  1.8056  1.0450 -2.2195
  301MPD2    H2 4590   4.491   4.351   0.658 -0.7233  1.5985  1.1074
  301MPD2    H3 4591   4.616   4.156   0.687  0.7118  0.1970 -0.3790
  301MPD2     N 4592   4.269   3.896   0.816  0.5489 -0.3217 -0.2583
  301MPD2    H5 4593   4.329   3.814   0.814 -0.8155 -1.3400  0.2341
  301MPD2    N1 4594   4.212   4.370   0.737 -0.2906 -0.0022 -0.3044
  301MPD2    H7 4595   4.119   4.353   0.774  0.3773  0.8302  1.7673
  302TMC3    C1 4596   4.094   3.733   0.821  0.1693  1.1844 -0.3062
  302TMC3    C2 4597   4.154   3.638   0.904 -0.2499  0.8583 -0.0346
  302TMC3    C3 4598   4.119   3.506   0.883 -0.2857 -0.5501 -0.7003
  302TMC3    C4 4599   4.027   3.700   0.709  0.4572 -0.5085  0.7879
  302TMC3    C5 4600   3.992   3.566   0.695 -0.0662  0.0682  0.1349
  302TMC3    C6 4601   4.035   3.469   0.784 -0.4892  0.1501 -0.4656
  302TMC3     C 4602   4.126   3.872   0.829 -0.2156 -0.2332 -0.1080
  302TMC3     O 4603   4.039   3.949   0.784 -0.8815  0.7332  0.1692
  302TMC3     H 4604   4.226   3.666   0.980  0.1380  2.6643 -1.0752
  302TMC3    H1 4605   4.011   3.767   0.625 -0.6293 -0.3937  1.0811
  302TMC3    H2 4606   3.993   3.371   0.768  0.8250 -0.5166  0.1944
  302TMC3    C7 4607   3.894   3.525   0.593 -0.3232 -0.3049 -0.4106
  302TMC3    C8 4608   4.153   3.409   0.986 -0.4375  0.4374  0.1280
  302TMC3    O1 4609   3.913   3.416   0.540 -0.1737 -0.5696  0.5092
  302TMC3    O2 4610   4.107   3.296   0.977 -0.1002 -0.0498  0.0986
  303MPD2     C 4611   0.511   3.539  10.608 -0.0652 -0.4737 -0.0742
  303MPD2    C1 4612   0.414   3.446  10.572  0.4893 -0.2779 -0.4306
  303MPD2    C2 4613   0.414   3.382  10.453 -0.0388 -0.3114  0.1109
  303MPD2    C3 4614   0.498   3.421  10.354  0.7911 -0.3104  0.9114
  303MPD2    C4 4615   0.585   3.524  10.379 -0.0915 -0.7718 -0.1003
  303MPD2    C5 4616   0.590   3.582  10.507  0.4280  0.5520 -0.5545
  303MPD2     H 4617   0.355   3.291  10.450 -0.4129 -0.1315  1.8436
  303MPD2    H1 4618   0.638   3.579  10.302  0.6217 -0.7899  0.3734
  303MPD2    H2 4619   0.532   3.578  10.708 -1.8385  1.5729 -0.4858
  303MPD2    H3 4620   0.659   3.665  10.517  1.9676 -0.6153 -1.3266
  303MPD2     N 4621   0.498   3.355  10.227  0.6210  0.0229 -0.4528
  303MPD2    H5 4622   0.575   3.376  10.166  1.2735  2.2697  1.1455
  303MPD2    N1 4623   0.324   3.419  10.678  0.3128  0.1336  0.2139
  303MPD2    H7 4624   0.342   3.463  10.768 -1.5784  1.4846 -0.0489
  304TMC3    C1 4625   0.120   3.403  10.779  0.0364  0.2160  0.4233
  304TMC3    C2 4626   4.729   3.416  10.744  0.9359  0.4343  0.5873
  304TMC3    C3 4627   4.639   3.364  10.829 -0.2815  0.2277 -0.4081
  304TMC3    C4 4628   0.165   3.344  10.896 -0.3204  0.7794 -0.3228
  304TMC3    C5 4629   0.069   3.283  10.978 -0.0455 -0.2962  0.6311
  304TMC3    C6 4630   4.676   3.302  10.941  0.6919 -0.3324  0.8748
  304TMC3     C 4631   0.198   3.370  10.659 -0.7208 -0.6479  0.3871
  304TMC3     O 4632   0.148   3.317  10.563 -0.1864  0.0720  0.1337
  304TMC3     H 4633   4.697   3.459  10.651  1.4395  1.3260  0.8295
  304TMC3    H1 4634   0.268   3.316  10.912 -1.0677 -1.3075  0.8640
  304TMC3    H2 4635   4.599   3.254  11.001 -1.1124  0.4472 -0.8405
  304TMC3    C7 4636   0.103   3.144  11.006 -0.3912  0.5554 -0.2507
  304TMC3    C8 4637   4.523   3.294  10.770 -0.2995 -0.4737 -0.3174
  304TMC3    O1 4638   0.207   3.115  11.059 -0.0787 -0.9023 -0.4077
  304TMC3    O2 4639   4.506   3.176  10.804 -0.1030  0.0835  0.2646
  305MPD2     C 4640   2.940   0.811  13.801 -0.5225 -0.1669  0.5351
  305MPD2    C1 4641   3.006   0.694  13.818  0.9138  0.6746 -0.3812
  305MPD2    C2 4642   2.993   0.595  13.711  0.5577 -0.2236  0.0990
  305MPD2    C3 4643   2.910   0.635  13.603  0.3849 -0.1128  0.2827
  305MPD2    C4 4644   2.844   0.754  13.598 -0.4243  0.0738 -0.1340
  305MPD2    C5 4645   2.859   0.848  13.699 -0.4032 -0.2871 -0.6834
  305MPD2     H 4646   3.044   0.500  13.719  0.7750 -0.1704 -0.6920
  305MPD2    H1 4647   2.777   0.786  13.519  0.6735  1.8719 -0.3340
  305MPD2    H2 4648   2.940   0.882  13.883 -0.0100 -0.5004  0.8228
  305MPD2    H3 4649   2.811   0.945  13.698 -2.3055 -1.2232  1.0373
  305MPD2     N 4650   2.882   0.555  13.492  0.1682 -0.0778  0.3622
  305MPD2    H5 4651   2.802   0.588  13.440 -0.8336 -0.0983  1.8946
  305MPD2    N1 4652   3.059   0.668  13.942 -0.2813  0.1026 -1.0099
  305MPD2    H7 4653   3.039   0.745  14.005  0.9389  0.4420 -1.0231
  306TMC3    C1 4654   3.198   0.584  14.114 -0.6594 -0.3724 -0.0183
  306TMC3    C2 4655   3.306   0.508  14.154  0.9837  0.0153 -0.5493
  306TMC3    C3 4656   3.342   0.497  14.285 -0.6752 -0.4355  0.1401
  306TMC3    C4 4657   3.116   0.627  14.218 -0.2346 -0.2071  0.7264
  306TMC3    C5 4658   3.156   0.613  14.345  0.2761 -0.2809 -0.3356
  306TMC3    C6 4659   3.272   0.554  14.388 -0.0666 -0.1327  0.5841
  306TMC3     C 4660   3.139   0.567  13.981 -0.1832 -0.3270 -0.2377
  306TMC3     O 4661   3.184   0.471  13.924 -0.0005 -0.0453  0.1399
  306TMC3     H 4662   3.376   0.473  14.079  1.7822  0.4966 -0.0310
  306TMC3    H1 4663   3.027   0.687  14.199 -0.6881 -1.1392 -0.1279
  306TMC3    H2 4664   3.305   0.540  14.490  0.1408 -1.6914  0.3068
  306TMC3    C7 4665   3.070   0.670  14.438 -0.4302 -0.0033 -0.7286
  306TMC3    C8 4666   3.458   0.408  14.307  0.1539 -0.4388 -0.3031
  306TMC3    O1 4667   3.043   0.789  14.412  0.0641  0.2099  0.6328
  306TMC3    O2 4668   3.532   0.385  14.207  0.4590 -0.1122 -0.0010
  307MPD2     C 4669   0.257   2.484   0.406 -0.2167  0.1991  0.1963
  307MPD2    C1 4670   0.221   2.617   0.399 -0.4545  0.7713  0.2680
  307MPD2    C2 4671   0.126   2.665   0.489  0.4841 -0.1300 -0.7003
  307MPD2    C3 4672   0.058   2.577   0.576 -0.3083 -0.3743  0.1551
  307MPD2    C4 4673   0.101   2.446   0.584 -0.1338 -0.4074 -0.8137
  307MPD2    C5 4674   0.204   2.402   0.504  0.8301  0.2233  0.6707
  307MPD2     H 4675   0.098   2.768   0.474 -1.8397 -0.7916 -0.9377
  307MPD2    H1 4676   0.072   2.384   0.668 -0.4621 -2.3155 -2.3396
  307MPD2    H2 4677   0.339   2.441   0.349 -0.7255 -2.2706  1.3375
  307MPD2    H3 4678   0.252   2.307   0.523  2.2745  0.2811 -2.8008
  307MPD2     N 4679   4.693   2.630   0.659  0.1329 -0.1770  0.1310
  307MPD2    H5 4680   4.674   2.730   0.658 -3.2637 -0.8076 -1.0558
  307MPD2    N1 4681   0.285   2.714   0.319 -0.4058  0.0891  0.2902
  307MPD2    H7 4682   0.252   2.810   0.321 -0.2866  0.1103  1.1568
  308TMC3    C1 4683   4.279   2.654   0.836  0.7746 -0.1442 -1.2147
  308TMC3    C2 4684   4.289   2.786   0.841 -0.1727  0.3867  0.3264
  308TMC3    C3 4685   4.409   2.846   0.819  0.0753 -0.1208 -0.0714
  308TMC3    C4 4686   4.387   2.572   0.811  0.0555  0.2069 -0.7226
  308TMC3    C5 4687   4.504   2.634   0.795  0.2400  0.5614  0.6265
  308TMC3    C6 4688   4.520   2.772   0.793 -0.6136  0.1149 -0.4683
  308TMC3     C 4689   4.153   2.606   0.782 -0.0948 -0.0293  1.1309
  308TMC3     O 4690   4.149   2.491   0.748  0.2709  0.0204 -0.1042
  308TMC3     H 4691   4.206   2.838   0.888  0.5048  1.3564  0.4447
  308TMC3    H1 4692   4.382   2.467   0.784 -1.7192  0.0116  0.4079
  308TMC3    H2 4693   4.617   2.818   0.783 -0.6785  0.4607  0.5433
  308TMC3    C7 4694   4.602   2.553   0.727  0.9183 -0.1973 -0.7450
  308TMC3    C8 4695   4.429   2.974   0.884  0.3874 -0.0043 -0.6700
  308TMC3    O1 4696   4.594   2.433   0.730  0.0218  1.6235  0.5499
  308TMC3    O2 4697   4.363   2.995   0.982  0.4406 -0.0761  0.1032
  309MPD2     C 4698   4.155   3.360  17.059  0.1707  0.0544 -0.5282
  309MPD2    C1 4699   4.099   3.360  16.938  0.0155 -0.1251  0.6102
  309MPD2    C2 4700   3.959   3.379  16.919  0.2123  0.1189  0.3881
  309MPD2    C3 4701   3.873   3.402  17.030  0.2241 -0.5567  0.0603
  309MPD2    C4 4702   3.940   3.405  17.146 -0.1458 -0.0298 -0.4488
  309MPD2    C5 4703   4.073   3.388  17.166  0.0916  0.3622 -0.6065
  309MPD2     H 4704   3.915   3.381  16.820  0.0465  3.1728  0.5253
  309MPD2    H1 4705   3.880   3.414  17.236  0.5845  1.5854 -0.1216
  309MPD2    H2 4706   4.261   3.361  17.082  0.2897 -1.8397 -1.0143
  309MPD2    H3 4707   4.116   3.404  17.265 -0.1149  1.0728 -0.6339
  309MPD2     N 4708   3.734   3.384  17.019  0.1294 -0.6438  0.3793
  309MPD2    H5 4709   3.699   3.360  16.927  2.5247  0.3938 -0.8072
  309MPD2    N1 4710   4.183   3.343  16.827  0.1550 -0.5050  0.2710
  309MPD2    H7 4711   4.151   3.350  16.732 -1.8442 -2.4312  0.7972
  310TMC3    C1 4712   4.376   3.277  16.700  0.1524 -0.0148  0.2289
  310TMC3    C2 4713   4.352   3.381  16.611  0.2887 -0.4345 -1.2361
  310TMC3    C3 4714   4.436   3.390  16.507 -0.0970  0.6012 -0.1445
  310TMC3    C4 4715   4.465   3.185  16.690 -0.4824 -0.0818  0.0255
  310TMC3    C5 4716   4.556   3.195  16.589 -0.1286 -0.6742  0.3113
  310TMC3    C6 4717   4.539   3.297  16.499  0.9119 -0.1947 -0.0698
  310TMC3     C 4718   4.312   3.287  16.834  0.1385  0.0987  0.1820
  310TMC3     O 4719   4.361   3.226  16.928 -0.1726  0.0957  0.7571
  310TMC3     H 4720   4.267   3.449  16.612  0.3398 -0.3769 -0.8493
  310TMC3    H1 4721   4.483   3.111  16.767 -2.0076 -1.2024 -0.7224
  310TMC3    H2 4722   4.610   3.314  16.419  0.0585 -0.2237 -0.8335
  310TMC3    C7 4723   4.681   3.126  16.609 -0.0660 -0.1435  0.4395
  310TMC3    C8 4724   4.423   3.496  16.406  1.0221  0.0168 -0.9165
  310TMC3    O1 4725   4.678   3.047  16.704 -0.1673  0.2702  0.0902
  310TMC3    O2 4726   4.311   3.517  16.356  0.4779 -0.3512 -0.1928
  311MPD2     C 4727   1.937   0.360  12.245 -0.0977 -0.8659  1.0865
  311MPD2    C1 4728   1.911   0.429  12.359  0.4171  0.4005 -0.0151
  311MPD2    C2 4729   1.839   0.359  12.459 -0.5693  0.6738 -0.1620
  311MPD2    C3 4730   1.797   0.232  12.439 -0.1678 -0.6269  1.0232
  311MPD2    C4 4731   1.831   0.165  12.320 -0.3866 -0.0421  0.0776
  311MPD2    C5 4732   1.907   0.228  12.231  0.0319  0.6204 -0.3186
  311MPD2     H 4733   1.800   0.414  12.545 -1.3106 -0.0241 -0.0574
  311MPD2    H1 4734   1.793   0.067  12.293 -1.0493 -0.0340  0.9669
  311MPD2    H2 4735   1.990   0.402  12.160  1.6305 -0.4212  2.3877
  311MPD2    H3 4736   1.915   0.183  12.133 -0.8466  1.9572 -1.0047
  311MPD2     N 4737   1.714   0.187  12.538 -0.9581 -0.3200  0.6913
  311MPD2    H5 4738   1.697   0.248  12.617  0.9430 -0.7335  1.4230
  311MPD2    N1 4739   1.958   0.562  12.389  0.2305 -0.1103  0.0999
  311MPD2    H7 4740   1.929   0.612  12.473 -1.6954  0.0415 -0.6723
  312TMC3    C1 4741   1.556   0.058  12.648  0.6122  0.2042  0.5609
  312TMC3    C2 4742   1.422   0.041  12.611  0.0071 -1.1068 -0.4039
  312TMC3    C3 4743   1.323   0.068  12.701 -0.1799 -0.1775 -0.0423
  312TMC3    C4 4744   1.596   0.092  12.776 -0.0859 -0.0819 -0.0277
  312TMC3    C5 4745   1.492   0.118  12.861 -0.4479  0.3721 -0.2485
  312TMC3    C6 4746   1.357   0.110  12.829 -0.3364  0.8056 -0.7292
  312TMC3     C 4747   1.648   0.067  12.532  0.0961 -0.0673 -0.7298
  312TMC3     O 4748   1.619   4.734  12.434  0.6595 -0.3232  0.1855
  312TMC3     H 4749   1.397   0.003  12.513 -0.1136  0.1588 -0.8703
  312TMC3    H1 4750   1.700   0.103  12.804  0.0227  1.2797 -0.9496
  312TMC3    H2 4751   1.290   0.118  12.914  0.2293 -1.7815 -0.0505
  312TMC3    C7 4752   1.523   0.157  12.992 -0.5569  0.2066  0.1489
  312TMC3    C8 4753   1.185   0.053  12.666 -0.0980  0.3656  0.3630
  312TMC3    O1 4754   1.443   0.226  13.049  0.0411  0.2819 -0.0796
  312TMC3    O2 4755   1.159   4.712  12.578 -0.4091 -0.1373 -0.6061
  313MPD2     C 4756   1.438   3.845  10.848 -0.7332 -0.5584  0.2118
  313MPD2    C1 4757   1.438   3.965  10.781 -0.0117  0.4490 -0.4042
  313MPD2    C2 4758   1.529   3.988  10.679 -0.0293 -0.3362 -0.2169
  313MPD2    C3 4759   1.638   3.904  10.650  0.2066 -0.1515  0.0557
  313MPD2    C4 4760   1.648   3.792  10.730 -0.6921  0.0433  0.5396
  313MPD2    C5 4761   1.546   3.764  10.821  0.4621  0.0528 -0.3194
  313MPD2     H 4762   1.534   4.082  10.626 -2.3875  0.5472  1.1785
  313MPD2    H1 4763   1.728   3.720  10.728 -2.0615 -1.4662 -0.4168
  313MPD2    H2 4764   1.365   3.823  10.924  0.6100 -0.4586  1.5303
  313MPD2    H3 4765   1.559   3.668  10.869  0.2656  0.4111  0.4644
  313MPD2     N 4766   1.718   3.929  10.538  0.1939 -0.3867 -0.3118
  313MPD2    H5 4767   1.686   4.002  10.474  0.5336  0.0062 -0.0351
  313MPD2    N1 4768   1.346   4.067  10.802 -0.3342  0.0779 -0.2308
  313MPD2    H7 4769   1.358   4.153  10.750  0.9817 -0.2256 -0.4417
  314TMC3    C1 4770   1.197   4.204  10.921  0.2241  0.1205 -0.3343
  314TMC3    C2 4771   1.284   4.311  10.913 -0.0490  0.0936  0.2398
  314TMC3    C3 4772   1.228   4.437  10.913  0.0675 -0.4318 -0.1451
  314TMC3    C4 4773   1.063   4.223  10.935  0.1211 -0.0578 -0.8838
  314TMC3    C5 4774   1.013   4.341  10.901  0.8628  0.6126  0.1613
  314TMC3    C6 4775   1.090   4.453  10.897  0.2045  0.2174  0.5731
  314TMC3     C 4776   1.237   4.069  10.887 -0.6502  0.3732  0.2952
  314TMC3     O 4777   1.182   3.981  10.947  0.5667 -0.1784 -0.1646
  314TMC3     H 4778   1.390   4.294  10.897 -0.2305 -1.3739  0.6183
  314TMC3    H1 4779   1.008   4.131  10.919  1.6709 -1.1562  0.0489
  314TMC3    H2 4780   1.053   4.553  10.883 -1.1844 -0.3078  0.5487
  314TMC3    C7 4781   0.913   4.322  10.792 -0.0907  0.1719  0.0050
  314TMC3    C8 4782   1.309   4.552  10.924  0.5431  0.0078  0.0437
  314TMC3    O1 4783   0.821   4.239  10.813  0.0701  0.7002 -1.1441
  314TMC3    O2 4784   1.417   4.561  10.868 -0.3666 -0.6154  0.2093
  315MPD2     C 4785   0.730   2.777  17.295 -0.1261 -0.0885 -0.6193
  315MPD2    C1 4786   0.824   2.874  17.308  0.0583 -0.4785  0.4832
  315MPD2    C2 4787   0.807   3.000  17.257 -0.5023  0.0390 -0.4937
  315MPD2    C3 4788   0.681   3.043  17.201  0.2787 -0.5214 -1.1645
  315MPD2    C4 4789   0.584   2.941  17.193  0.2503 -0.4283 -0.7335
  315MPD2    C5 4790   0.616   2.815  17.236  0.0663 -0.4821 -0.1594
  315MPD2     H 4791   0.888   3.068  17.281 -0.5770 -0.9833  2.6976
  315MPD2    H1 4792   0.480   2.963  17.173 -0.7351 -3.4866  0.8851
  315MPD2    H2 4793   0.747   2.673  17.319 -1.3964 -0.2570 -0.4792
  315MPD2    H3 4794   0.531   2.748  17.229  0.4576 -0.9914 -0.0115
  315MPD2     N 4795   0.670   3.183  17.171  0.1858 -0.1115 -0.0257
  315MPD2    H5 4796   0.750   3.245  17.180  0.3600 -0.4615  0.8711
  315MPD2    N1 4797   0.955   2.847  17.354 -0.4984 -0.2459  0.2641
  315MPD2    H7 4798   1.014   2.929  17.365 -0.8859  0.3643 -2.3454
  316TMC3    C1 4799   0.580   3.386  17.124  0.1513  0.4723 -0.3700
  316TMC3    C2 4800   0.672   3.445  17.207  0.3812  0.3331  0.2283
  316TMC3    C3 4801   0.680   3.583  17.180 -0.0678 -0.0956  0.1222
  316TMC3    C4 4802   0.523   3.443  17.019  1.1462 -1.1228 -0.1514
  316TMC3    C5 4803   0.552   3.574  16.997  0.4550  0.3551 -0.4530
  316TMC3    C6 4804   0.630   3.648  17.070 -0.3784  0.5018 -0.0503
  316TMC3     C 4805   0.555   3.241  17.132  0.8299  0.3626 -0.7133
  316TMC3     O 4806   0.446   3.196  17.102 -0.2014  0.2992 -0.0598
  316TMC3     H 4807   0.695   3.400  17.303 -1.5724  0.4338  0.7451
  316TMC3    H1 4808   0.443   3.387  16.971 -1.1578  0.8878  1.3484
  316TMC3    H2 4809   0.631   3.756  17.063 -0.0756  0.3730 -2.0146
  316TMC3    C7 4810   0.466   3.637  16.895 -0.6327 -0.0273 -0.1243
  316TMC3    C8 4811   0.758   3.668  17.266  0.1419 -0.2663 -0.6527
  316TMC3    O1 4812   0.356   3.589  16.874  0.3913  0.3882 -0.1796
  316TMC3    O2 4813   0.762   3.791  17.257 -0.3465 -0.1991  0.0123
  317MPD2     C 4814   3.406   1.942  12.082 -0.5594 -0.6714 -0.4283
  317MPD2    C1 4815   3.473   1.832  12.134 -0.4340  0.2947 -0.0143
  317MPD2    C2 4816   3.442   1.792  12.264 -0.7042 -0.0384  0.6675
  317MPD2    C3 4817   3.360   1.871  12.340 -0.5484  0.0286  0.0203
  317MPD2    C4 4818   3.280   1.971  12.279  0.8513  1.0679 -0.6301
  317MPD2    C5 4819   3.309   2.008  12.151  0.2343 -0.1260  0.6147
  317MPD2     H 4820   3.494   1.710  12.313  0.1014  0.3902  0.5335
  317MPD2    H1 4821   3.194   2.024  12.320  0.7508  0.0596  0.4432
  317MPD2    H2 4822   3.421   1.977  11.981  0.5896 -0.0653 -0.0519
  317MPD2    H3 4823   3.256   2.094  12.109 -0.0754 -0.7305 -0.2496
  317MPD2     N 4824   3.347   1.839  12.481 -0.2512  0.1733  0.0458
  317MPD2    H5 4825   3.391   1.753  12.511  3.1665  0.4679 -4.1541
  317MPD2    N1 4826   3.562   1.758  12.050  0.0582  0.1095 -0.5392
  317MPD2    H7 4827   3.621   1.689  12.096 -4.1987 -2.0911  1.6440
  318TMC3    C1 4828   3.277   1.850  12.692  0.3474 -0.0801 -0.1884
  318TMC3    C2 4829   3.245   1.715  12.685  0.3456 -0.3362 -0.4568
  318TMC3    C3 4830   3.201   1.651  12.793 -0.5856 -0.2767  0.1672
  318TMC3    C4 4831   3.269   1.912  12.814  1.0411 -0.3258  0.0199
  318TMC3    C5 4832   3.238   1.835  12.924  0.6107 -0.3462  0.2554
  318TMC3    C6 4833   3.208   1.703  12.918  0.3245  0.4278  0.5908
  318TMC3     C 4834   3.305   1.926  12.573  0.5112  0.1412  0.5095
  318TMC3     O 4835   3.303   2.049  12.572  0.4826  0.4830 -0.2987
  318TMC3     H 4836   3.222   1.669  12.589 -2.1045 -0.5956  0.2422
  318TMC3    H1 4837   3.284   2.019  12.823  0.9555 -0.4008  1.0239
  318TMC3    H2 4838   3.174   1.649  13.005 -0.9036 -0.5873 -0.5348
  318TMC3    C7 4839   3.253   1.904  13.053 -0.1084  0.4913  0.1330
  318TMC3    C8 4840   3.089   1.561  12.764  0.5282 -0.0002  0.6619
  318TMC3    O1 4841   3.233   2.023  13.059 -0.4845  0.2592 -0.3607
  318TMC3    O2 4842   3.116   1.467  12.691  0.8211 -0.2245  0.1858
  319MPD2     C 4843   3.852   3.065  16.442 -0.0400  0.3964 -0.3284
  319MPD2    C1 4844   3.802   2.978  16.534 -0.3342  0.1077 -0.2702
  319MPD2    C2 4845   3.690   2.910  16.494 -0.4368  0.6292  0.1075
  319MPD2    C3 4846   3.640   2.925  16.369 -1.1063 -0.3989 -0.4705
  319MPD2    C4 4847   3.701   3.008  16.272 -0.5852  0.4979 -0.2317
  319MPD2    C5 4848   3.808   3.083  16.313  0.4182 -0.1488 -0.0809
  319MPD2     H 4849   3.637   2.854  16.571 -1.0879  2.0637  0.7159
  319MPD2    H1 4850   3.660   3.008  16.172 -1.5857  0.4243  0.1715
  319MPD2    H2 4851   3.929   3.138  16.467  0.2594 -0.7033  2.0268
  319MPD2    H3 4852   3.851   3.156  16.245 -1.4999  1.6567  0.6382
  319MPD2     N 4853   3.521   2.865  16.326  0.0525  0.6545 -0.9606
  319MPD2    H5 4854   3.484   2.895  16.237 -0.4335 -0.0298 -0.9813
  319MPD2    N1 4855   3.858   2.953  16.660 -0.3328  0.1268 -0.7692
  319MPD2    H7 4856   3.813   2.887  16.723 -2.8245  0.9241 -1.7199
  320TMC3    C1 4857   3.305   2.760  16.346 -0.3976  0.5470 -0.2957
  320TMC3    C2 4858   3.251   2.845  16.257  0.4816 -0.0298 -0.1956
  320TMC3    C3 4859   3.135   2.810  16.198 -0.7686  0.0314 -0.6440
  320TMC3    C4 4860   3.240   2.647  16.387 -0.4538  0.1847 -0.1258
  320TMC3    C5 4861   3.113   2.627  16.336  0.4924 -1.2012 -0.5355
  320TMC3    C6 4862   3.058   2.702  16.237  1.2136 -0.0287  0.3023
  320TMC3     C 4863   3.442   2.780  16.399 -0.6815  0.3804 -0.1694
  320TMC3     O 4864   3.463   2.736  16.511 -0.3930 -0.3388 -0.7070
  320TMC3     H 4865   3.311   2.932  16.229  0.2106  0.8189  1.8367
  320TMC3    H1 4866   3.285   2.592  16.468 -0.0250 -1.1273 -1.2521
  320TMC3    H2 4867   2.957   2.679  16.203  1.5374 -0.0485 -0.6373
  320TMC3    C7 4868   3.077   2.488  16.332 -0.5761 -0.2984 -0.7244
  320TMC3    C8 4869   3.092   2.882  16.085  0.7346 -0.3328 -0.5830
  320TMC3    O1 4870   3.002   2.458  16.236  0.2165  0.7067 -0.1153
  320TMC3    O2 4871   3.139   2.993  16.073  0.3031  0.5822 -0.2313
  321TMC3    C1 4872   3.955   3.009  16.872 -0.8796  0.1699 -0.2471
  321TMC3    C2 4873   3.822   2.987  16.931  0.5601  0.3388  0.0643
  321TMC3    C3 4874   3.827   2.986  17.071  0.7166 -0.1236  0.1869
  321TMC3    C4 4875   4.069   3.042  16.943  0.0302 -0.2640  0.2589
  321TMC3    C5 4876   4.053   3.046  17.081  0.1136  0.5666  0.7220
  321TMC3    C6 4877   3.934   3.028  17.145  0.1261  0.1763 -0.7067
  321TMC3     C 4878   3.971   3.007  16.716 -0.8626 -0.2668  0.1010
  321TMC3     O 4879   4.049   3.086  16.668  0.4241  0.0496  0.1266
  321TMC3     H 4880   3.733   2.955  16.878 -1.9042  0.2479  4.2354
  321TMC3    H1 4881   4.163   3.062  16.892  0.0045  2.1607  1.1302
  321TMC3    H2 4882   3.924   3.045  17.252 -0.0890  0.2498 -0.7377
  321TMC3    C7 4883   4.163   2.993  17.156  0.9955  0.2973  0.6119
  321TMC3    C8 4884   3.793   2.852  17.100 -0.5195  0.5490 -0.2144
  321TMC3    O1 4885   4.129   2.931  17.258  0.0955 -0.5390  0.0233
  321TMC3    O2 4886   3.710   2.794  17.036  0.3861 -0.4352 -0.2806
  322MPD2     C 4887   2.807   4.632  13.880 -0.0026  0.5114 -0.2535
  322MPD2    C1 4888   2.869   4.584  13.992  0.1511  0.2713  0.4616
  322MPD2    C2 4889   2.844   4.457  14.034  0.5408  1.0345 -0.8718
  322MPD2    C3 4890   2.761   4.377  13.960  0.1204 -0.8601 -0.7528
  322MPD2    C4 4891   2.696   4.426  13.850 -0.4024  0.6653  0.3310
  322MPD2    C5 4892   2.724   4.556  13.808  0.1335 -0.2024  0.1872
  322MPD2     H 4893   2.891   4.400  14.114  2.5089  1.3337 -1.8142
  322MPD2    H1 4894   2.621   4.372  13.793  0.8841 -0.5126 -0.2462
  322MPD2    H2 4895   2.829   4.734  13.849 -0.2714  0.1543 -1.6197
  322MPD2    H3 4896   2.677   4.592  13.717  1.6240 -0.8597 -0.8581
  322MPD2     N 4897   2.748   4.237  13.997  0.0656 -0.1331  0.0134
  322MPD2    H5 4898   2.808   4.212  14.075 -1.1774 -2.1058  0.3395
  322MPD2    N1 4899   2.959   4.671  14.057  0.0447  0.2630  0.7727
  322MPD2    H7 4900   2.991   0.016  14.010  0.3688 -0.1265  0.2908
  323TMC3    C1 4901   3.131   4.693  14.220 -0.3605  0.8102 -0.5509
  323TMC3    C2 4902   3.202   0.025  14.128  0.2068 -0.0255  0.5281
  323TMC3    C3 4903   3.324   0.070  14.175  0.1879  0.3784 -0.0322
  323TMC3    C4 4904   3.169   4.682  14.348 -0.0869  0.2607  0.3803
  323TMC3    C5 4905   3.286   4.736  14.394  0.3300 -0.4271 -0.2390
  323TMC3    C6 4906   3.369   0.048  14.303 -0.0571  0.7063 -0.3083
  323TMC3     C 4907   3.013   4.623  14.181  0.0818 -0.5563  0.1449
  323TMC3     O 4908   2.972   4.536  14.251 -0.3848 -0.2449 -0.1125
  323TMC3     H 4909   3.176   0.019  14.023 -0.2808 -1.9343  0.7649
  323TMC3    H1 4910   3.124   4.615  14.420 -1.9367 -0.3399 -1.3388
  323TMC3    H2 4911   3.465   0.087  14.333  0.7074  0.0505 -1.9039
  323TMC3    C7 4912   3.335   4.664  14.511 -0.0594  0.0615 -0.4276
  323TMC3    C8 4913   3.419   0.121  14.081  0.5855  0.2767  0.2143
  323TMC3    O1 4914   3.257   4.632  14.596 -0.0878  0.0786  0.7239
  323TMC3    O2 4915   3.538   0.086  14.090 -0.1723 -0.6362 -0.2441
  324MPD2     C 4916   4.379   0.693  14.725 -0.8989 -0.3660  0.5790
  324MPD2    C1 4917   4.403   0.828  14.694 -0.1116  0.3105 -0.2206
  324MPD2    C2 4918   4.298   0.897  14.631  0.3277 -0.2120  0.2165
  324MPD2    C3 4919   4.179   0.835  14.605 -0.2187  0.1206 -0.0711
  324MPD2    C4 4920   4.157   0.709  14.647  0.0215 -0.5482  0.0770
  324MPD2    C5 4921   4.266   0.635  14.688 -0.5486  0.1687 -0.4417
  324MPD2     H 4922   4.308   1.000  14.599 -1.7054 -0.1300 -0.1466
  324MPD2    H1 4923   4.068   0.658  14.611 -0.5691 -0.3755  1.2873
  324MPD2    H2 4924   4.452   0.626  14.768 -1.3470 -0.2395  1.5353
  324MPD2    H3 4925   4.237   0.537  14.725  0.0528  0.9952  2.2522
  324MPD2     N 4926   4.078   0.902  14.531  0.6702  0.2931  0.2999
  324MPD2    H5 4927   3.988   0.856  14.522  1.7363 -1.6471 -0.2060
  324MPD2    N1 4928   4.529   0.904  14.719  0.0068 -0.2272  0.2806
  324MPD2    H7 4929   4.528   1.004  14.702  0.9769  0.0204  1.7351
  325TMC3    C1 4930   3.936   1.056  14.446  0.5538  0.9162 -0.9939
  325TMC3    C2 4931   3.868   0.960  14.370  0.1628 -0.1188  0.0184
  325TMC3    C3 4932   3.737   0.989  14.337  0.4679  0.0582 -0.4534
  325TMC3    C4 4933   3.871   1.159  14.500  0.1927  0.5942 -0.0317
  325TMC3    C5 4934   3.740   1.186  14.467  0.2325 -0.2156 -0.2069
  325TMC3    C6 4935   3.663   1.100  14.389  0.0831 -0.0134 -0.5794
  325TMC3     C 4936   4.078   1.033  14.488  0.1922  0.0170 -0.5653
  325TMC3     O 4937   4.156   1.127  14.500  0.4965 -0.1950  0.3586
  325TMC3     H 4938   3.927   0.886  14.317  0.9824 -0.1958  1.0519
  325TMC3    H1 4939   3.929   1.233  14.555 -0.6352  1.9697 -1.0173
  325TMC3    H2 4940   3.555   1.097  14.382  0.0667  2.0415 -1.2133
  325TMC3    C7 4941   3.690   1.292  14.551 -0.4207 -0.3829  0.7634
  325TMC3    C8 4942   3.675   0.889  14.256 -0.8551  0.2299 -0.3877
  325TMC3    O1 4943   3.759   1.334  14.637 -0.2563 -0.1541  0.3303
  325TMC3    O2 4944   3.744   0.790  14.244  0.0083  0.4349  0.0769
  326MPD2     C 4945   1.233   1.827  11.178  0.0166  0.4544  0.1000
  326MPD2    C1 4946   1.202   1.902  11.066  0.2936 -0.8356 -0.0031
  326MPD2    C2 4947   1.269   2.018  11.048  0.5375  0.0084 -0.1815
  326MPD2    C3 4948   1.377   2.053  11.122 -0.1474 -0.0781 -0.0072
  326MPD2    C4 4949   1.398   1.977  11.238 -0.0616 -0.4075 -0.6227
  326MPD2    C5 4950   1.313   1.881  11.277 -0.3200  0.5729 -0.6419
  326MPD2     H 4951   1.250   2.075  10.958 -2.1988  0.5447  0.7188
  326MPD2    H1 4952   1.476   1.996  11.310 -1.7597 -0.9830  1.3495
  326MPD2    H2 4953   1.186   1.731  11.196 -0.9821  1.2493  1.7533
  326MPD2    H3 4954   1.326   1.829  11.371  1.0335  2.5906  0.2826
  326MPD2     N 4955   1.470   2.156  11.083 -0.6911 -0.2434 -0.2156
  326MPD2    H5 4956   1.540   2.184  11.151 -0.5633 -0.4962 -0.2415
  326MPD2    N1 4957   1.112   1.863  10.969 -0.4796 -0.9728  0.7789
  326MPD2    H7 4958   1.076   1.942  10.917  0.5267 -0.3299  1.0555
  327TMC3    C1 4959   1.041   1.725  10.789 -0.1344  0.1372  0.5640
  327TMC3    C2 4960   0.978   1.836  10.744 -0.5777  0.3004 -0.7728
  327TMC3    C3 4961   0.968   1.840  10.607 -0.7163  0.7396  0.0139
  327TMC3    C4 4962   1.095   1.627  10.714  0.7095  0.8555 -0.1017
  327TMC3    C5 4963   1.100   1.654  10.576  0.1668  0.1479  0.3383
  327TMC3    C6 4964   1.013   1.748  10.525 -0.8943 -0.1558  0.3803
  327TMC3     C 4965   1.099   1.730  10.918 -0.2350  0.6581 -0.0387
  327TMC3     O 4966   1.163   1.632  10.958  0.1022 -0.3905 -0.1036
  327TMC3     H 4967   0.955   1.919  10.810  1.9050 -0.8071  1.4452
  327TMC3    H1 4968   1.145   1.543  10.761  0.6487  1.3481  0.8510
  327TMC3    H2 4969   1.019   1.764  10.418  2.0274  1.3273  0.7616
  327TMC3    C7 4970   1.234   1.686  10.542 -0.9142  0.1730 -0.2627
  327TMC3    C8 4971   0.946   1.966  10.546 -0.5035  0.4763  0.2462
  327TMC3    O1 4972   1.267   1.735  10.436 -0.6750 -0.7094 -0.0933
  327TMC3    O2 4973   0.998   1.984  10.438 -0.1814 -0.8267 -0.5555
  328MPD2     C 4974   3.099   1.986  17.055 -0.1611 -1.0021 -0.4055
  328MPD2    C1 4975   3.030   1.883  17.116  0.1247 -0.5816  0.0389
  328MPD2    C2 4976   2.909   1.836  17.065  0.3791  0.3976 -0.2869
  328MPD2    C3 4977   2.873   1.879  16.941 -0.0693 -0.9626 -0.1169
  328MPD2    C4 4978   2.943   1.982  16.877 -0.4860  0.5762 -0.6521
  328MPD2    C5 4979   3.058   2.033  16.934  0.5500  0.6074  0.2736
  328MPD2     H 4980   2.857   1.752  17.109 -0.6506 -0.0264 -2.3029
  328MPD2    H1 4981   2.905   2.030  16.787  2.0488 -0.7097 -2.4170
  328MPD2    H2 4982   3.181   2.042  17.099 -0.4504 -0.6164 -0.3591
  328MPD2    H3 4983   3.108   2.120  16.894 -1.8171  0.5563 -2.8000
  328MPD2     N 4984   2.752   1.849  16.876  0.2658 -0.0652 -0.2212
  328MPD2    H5 4985   2.747   1.876  16.778  1.7273 -2.8763 -1.0800
  328MPD2    N1 4986   3.085   1.837  17.236  0.2748 -0.7219  0.0814
  328MPD2    H7 4987   3.170   1.887  17.258 -0.6547  1.3557 -0.9898
  329TMC3    C1 4988   3.061   1.769  17.449  1.0074 -0.6920  0.5442
  329TMC3    C2 4989   3.087   1.899  17.470 -0.1106  0.5178 -0.3217
  329TMC3    C3 4990   3.066   1.937  17.598  0.0555 -0.6930 -1.0281
  329TMC3    C4 4991   3.015   1.688  17.540 -0.1283  0.3673  0.2333
  329TMC3    C5 4992   3.007   1.731  17.671  0.2992 -0.3957 -0.3835
  329TMC3    C6 4993   3.020   1.863  17.698 -0.1181 -0.1443 -0.3133
  329TMC3     C 4994   3.030   1.741  17.315 -0.3951 -0.5575  0.1386
  329TMC3     O 4995   2.942   1.657  17.286  0.3434  0.1868  0.2485
  329TMC3     H 4996   3.138   1.968  17.403  0.0498  1.7400  1.0541
  329TMC3    H1 4997   2.980   1.592  17.506 -0.2835  0.6189 -0.3122
  329TMC3    H2 4998   2.993   1.908   0.038 -0.1381 -1.5469  0.3562
  329TMC3    C7 4999   2.988   1.648   0.028 -0.3599  0.2962 -0.0524
  329TMC3    C8 5000   3.079   2.081  17.619  0.0947 -0.1401 -0.6466
  329TMC3    O1 5001   3.018   1.699   0.134  0.8780 -0.2902  0.5395
  329TMC3    O2 5002   3.135   2.152  17.541  0.4503 -0.0471 -0.2839
  330TMC3    C1 5003   0.811   1.529   9.281  0.2009 -0.5105 -0.2016
  330TMC3    C2 5004   0.735   1.472   9.187  0.2327  0.3235 -0.1129
  330TMC3    C3 5005   0.779   1.354   9.130 -0.1251 -0.8687 -0.0908
  330TMC3    C4 5006   0.923   1.469   9.330  0.4180 -0.2227 -0.4623
  330TMC3    C5 5007   0.963   1.347   9.277 -0.4373 -0.2556 -0.4991
  330TMC3    C6 5008   0.887   1.289   9.179  0.4389 -0.4703  0.0164
  330TMC3     C 5009   0.720   1.574   9.387  0.4426  0.0537 -0.7732
  330TMC3     O 5010   0.725   1.512   9.491 -0.3734 -0.1281  0.0004
  330TMC3     H 5011   0.642   1.512   9.148  2.6331  2.1710 -3.9216
  330TMC3    H1 5012   0.981   1.513   9.411 -1.8493 -0.0609  1.0731
  330TMC3    H2 5013   0.921   1.196   9.135  0.9315  0.2284 -1.0954
  330TMC3    C7 5014   1.097   1.291   9.299  0.0327  0.0189  0.0101
  330TMC3    C8 5015   0.677   1.276   9.074  0.4596  0.6742  0.2212
  330TMC3    O1 5016   1.127   1.186   9.245 -0.0448 -0.4725  0.5619
  330TMC3    O2 5017   0.597   1.336   9.005 -0.6675  0.1358  0.1449
  331MPD2     C 5018   4.356   0.271  13.154  0.7915 -0.0924  0.2005
  331MPD2    C1 5019   4.351   0.297  13.021  0.2701 -0.8608 -0.0811
  331MPD2    C2 5020   4.287   0.207  12.938 -0.3712 -0.5605 -0.3022
  331MPD2    C3 5021   4.242   0.087  12.988  0.0406  0.1398 -0.2663
  331MPD2    C4 5022   4.242   0.071  13.125  0.1027  0.7756 -0.6513
  331MPD2    C5 5023   4.300   0.161  13.209 -0.1699 -0.1340 -0.3385
  331MPD2     H 5024   4.272   0.224  12.832 -0.0731  1.3352 -0.0508
  331MPD2    H1 5025   4.206   4.720  13.172 -2.1767  1.0350 -1.8770
  331MPD2    H2 5026   4.404   0.338  13.224 -2.0294  0.8072  1.2423
  331MPD2    H3 5027   4.306   0.133  13.314 -1.8668  1.2882  0.1389
  331MPD2     N 5028   4.183   4.727  12.906 -0.1002 -0.4580  0.1264
  331MPD2    H5 5029   4.150   0.032  12.820  1.2363 -0.8080 -0.5597
  331MPD2    N1 5030   4.407   0.421  12.978 -0.2499 -0.1338  0.1349
  331MPD2    H7 5031   4.460   0.467  13.052  1.5961 -0.2171 -1.1546
  332TMC3    C1 5032   4.146   4.517  12.811 -0.0917  0.6463 -0.2200
  332TMC3    C2 5033   4.134   4.587  12.692 -0.4150 -0.2564  0.7010
  332TMC3    C3 5034   4.153   4.514  12.579  0.5800 -0.3728  0.4797
  332TMC3    C4 5035   4.171   4.386  12.816  0.1314 -0.0464  0.3210
  332TMC3    C5 5036   4.205   4.329  12.699 -0.1039 -0.9277 -0.4776
  332TMC3    C6 5037   4.192   4.386  12.578  0.0724  0.2987 -0.3726
  332TMC3     C 5038   4.172   4.594  12.936  0.3134  0.0819 -0.1728
  332TMC3     O 5039   4.229   4.535  13.028 -0.2620 -0.0371 -0.7554
  332TMC3     H 5040   4.132   4.694  12.680 -0.7436 -0.3287  0.1161
  332TMC3    H1 5041   4.174   4.333  12.911 -0.9339 -0.4589  0.1226
  332TMC3    H2 5042   4.228   4.334  12.491  2.0964  0.3605  0.4215
  332TMC3    C7 5043   4.291   4.216  12.709 -0.2527 -0.6031  0.0241
  332TMC3    C8 5044   4.148   4.585  12.459  1.0817  0.6586 -0.4811
  332TMC3    O1 5045   4.253   4.114  12.653  0.4469 -0.6244 -0.2554
  332TMC3    O2 5046   4.172   4.706  12.451  0.2324  0.6929 -0.0330
  333MPD2     C 5047   4.513   0.409  11.170 -0.0711  0.4758  0.0458
  333MPD2    C1 5048   4.521   0.347  11.051  0.8298 -0.2051 -0.2072
  333MPD2    C2 5049   4.458   0.224  11.041 -0.7306 -0.7365  0.0412
  333MPD2    C3 5050   4.391   0.167  11.147 -0.2562  0.1539 -0.0976
  333MPD2    C4 5051   4.376   0.234  11.267 -0.1228  0.5697 -0.0152
  333MPD2    C5 5052   4.449   0.350  11.279  0.2848  0.3163  0.1351
  333MPD2     H 5053   4.456   0.172  10.946  0.4407 -1.1865  0.2556
  333MPD2    H1 5054   4.324   0.200  11.356  1.3321  0.6169  0.8624
  333MPD2    H2 5055   4.549   0.511  11.180  1.7970 -0.0462 -1.3550
  333MPD2    H3 5056   4.448   0.407  11.371 -3.0829 -1.1700  0.9930
  333MPD2     N 5057   4.321   0.050  11.124 -0.5454  0.0152 -0.0480
  333MPD2    H5 5058   4.322   0.025  11.026 -0.4774  2.6030 -0.6932
  333MPD2    N1 5059   4.588   0.412  10.940  0.4341  0.1524  0.1454
  333MPD2    H7 5060   4.642   0.495  10.960  1.0147 -0.1552 -0.1553
  334TMC3    C1 5061   4.714   0.418  10.742 -0.2113  0.0928 -0.0425
  334TMC3    C2 5062   0.070   0.336  10.690 -0.0818 -0.1591 -0.5115
  334TMC3    C3 5063   0.174   0.389  10.621 -0.1991  0.0024 -0.0494
  334TMC3    C4 5064   4.722   0.552  10.731 -0.0173  0.1102  0.4913
  334TMC3    C5 5065   0.084   0.606  10.659 -0.7699  0.3598  0.5612
  334TMC3    C6 5066   0.187   0.526  10.614  0.4153 -0.2670  0.0861
  334TMC3     C 5067   4.614   0.348  10.820  0.4229 -0.6418 -0.2953
  334TMC3     O 5068   4.567   0.245  10.768  0.0447  0.4257 -1.1337
  334TMC3     H 5069   0.061   0.228  10.700  2.7373 -0.3465 -0.0435
  334TMC3    H1 5070   4.643   0.617  10.767  0.3882  1.1205 -0.4719
  334TMC3    H2 5071   0.272   0.565  10.559  1.1279  0.2835  1.5838
  334TMC3    C7 5072   0.097   0.748  10.644 -0.4222  0.5964 -0.4717
  334TMC3    C8 5073   0.258   0.283  10.557  0.3555 -0.5431  0.5441
  334TMC3    O1 5074   0.206   0.799  10.643 -0.0225 -0.3964  0.3127
  334TMC3    O2 5075   0.220   0.165  10.560 -0.3310 -0.0175  0.5421
  335TMC3    C1 5076   3.538   1.569  17.110  0.4649  0.3133 -0.5303
  335TMC3    C2 5077   3.540   1.507  16.989  0.1110 -0.8865  0.3950
  335TMC3    C3 5078   3.652   1.511  16.917  0.9164  0.0543  0.2214
  335TMC3    C4 5079   3.653   1.617  17.168  0.1169  0.2375  0.0455
  335TMC3    C5 5080   3.765   1.609  17.088 -0.3223 -0.0729 -0.4981
  335TMC3    C6 5081   3.769   1.563  16.961 -0.4858 -0.5551  0.5024
  335TMC3     C 5082   3.432   1.526  17.194  0.1314 -0.6098  0.1906
  335TMC3     O 5083   3.353   1.444  17.149 -0.2932  0.1437  0.2872
  335TMC3     H 5084   3.450   1.468  16.943 -0.2876 -0.4330  0.7917
  335TMC3    H1 5085   3.641   1.664  17.264 -0.7930  0.0435  0.0337
  335TMC3    H2 5086   3.864   1.544  16.912  0.1579  5.5430 -0.5858
  335TMC3    C7 5087   3.901   1.628  17.143 -0.3823 -0.5647 -0.5060
  335TMC3    C8 5088   3.656   1.418  16.805  0.0929  0.1787 -0.5898
  335TMC3    O1 5089   3.999   1.626  17.070  0.2876  0.7426  0.0711
  335TMC3    O2 5090   3.725   1.436  16.711  0.3520 -0.4727  0.7348
  336MPD2     C 5091   3.773   4.390  16.160 -0.8073  0.0224 -0.1372
  336MPD2    C1 5092   3.773   4.317  16.047 -0.7654 -0.0429  0.4126
  336MPD2    C2 5093   3.788   4.179  16.055  0.6597  0.3307 -0.8524
  336MPD2    C3 5094   3.787   4.115  16.175  0.0446  0.3251 -0.9871
  336MPD2    C4 5095   3.771   4.196  16.291  0.2792  0.2885 -0.4926
  336MPD2    C5 5096   3.781   4.329  16.282  0.4267 -0.5316  0.6108
  336MPD2     H 5097   3.794   4.126  15.961 -2.8144 -2.5374  0.5258
  336MPD2    H1 5098   3.769   4.143  16.386  0.3265 -0.9363 -1.1684
  336MPD2    H2 5099   3.769   4.498  16.158  0.6447  0.0526 -0.9896
  336MPD2    H3 5100   3.772   4.392  16.370  2.1960  1.7945 -0.8606
  336MPD2     N 5101   3.792   3.976  16.196  0.1668 -0.4873  0.3525
  336MPD2    H5 5102   3.781   3.941  16.290 -2.8328  1.3490  0.6929
  336MPD2    N1 5103   3.764   4.383  15.919  0.2534 -0.7146  0.3522
  336MPD2    H7 5104   3.778   4.483  15.914 -2.3818 -0.4868 -1.9416
  337TMC3    C1 5105   3.702   4.421  15.709 -0.7645  0.3883 -0.6462
  337TMC3    C2 5106   3.600   4.397  15.632 -0.9304 -0.6655 -1.4161
  337TMC3    C3 5107   3.539   4.500  15.562 -0.6456  0.2960 -0.3713
  337TMC3    C4 5108   3.759   4.545  15.720 -0.7927 -0.2690 -0.7770
  337TMC3    C5 5109   3.699   4.646  15.648  0.6385  0.1687  0.5120
  337TMC3    C6 5110   3.584   4.627  15.582 -0.4759  0.0299  0.2334
  337TMC3     C 5111   3.723   4.322  15.812 -0.5261 -0.3058  0.7845
  337TMC3     O 5112   3.677   4.212  15.794  0.4633 -0.1735 -0.0648
  337TMC3     H 5113   3.558   4.299  15.612 -0.0620 -1.2032 -0.5948
  337TMC3    H1 5114   3.857   4.555  15.766 -1.3473 -0.1626  0.3898
  337TMC3    H2 5115   3.547   4.704  15.514  0.9080  1.7494  1.4330
  337TMC3    C7 5116   3.749   0.046  15.658  1.1754  0.4524  0.8677
  337TMC3    C8 5117   3.414   4.480  15.499  0.7443 -0.4822  0.2188
  337TMC3    O1 5118   3.669   0.134  15.671 -0.1206 -0.3929  0.2182
  337TMC3    O2 5119   3.407   4.388  15.419 -0.2300 -0.0101  0.8015
  338MPD2     C 5120   3.423   3.611   0.772  0.3415  1.0164  0.1506
  338MPD2    C1 5121   3.345   3.567   0.669  0.6217  0.3844  0.8369
  338MPD2    C2 5122   3.228   3.633   0.644  0.4087  0.0211 -0.1433
  338MPD2    C3 5123   3.174   3.728   0.730 -0.2799 -0.0794  0.6440
  338MPD2    C4 5124   3.258   3.775   0.833  0.3207  0.6817  1.0660
  338MPD2    C5 5125   3.377   3.711   0.852  0.2244  0.5874  0.7002
  338MPD2     H 5126   3.164   3.602   0.562  1.1013  0.1445 -0.7293
  338MPD2    H1 5127   3.239   3.859   0.899  1.2466  0.9080  1.0480
  338MPD2    H2 5128   3.509   3.553   0.804  1.9439  2.4578 -1.5232
  338MPD2    H3 5129   3.429   3.730   0.945  1.2816 -1.3202  0.4830
  338MPD2     N 5130   3.045   3.789   0.701  0.9763 -0.8679  0.8400
  338MPD2    H5 5131   2.996   3.741   0.626 -0.4440  2.6974 -0.4917
  338MPD2    N1 5132   3.367   3.448   0.593 -0.3314  0.2479 -0.4991
  338MPD2    H7 5133   3.299   3.425   0.521 -1.2598 -0.2510  0.5525
  339TMC3    C1 5134   2.889   3.962   0.682  0.0521  0.0078  0.3414
  339TMC3    C2 5135   2.773   3.983   0.749 -0.2690  0.4144  0.3120
  339TMC3    C3 5136   2.665   4.023   0.675 -1.1486  0.0914  0.1480
  339TMC3    C4 5137   2.895   3.941   0.550 -0.0904 -0.6817 -0.4321
  339TMC3    C5 5138   2.788   3.988   0.478  0.1585  0.4219  0.1201
  339TMC3    C6 5139   2.675   4.026   0.539 -0.3536  0.2218  0.4064
  339TMC3     C 5140   3.002   3.908   0.755 -0.5567 -1.0416 -0.4555
  339TMC3     O 5141   3.031   3.957   0.863 -0.0850  0.2927  0.1717
  339TMC3     H 5142   2.765   3.972   0.856 -1.0337 -1.3351  0.0886
  339TMC3    H1 5143   2.985   3.907   0.500  1.5864  0.6888  1.6626
  339TMC3    H2 5144   2.580   4.024   0.488 -0.6338  0.0604  0.9334
  339TMC3    C7 5145   2.803   3.992   0.336 -1.2007 -0.2124  0.2439
  339TMC3    C8 5146   2.545   3.955   0.725  0.7849  0.4740 -0.1811
  339TMC3    O1 5147   2.884   3.920   0.282 -0.6240  0.6345  0.8747
  339TMC3    O2 5148   2.466   3.901   0.649 -0.2197  0.2682 -1.0436
  340MPD2     C 5149   4.262   1.869  10.416  0.3140  0.1251  0.3266
  340MPD2    C1 5150   4.332   1.804  10.315  0.0871  0.2897  0.1497
  340MPD2    C2 5151   4.470   1.810  10.328 -0.3013  0.0847 -0.6122
  340MPD2    C3 5152   4.531   1.869  10.435  0.1119  0.0901  0.6252
  340MPD2    C4 5153   4.456   1.921  10.539 -0.6138 -0.5301  0.6544
  340MPD2    C5 5154   4.321   1.919  10.530 -0.4486  0.1900  0.5567
  340MPD2     H 5155   4.525   1.758  10.250 -0.9511  0.7485 -1.5096
  340MPD2    H1 5156   4.501   1.966  10.627 -0.6698 -1.6812  1.2608
  340MPD2    H2 5157   4.154   1.862  10.410  0.6631 -5.1676  0.6577
  340MPD2    H3 5158   4.253   1.950  10.609 -0.6260  0.5372  0.2661
  340MPD2     N 5159   4.672   1.870  10.448 -0.4793 -0.0224 -0.6437
  340MPD2    H5 5160   4.704   1.914  10.533 -0.4853  0.3955 -0.8592
  340MPD2    N1 5161   4.271   1.744  10.200 -0.2270  0.2484 -0.3608
  340MPD2    H7 5162   4.331   1.719  10.122  2.2600  2.4321  0.8531
  341TMC3    C1 5163   4.112   1.688  10.042 -0.0094 -0.3643  0.3605
  341TMC3    C2 5164   4.078   1.556  10.028  0.7572  0.8147  0.7328
  341TMC3    C3 5165   4.102   1.499   9.906 -0.1287  0.2017 -0.8185
  341TMC3    C4 5166   4.192   1.760   9.957 -0.2017 -0.2079  0.5634
  341TMC3    C5 5167   4.211   1.698   9.834  0.0820  0.1680 -0.7335
  341TMC3    C6 5168   4.162   1.577   9.804 -0.2477  0.4456 -0.5647
  341TMC3     C 5169   4.131   1.726  10.176 -0.3542  0.4230  0.8171
  341TMC3     O 5170   4.039   1.714  10.259  0.6786  0.5150  0.3812
  341TMC3     H 5171   4.018   1.510  10.105  2.4142 -0.9690  0.9586
  341TMC3    H1 5172   4.223   1.859   9.990  1.0300  0.1391 -1.6091
  341TMC3    H2 5173   4.180   1.535   9.705 -0.6066 -0.8869 -0.0763
  341TMC3    C7 5174   4.321   1.750   9.753  0.2439 -0.0096 -0.4760
  341TMC3    C8 5175   4.037   1.376   9.877 -0.4086 -0.4310 -0.3834
  341TMC3    O1 5176   4.418   1.684   9.710  0.0388  0.1613 -0.1483
  341TMC3    O2 5177   3.973   1.324   9.969 -0.3908  0.0431  0.2288
  342MPD2     C 5178   1.668   0.031  17.237  0.4566 -0.4578  0.1169
  342MPD2    C1 5179   1.804   0.027  17.218 -0.2291  0.0351  0.5393
  342MPD2    C2 5180   1.884   0.115  17.282  0.5544 -0.0771  1.3526
  342MPD2    C3 5181   1.834   0.209  17.370  0.2533 -0.5074  0.0916
  342MPD2    C4 5182   1.697   0.204  17.395  0.1422 -0.0443 -0.1039
  342MPD2    C5 5183   1.614   0.120  17.323  0.2870  0.2367  0.5731
  342MPD2     H 5184   1.990   0.118  17.260  0.3685  0.5340  0.5412
  342MPD2    H1 5185   1.658   0.274  17.469 -0.7028 -2.8255  2.0679
  342MPD2    H2 5186   1.600   4.703  17.185 -1.3405 -0.5044  2.5281
  342MPD2    H3 5187   1.507   0.114  17.314  0.2938 -1.8892  1.8951
  342MPD2     N 5188   1.911   0.296  17.445 -0.1995 -0.5044  0.3580
  342MPD2    H5 5189   1.854   0.361  17.500 -0.7563 -2.6504  2.3160
  342MPD2    N1 5190   1.859   4.684  17.118  0.2587  0.2442  0.3353
  342MPD2    H7 5191   1.958   4.706  17.108 -0.0169  0.7404 -1.2357
  343TMC3    C1 5192   1.879   4.487  16.992 -0.1425 -0.9047  0.4972
  343TMC3    C2 5193   1.982   4.533  16.919  0.1447 -0.2209 -0.8160
  343TMC3    C3 5194   2.029   4.471  16.809  0.1116  0.0119  0.0147
  343TMC3    C4 5195   1.815   4.372  16.948  0.0160 -0.1829 -0.2652
  343TMC3    C5 5196   1.875   4.306  16.839  0.1334 -0.2937  0.0626
  343TMC3    C6 5197   1.987   4.350  16.782  1.2911  0.1758 -0.1310
  343TMC3     C 5198   1.795   4.569  17.077  0.1760  0.9993 -0.0334
  343TMC3     O 5199   1.688   4.517  17.106 -0.1766 -0.3172  0.2976
  343TMC3     H 5200   2.023   4.629  16.948  0.9387 -1.1586  1.1569
  343TMC3    H1 5201   1.719   4.338  16.986  0.1416  0.2415  0.4157
  343TMC3    H2 5202   2.027   4.297  16.696  1.9930 -0.9353  0.8854
  343TMC3    C7 5203   1.809   4.182  16.804  0.6771 -0.9970  0.1887
  343TMC3    C8 5204   2.148   4.525  16.744 -1.4114 -0.3174  0.0696
  343TMC3    O1 5205   1.733   4.125  16.885 -0.0873 -0.1236 -0.0439
  343TMC3    O2 5206   2.153   4.646  16.735 -0.2062  0.1737  1.1527
  344MPD2     C 5207   2.857   4.723  11.368 -0.3094 -0.3706  0.3310
  344MPD2    C1 5208   2.835   4.648  11.245  0.2148 -0.1796  0.0536
  344MPD2    C2 5209   2.874   4.709  11.126  0.2723 -0.5090  0.6968
  344MPD2    C3 5210   2.933   0.098  11.131  0.4668  0.1550 -0.2714
  344MPD2    C4 5211   2.948   0.162  11.249 -0.6281  0.7642 -0.3353
  344MPD2    C5 5212   2.916   0.107  11.371 -0.1320 -0.1778 -0.0657
  344MPD2     H 5213   2.873   4.655  11.032 -1.5961  0.0589  0.4005
  344MPD2    H1 5214   3.006   0.253  11.255  2.0313 -0.9298 -0.7707
  344MPD2    H2 5215   2.819   4.688  11.463  2.5765 -0.7498  1.3294
  344MPD2    H3 5216   2.927   0.156  11.467  1.4182  2.4810 -1.5982
  344MPD2     N 5217   2.968   0.170  11.018  0.1449  0.4798  0.1656
  344MPD2    H5 5218   3.016   0.260  11.027  2.3031 -0.6327 -0.1625
  344MPD2    N1 5219   2.784   4.512  11.249  0.1816  0.2623 -0.2406
  344MPD2    H7 5220   2.785   4.460  11.162  1.1584  1.5449 -0.9901
  345TMC3    C1 5221   3.003   0.225  10.781  0.0516 -0.5721 -0.0287
  345TMC3    C2 5222   3.120   0.290  10.803  0.4809  0.1073 -0.2478
  345TMC3    C3 5223   3.190   0.343  10.693 -0.0898 -0.2430 -0.0965
  345TMC3    C4 5224   2.942   0.224  10.661  1.1293 -1.0634  0.1729
  345TMC3    C5 5225   3.017   0.262  10.554  0.5261  0.0869 -0.0711
  345TMC3    C6 5226   3.142   0.310  10.565 -0.5411  0.3460 -0.2301
  345TMC3     C 5227   2.940   0.139  10.887 -0.4452 -0.5357  0.1529
  345TMC3     O 5228   2.863   0.056  10.842 -0.5096  0.6894  0.1648
  345TMC3     H 5229   3.166   0.278  10.900  1.4022 -3.1652 -1.0856
  345TMC3    H1 5230   2.843   0.180  10.654  0.8736 -0.4289 -0.2126
  345TMC3    H2 5231   3.196   0.340  10.476 -0.2926 -0.0085 -0.1971
  345TMC3    C7 5232   2.949   0.327  10.445  0.0326  0.0801  0.0314
  345TMC3    C8 5233   3.284   0.449  10.700 -0.6191 -0.0859 -0.5800
  345TMC3    O1 5234   2.997   0.435  10.410 -0.0289 -0.0658  0.0345
  345TMC3    O2 5235   3.350   0.469  10.602  0.2654  0.0471 -0.1553
  346MPD2     C 5236   2.913   1.249  13.643 -0.3047 -0.1793 -0.4802
  346MPD2    C1 5237   3.017   1.240  13.731  0.1958 -0.0822 -0.8010
  346MPD2    C2 5238   3.010   1.311  13.851  0.0927 -0.1496 -0.8742
  346MPD2    C3 5239   2.910   1.404  13.881  0.3160 -0.2469 -0.5415
  346MPD2    C4 5240   2.812   1.415  13.783 -0.0158 -0.6514 -0.0634
  346MPD2    C5 5241   2.812   1.340  13.669 -0.9610 -0.1872  0.0447
  346MPD2     H 5242   3.095   1.303  13.918  0.6427  0.9564 -1.4492
  346MPD2    H1 5243   2.722   1.474  13.796 -0.3075 -1.3059  0.9768
  346MPD2    H2 5244   2.903   1.193  13.551 -0.8191 -2.4291  0.9422
  346MPD2    H3 5245   2.731   1.353  13.599 -1.1644  1.1575  0.5309
  346MPD2     N 5246   2.906   1.475  14.008 -0.2372 -0.3700 -0.1058
  346MPD2    H5 5247   2.979   1.478  14.079 -1.0455 -2.5931  0.8056
  346MPD2    N1 5248   3.138   1.162  13.711  0.1148 -0.8973  0.0747
  346MPD2    H7 5249   3.204   1.150  13.786 -0.8227  2.6578  1.4302
  347TMC3    C1 5250   2.825   1.596  14.197 -0.0483  0.7096  0.0959
  347TMC3    C2 5251   2.957   1.618  14.236 -0.0104 -0.1840 -0.3238
  347TMC3    C3 5252   2.990   1.630  14.368 -0.6800  0.4845 -0.2350
  347TMC3    C4 5253   2.731   1.574  14.296 -0.4608 -0.6879  0.1054
  347TMC3    C5 5254   2.768   1.592  14.431 -0.1546  0.0270 -0.4894
  347TMC3    C6 5255   2.896   1.622  14.464  0.7093 -0.4023  0.0443
  347TMC3     C 5256   2.802   1.544  14.061  0.0670 -0.2950 -0.0750
  347TMC3     O 5257   2.690   1.547  14.019 -0.1733 -0.0745 -0.2351
  347TMC3     H 5258   3.021   1.651  14.155  0.2728 -0.7060 -0.3186
  347TMC3    H1 5259   2.633   1.545  14.261  0.7903 -2.0021 -2.3383
  347TMC3    H2 5260   2.923   1.609  14.568 -1.5070 -1.3069  0.4944
  347TMC3    C7 5261   2.675   1.566  14.539  0.3769 -0.2288 -0.4449
  347TMC3    C8 5262   3.129   1.594  14.394  0.1360 -0.1864  0.5512
  347TMC3    O1 5263   2.703   1.610  14.649 -0.3466 -0.0985  0.2719
  347TMC3    O2 5264   3.199   1.589  14.299  0.2733  0.1565 -0.6561
  348MPD2     C 5265   2.036   1.161  12.109  0.4211 -0.8579 -0.8034
  348MPD2    C1 5266   2.093   1.255  12.029 -0.1717 -0.4855 -1.0200
  348MPD2    C2 5267   2.028   1.295  11.916 -0.4518 -0.2532  0.0615
  348MPD2    C3 5268   1.906   1.237  11.880 -0.3851 -0.6279  0.4097
  348MPD2    C4 5269   1.843   1.156  11.968  0.2096 -1.4302 -0.5359
  348MPD2    C5 5270   1.907   1.124  12.082  0.3099 -0.1577 -0.1121
  348MPD2     H 5271   2.071   1.361  11.842 -2.1814  0.8658  0.0328
  348MPD2    H1 5272   1.750   1.102  11.951  0.0728 -1.0289 -1.0642
  348MPD2    H2 5273   2.083   1.116  12.196  1.6183 -1.0890 -1.5731
  348MPD2    H3 5274   1.866   1.043  12.140  0.7800  0.0443  0.5025
  348MPD2     N 5275   1.861   1.252  11.745  0.6555  0.2475  0.3270
  348MPD2    H5 5276   1.889   1.335  11.693 -0.8961  0.8984  0.5558
  348MPD2    N1 5277   2.228   1.302  12.050  0.1499 -0.3364  0.1174
  348MPD2    H7 5278   2.264   1.365  11.978 -0.5456  0.9657  0.9126
  349TMC3    C1 5279   2.449   1.264  12.098 -0.6690  0.1373  0.1602
  349TMC3    C2 5280   2.501   1.137  12.114  0.3683 -0.1692  0.2096
  349TMC3    C3 5281   2.509   1.050  12.008  0.0266  0.1553 -0.3335
  349TMC3    C4 5282   2.458   1.319  11.974  0.2424 -0.4022  0.0247
  349TMC3    C5 5283   2.475   1.228  11.867 -0.0367 -0.2839  0.2486
  349TMC3    C6 5284   2.495   1.095  11.882  0.5539 -0.1902  0.0838
  349TMC3     C 5285   2.313   1.261  12.148 -0.5896 -0.2288 -0.5023
  349TMC3     O 5286   2.295   1.222  12.265 -0.1781  0.5984 -0.1015
  349TMC3     H 5287   2.495   1.095  12.214 -1.4227  1.9375  0.9937
  349TMC3    H1 5288   2.427   1.421  11.959  2.5929  0.3531  0.3878
  349TMC3    H2 5289   2.500   1.030  11.795  0.3509  0.0628 -0.1175
  349TMC3    C7 5290   2.420   1.276  11.742  0.2866  0.2442 -0.2181
  349TMC3    C8 5291   2.497   0.909  12.040  0.6942 -0.0842 -0.0081
  349TMC3    O1 5292   2.442   1.394  11.713  0.1447 -0.1048 -0.1646
  349TMC3    O2 5293   2.499   0.872  12.157  0.4427 -0.7652  0.1095
  350MPD2     C 5294   1.110   3.649  10.124  0.1310 -0.1195 -0.1332
  350MPD2    C1 5295   1.196   3.542  10.143 -0.8703 -0.1048 -0.0674
  350MPD2    C2 5296   1.330   3.579  10.158  1.3785  0.9557 -0.5091
  350MPD2    C3 5297   1.380   3.704  10.133  0.0792 -0.2247  0.3556
  350MPD2    C4 5298   1.288   3.800  10.106 -0.5516  0.9124  0.4784
  350MPD2    C5 5299   1.149   3.773  10.099 -0.1177  0.1439  0.2929
  350MPD2     H 5300   1.407   3.508  10.187 -0.7956 -1.7952 -1.4742
  350MPD2    H1 5301   1.314   3.901  10.077  1.8692 -0.2846 -1.5389
  350MPD2    H2 5302   1.004   3.627  10.111 -0.0346  1.5362 -1.5530
  350MPD2    H3 5303   1.071   3.841  10.066  0.6572  0.5882 -0.6143
  350MPD2     N 5304   1.524   3.715  10.133 -0.2915  0.3106 -0.7352
  350MPD2    H5 5305   1.582   3.637  10.161  0.7871  0.9269 -1.2870
  350MPD2    N1 5306   1.152   3.406  10.177 -0.1485  0.6938  0.4373
  350MPD2    H7 5307   1.231   3.343  10.184  1.5903  3.0645  2.3290
  351TMC3    C1 5308   1.008   3.222  10.188  0.3965  0.3638 -0.0921
  351TMC3    C2 5309   1.092   3.146  10.112  0.3161  0.3248  0.6023
  351TMC3    C3 5310   1.067   3.012  10.086  0.5059  0.8383  0.3840
  351TMC3    C4 5311   0.884   3.180  10.223  0.0140 -0.4150 -0.5809
  351TMC3    C5 5312   0.858   3.043  10.193 -0.4951 -0.2171  0.5851
  351TMC3    C6 5313   0.947   2.963  10.118 -0.5257  0.1581 -0.0603
  351TMC3     C 5314   1.023   3.363  10.172  0.2341 -0.1960  0.0954
  351TMC3     O 5315   0.920   3.426  10.178  1.0430  0.1234  0.5711
  351TMC3     H 5316   1.177   3.192  10.063 -0.4629 -1.3326 -2.3410
  351TMC3    H1 5317   0.810   3.243  10.272 -0.1629 -1.5236  0.5759
  351TMC3    H2 5318   0.927   2.861  10.087 -2.2591  0.6454 -0.5766
  351TMC3    C7 5319   0.719   3.001  10.216 -0.4683 -0.2017  1.0028
  351TMC3    C8 5320   1.169   2.930  10.019  0.2328 -0.2985 -0.0360
  351TMC3    O1 5321   0.650   3.087  10.262 -0.1456 -0.1904 -0.0345
  351TMC3    O2 5322   1.127   2.827   9.972 -0.1517  0.0139  0.0661
  352MPD2     C 5323   4.115   0.625   0.496  0.2643  0.2023 -0.5608
  352MPD2    C1 5324   4.033   0.595   0.603 -0.0009  0.5781 -0.4048
  352MPD2    C2 5325   4.020   0.461   0.639  0.2271  0.0563  0.7233
  352MPD2    C3 5326   4.109   0.366   0.586  0.5099 -0.0271  0.6516
  352MPD2    C4 5327   4.199   0.411   0.494 -0.0429  0.1119  0.1587
  352MPD2    C5 5328   4.201   0.537   0.448  0.1599 -0.5113 -1.3397
  352MPD2     H 5329   3.946   0.434   0.714  0.8308 -0.1125  1.2601
  352MPD2    H1 5330   4.262   0.340   0.442  1.4881  0.9878  0.8035
  352MPD2    H2 5331   4.133   0.722   0.450 -0.3274 -0.1568 -1.5470
  352MPD2    H3 5332   4.277   0.560   0.374 -0.1018 -0.3319 -1.5495
  352MPD2     N 5333   4.092   0.225   0.599  0.4601 -0.6815  0.3526
  352MPD2    H5 5334   4.168   0.168   0.564  1.0093 -0.3674  1.0337
  352MPD2    N1 5335   3.968   0.706   0.665 -0.0709  0.2411 -0.1227
  352MPD2    H7 5336   3.986   0.798   0.626 -1.3377  1.0415  1.1848
  353TMC3    C1 5337   3.989   0.029   0.684 -0.3817  0.5428 -0.4878
  353TMC3    C2 5338   4.110   4.699   0.672 -0.2561  0.6407 -0.2875
  353TMC3    C3 5339   4.112   4.565   0.653  0.5079 -0.4423 -0.1566
  353TMC3    C4 5340   3.873   4.699   0.676 -0.7612  0.2856  0.2223
  353TMC3    C5 5341   3.883   4.564   0.659  0.6464 -0.8125 -0.2466
  353TMC3    C6 5342   3.994   4.493   0.643  1.1031  0.4046 -0.3515
  353TMC3     C 5343   3.984   0.172   0.666  0.1436  0.2838 -0.8746
  353TMC3     O 5344   3.872   0.210   0.690 -0.1135 -0.2065 -0.0390
  353TMC3     H 5345   4.199   0.015   0.701 -1.0202  1.2545  0.9091
  353TMC3    H1 5346   3.777   0.008   0.662 -0.1295  1.9063  1.4955
  353TMC3    H2 5347   3.994   4.391   0.605 -1.4237  0.4443 -0.4908
  353TMC3    C7 5348   3.752   4.487   0.651 -0.0945 -0.4217  0.0297
  353TMC3    C8 5349   4.233   4.490   0.679 -0.5933  0.2224  0.8686
  353TMC3    O1 5350   3.757   4.376   0.606 -0.0322  0.7552 -0.2152
  353TMC3    O2 5351   4.337   4.548   0.664  0.1720  0.1155  0.4004
  354TMC3    C1 5352   1.512   1.825  13.556 -0.6738  0.3345  0.1312
  354TMC3    C2 5353   1.570   1.944  13.581 -0.0427  0.3051 -0.1873
  354TMC3    C3 5354   1.570   2.032  13.479 -0.5008 -0.4497  0.4257
  354TMC3    C4 5355   1.450   1.793  13.438  0.3967 -0.2607 -0.1240
  354TMC3    C5 5356   1.461   1.885  13.337 -0.4958 -0.2080  0.4547
  354TMC3    C6 5357   1.528   2.003  13.350 -0.5993  0.3184  0.1055
  354TMC3     C 5358   1.457   1.760  13.671  0.0506 -0.0157 -0.9643
  354TMC3     O 5359   1.341   1.720  13.665 -0.0023 -0.1050  0.4557
  354TMC3     H 5360   1.607   1.962  13.682 -0.6507 -1.8754  0.4320
  354TMC3    H1 5361   1.421   1.689  13.429 -3.6215  0.7939  0.6708
  354TMC3    H2 5362   1.572   2.066  13.273 -1.1027  0.2179 -0.2636
  354TMC3    C7 5363   1.413   1.854  13.203 -0.1182 -0.5096 -0.0841
  354TMC3    C8 5364   1.581   2.168  13.506  0.0979 -0.9731 -0.1155
  354TMC3    O1 5365   1.423   1.742  13.163  0.2706 -0.6623  0.2734
  354TMC3    O2 5366   1.645   2.182  13.612  0.7942  0.0125  0.0491
  355MPD2     C 5367   1.587   2.863  12.059  0.0212  0.1901  0.4669
  355MPD2    C1 5368   1.653   2.853  11.936  0.1530 -0.0396  0.4124
  355MPD2    C2 5369   1.736   2.746  11.921  1.0696  1.5486 -0.1293
  355MPD2    C3 5370   1.752   2.650  12.019  0.7452 -0.0796 -0.4684
  355MPD2    C4 5371   1.661   2.654  12.126  0.2166 -0.7844 -0.4115
  355MPD2    C5 5372   1.590   2.763  12.150 -0.2903  0.3520 -0.0577
  355MPD2     H 5373   1.789   2.732  11.828  0.4339  2.4633 -0.6303
  355MPD2    H1 5374   1.656   2.572  12.197 -0.3838  0.6435  1.1988
  355MPD2    H2 5375   1.550   2.960  12.088  2.1885  0.4423  2.3496
  355MPD2    H3 5376   1.540   2.773  12.245 -1.0408 -0.6691 -0.3423
  355MPD2     N 5377   1.842   2.544  11.997 -0.5526 -0.6515 -0.0670
  355MPD2    H5 5378   1.807   2.458  12.039  2.5482 -0.3297  3.1862
  355MPD2    N1 5379   1.630   2.961  11.848  0.5358 -0.3363 -0.4108
  355MPD2    H7 5380   1.584   3.045  11.881  2.4679  0.9539 -1.0034
  356TMC3    C1 5381   2.031   2.687  11.935  0.4256  0.0527 -0.4591
  356TMC3    C2 5382   2.079   2.752  11.821  0.5033  0.1459 -0.3975
  356TMC3    C3 5383   2.126   2.882  11.844  0.1402  0.2861  0.0585
  356TMC3    C4 5384   2.032   2.742  12.065  0.2649 -0.1266  0.0081
  356TMC3    C5 5385   2.084   2.871  12.077  0.1321  0.7109 -0.2743
  356TMC3    C6 5386   2.131   2.940  11.972 -0.1202 -0.4111 -0.1215
  356TMC3     C 5387   1.955   2.556  11.916  0.4016 -0.4456  0.1210
  356TMC3     O 5388   2.000   2.470  11.842 -0.2666 -0.0396  0.3374
  356TMC3     H 5389   2.068   2.702  11.725  3.0941  1.1597 -1.2148
  356TMC3    H1 5390   1.996   2.679  12.146  1.7069 -0.0118  0.7417
  356TMC3    H2 5391   2.192   3.027  11.992  1.0379 -1.1322 -0.4752
  356TMC3    C7 5392   2.083   2.925  12.213  0.0033 -0.2207 -0.1890
  356TMC3    C8 5393   2.161   2.961  11.731 -0.3059 -0.4727 -0.1365
  356TMC3    O1 5394   2.053   2.844  12.295  0.8656  0.3617  0.2469
  356TMC3    O2 5395   2.162   2.907  11.623  0.0745  0.0412  0.4269
  357MPD2     C 5396   0.321   1.175   1.243  0.2240 -0.5989  0.1367
  357MPD2    C1 5397   0.212   1.157   1.317  0.3796 -0.1067  0.6507
  357MPD2    C2 5398   0.155   1.263   1.389  0.2589  0.1855  0.1202
  357MPD2    C3 5399   0.226   1.383   1.402 -0.3951 -0.3921  0.0313
  357MPD2    C4 5400   0.340   1.397   1.323 -0.2221 -0.1020  0.8025
  357MPD2    C5 5401   0.391   1.292   1.249  0.4687  0.2818 -0.8555
  357MPD2     H 5402   0.057   1.257   1.435 -0.2802 -1.4277 -1.2281
  357MPD2    H1 5403   0.390   1.493   1.323  0.5048 -0.4806  2.1159
  357MPD2    H2 5404   0.352   1.106   1.165  1.0159 -0.0655 -0.0314
  357MPD2    H3 5405   0.485   1.313   1.200  1.2325 -0.0883  0.4351
  357MPD2     N 5406   0.186   1.498   1.477 -0.2317 -0.0480  0.3407
  357MPD2    H5 5407   0.250   1.576   1.491  0.6167 -0.0355 -3.4021
  357MPD2    N1 5408   0.151   1.041   1.292 -0.2786 -0.5284  0.0688
  357MPD2    H7 5409   0.198   0.979   1.226 -0.9659 -0.9297 -0.0474
  358TMC3    C1 5410   4.728   0.881   1.283  0.4080 -0.2241  1.2287
  358TMC3    C2 5411   0.018   0.876   1.145 -0.1021  0.0310  0.4392
  358TMC3    C3 5412   4.685   0.787   1.075 -0.1391 -0.3416 -0.7070
  358TMC3    C4 5413   4.632   0.806   1.343 -0.8827 -0.1852 -0.5605
  358TMC3    C5 5414   4.560   0.723   1.263 -0.4346  0.3157  0.3711
  358TMC3    C6 5415   4.589   0.706   1.133 -0.1806  0.1778 -0.0518
  358TMC3     C 5416   0.038   0.998   1.359 -0.6534 -0.2582 -0.4052
  358TMC3     O 5417   4.706   1.045   1.451 -0.2229 -0.1854 -0.1329
  358TMC3     H 5418   0.080   0.949   1.095 -0.2637 -0.8924 -1.1100
  358TMC3    H1 5419   4.624   0.811   1.451 -0.3823  1.8893 -0.6221
  358TMC3    H2 5420   4.518   0.651   1.072  0.7760 -0.7926 -0.3001
  358TMC3    C7 5421   4.457   0.635   1.316 -0.1633  0.0119 -0.5686
  358TMC3    C8 5422   4.700   0.787   0.929  0.5788  0.8097 -0.8732
  358TMC3    O1 5423   4.416   0.551   1.239 -0.6645  0.3659 -0.0684
  358TMC3    O2 5424   0.039   0.870   0.885 -0.2644 -0.0229 -0.2337
  359MPD2     C 5425   1.389   1.894  12.476 -0.0054 -0.5431 -0.0329
  359MPD2    C1 5426   1.393   1.758  12.453  0.5280  0.1540 -0.8810
  359MPD2    C2 5427   1.278   1.679  12.473 -0.4040  0.4759  0.8175
  359MPD2    C3 5428   1.155   1.737  12.488 -0.4197 -0.5026 -0.0387
  359MPD2    C4 5429   1.150   1.873  12.529  0.5433 -0.3838 -0.7351
  359MPD2    C5 5430   1.271   1.947  12.527 -0.4063 -0.1264 -0.2717
  359MPD2     H 5431   1.299   1.575  12.448  0.4640  1.7961 -4.0715
  359MPD2    H1 5432   1.055   1.923  12.540  2.0936  2.4544 -0.1656
  359MPD2    H2 5433   1.474   1.961  12.474 -0.1813 -0.3015  0.3970
  359MPD2    H3 5434   1.270   2.053  12.551 -0.8898 -0.0149 -0.7896
  359MPD2     N 5435   1.029   1.666  12.502 -0.6662  0.6428  0.4981
  359MPD2    H5 5436   0.940   1.715  12.508 -1.4661 -0.7935  0.4179
  359MPD2    N1 5437   1.507   1.697  12.394 -0.2856  0.3675  0.3492
  359MPD2    H7 5438   1.493   1.600  12.366  0.7934  0.6788 -1.2462
  360TMC3    C1 5439   1.744   1.664  12.337 -0.7039  0.4178 -0.0431
  360TMC3    C2 5440   1.862   1.674  12.401  0.1905 -0.3599  0.6809
  360TMC3    C3 5441   1.975   1.622  12.330 -0.2382 -0.1186  0.9397
  360TMC3    C4 5442   1.719   1.571  12.241  0.0975  0.4121 -0.5799
  360TMC3    C5 5443   1.828   1.515  12.178  0.5409  0.3630 -0.7420
  360TMC3    C6 5444   1.956   1.542  12.221 -0.8490  0.1997  0.1870
  360TMC3     C 5445   1.636   1.755  12.391  0.6619 -0.9396  0.1828
  360TMC3     O 5446   1.670   1.843  12.462 -0.3514  0.3089  0.3900
  360TMC3     H 5447   1.874   1.745  12.482 -2.1169  1.0526 -0.2280
  360TMC3    H1 5448   1.625   1.577  12.186  0.1188  2.3129 -0.4109
  360TMC3    H2 5449   2.038   1.495  12.169 -0.8452  1.3033 -0.8222
  360TMC3    C7 5450   1.804   1.531  12.038  0.3269  0.3410  0.4595
  360TMC3    C8 5451   2.103   1.640  12.390 -0.4241  0.0860 -0.0975
  360TMC3    O1 5452   1.860   1.625  11.991  0.5481 -0.1719 -0.0806
  360TMC3    O2 5453   2.122   1.656  12.511  0.7590 -0.0113 -0.1341
  361MPD2     C 5454   3.105   0.446  16.496  0.1155 -0.2787  0.4893
  361MPD2    C1 5455   3.025   0.421  16.605  0.0525  0.6597 -0.6069
  361MPD2    C2 5456   3.051   0.306  16.672 -0.2469  0.4761  0.3534
  361MPD2    C3 5457   3.162   0.228  16.646  0.2578  0.5483  0.0514
  361MPD2    C4 5458   3.256   0.267  16.553  0.7781  0.0286  0.1002
  361MPD2    C5 5459   3.227   0.379  16.476 -0.2987  1.1597 -0.0056
  361MPD2     H 5460   2.972   0.265  16.735  0.1888 -2.0312 -0.7564
  361MPD2    H1 5461   3.342   0.208  16.524  0.1644 -0.3136 -1.0465
  361MPD2    H2 5462   3.076   0.523  16.426 -1.1282 -1.6733 -0.5287
  361MPD2    H3 5463   3.283   0.403  16.386 -0.1624  1.7898  0.2434
  361MPD2     N 5464   3.182   0.104  16.712  0.3108  0.7089  0.3964
  361MPD2    H5 5465   3.250   0.035  16.681 -0.3085  1.1137 -1.8409
  361MPD2    N1 5466   2.913   0.504  16.633  0.3744 -0.4706 -0.1712
  361MPD2    H7 5467   2.899   0.585  16.574  5.0493 -1.1669 -2.2790
  362TMC3    C1 5468   2.719   0.592  16.743 -0.2015 -0.8816  0.1410
  362TMC3    C2 5469   2.649   0.602  16.861  0.6430 -0.1779  0.9909
  362TMC3    C3 5470   2.535   0.680  16.870  0.2320 -0.4465  0.2902
  362TMC3    C4 5471   2.680   0.660  16.628  0.4532 -0.1067  0.1464
  362TMC3    C5 5472   2.557   0.721  16.638  0.7911  0.2711  0.6906
  362TMC3    C6 5473   2.490   0.744  16.760 -0.5502 -0.5397  0.1137
  362TMC3     C 5474   2.827   0.493  16.739 -0.6577 -0.0052 -0.1937
  362TMC3     O 5475   2.849   0.439  16.845 -0.2159  0.2513 -0.7444
  362TMC3     H 5476   2.695   0.558  16.949  1.3388  0.7898  1.1109
  362TMC3    H1 5477   2.739   0.645  16.539  0.1934  0.0948 -0.0606
  362TMC3    H2 5478   2.397   0.800  16.768 -0.5511 -0.4268 -0.7172
  362TMC3    C7 5479   2.487   0.757  16.516  0.2840  0.0362  0.0881
  362TMC3    C8 5480   2.425   0.618  16.950 -0.1625 -1.1164  0.4986
  362TMC3    O1 5481   2.382   0.821  16.528 -0.0742  0.6616  0.4477
  362TMC3    O2 5482   2.405   0.497  16.929 -0.8146 -0.1282  0.3055
  363TMC3    C1 5483   1.584   2.737   9.377 -0.7973  0.1335 -0.2232
  363TMC3    C2 5484   1.711   2.766   9.423  0.1243  0.4220  0.7850
  363TMC3    C3 5485   1.730   2.900   9.451  0.2076 -0.1359 -0.1485
  363TMC3    C4 5486   1.478   2.825   9.369  0.8694 -0.3162 -0.2147
  363TMC3    C5 5487   1.511   2.956   9.410 -0.4218  1.1569 -0.6179
  363TMC3    C6 5488   1.632   2.995   9.454 -0.1502 -0.1879 -0.6040
  363TMC3     C 5489   1.576   2.605   9.318 -0.8907 -0.1235 -0.1316
  363TMC3     O 5490   1.657   2.520   9.351 -0.3531  0.0873  0.4137
  363TMC3     H 5491   1.784   2.689   9.438  0.4476  0.4261 -0.7120
  363TMC3    H1 5492   1.378   2.801   9.334 -0.6538  0.7576  3.3735
  363TMC3    H2 5493   1.660   3.093   9.490 -0.6484 -0.2842  0.0510
  363TMC3    C7 5494   1.409   3.055   9.430 -0.3409  0.8067 -0.1585
  363TMC3    C8 5495   1.857   2.933   9.520  0.4463 -0.2847  0.9780
  363TMC3    O1 5496   1.440   3.170   9.455  0.0337  0.3829 -0.1681
  363TMC3    O2 5497   1.861   3.041   9.582  0.4330  0.4448  0.0883
  364MPD2     C 5498   0.854   2.458  10.572  0.3824 -0.0244  0.3350
  364MPD2    C1 5499   0.958   2.390  10.517  0.1259  0.4282  0.4385
  364MPD2    C2 5500   0.950   2.254  10.522  0.0871 -0.1015  0.2623
  364MPD2    C3 5501   0.847   2.193  10.584 -0.2935  0.3034  0.4165
  364MPD2    C4 5502   0.749   2.262  10.650  0.0782  0.2699 -0.3048
  364MPD2    C5 5503   0.754   2.400  10.637  0.5857  0.6538  0.0388
  364MPD2     H 5504   1.031   2.193  10.486 -0.1321 -0.2505  0.0205
  364MPD2    H1 5505   0.676   2.212  10.712 -0.1319  0.0015 -0.7717
  364MPD2    H2 5506   0.864   2.565  10.578 -1.6188  0.1559  0.4240
  364MPD2    H3 5507   0.678   2.467  10.676  0.9942  0.4742  1.1253
  364MPD2     N 5508   0.851   2.050  10.607 -0.2356 -0.8022  0.0207
  364MPD2    H5 5509   0.798   2.017  10.686  2.2875 -1.7832  1.2950
  364MPD2    N1 5510   1.064   2.460  10.462 -0.1625  0.2382  0.1936
  364MPD2    H7 5511   1.050   2.560  10.464 -0.9334  0.1168  0.9230
  365TMC3    C1 5512   1.257   2.511  10.343 -0.4518 -0.2521  0.5469
  365TMC3    C2 5513   1.341   2.471  10.244  0.5704  0.8491 -0.1248
  365TMC3    C3 5514   1.413   2.562  10.175  0.4759  0.8486 -0.3383
  365TMC3    C4 5515   1.240   2.642  10.382  0.2682 -0.1152 -0.0746
  365TMC3    C5 5516   1.313   2.737  10.310 -0.3618  0.3501 -0.5444
  365TMC3    C6 5517   1.402   2.696  10.213  0.0488  0.4897  0.0055
  365TMC3     C 5518   1.172   2.404  10.402 -0.1027  0.1873 -0.0459
  365TMC3     O 5519   1.198   2.282  10.390 -0.2952 -0.0013  0.0838
  365TMC3     H 5520   1.338   2.369  10.208 -0.6357  1.2686 -1.2104
  365TMC3    H1 5521   1.194   2.665  10.477  0.2786 -2.0430  0.3956
  365TMC3    H2 5522   1.457   2.767  10.153  0.6892  0.1885  0.2359
  365TMC3    C7 5523   1.296   2.881  10.338  0.3380 -0.1812  0.3627
  365TMC3    C8 5524   1.530   2.521  10.104  0.2532  0.8602  0.2557
  365TMC3    O1 5525   1.394   2.953  10.311  1.0505 -0.3800  0.3163
  365TMC3    O2 5526   1.609   2.611  10.074 -1.1161  0.0615  0.2041
  366MPD2     C 5527   3.557   3.051  15.052 -0.1314  0.0398  0.9806
  366MPD2    C1 5528   3.608   3.154  14.981 -0.2150 -0.1787 -0.8415
  366MPD2    C2 5529   3.751   3.164  14.965  0.3171  0.6278 -0.7936
  366MPD2    C3 5530   3.832   3.077  15.029  0.0024 -0.3636 -0.1840
  366MPD2    C4 5531   3.775   2.975  15.107  0.6513 -0.1028  0.7513
  366MPD2    C5 5532   3.640   2.960  15.109 -0.1185 -0.6109 -0.4598
  366MPD2     H 5533   3.793   3.248  14.913  1.8407 -0.4647 -1.3205
  366MPD2    H1 5534   3.834   2.893  15.146 -2.0617 -0.9862  2.9795
  366MPD2    H2 5535   3.451   3.029  15.058 -0.0405 -0.3054  1.3735
  366MPD2    H3 5536   3.607   2.882  15.177  1.0364 -0.5190  0.2024
  366MPD2     N 5537   3.976   3.095  15.026 -0.1823  0.2188  0.1262
  366MPD2    H5 5538   4.003   3.168  14.960 -0.8576 -0.7263 -1.1826
  366MPD2    N1 5539   3.529   3.258  14.931 -0.1839  0.3847  0.4300
  366MPD2    H7 5540   3.566   3.341  14.887 -1.4416 -0.6269 -2.5187
  367TMC3    C1 5541   3.385   3.428  14.989 -0.0181 -0.2442 -0.1007
  367TMC3    C2 5542   3.487   3.498  15.041  0.5066  0.3532 -0.3785
  367TMC3    C3 5543   3.463   3.613  15.111  0.5335 -0.1331 -0.3494
  367TMC3    C4 5544   3.254   3.472  14.998  0.2407  0.6049 -0.2748
  367TMC3    C5 5545   3.235   3.576  15.086  0.0257  0.5556  0.4104
  367TMC3    C6 5546   3.334   3.652  15.140  0.1391  0.2129  0.4364
  367TMC3     C 5547   3.411   3.285  14.986 -0.4436  0.5263 -0.1956
  367TMC3     O 5548   3.321   3.215  15.026 -0.0983  0.1747 -0.6064
  367TMC3     H 5549   3.590   3.467  15.027 -0.5657 -2.2183 -2.4880
  367TMC3    H1 5550   3.175   3.400  14.980  1.7176 -1.1698  0.4011
  367TMC3    H2 5551   3.310   3.736  15.204  0.4577  0.7765 -0.1819
  367TMC3    C7 5552   3.111   3.647  15.082  0.2296 -0.1012  0.7807
  367TMC3    C8 5553   3.575   3.701  15.127  0.4830 -0.3438  0.0590
  367TMC3    O1 5554   3.095   3.737  15.164 -0.0704 -0.3521  0.1276
  367TMC3    O2 5555   3.687   3.660  15.107  0.4322 -0.1965 -0.1493
  368MPD2     C 5556   4.722   0.821  12.944 -0.3656  0.1311 -0.1435
  368MPD2    C1 5557   4.714   0.919  12.850  0.2502 -0.2258  0.4551
  368MPD2    C2 5558   0.053   0.916  12.731 -0.1134 -0.5996  0.0554
  368MPD2    C3 5559   0.153   0.820  12.718  0.7462 -0.2372 -0.1779
  368MPD2    C4 5560   0.178   0.737  12.828  0.4770 -0.5085  0.4773
  368MPD2    C5 5561   0.092   0.729  12.939  0.5044 -0.1755  0.0969
  368MPD2     H 5562   0.033   0.987  12.652 -0.8730 -1.8864 -0.8868
  368MPD2    H1 5563   0.263   0.670  12.827 -1.3039 -2.7292 -0.3158
  368MPD2    H2 5564   4.648   0.819  13.024  3.0837 -1.1817  3.0446
  368MPD2    H3 5565   0.097   0.648  13.010 -2.0293  0.2815  0.8076
  368MPD2     N 5566   0.222   0.802  12.593 -0.0222  0.1469 -0.2484
  368MPD2    H5 5567   0.297   0.734  12.600  0.1290  0.2584 -0.7980
  368MPD2    N1 5568   4.610   1.009  12.871 -0.0550 -0.0302  0.3885
  368MPD2    H7 5569   4.561   0.988  12.958 -1.1350  0.4676 -0.1050
  369TMC3    C1 5570   4.489   1.209  12.854 -0.6313  0.4298 -0.0129
  369TMC3    C2 5571   4.515   1.338  12.850  0.0915 -0.0683 -0.1523
  369TMC3    C3 5572   4.408   1.424  12.863  0.4030 -0.2136 -0.5910
  369TMC3    C4 5573   4.367   1.157  12.890 -0.1587 -0.1693  0.6746
  369TMC3    C5 5574   4.264   1.245  12.899  0.3525 -0.0636 -0.6184
  369TMC3    C6 5575   4.277   1.378  12.881 -0.4123  0.6764  0.3375
  369TMC3     C 5576   4.585   1.118  12.798  0.1097  0.2620  0.3896
  369TMC3     O 5577   4.657   1.165  12.711  0.0255  0.1777  0.2695
  369TMC3     H 5578   4.615   1.373  12.825  1.0304 -0.9812  2.3043
  369TMC3    H1 5579   4.346   1.051  12.900  0.0025 -0.0731  2.0329
  369TMC3    H2 5580   4.193   1.446  12.869  1.2956  2.4508 -1.5161
  369TMC3    C7 5581   4.140   1.183  12.937 -0.1150  0.1886  0.3890
  369TMC3    C8 5582   4.433   1.562  12.825 -0.4913 -0.2566 -0.3540
  369TMC3    O1 5583   4.065   1.239  13.015  0.3370 -0.0313 -1.0353
  369TMC3    O2 5584   4.336   1.627  12.783  0.1673  0.2431  0.2747
  370TMC3    C1 5585   4.053   1.066  16.273  0.4896 -0.5365 -0.0637
  370TMC3    C2 5586   4.009   0.968  16.354  0.3236  0.9069 -0.7574
  370TMC3    C3 5587   3.971   0.842  16.304  0.0786  0.6406  0.0806
  370TMC3    C4 5588   4.073   1.041  16.141  0.2084 -0.0844 -0.3662
  370TMC3    C5 5589   4.049   0.913  16.097 -0.5214  0.0896 -0.9807
  370TMC3    C6 5590   3.997   0.814  16.176  0.3752 -0.2603 -0.5442
  370TMC3     C 5591   4.114   1.184  16.331  0.7568 -0.1133 -0.4140
  370TMC3     O 5592   4.154   1.174  16.445 -0.4429  0.1534 -0.3800
  370TMC3     H 5593   4.001   1.002  16.457 -0.0610 -0.1793 -0.4328
  370TMC3    H1 5594   4.123   1.117  16.082  0.3710  1.4637  1.7669
  370TMC3    H2 5595   3.970   0.720  16.131 -1.2921 -0.4663  0.8841
  370TMC3    C7 5596   4.140   0.867  15.994  0.4980  0.1410 -0.4548
  370TMC3    C8 5597   3.937   0.731  16.383  0.5512  0.6758 -0.2813
  370TMC3    O1 5598   4.165   0.952  15.911 -1.0417  0.5101 -0.0030
  370TMC3    O2 5599   3.952   0.616  16.347  0.1397 -0.3962  0.2693
  371TMC3    C1 5600   0.703   4.233  15.358 -0.3177  0.2465 -0.1127
  371TMC3    C2 5601   0.602   4.213  15.447  0.0320 -0.2969 -0.3618
  371TMC3    C3 5602   0.569   4.320  15.529  0.0070 -0.2017  0.3906
  371TMC3    C4 5603   0.765   4.355  15.344 -0.0065  0.4348  0.3978
  371TMC3    C5 5604   0.728   4.459  15.435  0.0371 -0.2734  0.2085
  371TMC3    C6 5605   0.626   4.447  15.524  0.0617 -0.6433 -0.2718
  371TMC3     C 5606   0.771   4.126  15.295 -0.2559 -0.1137 -0.6022
  371TMC3     O 5607   0.860   4.149  15.215 -0.5378  0.0820 -0.2750
  371TMC3     H 5608   0.531   4.132  15.454 -1.7894  1.2905 -0.1647
  371TMC3    H1 5609   0.835   4.370  15.263  1.9635 -1.4381  1.7421
  371TMC3    H2 5610   0.602   4.526  15.594 -0.2544 -1.5182  0.6142
  371TMC3    C7 5611   0.797   4.586  15.433  0.1891  0.0060 -0.2252
  371TMC3    C8 5612   0.475   4.288  15.632  0.1117 -0.0828 -0.0247
  371TMC3    O1 5613   0.771   4.684  15.500 -0.0601 -0.3743  0.5401
  371TMC3    O2 5614   0.453   4.166  15.644 -0.1474  0.2371 -0.2109
  372MPD2     C 5615   1.463   0.992  13.507 -0.4520 -0.6039  0.3381
  372MPD2    C1 5616   1.455   0.920  13.626 -0.3630 -0.1354 -0.1953
  372MPD2    C2 5617   1.340   0.845  13.655  0.0780 -0.4127 -0.0740
  372MPD2    C3 5618   1.243   0.824  13.556 -0.4389 -0.8676 -0.1639
  372MPD2    C4 5619   1.251   0.889  13.436  0.2592 -0.4421  0.4512
  372MPD2    C5 5620   1.361   0.966  13.412 -0.0959  0.6892  0.1980
  372MPD2     H 5621   1.326   0.793  13.749 -1.4716  0.2634  0.0599
  372MPD2    H1 5622   1.179   0.884  13.355  0.4439 -0.2844  0.2801
  372MPD2    H2 5623   1.542   1.060  13.477 -0.8292 -0.7936 -1.0949
  372MPD2    H3 5624   1.354   1.020  13.318  0.2286  0.9264  0.3067
  372MPD2     N 5625   1.129   0.751  13.594  0.9520 -0.0506  1.0634
  372MPD2    H5 5626   1.113   0.727  13.692 -1.0127 -2.3457  0.1986
  372MPD2    N1 5627   1.556   0.915  13.719  0.0611  0.9311  0.0484
  372MPD2    H7 5628   1.540   0.863  13.804 -0.9259 -0.2263 -0.8425
  373TMC3    C1 5629   0.928   0.633  13.579 -0.0606  0.0420  0.3901
  373TMC3    C2 5630   0.893   0.677  13.706  0.4490  0.5370  0.1160
  373TMC3    C3 5631   0.767   0.642  13.750  0.0748  0.3204  0.1778
  373TMC3    C4 5632   0.859   0.549  13.500  0.0206 -0.7160  0.2249
  373TMC3    C5 5633   0.740   0.506  13.556  0.6760 -0.3536 -0.9193
  373TMC3    C6 5634   0.697   0.546  13.681  0.4445 -0.8482  0.2203
  373TMC3     C 5635   1.028   0.709  13.510  0.8139  0.2567 -0.0651
  373TMC3     O 5636   1.020   0.706  13.388  0.1729  0.0328 -0.5244
  373TMC3     H 5637   0.949   0.752  13.760 -0.2482  2.1268 -1.3307
  373TMC3    H1 5638   0.874   0.524  13.396 -0.2307  2.8449 -0.6479
  373TMC3    H2 5639   0.603   0.507  13.719 -0.0310  1.1862  1.1410
  373TMC3    C7 5640   0.677   0.393  13.494 -0.2452 -0.4326  0.1513
  373TMC3    C8 5641   0.750   0.680  13.886 -0.5183  0.2369  0.4047
  373TMC3    O1 5642   0.740   0.345  13.400  0.0679 -0.4171  0.1080
  373TMC3    O2 5643   0.826   0.763  13.930 -0.5923 -0.0771  0.3197
  374TMC3    C1 5644   0.568   0.951   9.624 -0.2608  0.0810  0.0332
  374TMC3    C2 5645   0.700   0.932   9.626 -0.6781 -0.2505 -0.0886
  374TMC3    C3 5646   0.767   0.904   9.740  0.4690  0.2538  0.2402
  374TMC3    C4 5647   0.494   0.936   9.736 -0.1214 -0.0509 -0.0531
  374TMC3    C5 5648   0.563   0.901   9.855  0.8054  0.3264 -0.2866
  374TMC3    C6 5649   0.698   0.875   9.857  0.1559 -0.3664  0.1667
  374TMC3     C 5650   0.518   1.036   9.511  0.4217  0.3608 -0.4671
  374TMC3     O 5651   0.607   1.111   9.464  0.2349 -0.4977 -0.5271
  374TMC3     H 5652   0.768   0.956   9.545  1.0664  1.1947  1.8063
  374TMC3    H1 5653   0.391   0.970   9.744  0.4464  1.2813  1.3844
  374TMC3    H2 5654   0.739   0.834   9.948 -0.9266 -2.3031 -0.2169
  374TMC3    C7 5655   0.485   0.833   9.956 -0.6045 -0.3990 -0.3110
  374TMC3    C8 5656   0.900   0.863   9.722 -0.2327 -0.3541 -0.0421
  374TMC3    O1 5657   0.555   0.766  10.028  0.2326 -0.0886  0.0626
  374TMC3    O2 5658   0.931   0.804   9.619 -0.6224 -0.1586  0.1134
  375MPD2     C 5659   0.338   1.130  17.307 -0.7196 -0.4805 -0.7517
  375MPD2    C1 5660   0.325   1.221  17.209 -0.3022 -0.4651  0.0478
  375MPD2    C2 5661   0.398   1.210  17.092 -0.0323 -0.3670  0.1815
  375MPD2    C3 5662   0.488   1.102  17.078  0.0814 -0.0139 -0.6802
  375MPD2    C4 5663   0.501   1.010  17.177 -0.3208  0.4331  0.2005
  375MPD2    C5 5664   0.426   1.024  17.297 -0.0943  0.2547 -0.7438
  375MPD2     H 5665   0.380   1.284  17.015 -0.3942 -0.9628 -0.3002
  375MPD2    H1 5666   0.570   0.928  17.158  0.5283  1.3333 -0.6346
  375MPD2    H2 5667   0.296   1.138  17.407 -0.1893 -0.9405 -0.5012
  375MPD2    H3 5668   0.440   0.947  17.372  1.4255  0.5978 -0.6602
  375MPD2     N 5669   0.572   1.081  16.965  0.2698  0.5762 -0.1789
  375MPD2    H5 5670   0.633   1.002  16.949  0.6495  0.7345  0.5103
  375MPD2    N1 5671   0.248   1.341  17.232  0.0021  0.3812 -0.2043
  375MPD2    H7 5672   0.261   1.413  17.163  0.6325  1.2360  0.8208
  376TMC3    C1 5673   0.625   1.099  16.736  0.5627  0.0969 -0.3818
  376TMC3    C2 5674   0.744   1.023  16.749 -0.3597  0.2000 -0.3871
  376TMC3    C3 5675   0.811   0.999  16.630  0.0206 -0.6639 -0.0934
  376TMC3    C4 5676   0.582   1.139  16.614 -0.1006  0.1661 -0.5864
  376TMC3    C5 5677   0.635   1.095  16.498 -0.6937 -0.2663  0.1039
  376TMC3    C6 5678   0.752   1.015  16.507  0.3442  0.4622  0.4119
  376TMC3     C 5679   0.567   1.161  16.853  0.0714 -0.2687  0.1506
  376TMC3     O 5680   0.516   1.273  16.838  0.3405  0.1759 -0.3294
  376TMC3     H 5681   0.783   0.998  16.847  0.1001  2.7162  0.0727
  376TMC3    H1 5682   0.508   1.218  16.610 -1.5752 -1.1980 -0.3527
  376TMC3    H2 5683   0.801   0.978  16.418 -0.4643  1.6683 -0.5375
  376TMC3    C7 5684   0.576   1.149  16.375  0.3142 -0.0808 -0.5104
  376TMC3    C8 5685   0.939   0.942  16.633 -0.4140 -0.3383 -0.0747
  376TMC3    O1 5686   0.508   1.250  16.393 -0.1697 -0.0522  0.5035
  376TMC3    O2 5687   0.980   0.911  16.744 -0.2705  0.0582  0.1044
  377MPD2     C 5688   3.618   1.293  12.060  0.6426 -0.3749  0.1988
  377MPD2    C1 5689   3.693   1.255  12.161 -0.2898  0.2979 -0.0643
  377MPD2    C2 5690   3.629   1.236  12.276 -0.0031 -0.9771 -0.5355
  377MPD2    C3 5691   3.488   1.242  12.291 -0.1977  0.2418 -0.2804
  377MPD2    C4 5692   3.416   1.295  12.190  1.1432 -0.2207  0.7304
  377MPD2    C5 5693   3.482   1.307  12.073 -0.0350  0.3397  0.8124
  377MPD2     H 5694   3.686   1.193  12.357  2.5096  1.7356 -0.8966
  377MPD2    H1 5695   3.312   1.321  12.204  0.9670 -1.1796  1.2534
  377MPD2    H2 5696   3.666   1.301  11.963 -0.4020  1.3854 -0.1800
  377MPD2    H3 5697   3.423   1.335  11.987  2.5568  1.8860 -0.4815
  377MPD2     N 5698   3.418   1.210  12.412 -0.0116 -0.1345 -0.5492
  377MPD2    H5 5699   3.330   1.259  12.424 -1.0870 -2.4224  0.9189
  377MPD2    N1 5700   3.828   1.242  12.143 -0.1965 -0.4217  0.6320
  377MPD2    H7 5701   3.859   1.248  12.046 -1.7600  1.0526  0.2333
  378TMC3    C1 5702   4.243   1.228  12.048 -0.5744  0.0249  0.2954
  378TMC3    C2 5703   4.108   1.221  12.078  0.0086 -0.0770  0.0720
  378TMC3    C3 5704   4.063   1.247  12.204  0.5140  0.1928  0.2828
  378TMC3    C4 5705   4.343   1.250  12.140  0.2800 -0.1746 -0.6055
  378TMC3    C5 5706   4.295   1.258  12.270 -0.2016  0.5010 -0.0879
  378TMC3    C6 5707   4.161   1.266  12.308  0.5594 -0.0530  0.1993
  378TMC3     C 5708   4.280   1.226  11.913  0.9401 -0.4924 -0.7315
  378TMC3     O 5709   4.188   1.186  11.841 -0.4574  0.2241  0.1235
  378TMC3     H 5710   4.030   1.218  12.003  0.1464 -0.3383 -0.0627
  378TMC3    H1 5711   4.449   1.236  12.123 -0.1246 -1.8955 -1.7449
  378TMC3    H2 5712   4.126   1.296  12.406  0.5243 -0.1980  0.2311
  378TMC3    C7 5713   4.389   1.313  12.369  0.4518 -0.0006  0.2732
  378TMC3    C8 5714   3.921   1.238  12.248  0.0713  0.0931  0.0179
  378TMC3    O1 5715   4.366   1.284  12.486 -0.1389  0.6138  0.2332
  378TMC3    O2 5716   3.900   1.242  12.366 -0.8081  0.0597  0.3388
  379MPD2     C 5717   4.646   3.753  16.012 -0.4371  0.2545  0.8266
  379MPD2    C1 5718   4.515   3.699  16.018  0.5996 -0.0091 -0.1209
  379MPD2    C2 5719   4.469   3.624  16.130 -0.1294 -0.0751 -0.3274
  379MPD2    C3 5720   4.565   3.599  16.231  1.5111  0.0992  0.5199
  379MPD2    C4 5721   4.697   3.632  16.208 -0.1308  0.2049  0.5157
  379MPD2    C5 5722   4.737   3.714  16.101 -1.0358 -0.1424 -0.5970
  379MPD2     H 5723   4.370   3.580  16.129  0.2825 -1.0479  1.9879
  379MPD2    H1 5724   0.033   3.616  16.284  1.6811  0.0528 -1.2999
  379MPD2    H2 5725   4.681   3.814  15.929 -2.1947 -2.0708 -1.6396
  379MPD2    H3 5726   0.097   3.756  16.094 -1.5961  0.8461 -2.5492
  379MPD2     N 5727   4.543   3.530  16.352  0.0944 -0.1224 -0.0796
  379MPD2    H5 5728   4.628   3.498  16.399 -0.0389 -0.0768  0.1960
  379MPD2    N1 5729   4.433   3.727  15.912 -0.4533  0.1227  0.5025
  379MPD2    H7 5730   4.473   3.777  15.833 -0.1738 -4.6403 -2.3312
  380TMC3    C1 5731   4.252   3.760  15.775  0.1025  0.6956  0.0523
  380TMC3    C2 5732   4.322   3.694  15.677 -0.1381 -0.0773  0.4966
  380TMC3    C3 5733   4.275   3.703  15.549 -1.1508  0.4185 -0.5026
  380TMC3    C4 5734   4.133   3.824  15.759 -0.0158  0.0354 -0.7135
  380TMC3    C5 5735   4.093   3.831  15.630  0.1455 -0.5195 -0.1316
  380TMC3    C6 5736   4.156   3.771  15.526 -0.8288  0.2363  0.0919
  380TMC3     C 5737   4.298   3.734  15.912  0.2013 -0.3888 -0.2731
  380TMC3     O 5738   4.224   3.731  16.009 -0.0853  0.2813 -0.1111
  380TMC3     H 5739   4.419   3.647  15.693  0.1560  0.8970  1.5390
  380TMC3    H1 5740   4.093   3.879  15.843  3.1145  0.0605  0.7421
  380TMC3    H2 5741   4.139   3.790  15.421 -1.3888 -0.7805 -0.0016
  380TMC3    C7 5742   3.986   3.923  15.592  0.0725  0.1233 -0.4206
  380TMC3    C8 5743   4.362   3.652  15.437  0.1554 -0.3787 -0.7400
  380TMC3    O1 5744   3.967   4.017  15.664  0.0862 -0.2245  0.2973
  380TMC3    O2 5745   4.347   3.704  15.327 -0.1978  0.6431  0.0868
  381TMC3    C1 5746   4.141   0.051  16.136 -0.3997 -0.5452 -0.3121
  381TMC3    C2 5747   4.198   0.176  16.151  0.9447 -0.3401  0.1514
  381TMC3    C3 5748   4.175   0.243  16.268 -0.0292 -0.1149 -0.3585
  381TMC3    C4 5749   4.053   0.006  16.229 -0.4236 -0.2503  0.6730
  381TMC3    C5 5750   4.019   0.081  16.337 -0.1475  0.9305 -0.1114
  381TMC3    C6 5751   4.081   0.196  16.362  0.1735  0.6052  0.2786
  381TMC3     C 5752   4.199   4.697  16.040  0.1804 -0.3224  0.0350
  381TMC3     O 5753   4.292   0.008  15.977  0.0612  0.1221 -0.1911
  381TMC3     H 5754   4.270   0.220  16.083 -0.2443  0.8616 -0.3211
  381TMC3    H1 5755   3.996   4.654  16.215 -2.2129  0.8266  0.9055
  381TMC3    H2 5756   4.049   0.259  16.445  1.3935  0.5057  0.8208
  381TMC3    C7 5757   3.937   0.020  16.436 -0.4274  0.3503 -0.6615
  381TMC3    C8 5758   4.277   0.344  16.301  0.2788 -0.0342 -0.5273
  381TMC3    O1 5759   3.915   4.640  16.430 -0.4735 -0.4125  0.4426
  381TMC3    O2 5760   4.383   0.334  16.238 -0.0054 -0.1236 -0.3313
  382MPD2     C 5761   2.738   2.722  16.376 -0.4287  0.0607  0.5706
  382MPD2    C1 5762   2.774   2.783  16.497 -0.2161  0.1419  0.0694
  382MPD2    C2 5763   2.795   2.699  16.606 -0.4294  0.0008  0.1498
  382MPD2    C3 5764   2.782   2.558  16.595 -0.5682 -1.0401 -0.2162
  382MPD2    C4 5765   2.733   2.504  16.476 -0.4357  0.6332 -0.6006
  382MPD2    C5 5766   2.718   2.584  16.367 -0.3894  0.3373 -0.0811
  382MPD2     H 5767   2.822   2.751  16.697  0.2741  0.3735 -0.2765
  382MPD2    H1 5768   2.708   2.399  16.474  1.3565  0.1758  0.9068
  382MPD2    H2 5769   2.735   2.770  16.279  0.1192 -1.7597 -0.3399
  382MPD2    H3 5770   2.693   2.542  16.270 -1.0110  0.7427 -0.0973
  382MPD2     N 5771   2.812   2.471  16.708  0.3520 -0.3509  0.2830
  382MPD2    H5 5772   2.786   2.374  16.694  0.0554  0.2176 -3.0538
  382MPD2    N1 5773   2.792   2.924  16.518 -0.1362  0.4754 -0.1301
  382MPD2    H7 5774   2.839   2.950  16.604  2.8798 -2.3200 -0.9222
  383TMC3    C1 5775   2.876   2.410  16.932  0.6173  0.4354 -0.0853
  383TMC3    C2 5776   2.781   2.311  16.929 -0.5139 -0.4427  0.3404
  383TMC3    C3 5777   2.762   2.228  17.035 -0.3643  0.0963  0.3972
  383TMC3    C4 5778   2.940   2.442  17.049 -0.0359  0.6074  1.2455
  383TMC3    C5 5779   2.898   2.372  17.159 -0.0976 -0.2984 -0.8348
  383TMC3    C6 5780   2.818   2.258  17.157 -0.9627 -0.0166 -0.1279
  383TMC3     C 5781   2.874   2.509  16.827  0.2987  0.8075  0.4837
  383TMC3     O 5782   2.928   2.615  16.847 -0.0053  0.3132  0.5306
  383TMC3     H 5783   2.741   2.269  16.838  0.0858  1.3825 -0.7545
  383TMC3    H1 5784   3.000   2.533  17.055  1.2581 -0.3100  2.1368
  383TMC3    H2 5785   2.781   2.223  17.253  0.5051  2.5957  1.4112
  383TMC3    C7 5786   2.899   2.443  17.288 -0.3680  0.7596 -0.4588
  383TMC3    C8 5787   2.655   2.136  17.025 -0.5349  0.6104  0.1975
  383TMC3    O1 5788   2.805   2.415  17.365  0.3844  0.0579 -0.9386
  383TMC3    O2 5789   2.591   2.135  16.920  0.0239 -0.2898  0.4598
  384MPD2     C 5790   0.269   4.241  11.791  0.7146  0.8348  0.1752
  384MPD2    C1 5791   0.243   4.114  11.831 -0.0162 -0.1403  0.2292
  384MPD2    C2 5792   0.309   4.011  11.775  0.9625  0.1386  0.5975
  384MPD2    C3 5793   0.402   4.034  11.675 -0.3662  0.0174 -0.2302
  384MPD2    C4 5794   0.411   4.163  11.626 -0.6187 -0.4148 -0.0250
  384MPD2    C5 5795   0.341   4.265  11.679  0.5901 -0.4345 -0.2134
  384MPD2     H 5796   0.308   3.910  11.815  0.9817  0.7118  2.0128
  384MPD2    H1 5797   0.480   4.183  11.545 -0.3108 -0.6047  0.1886
  384MPD2    H2 5798   0.204   4.316  11.834 -0.0708  0.4104 -0.2665
  384MPD2    H3 5799   0.352   4.364  11.636  2.9236 -0.4605  0.3233
  384MPD2     N 5800   0.491   3.942  11.621 -0.1868  0.1859  0.3524
  384MPD2    H5 5801   0.575   3.971  11.572 -1.1419  0.0152 -1.3624
  384MPD2    N1 5802   0.167   4.095  11.949  0.2020  0.1828 -0.1283
  384MPD2    H7 5803   0.143   4.175  12.008 -0.4651  0.4477 -0.7663
  385TMC3    C1 5804   0.604   3.740  11.617 -0.0077 -0.5167  0.2154
  385TMC3    C2 5805   0.581   3.610  11.577  0.1758  0.0690  0.3922
  385TMC3    C3 5806   0.621   3.511  11.664 -0.2683 -0.3322 -0.2687
  385TMC3    C4 5807   0.690   3.765  11.720  0.2783  0.4916 -0.0589
  385TMC3    C5 5808   0.727   3.663  11.809  0.1113  0.1941  0.3269
  385TMC3    C6 5809   0.696   3.532  11.778 -0.3269 -0.1710  0.2739
  385TMC3     C 5810   0.480   3.806  11.632 -0.0099  0.9706 -0.2634
  385TMC3     O 5811   0.384   3.734  11.652  0.3267 -0.2453 -0.4477
  385TMC3     H 5812   0.507   3.591  11.501  1.5188 -2.6710 -0.2280
  385TMC3    H1 5813   0.695   3.869  11.753 -1.1917 -0.4713  3.2515
  385TMC3    H2 5814   0.723   3.450  11.843 -0.2525 -1.5091 -1.4636
  385TMC3    C7 5815   0.687   3.707  11.942  0.1957  0.0184 -0.2370
  385TMC3    C8 5816   0.594   3.373  11.631  0.3627  0.5638  0.3278
  385TMC3    O1 5817   0.638   3.819  11.951 -0.0080 -0.1080  0.5755
  385TMC3    O2 5818   0.619   3.288  11.714  0.7127 -0.5630 -0.8974
  386TMC3    C1 5819   0.874   1.815  11.718  0.6588 -1.1738 -0.6995
  386TMC3    C2 5820   0.866   1.754  11.596  0.2567  0.3206  0.2836
  386TMC3    C3 5821   0.780   1.811  11.506  0.0003  0.1074 -0.1714
  386TMC3    C4 5822   0.781   1.904  11.755 -0.0272 -0.7487  0.2459
  386TMC3    C5 5823   0.679   1.940  11.670 -0.6736  0.4477 -0.4167
  386TMC3    C6 5824   0.677   1.898  11.542 -0.2549  0.3612  0.9793
  386TMC3     C 5825   0.957   1.760  11.826  0.0135  0.2263  0.0779
  386TMC3     O 5826   0.989   1.835  11.913  0.1499 -0.1213  0.0321
  386TMC3     H 5827   0.956   1.699  11.571  0.4067  1.3222 -1.4425
  386TMC3    H1 5828   0.798   1.956  11.849 -1.5237  0.1364  0.0260
  386TMC3    H2 5829   0.621   1.952  11.466 -0.3139 -1.4666 -0.2738
  386TMC3    C7 5830   0.552   1.944  11.735 -0.7306  0.8419  0.2703
  386TMC3    C8 5831   0.757   1.753  11.375  0.2712  0.2788 -0.1923
  386TMC3    O1 5832   0.555   1.971  11.855 -0.0148 -0.3974  0.1594
  386TMC3    O2 5833   0.715   1.829  11.289 -0.1691  0.0147 -0.6655
  387MPD2     C 5834   2.746   1.629   9.800 -0.0368  0.4971  0.3176
  387MPD2    C1 5835   2.857   1.568   9.738  0.2307 -0.5607 -0.2494
  387MPD2    C2 5836   2.849   1.435   9.708  0.2596  0.4915  0.0531
  387MPD2    C3 5837   2.746   1.355   9.734 -0.0703  0.1013  0.6408
  387MPD2    C4 5838   2.631   1.411   9.792  0.8101 -0.4308 -0.4665
  387MPD2    C5 5839   2.634   1.550   9.822 -0.3973 -0.5374  0.8577
  387MPD2     H 5840   2.934   1.391   9.657  2.0000  0.2388  3.1612
  387MPD2    H1 5841   2.538   1.359   9.813  0.8836 -1.2254 -2.0805
  387MPD2    H2 5842   2.752   1.733   9.831  0.4967  0.6719 -0.3630
  387MPD2    H3 5843   2.550   1.602   9.868  0.1326  1.5727 -0.5504
  387MPD2     N 5844   2.763   1.214   9.721  0.4877  0.0500 -0.2307
  387MPD2    H5 5845   2.857   1.180   9.700  0.0410 -0.2664 -1.7062
  387MPD2    N1 5846   2.981   1.626   9.717 -0.2023  0.5488 -0.1713
  387MPD2    H7 5847   3.051   1.572   9.667  0.9016  1.2020  0.6744
  388TMC3    C1 5848   3.162   1.749   9.770  0.0667  0.0796 -0.0115
  388TMC3    C2 5849   3.230   1.867   9.738  0.6028 -0.8199 -1.0940
  388TMC3    C3 5850   3.363   1.868   9.764 -0.2974 -0.0427  0.1398
  388TMC3    C4 5851   3.226   1.642   9.821  0.6632  0.3999  0.3671
  388TMC3    C5 5852   3.355   1.652   9.855 -0.5533 -0.5458 -0.7422
  388TMC3    C6 5853   3.428   1.765   9.823 -0.1242 -0.5350  0.3575
  388TMC3     C 5854   3.018   1.754   9.746 -0.1650  0.4110  0.3078
  388TMC3     O 5855   2.957   1.857   9.718  0.4582 -0.4654  0.0880
  388TMC3     H 5856   3.178   1.954   9.699  0.6520  0.5517  1.9700
  388TMC3    H1 5857   3.167   1.558   9.857 -0.6847  0.9211 -0.6733
  388TMC3    H2 5858   3.532   1.785   9.846  0.3007 -0.8918 -1.1997
  388TMC3    C7 5859   3.431   1.534   9.884 -0.2945 -0.5701  0.4625
  388TMC3    C8 5860   3.450   1.979   9.727  0.1073  0.5788 -0.4192
  388TMC3    O1 5861   3.533   1.540   9.950 -0.2555  0.1574 -0.0775
  388TMC3    O2 5862   3.420   2.036   9.624  0.0689  0.2417 -0.1749
  389MPD2     C 5863   2.088   0.070  11.052  0.0135  0.6493  0.2459
  389MPD2    C1 5864   2.084   4.683  11.000  0.5913  0.1955  0.4723
  389MPD2    C2 5865   2.060   4.579  11.081 -0.3409 -0.6332 -0.3102
  389MPD2    C3 5866   2.023   4.591  11.214 -0.8759 -0.4878  0.6353
  389MPD2    C4 5867   2.004   4.721  11.257  0.5909  0.5466 -0.2441
  389MPD2    C5 5868   2.039   0.086  11.179  0.4081  0.3220 -0.1606
  389MPD2     H 5869   2.080   4.477  11.050  0.3595 -1.0159  1.4229
  389MPD2    H1 5870   1.964   4.729  11.357 -0.0227 -1.1555 -0.3453
  389MPD2    H2 5871   2.114   0.152  10.986 -0.3516 -0.7910 -1.7155
  389MPD2    H3 5872   2.035   0.184  11.225  2.3729  1.6171 -2.8133
  389MPD2     N 5873   1.980   4.493  11.299 -0.4417 -0.0166 -0.1365
  389MPD2    H5 5874   1.949   4.522  11.391 -2.8779 -1.2467 -0.5647
  389MPD2    N1 5875   2.142   4.657  10.870 -0.9133  0.0292 -0.0354
  389MPD2    H7 5876   2.182   4.738  10.823 -0.3059 -1.1330 -1.5338
  390TMC3    C1 5877   1.889   4.288  11.372  0.2121  0.1327 -0.3533
  390TMC3    C2 5878   1.949   4.166  11.397  0.1921  0.9842  0.1300
  390TMC3    C3 5879   1.896   4.094  11.505  0.2956  0.1598 -0.1558
  390TMC3    C4 5880   1.786   4.345  11.440 -0.3094 -0.4398  0.4019
  390TMC3    C5 5881   1.734   4.268  11.544  0.2542 -0.7643 -0.5126
  390TMC3    C6 5882   1.787   4.142  11.578  0.0133  0.2962  0.0948
  390TMC3     C 5883   1.962   4.361  11.266  0.1248 -0.0893 -0.1138
  390TMC3     O 5884   1.981   4.304  11.163  0.1448 -0.1155 -0.1665
  390TMC3     H 5885   2.028   4.126  11.335  0.1816 -0.1001  0.8189
  390TMC3    H1 5886   1.740   4.440  11.415  1.5041  0.4365  0.4190
  390TMC3    H2 5887   1.765   4.094  11.673 -0.2735  0.7399  0.2560
  390TMC3    C7 5888   1.605   4.293  11.601  0.5854  0.4571 -0.2220
  390TMC3    C8 5889   1.954   3.972  11.551  0.6020 -0.5534  0.6216
  390TMC3    O1 5890   1.591   4.406  11.642  0.3395 -0.2555 -0.1517
  390TMC3    O2 5891   1.987   3.881  11.471 -0.0533  0.5897 -0.2234
  391MPD2     C 5892   1.216   0.972  11.227 -0.9012 -0.2956  0.5480
  391MPD2    C1 5893   1.336   1.039  11.199 -0.6811  0.4603  0.4416
  391MPD2    C2 5894   1.397   1.018  11.074  0.6092  0.2296 -0.0906
  391MPD2    C3 5895   1.332   0.944  10.981  0.7487  0.0304  0.6796
  391MPD2    C4 5896   1.216   0.873  11.009  0.4662  1.5765 -0.8919
  391MPD2    C5 5897   1.166   0.886  11.134 -0.1371  0.0988 -0.0470
  391MPD2     H 5898   1.495   1.059  11.055 -0.1057  1.2733 -1.4883
  391MPD2    H1 5899   1.183   0.793  10.944  0.1596  1.0504 -0.0839
  391MPD2    H2 5900   1.173   0.979  11.326  1.6072 -0.0729  1.6229
  391MPD2    H3 5901   1.089   0.814  11.158  1.3581 -1.5806 -0.2351
  391MPD2     N 5902   1.390   0.947  10.854 -0.4395  0.4303 -0.4165
  391MPD2    H5 5903   1.479   0.995  10.851 -1.3428  2.1383  0.0158
  391MPD2    N1 5904   1.399   1.115  11.304  0.1660 -0.6507  0.0063
  391MPD2    H7 5905   1.353   1.109  11.394  0.9043  2.5138  0.5927
  392TMC3    C1 5906   1.414   0.898  10.617 -0.9087 -0.1801  0.6057
  392TMC3    C2 5907   1.338   0.885  10.511  0.1413 -0.1453 -0.5762
  392TMC3    C3 5908   1.376   0.944  10.389 -0.2061 -0.3214 -0.0278
  392TMC3    C4 5909   1.535   0.968  10.610  0.1772 -0.4060  0.2564
  392TMC3    C5 5910   1.568   1.020  10.487  0.2032 -0.6081 -0.0677
  392TMC3    C6 5911   1.489   1.020  10.377  0.1549 -0.5787  0.7281
  392TMC3     C 5912   1.343   0.890  10.740 -0.1669  0.1433  0.0781
  392TMC3     O 5913   1.237   0.838  10.721  0.2668  0.0584  0.0172
  392TMC3     H 5914   1.253   0.817  10.510 -0.4050  0.5453 -1.0356
  392TMC3    H1 5915   1.601   0.969  10.696  2.4453 -2.3251 -1.4679
  392TMC3    H2 5916   1.498   1.084  10.290  0.7014  0.4333  1.5342
  392TMC3    C7 5917   1.685   1.097  10.476 -0.1541 -0.3893  0.1077
  392TMC3    C8 5918   1.289   0.921  10.275 -0.1026 -0.5693  0.6068
  392TMC3    O1 5919   1.743   1.123  10.577 -0.4546 -0.4136 -0.6485
  392TMC3    O2 5920   1.171   0.897  10.301 -0.0340 -0.8637  0.1174
  393TMC3    C1 5921   1.059   3.986  10.526 -0.3359 -0.3190  0.1378
  393TMC3    C2 5922   0.966   4.013  10.628  0.2797  0.1830  0.1570
  393TMC3    C3 5923   0.949   3.918  10.723  0.3122  0.8052 -0.5600
  393TMC3    C4 5924   1.148   3.880  10.528  0.7307  0.2436 -0.3996
  393TMC3    C5 5925   1.129   3.793  10.629 -0.2419  0.0760 -0.5378
  393TMC3    C6 5926   1.030   3.806  10.725  0.0439  0.6434  0.0690
  393TMC3     C 5927   1.002   4.012  10.399 -0.3818 -0.5502  0.0872
  393TMC3     O 5928   0.883   4.025  10.392  0.3798  0.4614 -0.4142
  393TMC3     H 5929   0.895   4.095  10.618  1.1834  0.7773 -1.4438
  393TMC3    H1 5930   1.196   3.851  10.436  1.2305 -0.7457  0.1771
  393TMC3    H2 5931   1.009   3.732  10.801 -0.4131  0.1327 -0.5585
  393TMC3    C7 5932   1.203   3.665  10.642  0.1238  0.0784  0.5679
  393TMC3    C8 5933   0.819   3.873  10.761 -0.0153 -0.3838  0.4619
  393TMC3    O1 5934   1.153   3.583  10.719  0.4900 -0.0942  0.8512
  393TMC3    O2 5935   0.783   3.762  10.727 -0.0243  0.0951 -0.2151
  394TMC3    C1 5936   2.193   4.549  10.664 -1.1009  1.3563  0.4629
  394TMC3    C2 5937   2.141   4.469  10.569 -0.0768  0.1324 -0.4186
  394TMC3    C3 5938   2.178   4.501  10.436  0.0771 -0.0461 -0.3984
  394TMC3    C4 5939   2.278   4.651  10.636 -0.1972 -0.3036 -0.3470
  394TMC3    C5 5940   2.327   4.662  10.507  0.3287 -0.1816  0.1590
  394TMC3    C6 5941   2.273   4.590  10.403  0.7416  0.1116 -0.5197
  394TMC3     C 5942   2.138   4.535  10.798 -0.4697 -0.1409  0.6139
  394TMC3     O 5943   2.062   4.440  10.824 -0.2562 -0.0428 -0.2922
  394TMC3     H 5944   2.078   4.386  10.598  0.5240  0.0423  0.6528
  394TMC3    H1 5945   2.320   4.712  10.715  1.1015 -0.0819 -1.1932
  394TMC3    H2 5946   2.303   4.611  10.301  0.7731  0.8403 -0.3625
  394TMC3    C7 5947   2.377   0.056  10.473 -0.1097  0.6782 -0.4036
  394TMC3    C8 5948   2.147   4.413  10.332 -0.8892 -0.6921 -0.3049
  394TMC3    O1 5949   2.367   0.104  10.358 -0.0408  0.5179 -0.5212
  394TMC3    O2 5950   2.157   4.455  10.218  0.0539  0.4122  0.2458
  395TMC3    C1 5951   1.874   1.222  14.837 -0.1225  0.2470  0.5871
  395TMC3    C2 5952   1.748   1.185  14.788 -0.4837 -0.6621  0.1032
  395TMC3    C3 5953   1.684   1.280  14.711  0.2420  0.8830  0.7361
  395TMC3    C4 5954   1.925   1.354  14.832  0.6102  0.6394  0.3824
  395TMC3    C5 5955   1.846   1.443  14.763  0.4829  0.9686  0.0108
  395TMC3    C6 5956   1.735   1.409  14.699 -0.3467 -0.7485  0.3102
  395TMC3     C 5957   1.903   1.172  14.966 -0.1505 -0.0637 -0.0636
  395TMC3     O 5958   2.023   1.158  14.985  0.0241 -0.0577  0.5236
  395TMC3     H 5959   1.713   1.084  14.805  0.3634 -0.8912  0.4805
  395TMC3    H1 5960   2.011   1.392  14.885  0.0360  0.4024  1.4886
  395TMC3    H2 5961   1.672   1.484  14.653 -1.4022 -1.3483  0.7681
  395TMC3    C7 5962   1.896   1.564  14.744 -0.0733  0.0780  0.1555
  395TMC3    C8 5963   1.553   1.251  14.667 -0.3729  0.4591  0.6279
  395TMC3    O1 5964   1.831   1.660  14.769  0.3533 -0.3663  0.4014
  395TMC3    O2 5965   1.502   1.154  14.724 -0.1211 -0.1344 -0.4242
  396MPD2     C 5966   1.239   2.229  17.317 -0.6915  0.9731  0.0175
  396MPD2    C1 5967   1.374   2.222  17.297  0.0925  0.0638 -0.4419
  396MPD2    C2 5968   1.439   2.332  17.243 -0.2044 -0.3075 -0.9539
  396MPD2    C3 5969   1.358   2.441  17.201  0.3784  0.8496 -0.6388
  396MPD2    C4 5970   1.227   2.447  17.230 -0.1314  0.6777  0.3311
  396MPD2    C5 5971   1.165   2.339  17.284 -0.2493  0.6167  0.5990
  396MPD2     H 5972   1.545   2.324  17.222 -0.4411 -2.0608 -1.4861
  396MPD2    H1 5973   1.160   2.527  17.199 -0.7054  0.5706  1.3019
  396MPD2    H2 5974   1.180   2.150  17.360  2.9593 -0.8483  1.7092
  396MPD2    H3 5975   1.057   2.339  17.288 -0.2610 -2.6037  0.0379
  396MPD2     N 5976   1.427   2.557  17.151 -0.0525 -0.2374  0.4524
  396MPD2    H5 5977   1.528   2.559  17.149 -0.0657 -0.2677 -0.1300
  396MPD2    N1 5978   1.434   2.093  17.323 -0.3669 -0.3978 -0.3134
  396MPD2    H7 5979   1.374   2.012  17.339  2.1834 -2.6738 -2.3347
  397TMC3    C1 5980   1.584   1.930  17.290 -0.1189  0.7025 -0.3487
  397TMC3    C2 5981   1.526   1.902  17.167 -1.1028  0.5312 -0.5967
  397TMC3    C3 5982   1.430   1.800  17.149  0.2772 -0.3900  0.4438
  397TMC3    C4 5983   1.554   1.846  17.397  0.3799  0.3067  0.4591
  397TMC3    C5 5984   1.488   1.738  17.366 -0.3099  0.0133 -0.2518
  397TMC3    C6 5985   1.418   1.711  17.249 -0.0854 -0.0306  0.3748
  397TMC3     C 5986   1.566   2.070  17.320 -0.1209  0.5969  0.0511
  397TMC3     O 5987   1.658   2.146  17.300 -0.5436 -0.0562  0.5257
  397TMC3     H 5988   1.535   1.987  17.100  0.8329 -0.5476 -1.6952
  397TMC3    H1 5989   1.613   1.845  17.488  2.0699  1.8736 -0.6224
  397TMC3    H2 5990   1.343   1.634  17.248 -1.2740  1.1263  0.6478
  397TMC3    C7 5991   1.496   1.621  17.448  0.1105  0.1697  0.2708
  397TMC3    C8 5992   1.327   1.823  17.053 -0.3776  0.0467 -0.8232
  397TMC3    O1 5993   1.484   1.511  17.394 -0.1206  0.3216  0.4778
  397TMC3    O2 5994   1.349   1.912  16.971  0.3487  0.3646 -0.3575
  398MPD2     C 5995   4.069   3.661   0.311  0.1584 -0.1448 -0.3054
  398MPD2    C1 5996   4.158   3.556   0.308 -0.1861  0.0421  0.1388
  398MPD2    C2 5997   4.293   3.572   0.345  0.4336  0.9858  0.1290
  398MPD2    C3 5998   4.334   3.701   0.389 -0.3715  0.4811  0.4286
  398MPD2    C4 5999   4.249   3.804   0.395 -0.1878  0.1922  0.3218
  398MPD2    C5 6000   4.122   3.780   0.359 -0.4997  0.5589 -0.5836
  398MPD2     H 6001   4.366   3.493   0.328 -1.5579 -0.4551 -1.8063
  398MPD2    H1 6002   4.278   3.907   0.413  1.5239 -0.3585  0.7335
  398MPD2    H2 6003   3.970   3.669   0.267  0.7492 -0.8424 -1.7750
  398MPD2    H3 6004   4.056   3.866   0.361  0.8040  1.5047  2.4251
  398MPD2     N 6005   4.473   3.721   0.403 -0.1295  0.0500 -0.3214
  398MPD2    H5 6006   4.533   3.641   0.384  1.1138  0.6553  1.0733
  398MPD2    N1 6007   4.114   3.432   0.271  0.0436 -0.6213  0.9170
  398MPD2    H7 6008   4.161   3.347   0.301 -0.0064 -1.6281 -1.8545
  399TMC3    C1 6009   3.951   3.274   0.220 -0.4478  0.1581 -0.3713
  399TMC3    C2 6010   3.994   3.193   0.321  0.5531 -0.3914 -0.5043
  399TMC3    C3 6011   3.959   3.060   0.322 -0.0874  0.0015  0.0896
  399TMC3    C4 6012   3.871   3.223   0.119  0.2002 -0.3524  0.0693
  399TMC3    C5 6013   3.836   3.092   0.129 -0.0763 -0.2480 -0.8259
  399TMC3    C6 6014   3.876   3.011   0.228  0.8112  0.2565 -0.2617
  399TMC3     C 6015   4.004   3.403   0.199 -0.6170  0.3036  0.0277
  399TMC3     O 6016   3.940   3.475   0.121 -0.7682  0.3442 -0.2613
  399TMC3     H 6017   4.054   3.222   0.407 -2.0213  4.2346 -0.2415
  399TMC3    H1 6018   3.844   3.285   0.034 -0.2940 -0.1783  0.3556
  399TMC3    H2 6019   3.848   2.906   0.224  0.3124  0.3591  0.7090
  399TMC3    C7 6020   3.755   3.012   0.034  0.1150  0.2358  0.6330
  399TMC3    C8 6021   4.043   2.974   0.410  0.2335  0.4949  0.2501
  399TMC3    O1 6022   3.705   2.910   0.076 -0.4903  0.1086 -0.0006
  399TMC3    O2 6023   4.104   3.033   0.499  0.2310  0.0066  0.7896
  400TMC3    C1 6024   2.526   1.787  16.835  0.4053 -0.2188 -0.8950
  400TMC3    C2 6025   2.421   1.710  16.881 -0.6187 -0.0126  0.0693
  400TMC3    C3 6026   2.294   1.737  16.837  0.3076 -0.2671 -0.3758
  400TMC3    C4 6027   2.506   1.904  16.763  0.5915  0.4804  0.1321
  400TMC3    C5 6028   2.374   1.921  16.729  0.2205  0.1269  0.1882
  400TMC3    C6 6029   2.272   1.834  16.750  0.6778 -0.2170 -0.9893
  400TMC3     C 6030   2.647   1.773  16.918  0.7795  0.3696  0.4951
  400TMC3     O 6031   2.648   1.692  17.012 -0.3699  0.2825  0.4298
  400TMC3     H 6032   2.431   1.617  16.936  2.1616 -0.0535 -0.4985
  400TMC3    H1 6033   2.589   1.968  16.736 -1.8515  3.4002 -0.5077
  400TMC3    H2 6034   2.169   1.865  16.734 -0.5952 -3.0358  1.6102
  400TMC3    C7 6035   2.337   2.044  16.659  0.4718 -0.4813  0.8236
  400TMC3    C8 6036   2.196   1.630  16.840 -0.3034 -0.5669 -1.5993
  400TMC3    O1 6037   2.243   2.037  16.580  0.1036  0.1551 -0.1362
  400TMC3    O2 6038   2.182   1.563  16.944  0.3312 -0.3372  0.3574
  401MPD2     C 6039   1.732   0.541   0.068  0.4099 -0.2375  0.3509
  401MPD2    C1 6040   1.800   0.423   0.073  0.5030 -0.3238 -0.1907
  401MPD2    C2 6041   1.725   0.305   0.065  0.3003 -0.2284  0.2507
  401MPD2    C3 6042   1.590   0.308   0.050 -0.2814 -0.2976 -0.5410
  401MPD2    C4 6043   1.529   0.423   0.044 -0.0827 -0.3120  0.3991
  401MPD2    C5 6044   1.597   0.542   0.054  0.1444  0.5042  0.1645
  401MPD2     H 6045   1.760   0.203   0.067  2.3189  0.4839  0.8838
  401MPD2    H1 6046   1.423   0.429   0.020 -0.1953  0.9781  1.2388
  401MPD2    H2 6047   1.773   0.641   0.066 -1.2676  0.4397 -0.2925
  401MPD2    H3 6048   1.553   0.641   0.043 -0.2316  0.1545 -1.4723
  401MPD2     N 6049   1.517   0.190   0.030 -0.0721  0.6537 -0.1877
  401MPD2    H5 6050   1.566   0.103   0.009  1.4077  1.9074 -1.9831
  401MPD2    N1 6051   1.931   0.421   0.116  0.1107  0.3255 -0.6814
  401MPD2    H7 6052   1.969   0.328   0.132  1.4820  0.8116 -1.0962
  402TMC3    C1 6053   1.336   0.045   0.041 -0.2197 -0.5420  0.0788
  402TMC3    C2 6054   1.256   4.729   0.143  0.1570 -0.5130  0.0067
  402TMC3    C3 6055   1.215   4.595   0.133 -0.2898 -0.3046 -0.3120
  402TMC3    C4 6056   1.362   4.719  17.678 -0.0795  0.4010 -0.5823
  402TMC3    C5 6057   1.315   4.589  17.671 -0.6586  0.3410  0.7670
  402TMC3    C6 6058   1.244   4.525   0.017 -0.4826  0.0022  0.3106
  402TMC3     C 6059   1.384   0.177   0.069  0.8871 -0.3837  0.1426
  402TMC3     O 6060   1.307   0.250   0.136  0.0851 -0.2815  0.1817
  402TMC3     H 6061   1.244   0.045   0.236 -0.2023 -1.0105  0.2626
  402TMC3    H1 6062   1.437   0.023  17.612  2.5093 -2.1141  0.7079
  402TMC3    H2 6063   1.212   4.422   0.004 -3.2696  0.9962 -0.8269
  402TMC3    C7 6064   1.372   4.523  17.558  0.5868  0.2771  0.1752
  402TMC3    C8 6065   1.137   4.534   0.243  0.5610 -0.1285 -0.4305
  402TMC3    O1 6066   1.484   4.554  17.531  0.3603 -0.5744 -0.2454
  402TMC3    O2 6067   1.121   4.414   0.245  0.0630 -0.2930 -0.1182
  403MPD2     C 6068   3.968   3.733  13.673 -0.1408 -0.4893  0.3798
  403MPD2    C1 6069   4.067   3.675  13.596  0.0895  0.5283  0.0947
  403MPD2    C2 6070   4.196   3.721  13.593 -0.4551 -0.0474 -0.1547
  403MPD2    C3 6071   4.230   3.817  13.682  0.1878 -0.0426 -0.5786
  403MPD2    C4 6072   4.130   3.880  13.761  0.0189 -0.3941 -0.3776
  403MPD2    C5 6073   4.004   3.840  13.749 -0.4680 -0.5028 -0.8531
  403MPD2     H 6074   4.272   3.693  13.521 -0.0704  0.3249  0.1096
  403MPD2    H1 6075   4.158   3.955  13.834 -0.5379  0.8628 -1.4568
  403MPD2    H2 6076   3.867   3.694  13.677 -0.5380  0.3904 -1.4635
  403MPD2    H3 6077   3.924   3.888  13.804  0.2489  0.0454 -0.3002
  403MPD2     N 6078   4.361   3.825  13.701  0.5530  0.1770  0.1455
  403MPD2    H5 6079   4.413   3.757  13.646  1.3459  1.1225 -0.2764
  403MPD2    N1 6080   4.018   3.566  13.514  0.5542  0.4548  0.1472
  403MPD2    H7 6081   3.934   3.519  13.548  0.4952  2.4296  2.7166
  404TMC3    C1 6082   4.053   3.380  13.377  0.0431 -0.4985 -0.2271
  404TMC3    C2 6083   4.049   3.302  13.487 -0.0584 -0.3263  0.0473
  404TMC3    C3 6084   4.069   3.168  13.478  0.1891 -0.4684 -0.1305
  404TMC3    C4 6085   4.081   3.333  13.249  0.2538 -0.2898  0.3885
  404TMC3    C5 6086   4.089   3.194  13.247 -0.2382 -0.0052  0.0854
  404TMC3    C6 6087   4.089   3.111  13.358  0.3230  0.2810 -0.0394
  404TMC3     C 6088   4.072   3.524  13.398 -0.4807 -0.0386  0.4189
  404TMC3     O 6089   4.145   3.584  13.323  0.0827  0.6484  0.2268
  404TMC3     H 6090   4.041   3.349  13.584  3.4844  1.8583 -0.7327
  404TMC3    H1 6091   4.102   3.386  13.157 -0.7653 -1.4312 -0.5029
  404TMC3    H2 6092   4.098   3.004  13.341 -0.7983  0.5335 -2.1950
  404TMC3    C7 6093   4.113   3.124  13.118  0.5861  0.0561 -0.6236
  404TMC3    C8 6094   4.065   3.073  13.593 -0.5439  0.8717  0.0529
  404TMC3    O1 6095   4.180   3.025  13.129 -0.2042 -0.4103  0.3862
  404TMC3    O2 6096   4.084   2.955  13.563 -0.1216 -0.4614  0.1940
  405MPD2     C 6097   0.549   4.620  14.750  0.2578 -0.4264  0.2293
  405MPD2    C1 6098   0.409   4.617  14.752 -0.2620  0.0159  0.4268
  405MPD2    C2 6099   0.341   4.689  14.654 -0.0594  0.3370 -0.2588
  405MPD2    C3 6100   0.412   0.033  14.565 -0.3025 -0.1143 -0.2926
  405MPD2    C4 6101   0.551   0.025  14.561  0.9075  0.0646  0.4567
  405MPD2    C5 6102   0.621   4.685  14.653 -0.0128 -0.2812  0.6242
  405MPD2     H 6103   0.234   4.702  14.649 -0.2016 -0.5073  0.5196
  405MPD2    H1 6104   0.607   0.074  14.484 -1.7166  1.6294 -0.4645
  405MPD2    H2 6105   0.601   4.560  14.824  0.8429 -1.7313 -1.2086
  405MPD2    H3 6106   0.730   4.684  14.649 -0.1574 -0.0347 -2.9695
  405MPD2     N 6107   0.337   0.121  14.483 -0.3551  0.7035 -0.0752
  405MPD2    H5 6108   0.237   0.122  14.502 -0.0909 -1.0859  1.3798
  405MPD2    N1 6109   0.339   4.545  14.848 -0.0289  0.3476  0.4111
  405MPD2    H7 6110   0.394   4.502  14.922 -2.6535 -0.0678  2.1115
  406TMC3    C1 6111   0.138   0.329  14.167 -0.2341  0.5064 -0.3883
  406TMC3    C2 6112   0.040   0.365  14.254 -0.3537  0.0092 -0.3621
  406TMC3    C3 6113   0.063   0.348  14.384 -0.1968  0.5613 -0.5672
  406TMC3    C4 6114   0.264   0.285  14.210  0.0196  0.1942  1.2029
  406TMC3    C5 6115   0.280   0.280  14.344 -0.3734 -0.7693 -0.4072
  406TMC3    C6 6116   0.182   0.308  14.435 -0.1322 -0.6354 -0.7700
  406TMC3     C 6117   0.103   0.262  14.042 -0.0280  0.8850 -0.1774
  406TMC3     O 6118   0.189   0.219  13.966  0.6980  0.5591 -0.0964
  406TMC3     H 6119   4.691   0.420  14.222 -0.5435  0.6398  1.1940
  406TMC3    H1 6120   0.345   0.276  14.140  0.6380  0.5850  1.8666
  406TMC3    H2 6121   0.218   0.330  14.535 -0.6800  0.7214 -0.8675
  406TMC3    C7 6122   0.384   0.195  14.386 -0.0254  0.6169  0.6519
  406TMC3    C8 6123   4.694   0.359  14.477 -0.4594  0.6058 -0.0109
  406TMC3    O1 6124   0.494   0.206  14.337  0.4722 -0.2824  0.6686
  406TMC3    O2 6125   4.613   0.449  14.466 -0.2898  0.3301 -0.9443
  407MPD2     C 6126   2.126   1.352   9.748  0.1000  0.1974  0.3877
  407MPD2    C1 6127   2.247   1.295   9.778  0.0030  0.6373 -0.2760
  407MPD2    C2 6128   2.308   1.329   9.897 -0.4052 -0.2381 -0.0975
  407MPD2    C3 6129   2.271   1.432   9.974 -0.1454  0.1931 -0.0565
  407MPD2    C4 6130   2.171   1.514   9.926 -0.3567 -0.3201 -0.1631
  407MPD2    C5 6131   2.095   1.470   9.815  0.5058 -0.1468 -0.9204
  407MPD2     H 6132   2.402   1.279   9.914  0.2064  0.8355 -0.3596
  407MPD2    H1 6133   2.142   1.600   9.984  0.4875  0.1274 -0.4072
  407MPD2    H2 6134   2.072   1.323   9.659 -0.1434  0.7102  0.3696
  407MPD2    H3 6135   2.009   1.525   9.777  0.4574 -0.1536 -0.8198
  407MPD2     N 6136   2.340   1.466  10.093  0.8030 -0.0416 -0.0163
  407MPD2    H5 6137   2.313   1.554  10.137 -1.7616  0.3455 -2.3298
  407MPD2    N1 6138   2.294   1.183   9.706  0.2914  0.0465 -0.1959
  407MPD2    H7 6139   2.379   1.143   9.745  0.0247  0.0350  0.3883
  408TMC3    C1 6140   2.354   1.071   9.496  0.2453  0.0230 -0.1517
  408TMC3    C2 6141   2.446   0.982   9.542 -0.3316  0.2285  0.0240
  408TMC3    C3 6142   2.564   0.974   9.477 -0.2988  0.5006 -0.0406
  408TMC3    C4 6143   2.374   1.132   9.379  0.4836 -0.3019 -0.5918
  408TMC3    C5 6144   2.488   1.111   9.310 -1.1721  0.7104  0.4500
  408TMC3    C6 6145   2.587   1.028   9.357  0.0765  0.1923  0.8422
  408TMC3     C 6146   2.246   1.137   9.579  0.2389 -0.2719  0.2186
  408TMC3     O 6147   2.145   1.165   9.520 -0.1950  0.4547 -0.4748
  408TMC3     H 6148   2.435   0.938   9.640  1.8277 -1.9683 -0.7383
  408TMC3    H1 6149   2.294   1.197   9.346  0.9043  1.5724  2.0310
  408TMC3    H2 6150   2.687   1.038   9.318 -0.1994 -0.1454  0.0455
  408TMC3    C7 6151   2.514   1.207   9.204 -0.3205  0.1073 -0.5217
  408TMC3    C8 6152   2.646   0.862   9.529 -0.2866 -0.4291  0.3658
  408TMC3    O1 6153   2.438   1.304   9.200  1.1107  0.2346  0.1815
  408TMC3    O2 6154   2.586   0.765   9.571 -0.0197  0.0612 -0.0214
  409MPD2     C 6155   1.467   1.401  17.002  0.0627 -0.4881  0.4204
  409MPD2    C1 6156   1.602   1.425  17.031  0.1407  0.0059  0.3565
  409MPD2    C2 6157   1.668   1.537  16.978  0.2188 -0.5091  0.1133
  409MPD2    C3 6158   1.598   1.628  16.897 -0.2893 -0.1139 -0.1263
  409MPD2    C4 6159   1.476   1.590  16.853  0.4862 -0.2774  0.4899
  409MPD2    C5 6160   1.408   1.477  16.903  0.0317  0.0739 -0.1131
  409MPD2     H 6161   1.773   1.548  17.000  0.0524  1.7958 -0.1887
  409MPD2    H1 6162   1.417   1.650  16.786 -1.3626 -0.2167  2.1685
  409MPD2    H2 6163   1.410   1.317  17.038 -0.7073  0.0572  0.4601
  409MPD2    H3 6164   1.306   1.457  16.871 -0.1965  0.6673  0.2459
  409MPD2     N 6165   1.651   1.757  16.860 -0.1049 -0.5294  0.1644
  409MPD2    H5 6166   1.595   1.810  16.794  1.4499  1.3132  0.3089
  409MPD2    N1 6167   1.670   1.346  17.132  0.1279 -0.6266  0.0860
  409MPD2    H7 6168   1.769   1.363  17.144  0.1298 -0.6771  0.1388
  410TMC3    C1 6169   1.798   1.949  16.876  0.3540  0.4507 -0.0821
  410TMC3    C2 6170   1.898   2.005  16.954 -0.3296  0.5632 -0.0639
  410TMC3    C3 6171   1.987   2.091  16.900  0.2622 -0.0139 -0.0363
  410TMC3    C4 6172   1.799   1.969  16.745  0.5410 -0.7368  0.6312
  410TMC3    C5 6173   1.893   2.061  16.689  0.6281 -0.8007  0.3700
  410TMC3    C6 6174   1.984   2.123  16.772  0.2726  0.0590  0.2323
  410TMC3     C 6175   1.749   1.826  16.933  0.7592  0.5852  0.2497
  410TMC3     O 6176   1.797   1.786  17.036  0.0681 -0.1709 -0.0430
  410TMC3     H 6177   1.893   2.001  17.062 -0.1897 -2.6764 -0.1773
  410TMC3    H1 6178   1.722   1.921  16.685  2.8023 -1.1750 -1.9227
  410TMC3    H2 6179   2.061   2.195  16.746  2.0321 -3.0413 -3.0381
  410TMC3    C7 6180   1.869   2.098  16.552 -0.1474  0.6439 -0.2554
  410TMC3    C8 6181   2.118   2.108  16.960  0.3099 -0.1101  0.0058
  410TMC3    O1 6182   1.795   2.026  16.484  0.3254  0.0543 -0.3903
  410TMC3    O2 6183   2.195   2.196  16.927  0.4972  0.1983 -0.1494
  411MPD2     C 6184   2.235   2.322  14.446  0.5417 -0.2719 -0.4666
  411MPD2    C1 6185   2.167   2.338  14.566 -0.7459  0.1976  0.6662
  411MPD2    C2 6186   2.057   2.258  14.597 -0.5007  0.3670 -0.0017
  411MPD2    C3 6187   2.016   2.158  14.509  0.1954  0.2708  0.5344
  411MPD2    C4 6188   2.094   2.131  14.405 -0.0796 -0.1747 -0.0059
  411MPD2    C5 6189   2.192   2.221  14.366  0.0780  0.3389  0.2021
  411MPD2     H 6190   2.004   2.264  14.691  0.3471 -0.7089  0.5577
  411MPD2    H1 6191   2.095   2.048  14.335  3.5426 -0.9363  0.9483
  411MPD2    H2 6192   2.319   2.377  14.406  0.5073  1.3531  1.7391
  411MPD2    H3 6193   2.247   2.197  14.275 -0.0574  0.1107  0.1786
  411MPD2     N 6194   1.901   2.080  14.523  0.1184  0.5070  0.3502
  411MPD2    H5 6195   1.882   2.006  14.457 -1.0263  0.5124  0.6726
  411MPD2    N1 6196   2.217   2.441  14.650 -0.1771  0.7046  0.4894
  411MPD2    H7 6197   2.293   2.500  14.616  2.1439 -1.4268  1.8960
  412TMC3    C1 6198   1.700   2.003  14.609  0.5022  0.3710 -1.0248
  412TMC3    C2 6199   1.580   2.041  14.545 -0.1447 -0.1386 -0.1018
  412TMC3    C3 6200   1.502   1.951  14.482  0.3781 -0.3884 -0.4098
  412TMC3    C4 6201   1.749   1.881  14.576 -0.2068 -0.2381 -0.1914
  412TMC3    C5 6202   1.661   1.792  14.525 -0.1565 -0.2554 -0.0950
  412TMC3    C6 6203   1.535   1.820  14.479 -0.3140  0.0390  0.4906
  412TMC3     C 6204   1.806   2.102  14.620  0.0155 -0.4824  0.2352
  412TMC3     O 6205   1.801   2.173  14.720  0.4215  0.2410  0.1781
  412TMC3     H 6206   1.556   2.144  14.522 -1.9686 -0.5793 -0.1379
  412TMC3    H1 6207   1.848   1.848  14.607 -0.1625 -1.2308 -1.3488
  412TMC3    H2 6208   1.464   1.742  14.457 -0.4401  0.4651 -0.5967
  412TMC3    C7 6209   1.713   1.678  14.448  1.3593 -0.2272 -0.6052
  412TMC3    C8 6210   1.441   2.000  14.364 -0.1170  0.1001  0.2189
  412TMC3    O1 6211   1.650   1.573  14.445  1.4078 -0.0072 -0.4124
  412TMC3    O2 6212   1.360   2.088  14.386  0.0261 -0.2866 -0.2986
  413MPD2     C 6213   3.425   4.644  15.075  0.2058  0.4278  0.0018
  413MPD2    C1 6214   3.422   4.723  15.190  0.0213 -0.8156 -0.0952
  413MPD2    C2 6215   3.545   0.009  15.250  0.1805  0.5781  0.3568
  413MPD2    C3 6216   3.666   4.697  15.202  0.8186  1.0399 -0.1371
  413MPD2    C4 6217   3.657   4.599  15.106 -0.9423  0.4098 -0.4372
  413MPD2    C5 6218   3.541   4.588  15.035  0.0766  0.1103 -0.1270
  413MPD2     H 6219   3.555   0.088  15.324  0.5335  0.4115  0.4877
  413MPD2    H1 6220   3.734   4.532  15.070  1.4174  3.0282 -0.2722
  413MPD2    H2 6221   3.344   4.620  15.007 -0.7979  1.1369  0.9441
  413MPD2    H3 6222   3.524   4.523  14.950  1.6880 -0.3562 -0.1054
  413MPD2     N 6223   3.794   4.730  15.260 -0.4948  0.8518  0.1092
  413MPD2    H5 6224   3.798   0.077  15.314  0.5699  1.1412 -0.4256
  413MPD2    N1 6225   3.303   0.048  15.225  0.1058  0.0423  0.6881
  413MPD2    H7 6226   3.223   0.042  15.163  1.3568 -0.6958 -0.8589
  414TMC3    C1 6227   4.029   4.710  15.302 -0.3506 -0.6068 -0.3678
  414TMC3    C2 6228   4.107   4.608  15.362 -0.3993  0.4880  0.0679
  414TMC3    C3 6229   4.231   4.648  15.402 -0.1920  0.3078  0.0215
  414TMC3    C4 6230   4.070   0.103  15.294 -0.6198  0.3741 -0.5466
  414TMC3    C5 6231   4.199   0.130  15.330  0.6516 -0.7742  0.6291
  414TMC3    C6 6232   4.277   0.033  15.393  0.0922  0.4381 -0.1717
  414TMC3     C 6233   3.912   4.663  15.230  0.8903 -0.3807 -0.6334
  414TMC3     O 6234   3.920   4.547  15.190 -0.3566  0.0264 -0.8263
  414TMC3     H 6235   4.071   4.506  15.355 -1.2345  0.7710  0.3086
  414TMC3    H1 6236   4.006   0.167  15.234 -2.4096 -2.6115 -1.8107
  414TMC3    H2 6237   4.380   0.055  15.419 -0.8555  2.4297  1.9296
  414TMC3    C7 6238   4.255   0.256  15.272  0.0807  0.4821 -0.0462
  414TMC3    C8 6239   4.328   4.542  15.399 -0.1192  0.2263 -0.1063
  414TMC3    O1 6240   4.172   0.339  15.243  0.1240  0.7127  0.1586
  414TMC3    O2 6241   4.304   4.441  15.335  0.3655  0.3942  0.1927
  415TMC3    C1 6242   0.437   3.208  10.052  0.0137 -0.0840 -0.3811
  415TMC3    C2 6243   0.570   3.206  10.012 -0.0907 -0.0473 -0.7491
  415TMC3    C3 6244   0.602   3.123   9.906 -0.1146  0.3456  0.2586
  415TMC3    C4 6245   0.345   3.124   9.997  0.0102  0.0480 -0.4205
  415TMC3    C5 6246   0.378   3.053   9.889 -0.1778  0.3359  0.2876
  415TMC3    C6 6247   0.505   3.052   9.841 -0.4756 -0.6915  0.3574
  415TMC3     C 6248   0.409   3.260  10.183 -0.0229  0.3643 -0.5205
  415TMC3     O 6249   0.309   3.224  10.238 -0.1916  0.2986 -0.1791
  415TMC3     H 6250   0.649   3.262  10.061  0.1894  0.7352 -2.0787
  415TMC3    H1 6251   0.249   3.120  10.046  0.2410 -0.5986 -0.0209
  415TMC3    H2 6252   0.523   2.991   9.754  2.0503 -2.3460  2.0377
  415TMC3    C7 6253   0.308   2.936   9.858  0.2401 -0.4448 -0.0451
  415TMC3    C8 6254   0.737   3.108   9.865 -0.3107 -0.6403 -0.0587
  415TMC3    O1 6255   0.349   2.864   9.767  0.0223 -0.0075 -0.5478
  415TMC3    O2 6256   0.784   2.999   9.834  0.5164  0.1530 -0.1741
  416MPD2     C 6257   1.867   2.592  11.485  0.0865  0.9681  0.7056
  416MPD2    C1 6258   1.778   2.509  11.550  0.6199 -0.2772 -0.2767
  416MPD2    C2 6259   1.780   2.373  11.525 -0.2319 -0.3011  0.4541
  416MPD2    C3 6260   1.858   2.324  11.430 -0.5054  0.7682  0.0129
  416MPD2    C4 6261   1.945   2.406  11.364  0.3274 -0.2718 -0.4656
  416MPD2    C5 6262   1.950   2.540  11.392  0.3777 -0.2189  0.0746
  416MPD2     H 6263   1.718   2.308  11.586 -1.6816 -0.4789 -1.2429
  416MPD2    H1 6264   2.005   2.372  11.280  0.2982  0.4559 -0.7877
  416MPD2    H2 6265   1.863   2.692  11.525 -1.2973  1.4050 -0.5149
  416MPD2    H3 6266   2.024   2.600  11.341  0.4034 -0.1526  0.1897
  416MPD2     N 6267   1.840   2.185  11.401 -0.0104 -0.0494 -0.2808
  416MPD2    H5 6268   1.779   2.133  11.463 -0.2032  3.2046  2.3001
  416MPD2    N1 6269   1.679   2.570  11.634  0.0754  0.2730  0.3980
  416MPD2    H7 6270   1.696   2.670  11.628 -2.4382  0.6196 -0.9325
  417TMC3    C1 6271   1.487   2.600  11.763 -0.3977 -0.6006 -0.0789
  417TMC3    C2 6272   1.405   2.560  11.866  0.3641 -0.0535  0.5133
  417TMC3    C3 6273   1.304   2.632  11.904  0.4468  0.1869 -0.1873
  417TMC3    C4 6274   1.442   2.707  11.691  0.4858 -0.6911 -0.2912
  417TMC3    C5 6275   1.331   2.781  11.732 -0.3592 -0.7640  0.6419
  417TMC3    C6 6276   1.255   2.741  11.835  0.1971 -0.0083  0.1674
  417TMC3     C 6277   1.581   2.508  11.704  0.2894 -0.3352  0.5779
  417TMC3     O 6278   1.564   2.387  11.722  0.3185 -0.3230  0.0872
  417TMC3     H 6279   1.446   2.473  11.916  1.8130  0.2710 -0.0928
  417TMC3    H1 6280   1.489   2.726  11.595 -0.3325 -0.9105 -0.7238
  417TMC3    H2 6281   1.188   2.811  11.884  0.0288  1.2941 -1.9176
  417TMC3    C7 6282   1.267   2.856  11.629 -0.0351 -0.9190 -0.6371
  417TMC3    C8 6283   1.271   2.629  12.043  0.2523 -0.1862  0.0136
  417TMC3    O1 6284   1.338   2.888  11.532 -0.6078 -0.0268  0.0827
  417TMC3    O2 6285   1.241   2.731  12.103 -0.1019 -0.1459 -0.4366
  418TMC3    C1 6286   0.119   3.739   0.371  0.6332  0.0825  0.2449
  418TMC3    C2 6287   0.010   3.828   0.386 -0.2900  0.2990 -0.1284
  418TMC3    C3 6288   4.666   3.807   0.485 -0.2416 -0.2817  0.1622
  418TMC3    C4 6289   0.124   3.626   0.454  0.1033 -0.4400 -0.4107
  418TMC3    C5 6290   0.028   3.599   0.544  0.0673  0.3294 -0.0697
  418TMC3    C6 6291   4.672   3.699   0.574 -0.3460 -0.0696  0.0192
  418TMC3     C 6292   0.163   3.733   0.237 -0.3915 -0.0600 -0.7053
  418TMC3     O 6293   0.136   3.824   0.164 -0.4215  0.1104  0.2291
  418TMC3     H 6294   4.719   3.902   0.313 -0.6196 -0.3193 -0.6338
  418TMC3    H1 6295   0.212   3.563   0.457 -1.2636 -2.3593 -0.0713
  418TMC3    H2 6296   4.584   3.691   0.637 -0.7281 -1.1076 -0.6565
  418TMC3    C7 6297   0.017   3.470   0.608 -0.0519  0.0792  0.0118
  418TMC3    C8 6298   4.528   3.835   0.450  0.1401 -0.4252  0.3921
  418TMC3    O1 6299   0.034   3.372   0.541  0.3334 -0.3529  0.1737
  418TMC3    O2 6300   4.491   3.947   0.480 -0.4504 -0.0187  0.4440
  419MPD2     C 6301   3.660   1.775  12.629  0.4154 -0.4705  0.0317
  419MPD2    C1 6302   3.663   1.910  12.612 -0.9536  0.2762 -0.5038
  419MPD2    C2 6303   3.642   1.996  12.720 -0.3420 -0.0468  0.1857
  419MPD2    C3 6304   3.612   1.937  12.838 -0.1664  0.1805  0.2275
  419MPD2    C4 6305   3.603   1.804  12.858  1.0000 -0.3046 -1.1277
  419MPD2    C5 6306   3.628   1.724  12.755  0.8434 -0.5972 -0.0694
  419MPD2     H 6307   3.646   2.103  12.704 -0.3273 -0.2274 -0.9986
  419MPD2    H1 6308   3.580   1.764  12.956  2.1041 -0.8004 -1.0658
  419MPD2    H2 6309   3.673   1.701  12.551 -1.4637  1.7198 -2.3651
  419MPD2    H3 6310   3.630   1.616  12.770  1.5531 -0.4581  0.8322
  419MPD2     N 6311   3.587   2.030  12.945 -0.7687 -0.0248  0.6307
  419MPD2    H5 6312   3.568   2.124  12.912 -0.5931  0.5206  2.1036
  419MPD2    N1 6313   3.685   1.973  12.488 -0.0999 -0.0674 -0.3674
  419MPD2    H7 6314   3.671   2.073  12.481  0.2657  0.1253  1.8733
  420TMC3    C1 6315   3.576   2.116  13.161 -0.4830  0.5195  0.0698
  420TMC3    C2 6316   3.528   2.230  13.110 -0.0131  0.6780  0.2892
  420TMC3    C3 6317   3.453   2.316  13.183  0.1453  0.1376  0.2587
  420TMC3    C4 6318   3.571   2.101  13.300 -0.0702 -0.4311  0.2172
  420TMC3    C5 6319   3.510   2.195  13.380  0.4567 -0.4873  0.5206
  420TMC3    C6 6320   3.443   2.300  13.321 -0.0959  0.6507 -0.3411
  420TMC3     C 6321   3.590   1.999  13.080  0.1739 -0.2579  0.1461
  420TMC3     O 6322   3.610   1.896  13.142  0.1767  0.2588  0.0769
  420TMC3     H 6323   3.553   2.261  13.009 -0.7767 -0.1779 -0.1649
  420TMC3    H1 6324   3.612   2.014  13.349  0.0366  0.2549  1.3457
  420TMC3    H2 6325   3.387   2.373  13.379 -0.3056 -0.7586  1.2320
  420TMC3    C7 6326   3.531   2.182  13.527  0.4928 -0.0524 -0.2388
  420TMC3    C8 6327   3.362   2.393  13.116  0.1423  0.0798 -0.4318
  420TMC3    O1 6328   3.620   2.109  13.566 -0.5144 -0.3509  0.6302
  420TMC3    O2 6329   3.390   2.443  13.009 -0.0682  0.2770 -0.1074
  421TMC3    C1 6330   4.562   3.901  13.776 -0.5026 -0.2026 -0.3676
  421TMC3    C2 6331   4.636   4.015  13.792  0.0815 -0.0712  0.9684
  421TMC3    C3 6332   0.027   3.987  13.816 -0.0808  0.8191  0.5019
  421TMC3    C4 6333   4.604   3.772  13.797  0.4214  0.3593  0.8434
  421TMC3    C5 6334   4.739   3.755  13.823  0.5678  0.6898  0.0945
  421TMC3    C6 6335   0.080   3.862  13.837  0.9778 -0.9941  0.0845
  421TMC3     C 6336   4.422   3.919  13.777  0.1426 -0.9971 -0.4161
  421TMC3     O 6337   4.388   4.008  13.845  0.1808  0.6478 -0.8437
  421TMC3     H 6338   4.597   4.115  13.771 -2.2396 -1.5065 -1.6034
  421TMC3    H1 6339   4.523   3.702  13.811  0.9926 -0.4659  0.0345
  421TMC3    H2 6340   0.185   3.841  13.855  1.3719  0.9584  0.0826
  421TMC3    C7 6341   0.070   3.629  13.819 -1.3689 -0.4235  0.0768
  421TMC3    C8 6342   0.111   4.100  13.854  0.1566 -0.0376 -0.4281
  421TMC3    O1 6343   0.184   3.628  13.859 -0.0185  0.3114 -0.6322
  421TMC3    O2 6344   0.232   4.079  13.847 -0.2770  0.6024 -0.3914
  422TMC3    C1 6345   2.268   0.889  12.435 -0.4107 -0.2477  1.0792
  422TMC3    C2 6346   2.171   0.981  12.459  0.0018  0.4689 -0.3306
  422TMC3    C3 6347   2.034   0.951  12.431 -0.3359  0.2527  0.3694
  422TMC3    C4 6348   2.230   0.768  12.384  0.5674 -0.3469 -0.3033
  422TMC3    C5 6349   2.095   0.738  12.376  0.3732  0.3205  0.5940
  422TMC3    C6 6350   1.998   0.832  12.385 -0.3291 -0.1005  0.9286
  422TMC3     C 6351   2.413   0.918  12.454  0.4630 -0.3783  0.2623
  422TMC3     O 6352   2.492   0.827  12.465  0.5760  0.3000  0.2443
  422TMC3     H 6353   2.199   1.072  12.511 -0.5201 -0.8518  2.2854
  422TMC3    H1 6354   2.302   0.689  12.366  1.0288 -0.5381  2.4637
  422TMC3    H2 6355   1.895   0.804  12.367  0.2042 -2.0597  0.8519
  422TMC3    C7 6356   2.057   0.621  12.314 -0.3906  0.1304 -0.1176
  422TMC3    C8 6357   1.924   1.039  12.463 -0.2831 -0.5350 -0.5704
  422TMC3    O1 6358   2.126   0.578  12.223  0.0955 -0.2410  0.0448
  422TMC3    O2 6359   1.817   1.014  12.419 -0.2200  0.2221 -0.3503
  423MPD2     C 6360   3.481   1.192   0.408 -0.2534  0.3485  0.6714
  423MPD2    C1 6361   3.510   1.062   0.446 -0.9859  0.3404  0.8951
  423MPD2    C2 6362   3.448   0.959   0.375 -0.0576  0.5280  0.0188
  423MPD2    C3 6363   3.355   0.986   0.266 -0.5382  0.8354  0.4452
  423MPD2    C4 6364   3.329   1.113   0.235 -0.0827  0.6518  0.2416
  423MPD2    C5 6365   3.390   1.215   0.312  0.2227  0.1249  0.0590
  423MPD2     H 6366   3.466   0.856   0.404  0.4936  0.5480 -0.2378
  423MPD2    H1 6367   3.275   1.138   0.145  0.7506  2.2657  0.1966
  423MPD2    H2 6368   3.531   1.273   0.460 -0.8619  0.4801  1.0552
  423MPD2    H3 6369   3.387   1.315   0.270  0.6645  1.0285  2.1244
  423MPD2     N 6370   3.283   0.887   0.184 -0.3119  0.4602  0.0613
  423MPD2    H5 6371   3.221   0.916   0.109  1.2925 -0.1502 -1.4950
  423MPD2    N1 6372   3.593   1.024   0.550 -0.1085  0.2455 -0.2418
  423MPD2    H7 6373   3.616   0.927   0.566 -2.3793 -0.3467 -0.6758
  424TMC3    C1 6374   3.745   1.042   0.728 -0.4940  0.4287  0.5759
  424TMC3    C2 6375   3.789   0.911   0.703 -0.1992  0.5335  0.4033
  424TMC3    C3 6376   3.850   0.843   0.804  0.6240 -0.2885  0.1216
  424TMC3    C4 6377   3.745   1.094   0.856 -0.2002  0.0375  0.2386
  424TMC3    C5 6378   3.806   1.016   0.953 -0.2647 -0.9723 -0.7707
  424TMC3    C6 6379   3.863   0.892   0.928  0.1624  0.2661 -0.1825
  424TMC3     C 6380   3.666   1.115   0.631 -0.1395 -0.4188 -0.1486
  424TMC3     O 6381   3.646   1.235   0.645  0.2795 -0.5145 -0.0481
  424TMC3     H 6382   3.814   0.885   0.601 -0.8791  1.9104 -0.1279
  424TMC3    H1 6383   3.722   1.199   0.872 -1.9423 -0.3824  0.4758
  424TMC3    H2 6384   3.895   0.830   1.010  0.0922  2.1494  1.2727
  424TMC3    C7 6385   3.805   1.075   1.088 -0.3585  0.5188  0.1243
  424TMC3    C8 6386   3.897   0.709   0.783 -0.0730  0.2753 -0.0609
  424TMC3    O1 6387   3.913   1.093   1.150 -0.0047 -0.1350  0.4387
  424TMC3    O2 6388   3.901   0.630   0.872 -0.3986 -0.1856  0.2541
  425MPD2     C 6389   2.755   0.362  17.159  0.2009 -0.6336 -0.6245
  425MPD2    C1 6390   2.636   0.291  17.145 -0.3491  0.3185 -0.3171
  425MPD2    C2 6391   2.518   0.348  17.190  0.9374 -0.4346  0.1180
  425MPD2    C3 6392   2.523   0.466  17.262  0.1440 -0.1401 -0.0331
  425MPD2    C4 6393   2.646   0.530  17.277 -0.1350 -0.0953 -0.3734
  425MPD2    C5 6394   2.761   0.477  17.226 -0.3256 -0.5507 -0.3637
  425MPD2     H 6395   2.424   0.303  17.160 -1.1377  2.4812  2.1187
  425MPD2    H1 6396   2.655   0.618  17.339  1.3598 -0.4277 -0.1258
  425MPD2    H2 6397   2.848   0.322  17.122  1.3151  0.4032  1.0548
  425MPD2    H3 6398   2.857   0.525  17.240 -1.8605  1.5621  3.0288
  425MPD2     N 6399   2.408   0.507  17.326 -0.1738 -0.6621 -0.5526
  425MPD2    H5 6400   2.331   0.448  17.295 -0.6555 -0.4491  0.2506
  425MPD2    N1 6401   2.636   0.183  17.049  0.5881 -0.1579  0.1963
  425MPD2    H7 6402   2.722   0.156  17.004  1.4494  2.9177 -0.0206
  426TMC3    C1 6403   2.559   4.706  16.970 -0.6420 -0.1161  0.0130
  426TMC3    C2 6404   2.659   4.712  16.876 -0.1306  0.0465  0.2615
  426TMC3    C3 6405   2.681   4.594  16.810  0.1693  0.2247  0.1927
  426TMC3    C4 6406   2.492   4.592  17.003  0.2294 -0.3611 -0.8632
  426TMC3    C5 6407   2.516   4.480  16.925  0.2373  0.1364  0.4544
  426TMC3    C6 6408   2.614   4.475  16.833 -0.5548 -0.0747  0.1055
  426TMC3     C 6409   2.527   0.094  17.041  0.0614  0.4916 -0.1956
  426TMC3     O 6410   2.420   0.086  17.097 -0.2291  0.2948 -0.3804
  426TMC3     H 6411   2.702   0.064  16.837  0.1219 -0.2385 -0.1289
  426TMC3    H1 6412   2.426   4.589  17.089  1.1750 -1.3816 -0.1788
  426TMC3    H2 6413   2.627   4.389  16.768  0.0004 -0.6105  0.9176
  426TMC3    C7 6414   2.436   4.358  16.941 -0.0805 -0.2210  0.0549
  426TMC3    C8 6415   2.774   4.582  16.696  0.1691 -0.4591 -1.3266
  426TMC3    O1 6416   2.455   4.260  16.873 -0.3416 -0.2161 -0.2131
  426TMC3    O2 6417   2.817   4.469  16.670 -0.3323 -0.2028 -0.1583
  427MPD2     C 6418   1.268   2.642  14.940 -0.3342  0.4779  0.5265
  427MPD2    C1 6419   1.204   2.564  15.044  0.1235  0.1615 -0.5703
  427MPD2    C2 6420   1.071   2.598  15.088 -0.1480 -0.5661  0.5236
  427MPD2    C3 6421   1.012   2.706  15.042 -0.1942  0.7597  0.2083
  427MPD2    C4 6422   1.061   2.776  14.933 -0.3171  0.4759 -0.0242
  427MPD2    C5 6423   1.189   2.746  14.886 -0.7263 -0.3862  1.1017
  427MPD2     H 6424   1.026   2.533  15.162 -1.0462  0.0209  0.4878
  427MPD2    H1 6425   0.997   2.849  14.885 -0.3198 -0.1340 -0.9687
  427MPD2    H2 6426   1.361   2.617  14.892 -1.8664 -2.5862 -0.8825
  427MPD2    H3 6427   1.233   2.805  14.806 -0.6106 -3.2393 -0.9188
  427MPD2     N 6428   0.888   2.755  15.093  0.0080 -0.4848  0.3692
  427MPD2    H5 6429   0.840   2.826  15.038 -2.0968 -0.6161  2.0169
  427MPD2    N1 6430   1.268   2.453  15.101  0.6588 -0.2915  0.0182
  427MPD2    H7 6431   1.219   2.404  15.176 -0.9432  1.3517  0.0348
  428TMC3    C1 6432   1.449   2.317  15.172 -0.6606 -0.4277 -0.1557
  428TMC3    C2 6433   1.362   2.234  15.247  0.4151 -0.5118 -0.2857
  428TMC3    C3 6434   1.425   2.144  15.322  0.2981  0.2566  0.4079
  428TMC3    C4 6435   1.587   2.309  15.183 -0.2670 -0.2741  0.4301
  428TMC3    C5 6436   1.643   2.209  15.257  0.3179 -0.3024  0.3778
  428TMC3    C6 6437   1.563   2.120  15.328 -0.2608  0.3071  0.2022
  428TMC3     C 6438   1.402   2.423  15.086 -0.1171  0.1178  0.5245
  428TMC3     O 6439   1.487   2.478  15.025  0.4570  0.2128  0.3767
  428TMC3     H 6440   1.253   2.237  15.247  0.4207 -0.1674  0.3530
  428TMC3    H1 6441   1.651   2.391  15.155 -1.7612  0.7546  0.0179
  428TMC3    H2 6442   1.606   2.034  15.379  0.5750  0.7927  0.3295
  428TMC3    C7 6443   1.771   2.226  15.320 -0.6225  0.0100  0.0123
  428TMC3    C8 6444   1.355   2.028  15.376 -0.0154 -0.5663 -0.3330
  428TMC3    O1 6445   1.769   2.198  15.438 -0.3825  0.1139 -0.1063
  428TMC3    O2 6446   1.417   1.919  15.374  0.1440  0.1958  0.0859
  429MPD2     C 6447   2.544   2.512   0.069 -0.0476 -0.5335 -0.6472
  429MPD2    C1 6448   2.527   2.419  17.720  0.5049  0.1667 -0.3013
  429MPD2    C2 6449   2.532   2.471  17.589 -0.3905  1.0226 -0.0529
  429MPD2    C3 6450   2.566   2.602  17.563 -0.3970 -0.3876  0.1345
  429MPD2    C4 6451   2.578   2.683  17.677  0.1194  0.6146  0.0798
  429MPD2    C5 6452   2.567   2.639   0.050 -0.2531  0.9262  0.5608
  429MPD2     H 6453   2.504   2.412  17.503  3.2709 -2.9993  1.5005
  429MPD2    H1 6454   2.600   2.789  17.671  1.8805  0.1685 -1.3546
  429MPD2    H2 6455   2.530   2.482   0.173  2.5837 -0.1179 -0.1767
  429MPD2    H3 6456   2.557   2.710   0.132 -0.2012 -0.5263  1.8163
  429MPD2     N 6457   2.552   2.653  17.431 -0.2405  0.3897 -0.3656
  429MPD2    H5 6458   2.508   2.588  17.367  1.8398 -1.9060  0.5355
  429MPD2    N1 6459   2.493   2.281  17.741  0.2176  0.1518 -0.0871
  429MPD2    H7 6460   2.455   2.234  17.659  0.7466  0.2811 -0.4066
  430TMC3    C1 6461   2.578   2.805  17.250 -0.1594  0.8473  0.4361
  430TMC3    C2 6462   2.556   2.933  17.195  0.3030  0.6810  0.5629
  430TMC3    C3 6463   2.525   2.937  17.065  0.5874  0.0111 -0.2621
  430TMC3    C4 6464   2.574   2.693  17.168 -0.7617 -0.8501  0.0135
  430TMC3    C5 6465   2.549   2.708  17.031  0.4257 -1.0263  0.0996
  430TMC3    C6 6466   2.534   2.829  16.979 -0.8364 -0.2354 -0.7193
  430TMC3     C 6467   2.602   2.781  17.392  0.3830 -0.7825  0.6638
  430TMC3     O 6468   2.665   2.860  17.459  0.0782  0.4904 -0.2303
  430TMC3     H 6469   2.539   3.022  17.255  3.0654 -0.0353  2.4144
  430TMC3    H1 6470   2.609   2.596  17.201  0.2280 -1.2017 -2.0588
  430TMC3    H2 6471   2.527   2.846  16.872  0.3889  2.5472 -0.3505
  430TMC3    C7 6472   2.524   2.584  16.960 -0.0384  0.5096  0.4715
  430TMC3    C8 6473   2.485   3.055  17.014 -0.1176 -0.5271 -0.1331
  430TMC3    O1 6474   2.538   2.480  17.017  0.3760  0.1438  0.2651
  430TMC3    O2 6475   2.527   3.161  17.052 -0.3580 -0.7718  0.2778
  431MPD2     C 6476   3.352   2.704  12.429 -0.8310 -0.3663  0.1433
  431MPD2    C1 6477   3.467   2.727  12.347  0.3581 -0.6747  0.4940
  431MPD2    C2 6478   3.538   2.619  12.288  0.2253  0.0318  0.1469
  431MPD2    C3 6479   3.492   2.491  12.310  0.7113  0.2961 -0.1607
  431MPD2    C4 6480   3.379   2.471  12.384  0.9267 -0.5620  0.0579
  431MPD2    C5 6481   3.315   2.574  12.448 -0.0569  0.2523 -0.0119
  431MPD2     H 6482   3.629   2.634  12.232  0.1539  1.7091  0.4938
  431MPD2    H1 6483   3.336   2.372  12.392  0.6871 -0.4921 -0.4141
  431MPD2    H2 6484   3.296   2.786  12.474 -0.2628  0.3637 -0.4779
  431MPD2    H3 6485   3.241   2.559  12.526  1.7170 -0.5281  1.5161
  431MPD2     N 6486   3.555   2.375  12.266  0.2699 -0.2094  0.3359
  431MPD2    H5 6487   3.499   2.290  12.275  0.7215 -0.7376 -1.8607
  431MPD2    N1 6488   3.525   2.853  12.330  0.0503 -0.6241  0.3080
  431MPD2    H7 6489   3.617   2.864  12.288  0.5044 -0.4205  1.3667
  432TMC3    C1 6490   3.721   2.233  12.183  0.4964  0.6135 -0.5628
  432TMC3    C2 6491   3.820   2.213  12.096  0.5263 -0.3315 -0.4137
  432TMC3    C3 6492   3.882   2.094  12.101  0.0328  0.1081  0.2888
  432TMC3    C4 6493   3.678   2.132  12.272  0.2132 -0.1588 -0.2517
  432TMC3    C5 6494   3.744   2.015  12.266 -0.6216 -0.6812 -0.0321
  432TMC3    C6 6495   3.859   1.994  12.193  0.0482 -0.0474  0.3257
  432TMC3     C 6496   3.674   2.366  12.201  0.4355 -0.3170 -0.1300
  432TMC3     O 6497   3.745   2.456  12.156  0.0380  0.0662 -0.0789
  432TMC3     H 6498   3.843   2.295  12.028  2.3214 -1.9102 -1.6962
  432TMC3    H1 6499   3.591   2.154  12.333  0.2250  3.2075 -1.3991
  432TMC3    H2 6500   3.904   1.895  12.191 -0.0063 -0.0418 -1.4517
  432TMC3    C7 6501   3.721   1.915  12.369  0.1973 -0.1940  0.1889
  432TMC3    C8 6502   3.941   2.054  11.978 -0.5168 -0.2098  0.1969
  432TMC3    O1 6503   3.763   1.802  12.353 -0.4931 -0.2633  0.0386
  432TMC3    O2 6504   3.926   1.934  11.948 -0.1378  0.1405  0.1031
  433MPD2     C 6505   2.540   1.663  10.996  0.4140 -0.8500 -0.1229
  433MPD2    C1 6506   2.486   1.552  11.053  0.0563 -0.2793 -0.5170
  433MPD2    C2 6507   2.497   1.538  11.190  0.2631  0.2366 -0.1064
  433MPD2    C3 6508   2.568   1.632  11.265 -0.3342 -0.1523  0.2606
  433MPD2    C4 6509   2.607   1.751  11.203 -0.1274  0.1594 -0.4874
  433MPD2    C5 6510   2.578   1.769  11.068  0.4877  0.3237  0.1157
  433MPD2     H 6511   2.463   1.451  11.244  1.6227 -0.7845 -0.8756
  433MPD2    H1 6512   2.656   1.831  11.258  0.9846 -0.2700 -0.8646
  433MPD2    H2 6513   2.539   1.664  10.888  0.0590 -0.4083 -0.1131
  433MPD2    H3 6514   2.611   1.863  11.024  2.8960 -1.1750 -1.2338
  433MPD2     N 6515   2.607   1.604  11.398 -0.2464  0.3399 -0.0124
  433MPD2    H5 6516   2.573   1.516  11.433  0.6404 -0.0865 -0.2351
  433MPD2    N1 6517   2.431   1.456  10.968  0.0643  0.3006 -0.6547
  433MPD2    H7 6518   2.433   1.471  10.868 -2.7835 -0.8214 -0.8745
  434TMC3    C1 6519   2.345   1.240  10.913  0.8869  0.6270 -0.4132
  434TMC3    C2 6520   2.384   1.116  10.957 -0.0574  0.5145  0.7367
  434TMC3    C3 6521   2.454   1.026  10.876  0.0802  0.6494  0.5145
  434TMC3    C4 6522   2.365   1.277  10.781 -0.2768  0.5608 -0.1243
  434TMC3    C5 6523   2.417   1.170  10.698 -0.1350  0.3016  0.4232
  434TMC3    C6 6524   2.484   1.062  10.744  0.7822  0.4129  0.0654
  434TMC3     C 6525   2.375   1.338  11.014 -0.4683 -0.2469 -0.4897
  434TMC3     O 6526   2.371   1.294  11.129  0.0384 -0.3950  0.4322
  434TMC3     H 6527   2.347   1.090  11.055 -0.3886 -0.2872  0.4065
  434TMC3    H1 6528   2.315   1.355  10.725  0.1912  2.6337  2.3512
  434TMC3    H2 6529   2.537   1.000  10.673  1.8972  0.7352  0.6112
  434TMC3    C7 6530   2.346   1.144  10.576  0.4041 -0.2720 -0.0898
  434TMC3    C8 6531   2.507   0.912  10.954  0.0907  0.2725 -0.6362
  434TMC3    O1 6532   2.357   1.236  10.496  0.0269  0.5759  0.0938
  434TMC3    O2 6533   2.482   0.902  11.074  0.9541 -0.2084  0.2908
  435MPD2     C 6534   4.426   1.102  15.514 -0.4063  0.3838 -0.1765
  435MPD2    C1 6535   4.367   1.099  15.640  0.2719  0.2626 -0.3557
  435MPD2    C2 6536   4.450   1.060  15.748  0.0070 -0.0714 -0.2501
  435MPD2    C3 6537   4.578   1.020  15.730  0.1998  0.1067  0.1433
  435MPD2    C4 6538   4.633   1.033  15.604  0.2478 -0.3029  0.2323
  435MPD2    C5 6539   4.560   1.090  15.502  0.6244  0.4167 -0.0436
  435MPD2     H 6540   4.411   1.085  15.846 -1.9187  0.6186 -1.1964
  435MPD2    H1 6541   4.739   1.018  15.587  0.6967 -0.3766  3.0487
  435MPD2    H2 6542   4.361   1.119  15.428  0.5321 -1.4664 -1.2337
  435MPD2    H3 6543   4.610   1.108  15.408  1.2328 -0.7946  0.0598
  435MPD2     N 6544   4.655   0.970  15.837 -0.2666 -0.1767 -0.6917
  435MPD2    H5 6545   4.606   0.966  15.926  0.6469  2.5676 -0.0408
  435MPD2    N1 6546   4.239   1.124  15.686 -1.0426  0.9419 -0.6760
  435MPD2    H7 6547   4.217   1.111  15.784 -1.7769  2.2349 -0.6815
  436TMC3    C1 6548   3.879   1.300  15.828  0.0937  0.3729  0.2084
  436TMC3    C2 6549   3.990   1.234  15.793 -1.0818 -0.8910  0.3592
  436TMC3    C3 6550   4.007   1.209  15.655 -0.4809  0.3585 -0.4261
  436TMC3    C4 6551   3.780   1.335  15.736 -0.3883  0.0014  0.5027
  436TMC3    C5 6552   3.801   1.306  15.605  0.1616  0.3767 -0.1200
  436TMC3    C6 6553   3.914   1.239  15.557 -0.1654 -0.2862  0.7273
  436TMC3     C 6554   3.864   1.342  15.965  0.4658 -0.2215 -0.3785
  436TMC3     O 6555   3.966   1.330  16.035 -0.1455 -0.1145  0.0960
  436TMC3     H 6556   4.070   1.205  15.860  1.1875  1.6032 -1.2497
  436TMC3    H1 6557   3.693   1.386  15.776 -1.3414 -1.2124  0.0103
  436TMC3    H2 6558   3.942   1.237  15.453 -1.4289 -2.3129  0.4175
  436TMC3    C7 6559   3.701   1.359  15.510  0.4232  0.3176  0.7109
  436TMC3    C8 6560   4.141   1.180  15.604  0.2468 -0.9577  0.6122
  436TMC3    O1 6561   3.603   1.406  15.564 -0.5356 -0.5775  0.0982
  436TMC3    O2 6562   4.153   1.192  15.488 -0.2549 -0.4593 -0.4038
  437TMC3    C1 6563   2.976   3.986  12.306 -0.2043 -0.1428  0.3790
  437TMC3    C2 6564   2.917   4.081  12.222  0.6895  0.4233 -0.0471
  437TMC3    C3 6565   2.973   4.105  12.104 -0.3844 -0.7371 -0.4695
  437TMC3    C4 6566   3.092   3.919  12.270 -0.4239 -0.1346  0.0376
  437TMC3    C5 6567   3.132   3.936  12.143 -0.2862 -0.4265  0.8018
  437TMC3    C6 6568   3.075   4.027  12.057  0.5730  0.5396  0.0405
  437TMC3     C 6569   2.898   3.946  12.423 -0.1821  0.1939  0.5893
  437TMC3     O 6570   2.785   3.999  12.433  0.2027 -0.4099 -0.5712
  437TMC3     H 6571   2.833   4.133  12.265 -0.1670  0.4571 -1.7442
  437TMC3    H1 6572   3.119   3.835  12.334  1.2059 -1.1203 -1.9734
  437TMC3    H2 6573   3.114   4.049  11.959  1.0254 -1.9672 -0.3383
  437TMC3    C7 6574   3.258   3.878  12.100  0.2034  0.0971 -0.0896
  437TMC3    C8 6575   2.942   4.224  12.027  0.0865  0.2341 -0.4422
  437TMC3    O1 6576   3.283   3.889  11.980 -0.1855 -0.3126  0.2149
  437TMC3    O2 6577   2.999   4.231  11.918  0.8559 -0.3281  0.0333
  438MPD2     C 6578   4.673   3.581  16.722 -0.2805 -0.7953  0.6641
  438MPD2    C1 6579   0.034   3.509  16.770 -0.6506  0.2796 -0.2224
  438MPD2    C2 6580   0.035   3.458  16.899  0.0673 -0.4662  0.1282
  438MPD2    C3 6581   4.661   3.478  16.978  0.3105  0.3150  0.6320
  438MPD2    C4 6582   4.560   3.553  16.925 -0.0989  0.0408  0.1146
  438MPD2    C5 6583   4.556   3.596  16.790  0.1626 -0.2381  0.7522
  438MPD2     H 6584   0.125   3.404  16.927  0.5569  0.6494  0.7466
  438MPD2    H1 6585   4.478   3.577  16.991 -0.7405  1.6743 -1.2577
  438MPD2    H2 6586   4.669   3.624  16.622 -1.6576 -2.5770 -0.0482
  438MPD2    H3 6587   4.472   3.653  16.750 -0.0559 -1.0338  0.0942
  438MPD2     N 6588   4.642   3.430  17.105 -0.7505  0.2818 -0.3020
  438MPD2    H5 6589   4.568   3.473  17.160  0.6781 -0.8776  2.5627
  438MPD2    N1 6590   0.141   3.477  16.687  0.2394 -0.2313  0.2348
  438MPD2    H7 6591   0.231   3.460  16.732 -0.3688 -1.4567  0.9706
  439TMC3    C1 6592   0.267   3.488  16.483 -0.3235  0.3869 -0.2065
  439TMC3    C2 6593   0.266   3.480  16.348  1.1243  0.5331  0.8363
  439TMC3    C3 6594   0.337   3.549  16.261  0.3333  0.4780  0.0759
  439TMC3    C4 6595   0.368   3.571  16.529 -0.2718  0.0610  0.1638
  439TMC3    C5 6596   0.447   3.642  16.439  0.6758 -0.7231  0.3191
  439TMC3    C6 6597   0.424   3.640  16.303 -0.0204  0.4525 -1.2820
  439TMC3     C 6598   0.142   3.470  16.548  0.4774 -0.0191  0.8272
  439TMC3     O 6599   0.045   3.451  16.473 -0.1333  0.0291  0.3612
  439TMC3     H 6600   0.191   3.418  16.299 -1.2297  0.7432  4.1327
  439TMC3    H1 6601   0.388   3.583  16.635  1.0922 -2.2648  0.1799
  439TMC3    H2 6602   0.473   3.708  16.234  2.2558 -0.6861 -0.7750
  439TMC3    C7 6603   0.584   3.642  16.475 -0.0824 -0.4284  0.6191
  439TMC3    C8 6604   0.400   3.469  16.162  0.0541 -0.2526  0.3956
  439TMC3    O1 6605   0.615   3.575  16.575 -0.2552 -0.0767  0.1269
  439TMC3    O2 6606   0.423   3.355  16.203 -0.2985 -0.0186 -0.3077
  440MPD2     C 6607   4.574   4.379  14.422  0.1856 -0.0422  0.5634
  440MPD2    C1 6608   4.560   4.446  14.545 -0.0472 -0.0628 -0.6503
  440MPD2    C2 6609   4.588   4.380  14.660  0.7224 -0.3194 -0.8462
  440MPD2    C3 6610   4.642   4.253  14.661  0.4864 -0.7634  0.9056
  440MPD2    C4 6611   4.664   4.186  14.541  0.4513 -0.1312  0.6693
  440MPD2    C5 6612   4.630   4.251  14.424 -0.3099 -0.3972 -0.8655
  440MPD2     H 6613   4.557   4.422  14.754 -0.2094 -0.1894 -1.2133
  440MPD2    H1 6614   4.711   4.090  14.522 -0.3217 -0.7296  1.7136
  440MPD2    H2 6615   4.548   4.414  14.323  1.2116 -2.2181 -0.4889
  440MPD2    H3 6616   4.647   4.189  14.337  0.0616 -1.1777 -0.2351
  440MPD2     N 6617   4.685   4.203  14.787 -0.6021  0.3923 -0.8685
  440MPD2    H5 6618   4.650   4.257  14.866 -0.0158 -3.5050  2.0653
  440MPD2    N1 6619   4.495   4.572  14.555 -0.0572 -0.2548 -0.1824
  440MPD2    H7 6620   4.486   4.624  14.641 -0.1466  0.2842 -0.5152
  441TMC3    C1 6621   0.029   4.043  14.941 -0.3765 -0.7369  0.3933
  441TMC3    C2 6622   0.063   4.132  15.034  0.0691  0.9773  0.0069
  441TMC3    C3 6623   0.125   4.086  15.144 -0.1169  0.2494  0.1728
  441TMC3    C4 6624   0.049   3.907  14.958  0.1895  0.7142 -0.5920
  441TMC3    C5 6625   0.106   3.863  15.074 -0.6473  0.1782 -0.0322
  441TMC3    C6 6626   0.145   3.958  15.171 -0.4063 -0.0473 -0.2981
  441TMC3     C 6627   0.012   4.081  14.803  0.6314  0.1543 -0.0311
  441TMC3     O 6628   0.026   3.994  14.719 -0.6678 -0.0147 -0.0838
  441TMC3     H 6629   0.053   4.238  15.015 -3.1977  0.6339 -0.1303
  441TMC3    H1 6630   0.008   3.841  14.883  0.7027 -1.3314  0.9260
  441TMC3    H2 6631   0.169   3.923  15.271  0.4415  1.1676 -0.0868
  441TMC3    C7 6632   0.021   3.763  15.138  0.2034  1.1074  0.7217
  441TMC3    C8 6633   0.118   4.167  15.261 -0.6352 -0.6992 -0.2101
  441TMC3    O1 6634   4.650   3.751  15.086 -0.7382 -0.5177  0.0285
  441TMC3    O2 6635   0.194   4.139  15.352 -0.1427  0.2183  0.1557
  442MPD2     C 6636   2.625   0.058  16.175  0.9521 -0.0956  0.0814
  442MPD2    C1 6637   2.487   0.030  16.172  0.2583 -0.6493  0.0429
  442MPD2    C2 6638   2.455   4.659  16.097  0.3628 -0.1252 -0.1463
  442MPD2    C3 6639   2.548   4.581  16.033 -0.2381 -0.2712 -0.5468
  442MPD2    C4 6640   2.682   4.619  16.030  0.4940 -0.3230 -0.2469
  442MPD2    C5 6641   2.714   4.725  16.104  0.2254 -0.1082 -0.5006
  442MPD2     H 6642   2.353   4.643  16.063  0.0999 -1.2684  1.1595
  442MPD2    H1 6643   2.754   4.564  15.971 -0.2226 -0.7020 -0.7673
  442MPD2    H2 6644   2.667   0.131  16.244  0.8756 -1.1262  1.2267
  442MPD2    H3 6645   2.820   0.006  16.111 -0.2715  3.2891 -2.5963
  442MPD2     N 6646   2.518   4.472  15.949  0.4903 -0.0717 -0.2969
  442MPD2    H5 6647   2.594   4.417  15.910  0.7075  1.2865 -1.8063
  442MPD2    N1 6648   2.391   0.114  16.238 -0.5943  0.5578 -0.5238
  442MPD2    H7 6649   2.291   0.115  16.222 -0.6470 -0.7275 -0.2790
  443TMC3    C1 6650   2.307   0.295  16.339 -0.0299 -0.1306  0.2580
  443TMC3    C2 6651   2.265   0.362  16.227 -0.1840 -0.0352 -0.3057
  443TMC3    C3 6652   2.191   0.477  16.249  0.2583  0.1402 -0.2169
  443TMC3    C4 6653   2.289   0.344  16.463 -0.3880 -0.1291 -0.2732
  443TMC3    C5 6654   2.214   0.457  16.485  0.3482  0.1823 -0.6917
  443TMC3    C6 6655   2.171   0.522  16.376  0.1201  0.5050 -0.5491
  443TMC3     C 6656   2.417   0.209  16.328 -0.1038 -0.1783 -0.9065
  443TMC3     O 6657   2.517   0.243  16.391 -0.4020 -0.1217  0.3414
  443TMC3     H 6658   2.284   0.324  16.127  0.5754  1.0185 -0.5583
  443TMC3    H1 6659   2.327   0.295  16.553 -0.1044  1.0040  0.2267
  443TMC3    H2 6660   2.115   0.615  16.383 -1.0784 -0.2320 -0.3770
  443TMC3    C7 6661   2.142   0.480  16.613 -0.0161 -0.1645  0.0291
  443TMC3    C8 6662   2.094   0.516  16.155  0.4330 -0.2328  0.7126
  443TMC3    O1 6663   2.127   0.595  16.659 -0.4134  0.3289 -0.0974
  443TMC3    O2 6664   2.035   0.621  16.161  0.1846 -0.6427 -0.2619
  444MPD2     C 6665   2.379   4.589  16.576  0.3176 -0.0373  0.1378
  444MPD2    C1 6666   2.324   4.464  16.580  0.6600  0.2976  0.1731
  444MPD2    C2 6667   2.383   4.361  16.509  0.3938 -0.1789 -0.2770
  444MPD2    C3 6668   2.504   4.380  16.438 -0.6141 -0.3414  0.2528
  444MPD2    C4 6669   2.550   4.512  16.434  0.0872  0.4682 -0.2370
  444MPD2    C5 6670   2.485   4.616  16.491  0.5050 -0.6899  0.2209
  444MPD2     H 6671   2.329   4.269  16.525 -0.7540  0.4392 -0.6359
  444MPD2    H1 6672   2.639   4.535  16.375  0.3045  1.9704  0.6835
  444MPD2    H2 6673   2.339   4.673  16.631 -0.2753 -0.2662  0.0520
  444MPD2    H3 6674   2.519   4.716  16.472 -0.7311 -0.1116  1.0352
  444MPD2     N 6675   2.566   4.266  16.382  0.3339  0.2393 -0.0141
  444MPD2    H5 6676   2.510   4.181  16.381  2.0473 -0.8852 -1.7868
  444MPD2    N1 6677   2.216   4.430  16.663 -0.2722 -0.3977 -0.0293
  444MPD2    H7 6678   2.196   4.332  16.676  0.8623 -0.3670  1.9155
  445TMC3    C1 6679   2.715   4.122  16.279 -0.1863  0.2227 -0.5049
  445TMC3    C2 6680   2.611   4.054  16.222  0.0645 -0.0047  0.8907
  445TMC3    C3 6681   2.643   3.927  16.176  0.8093 -0.0141 -0.2725
  445TMC3    C4 6682   2.837   4.070  16.298 -0.2494  0.0097 -0.0630
  445TMC3    C5 6683   2.860   3.938  16.266 -0.0857 -0.4405 -0.0382
  445TMC3    C6 6684   2.763   3.865  16.203  0.5845 -0.4504  0.3289
  445TMC3     C 6685   2.698   4.254  16.336  0.0930 -0.3439 -0.0486
  445TMC3     O 6686   2.791   4.331  16.312  0.0271 -0.0645  0.0386
  445TMC3     H 6687   2.520   4.109  16.202  0.6871  1.2312  1.4557
  445TMC3    H1 6688   2.925   4.126  16.327  0.6866 -1.5324  0.0434
  445TMC3    H2 6689   2.801   3.784  16.142  0.5133 -0.3532  0.1565
  445TMC3    C7 6690   2.999   3.882  16.283 -0.2877 -0.5201 -0.7424
  445TMC3    C8 6691   2.539   3.848  16.108 -0.2351 -0.5791 -0.5065
  445TMC3    O1 6692   3.089   3.958  16.304 -0.0340 -0.3738  0.8244
  445TMC3    O2 6693   2.445   3.907  16.062  0.4449 -0.7613  0.3286
  446MPD2     C 6694   2.095   0.711  11.443  0.3313  0.0740  0.5687
  446MPD2    C1 6695   2.135   0.725  11.308 -0.4770  0.5148 -1.1179
  446MPD2    C2 6696   2.245   0.800  11.281 -0.4901 -0.0097 -0.2029
  446MPD2    C3 6697   2.316   0.859  11.377 -0.6903 -0.0289  0.5552
  446MPD2    C4 6698   2.283   0.843  11.510 -0.4914  0.9123  0.2675
  446MPD2    C5 6699   2.172   0.767  11.546  0.4591 -0.4784 -0.4607
  446MPD2     H 6700   2.277   0.809  11.178  0.6722 -0.9935  0.0663
  446MPD2    H1 6701   2.345   0.886  11.587  0.8468 -0.1555 -0.2200
  446MPD2    H2 6702   2.007   0.655  11.470  0.0921  0.2748  0.2003
  446MPD2    H3 6703   2.154   0.746  11.651  0.5230 -1.8233 -0.7288
  446MPD2     N 6704   2.429   0.937  11.344 -0.5600  0.1856  0.0967
  446MPD2    H5 6705   2.451   0.944  11.245  0.8641 -2.1493  0.2451
  446MPD2    N1 6706   2.067   0.668  11.202 -0.1481  0.1621 -0.1531
  446MPD2    H7 6707   2.097   0.691  11.108  0.4853 -0.1211 -0.0202
  447TMC3    C1 6708   2.628   1.061  11.373 -0.0732  0.2702 -0.7188
  447TMC3    C2 6709   2.630   1.096  11.235  0.7550  0.0674 -0.1187
  447TMC3    C3 6710   2.752   1.102  11.177 -0.2007 -0.3530  0.3570
  447TMC3    C4 6711   2.742   1.039  11.442 -0.0878  0.8951 -0.3692
  447TMC3    C5 6712   2.860   1.050  11.371  0.5406  0.0772  0.5660
  447TMC3    C6 6713   2.868   1.072  11.236 -0.3099 -0.2570 -0.3878
  447TMC3     C 6714   2.513   0.999  11.437  0.4278  0.6197 -0.7077
  447TMC3     O 6715   2.517   1.012  11.557  0.2527 -0.5729 -0.8321
  447TMC3     H 6716   2.536   1.109  11.182  1.3018 -2.1421 -1.6229
  447TMC3    H1 6717   2.747   1.012  11.547 -3.0943 -2.0783 -0.9723
  447TMC3    H2 6718   2.963   1.072  11.183  0.5476  1.3658  1.1490
  447TMC3    C7 6719   2.981   0.987  11.435  0.1819 -0.5724  0.1717
  447TMC3    C8 6720   2.756   1.150  11.043 -0.5688  0.7119 -0.1126
  447TMC3    O1 6721   3.049   0.925  11.353 -0.6846 -0.0144 -0.4667
  447TMC3    O2 6722   2.676   1.233  11.005 -0.1923  0.2268  0.2973
  448TMC3    C1 6723   0.072   0.275  17.191  0.4333 -0.4127  0.0451
  448TMC3    C2 6724   0.123   0.272  17.069 -0.3956 -0.0332 -0.0171
  448TMC3    C3 6725   0.231   0.192  17.059  0.2001 -0.4745 -0.4344
  448TMC3    C4 6726   0.112   0.203  17.296 -0.3152 -1.0685 -0.4123
  448TMC3    C5 6727   0.215   0.120  17.280 -0.6642  0.4433 -0.5105
  448TMC3    C6 6728   0.285   0.127  17.164 -0.0830  0.3001 -0.3903
  448TMC3     C 6729   4.704   0.374  17.222 -0.8316 -0.0154 -0.0146
  448TMC3     O 6730   4.706   0.471  17.151 -0.7070 -0.3591  0.0438
  448TMC3     H 6731   0.090   0.337  16.989  0.9390  2.8798  1.7846
  448TMC3    H1 6732   0.068   0.216  17.394  1.2530  1.0107  0.0084
  448TMC3    H2 6733   0.370   0.062  17.150  0.6673  1.1345  0.3171
  448TMC3    C7 6734   0.289   0.092  17.402  0.3312 -0.3134  0.5168
  448TMC3    C8 6735   0.280   0.149  16.933 -0.1501 -0.0404 -0.4204
  448TMC3    O1 6736   0.411   0.091  17.404 -0.1435 -0.4296  0.4445
  448TMC3    O2 6737   0.311   0.031  16.923 -0.4052 -0.1087  0.6384
  449MPD2     C 6738   1.643   3.423  13.914 -0.8933  0.2653  0.6896
  449MPD2    C1 6739   1.534   3.446  13.835 -0.2183  0.2466  0.2042
  449MPD2    C2 6740   1.455   3.344  13.782  0.0085  0.0462 -0.6054
  449MPD2    C3 6741   1.485   3.214  13.823 -0.6992 -0.3677  0.6918
  449MPD2    C4 6742   1.595   3.195  13.904  0.3805  0.1038  0.2973
  449MPD2    C5 6743   1.673   3.300  13.948  1.1753  0.3008  0.3712
  449MPD2     H 6744   1.380   3.356  13.706 -0.7951  1.0801  0.3571
  449MPD2    H1 6745   1.644   3.098  13.902 -1.4452 -0.7877 -0.9488
  449MPD2    H2 6746   1.703   3.505  13.950  2.1612 -1.4116 -0.5403
  449MPD2    H3 6747   1.767   3.278  13.997  1.6342 -0.1261 -0.6933
  449MPD2     N 6748   1.401   3.118  13.775  0.6231  0.3804 -0.1869
  449MPD2    H5 6749   1.336   3.136  13.699  0.2984  0.9276  0.2176
  449MPD2    N1 6750   1.500   3.579  13.800 -0.2765 -0.2350  0.1038
  449MPD2    H7 6751   1.421   3.589  13.736  0.7380 -2.0326 -1.4069
  450TMC3    C1 6752   1.520   3.792  13.716  0.0700 -0.7572 -0.2203
  450TMC3    C2 6753   1.614   3.819  13.619  0.3347 -0.0252 -0.0886
  450TMC3    C3 6754   1.566   3.829  13.489  0.2372 -0.4621 -0.3922
  450TMC3    C4 6755   1.385   3.798  13.695 -0.1910 -0.1583 -0.1488
  450TMC3    C5 6756   1.341   3.802  13.563 -0.5976  0.8530  0.0748
  450TMC3    C6 6757   1.436   3.828  13.455  0.1342  0.1675  0.5295
  450TMC3     C 6758   1.576   3.692  13.805  0.0236 -0.9194 -0.5235
  450TMC3     O 6759   1.697   3.698  13.829  0.3240  0.2000  0.0805
  450TMC3     H 6760   1.717   3.827  13.654  0.2173 -1.9513  0.6973
  450TMC3    H1 6761   1.324   3.763  13.778 -1.1514 -0.9394 -1.1797
  450TMC3    H2 6762   1.396   3.823  13.355 -1.2785 -0.1438  1.1043
  450TMC3    C7 6763   1.262   3.687  13.553  0.0601 -0.3803  0.3194
  450TMC3    C8 6764   1.662   3.831  13.380 -0.1948  0.1937  0.5634
  450TMC3    O1 6765   1.305   3.597  13.621  0.0271 -0.5768 -0.2707
  450TMC3    O2 6766   1.614   3.821  13.267 -0.0454  0.5472  0.0688
  451MPD2     C 6767   2.417   2.370   0.836  0.3381 -0.1754 -0.7327
  451MPD2    C1 6768   2.546   2.409   0.833 -0.8756 -0.5747 -0.1350
  451MPD2    C2 6769   2.637   2.307   0.807 -0.2343  0.4377 -0.0101
  451MPD2    C3 6770   2.608   2.175   0.771 -0.1555  0.0795 -0.6619
  451MPD2    C4 6771   2.477   2.144   0.784 -0.5829 -0.2769 -0.4494
  451MPD2    C5 6772   2.391   2.238   0.828  0.2691  0.6467 -0.5792
  451MPD2     H 6773   2.741   2.332   0.824  0.1709 -1.4186  0.2983
  451MPD2    H1 6774   2.440   2.045   0.758  0.3769 -0.6400 -0.4361
  451MPD2    H2 6775   2.341   2.443   0.859  1.9743  0.9497  1.0859
  451MPD2    H3 6776   2.289   2.205   0.840  0.5905 -0.1594 -0.0662
  451MPD2     N 6777   2.702   2.074   0.745 -0.1039  0.0798 -0.3542
  451MPD2    H5 6778   2.659   1.987   0.715 -3.6346  1.6700  0.0653
  451MPD2    N1 6779   2.577   2.543   0.834 -0.2217 -0.4563 -0.3810
  451MPD2    H7 6780   2.495   2.601   0.849 -1.1946 -1.6518 -1.0255
  452TMC3    C1 6781   2.897   1.985   0.651 -0.3806 -0.0538 -0.0462
  452TMC3    C2 6782   2.825   1.872   0.631 -0.3257 -0.9387 -0.0168
  452TMC3    C3 6783   2.870   1.799   0.528 -0.3097  0.5670  0.2942
  452TMC3    C4 6784   3.012   2.018   0.581  0.1880  0.5556  0.1721
  452TMC3    C5 6785   3.052   1.941   0.472  0.6124 -0.1963 -0.5563
  452TMC3    C6 6786   2.981   1.825   0.456  1.4808  0.1633 -0.0344
  452TMC3     C 6787   2.831   2.097   0.707  0.1590  0.4524 -0.0666
  452TMC3     O 6788   2.883   2.207   0.703 -0.2181 -0.5070 -0.2091
  452TMC3     H 6789   2.728   1.853   0.674 -0.0101 -0.8720  0.7134
  452TMC3    H1 6790   3.064   2.111   0.599 -1.1300  1.2250  0.4570
  452TMC3    H2 6791   3.004   1.759   0.373 -0.6124  1.2818 -1.5252
  452TMC3    C7 6792   3.155   1.988   0.388 -0.7521  0.4652  0.0007
  452TMC3    C8 6793   2.802   1.683   0.507 -0.1914  0.0355 -0.0565
  452TMC3    O1 6794   3.169   1.936   0.273  0.2507 -0.2243  0.6301
  452TMC3    O2 6795   2.754   1.624   0.606 -0.3585 -0.4724 -0.0480
  453TMC3    C1 6796   4.637   0.087  11.586  0.3421  0.3183 -0.2869
  453TMC3    C2 6797   4.549   4.725  11.551 -0.1758  0.1523  0.0355
  453TMC3    C3 6798   4.562   4.674  11.426  0.5896 -0.0148 -0.8994
  453TMC3    C4 6799   4.727   0.136  11.498 -0.0021 -0.1092 -0.2276
  453TMC3    C5 6800   0.003   0.087  11.375 -0.2441  0.4786 -0.1390
  453TMC3    C6 6801   4.661   4.714  11.344 -0.5719  0.4013  0.0571
  453TMC3     C 6802   4.634   0.146  11.716  0.0236 -0.7868 -0.0552
  453TMC3     O 6803   4.721   0.231  11.737 -0.1357  0.1351  0.1229
  453TMC3     H 6804   4.470   4.693  11.617 -0.2317 -1.7961 -0.9814
  453TMC3    H1 6805   0.043   0.229  11.502 -0.3566  0.0811  0.2328
  453TMC3    H2 6806   4.669   4.677  11.242 -0.2176  3.7388 -1.1124
  453TMC3    C7 6807   0.101   0.125  11.278 -0.0660 -0.2970  0.5742
  453TMC3    C8 6808   4.531   4.531  11.415  1.1264  0.6427 -0.3482
  453TMC3    O1 6809   0.136   0.031  11.210  0.0360 -0.0773  0.2769
  453TMC3    O2 6810   4.610   4.462  11.351 -0.6411 -0.1130  0.0180
  454MPD2     C 6811   3.405   3.788  15.596 -0.0929  0.2541 -0.3175
  454MPD2    C1 6812   3.272   3.786  15.619 -0.4039  0.4824  0.7785
  454MPD2    C2 6813   3.200   3.900  15.639 -0.2856  0.4955  0.2895
  454MPD2    C3 6814   3.265   4.020  15.659 -0.2147  0.0837  0.5628
  454MPD2    C4 6815   3.401   4.016  15.653 -0.9674 -0.2262 -0.2257
  454MPD2    C5 6816   3.474   3.903  15.623  0.2354 -0.8261  0.1512
  454MPD2     H 6817   3.092   3.890  15.631 -0.2058 -0.6794  0.6759
  454MPD2    H1 6818   3.453   4.108  15.680  1.9454 -1.9329  0.0288
  454MPD2    H2 6819   3.466   3.707  15.559  1.9751  1.6066  0.1302
  454MPD2    H3 6820   3.582   3.911  15.616  0.1374 -0.5065 -0.9692
  454MPD2     N 6821   3.186   4.133  15.684 -0.1664 -0.3637 -0.1718
  454MPD2    H5 6822   3.086   4.120  15.695 -0.1455  0.3671  0.9695
  454MPD2    N1 6823   3.194   3.675  15.590 -0.1531  0.9891 -0.1834
  454MPD2    H7 6824   3.093   3.689  15.596 -0.4373 -0.3673 -1.5719
  455TMC3    C1 6825   3.118   4.319  15.804 -0.7857 -0.4568  0.4858
  455TMC3    C2 6826   3.146   4.411  15.904 -0.1529 -0.7273 -0.3219
  455TMC3    C3 6827   3.053   4.431  16.004  0.4833 -0.1329 -0.6255
  455TMC3    C4 6828   3.000   4.255  15.801 -0.0352 -0.3495 -0.0235
  455TMC3    C5 6829   2.914   4.266  15.908  0.0042 -0.7518  0.3472
  455TMC3    C6 6830   2.943   4.345  16.016 -0.2196 -0.7637 -0.1275
  455TMC3     C 6831   3.230   4.252  15.737  1.0107 -0.1680 -0.6492
  455TMC3     O 6832   3.340   4.289  15.777 -0.0934  0.0915  0.4499
  455TMC3     H 6833   3.240   4.465  15.895 -1.4860  1.7377  0.6115
  455TMC3    H1 6834   2.962   4.196  15.718 -0.5212 -0.9909  0.6431
  455TMC3    H2 6835   2.859   4.358  16.083 -0.4735 -1.3788 -0.3350
  455TMC3    C7 6836   2.862   4.137  15.936  0.7441 -0.1240 -0.3365
  455TMC3    C8 6837   3.070   4.540  16.098 -0.4675  0.1192  0.5599
  455TMC3    O1 6838   2.743   4.111  15.932 -0.0394  0.7320  0.1503
  455TMC3    O2 6839   3.147   4.628  16.067 -0.1116 -0.0473  0.0865
  456MPD2     C 6840   1.281   4.356  15.967 -0.0264  0.2383 -0.2887
  456MPD2    C1 6841   1.209   4.241  15.991 -0.3408  0.5023 -0.5007
  456MPD2    C2 6842   1.091   4.254  16.065 -0.0278  0.0568  0.4526
  456MPD2    C3 6843   1.045   4.377  16.109  0.3369 -0.0838 -0.6641
  456MPD2    C4 6844   1.119   4.491  16.073  0.3629 -0.5177 -0.3144
  456MPD2    C5 6845   1.236   4.480  16.006 -0.2214 -0.5164 -0.8714
  456MPD2     H 6846   1.027   4.173  16.096  0.0024  0.8994  2.6712
  456MPD2    H1 6847   1.092   4.595  16.089  0.6834 -0.7404  1.6590
  456MPD2    H2 6848   1.366   4.351  15.900 -0.4507  0.2096 -0.8303
  456MPD2    H3 6849   1.296   4.566  15.979 -1.8386  0.3896 -1.6093
  456MPD2     N 6850   0.932   4.384  16.192  1.1641 -0.0275 -0.1835
  456MPD2    H5 6851   0.885   4.298  16.217 -0.2937  0.5073 -1.0846
  456MPD2    N1 6852   1.270   4.116  15.956 -0.1041  0.3718 -0.0459
  456MPD2    H7 6853   1.353   4.119  15.897 -0.1490  1.3908 -0.0469
  457TMC3    C1 6854   0.774   4.445  16.355 -0.2960 -0.1924  0.1770
  457TMC3    C2 6855   0.690   4.543  16.401  0.5211  0.5169 -0.1394
  457TMC3    C3 6856   0.584   4.509  16.475  0.3918 -0.6476 -0.1856
  457TMC3    C4 6857   0.761   4.313  16.393 -0.4437  0.6638 -0.4064
  457TMC3    C5 6858   0.657   4.292  16.475  0.4189  0.8056 -0.3773
  457TMC3    C6 6859   0.563   4.383  16.515  0.1875 -0.1881 -0.4157
  457TMC3     C 6860   0.879   4.490  16.258 -0.5948  0.0141  0.5776
  457TMC3     O 6861   0.899   4.609  16.249 -0.4193  0.1004 -0.2363
  457TMC3     H 6862   0.713   4.648  16.390  0.7915  0.6637  1.6848
  457TMC3    H1 6863   0.831   4.231  16.383  0.9898  1.6929  1.1548
  457TMC3    H2 6864   0.477   4.359  16.575 -1.4263  1.1617 -2.1747
  457TMC3    C7 6865   0.641   4.154  16.508 -0.3703 -0.1676 -0.4183
  457TMC3    C8 6866   0.526   4.610  16.557 -0.1383 -0.2826  0.1508
  457TMC3    O1 6867   0.740   4.099  16.555  0.3989  0.3015  0.1925
  457TMC3    O2 6868   0.501   4.580  16.674 -0.4491 -0.0634 -0.4936
  458MPD2     C 6869   3.734   3.714  12.204  0.8369  0.3040  0.4592
  458MPD2    C1 6870   3.663   3.721  12.323 -0.3233  0.1641  0.7482
  458MPD2    C2 6871   3.532   3.767  12.325 -0.2428 -0.5739  0.0499
  458MPD2    C3 6872   3.470   3.800  12.203 -0.0813 -0.6359  0.3176
  458MPD2    C4 6873   3.548   3.795  12.090  0.2708  0.5064  0.5647
  458MPD2    C5 6874   3.682   3.767  12.092 -1.4946  0.4040  0.0178
  458MPD2     H 6875   3.474   3.775  12.416  0.6753 -0.7355  0.6493
  458MPD2    H1 6876   3.501   3.823  11.997  0.0861  0.7820  0.7438
  458MPD2    H2 6877   3.835   3.676  12.199  0.7290  0.3127 -1.9195
  458MPD2    H3 6878   3.740   3.778  12.001 -2.6509  1.1227 -0.6307
  458MPD2     N 6879   3.335   3.835  12.207 -0.0749 -0.2548  0.2404
  458MPD2    H5 6880   3.289   3.853  12.296  1.7124  0.8199  0.9378
  458MPD2    N1 6881   3.740   3.679  12.435 -0.2191  0.5493  0.0826
  458MPD2    H7 6882   3.836   3.652  12.420 -0.4493 -0.3686  0.2258
  459TMC3    C1 6883   3.832   3.700  12.639  0.2027 -1.0157 -0.7786
  459TMC3    C2 6884   3.945   3.668  12.580 -0.4271 -0.3402  0.2606
  459TMC3    C3 6885   4.044   3.610  12.655  0.4852 -0.6243  0.0905
  459TMC3    C4 6886   3.808   3.675  12.775  0.2398 -0.5244  0.0172
  459TMC3    C5 6887   3.905   3.610  12.842  0.3435  0.3908  0.0898
  459TMC3    C6 6888   4.025   3.577  12.789 -0.8514 -0.2205  0.2072
  459TMC3     C 6889   3.713   3.712  12.561  0.3922  0.5997 -0.2386
  459TMC3     O 6890   3.607   3.738  12.616  0.4410  0.4980  0.6353
  459TMC3     H 6891   3.976   3.720  12.491  0.9051  0.5492  1.2367
  459TMC3    H1 6892   3.707   3.694  12.808  0.4091 -0.5279  0.5436
  459TMC3    H2 6893   4.087   3.509  12.845 -0.3975  1.1879  1.4240
  459TMC3    C7 6894   3.864   3.557  12.964 -0.3950 -0.1483  0.4059
  459TMC3    C8 6895   4.183   3.603  12.602 -0.1682  0.7767  0.5639
  459TMC3    O1 6896   3.897   3.442  12.992  0.4071  0.0664 -0.3352
  459TMC3    O2 6897   4.204   3.645  12.487  0.1209  0.1868 -0.3825
  460MPD2     C 6898   2.972   1.033  10.760 -0.4601 -0.2912  0.2344
  460MPD2    C1 6899   2.861   1.094  10.827  0.0006  0.2427 -0.6086
  460MPD2    C2 6900   2.791   1.188  10.750  0.6482  0.2061  0.2200
  460MPD2    C3 6901   2.824   1.211  10.614 -0.0717 -0.0969 -0.3458
  460MPD2    C4 6902   2.929   1.139  10.557 -0.4748  0.6931 -0.3205
  460MPD2    C5 6903   3.005   1.057  10.631 -0.3821 -0.0604 -0.1793
  460MPD2     H 6904   2.713   1.253  10.788  0.7368  0.5144 -0.1260
  460MPD2    H1 6905   2.945   1.138  10.450 -1.6837  3.5910 -0.5439
  460MPD2    H2 6906   3.030   0.960  10.815  0.9083  0.7224  0.1295
  460MPD2    H3 6907   3.080   0.995  10.584 -0.9921 -2.4507  2.0111
  460MPD2     N 6908   2.747   1.297  10.541 -0.1809  0.6708  0.3231
  460MPD2    H5 6909   2.670   1.351  10.580  0.0003  2.9010 -2.4098
  460MPD2    N1 6910   2.849   1.083  10.970 -0.0623 -0.2478 -0.7048
  460MPD2    H7 6911   2.917   1.025  11.017 -1.2321  0.3106  1.6350
  461TMC3    C1 6912   2.719   1.439  10.358  0.7969 -0.0307  0.5037
  461TMC3    C2 6913   2.590   1.404  10.334  0.0423  0.4983  0.2757
  461TMC3    C3 6914   2.509   1.474  10.251 -0.3525  0.0257  0.0911
  461TMC3    C4 6915   2.765   1.559  10.311 -0.5238 -0.1380 -0.5412
  461TMC3    C5 6916   2.675   1.637  10.235 -0.0109  0.1738  0.5538
  461TMC3    C6 6917   2.554   1.599  10.210 -0.5127 -0.0884  0.2175
  461TMC3     C 6918   2.801   1.346  10.429 -0.9222  0.4003 -0.3910
  461TMC3     O 6919   2.922   1.376  10.410  0.0472  0.3966  0.3747
  461TMC3     H 6920   2.561   1.304  10.365 -1.5378  0.9472  0.2728
  461TMC3    H1 6921   2.863   1.589  10.348 -0.7513 -1.1347  0.8594
  461TMC3    H2 6922   2.495   1.657  10.140 -0.3503 -1.8094 -1.3356
  461TMC3    C7 6923   2.706   1.767  10.193 -0.4507  0.1392  0.2830
  461TMC3    C8 6924   2.443   1.394  10.145  0.5604 -0.2407 -0.1983
  461TMC3    O1 6925   2.613   1.846  10.175  0.4161 -0.2535  0.8450
  461TMC3    O2 6926   2.492   1.286  10.116 -0.1236 -0.5758 -0.1195
  462TMC3    C1 6927   2.500   2.633   0.478 -0.3672  0.5434  0.0388
  462TMC3    C2 6928   2.632   2.615   0.474 -0.2057 -0.5927 -0.2317
  462TMC3    C3 6929   2.682   2.487   0.462 -0.1049  0.6584 -0.0654
  462TMC3    C4 6930   2.412   2.525   0.492 -0.3440 -0.3248  0.0922
  462TMC3    C5 6931   2.463   2.391   0.482  0.2391 -0.6447  0.0461
  462TMC3    C6 6932   2.604   2.380   0.449 -0.5830 -0.4469 -0.3350
  462TMC3     C 6933   2.451   2.767   0.521 -0.3081 -0.4258 -0.1790
  462TMC3     O 6934   2.344   2.773   0.582  0.1082  0.1422  0.0096
  462TMC3     H 6935   2.699   2.700   0.463  0.2473 -1.0172 -0.7804
  462TMC3    H1 6936   2.306   2.544   0.506 -1.1352 -1.5842 -4.4497
  462TMC3    H2 6937   2.653   2.284   0.465  0.3779 -0.0355 -0.8301
  462TMC3    C7 6938   2.380   2.272   0.489  0.0670 -0.1758 -0.9400
  462TMC3    C8 6939   2.816   2.473   0.407  0.1068 -0.0985  0.5301
  462TMC3    O1 6940   2.438   2.167   0.474  0.5194  0.0570 -0.0093
  462TMC3    O2 6941   2.901   2.554   0.447 -0.2137  0.2806 -0.4109
  463MPD2     C 6942   3.030   4.421   1.448  0.5548  0.2386 -0.2201
  463MPD2    C1 6943   3.099   4.533   1.412  0.3808  0.4263  0.5064
  463MPD2    C2 6944   3.224   4.509   1.355 -0.8480  0.5905  0.2979
  463MPD2    C3 6945   3.266   4.378   1.317 -0.0738  0.1590  0.0558
  463MPD2    C4 6946   3.194   4.278   1.369  0.2478 -0.5320  0.4305
  463MPD2    C5 6947   3.076   4.292   1.431  0.4605  0.1483  0.2262
  463MPD2     H 6948   3.273   4.598   1.317  1.0980 -0.6759 -0.1657
  463MPD2    H1 6949   3.216   4.173   1.355  0.4459 -0.4762  0.3137
  463MPD2    H2 6950   2.948   4.434   1.518  2.6473  0.6673  2.1244
  463MPD2    H3 6951   3.035   4.202   1.475 -4.7394  2.3560 -0.0955
  463MPD2     N 6952   3.390   4.359   1.263  0.5709  1.0773  0.2955
  463MPD2    H5 6953   3.406   4.260   1.245 -0.1748  0.6874  1.7966
  463MPD2    N1 6954   3.042   4.664   1.432  0.1381 -0.6930  0.0604
  463MPD2    H7 6955   2.943   4.676   1.451  0.6411 -0.1261  2.3412
  464TMC3    C1 6956   3.039   0.170   1.423  0.0323  0.0027  0.7007
  464TMC3    C2 6957   3.105   0.292   1.430  0.1087  0.1194 -0.5816
  464TMC3    C3 6958   3.036   0.411   1.450  0.2780  0.1374 -0.5192
  464TMC3    C4 6959   2.901   0.175   1.428  0.5480 -0.5643  0.1623
  464TMC3    C5 6960   2.844   0.296   1.457 -0.3943 -0.3939  0.1605
  464TMC3    C6 6961   2.901   0.416   1.462  0.3807 -0.3934  0.4533
  464TMC3     C 6962   3.114   0.046   1.423 -0.2323 -0.2772  0.2589
  464TMC3     O 6963   3.239   0.064   1.433  0.3345  0.0231  0.2425
  464TMC3     H 6964   3.212   0.287   1.411  0.2572 -0.8626  0.5056
  464TMC3    H1 6965   2.840   0.086   1.429 -1.7502  0.9920  0.2346
  464TMC3    H2 6966   2.854   0.511   1.482  0.9244 -0.6991  3.2227
  464TMC3    C7 6967   2.700   0.292   1.486  0.1836 -0.7567 -0.2098
  464TMC3    C8 6968   3.095   0.537   1.403  0.0256 -0.0622 -0.5837
  464TMC3    O1 6969   2.651   0.388   1.543 -0.1012 -0.2148  0.0081
  464TMC3    O2 6970   3.020   0.611   1.341 -0.1755 -0.4314 -0.2076
  465MPD2     C 6971   4.661   4.055  16.950 -0.4885 -0.3826  0.5951
  465MPD2    C1 6972   4.548   3.977  16.952  0.4350 -0.0108  0.0076
  465MPD2    C2 6973   4.505   3.929  16.832 -0.1073 -0.1827  0.6109
  465MPD2    C3 6974   4.569   3.946  16.710 -0.1935 -0.2926 -0.0584
  465MPD2    C4 6975   4.686   4.020  16.721 -0.2847  0.1331  0.5466
  465MPD2    C5 6976   4.736   4.076  16.837  0.3563 -0.4948 -0.0117
  465MPD2     H 6977   4.412   3.873  16.831  1.2260 -2.3781 -1.0273
  465MPD2    H1 6978   4.732   4.042  16.626 -0.6718 -0.5859  0.1929
  465MPD2    H2 6979   4.704   4.104  17.036  1.1810  0.4787 -0.7228
  465MPD2    H3 6980   0.088   4.135  16.841  0.5337 -0.7042 -0.8583
  465MPD2     N 6981   4.508   3.884  16.596 -0.6502  0.2602 -0.5033
  465MPD2    H5 6982   4.409   3.863  16.605 -0.3823 -0.8315 -0.0382
  465MPD2    N1 6983   4.475   3.940  17.065 -0.0614  0.4574  0.7399
  465MPD2    H7 6984   4.396   3.876  17.056  1.3747 -1.2614  0.5118
  466TMC3    C1 6985   4.247   3.897  16.346 -0.6032 -0.0273  0.1062
  466TMC3    C2 6986   4.261   4.016  16.268  0.1340  0.2133  0.2580
  466TMC3    C3 6987   4.394   4.052  16.240  0.3299  0.0958 -0.4840
  466TMC3    C4 6988   4.356   3.836  16.400 -0.1232  0.6416  0.1839
  466TMC3    C5 6989   4.478   3.878  16.363 -0.4434  0.6011 -0.3706
  466TMC3    C6 6990   4.501   3.979  16.277  0.5761 -0.3753  0.2420
  466TMC3     C 6991   4.111   3.849  16.375 -0.0757  0.1848  0.3707
  466TMC3     O 6992   4.033   3.942  16.389 -0.0614 -0.2217 -0.0425
  466TMC3     H 6993   4.175   4.065  16.224  0.8323  0.5033 -0.7932
  466TMC3    H1 6994   4.357   3.755  16.473  3.3477  1.6066  1.2087
  466TMC3    H2 6995   4.601   4.019  16.269  0.5826 -0.6936 -1.2023
  466TMC3    C7 6996   4.570   3.879  16.473  0.5018 -0.4028 -1.0956
  466TMC3    C8 6997   4.426   4.191  16.222  0.0393  0.5696 -0.4560
  466TMC3    O1 6998   4.689   3.905  16.442 -0.2255  0.2007 -0.0550
  466TMC3    O2 6999   4.536   4.221  16.179  0.2228  0.2239 -0.5197
  467TMC3    C1 7000   0.725   2.495  13.919  0.1729 -0.4800 -0.5892
  467TMC3    C2 7001   0.658   2.559  13.816  0.5916  0.1116  0.3070
  467TMC3    C3 7002   0.523   2.581  13.823  0.3154 -0.4810 -0.3254
  467TMC3    C4 7003   0.654   2.463  14.034  0.3206  0.1110 -0.5417
  467TMC3    C5 7004   0.525   2.497  14.041 -0.2948  0.4575  0.0590
  467TMC3    C6 7005   0.453   2.547  13.931 -0.1097  0.3804 -0.6001
  467TMC3     C 7006   0.865   2.513  13.926 -0.4494  0.5765  0.1975
  467TMC3     O 7007   0.922   2.506  14.033 -0.1643 -0.5652 -0.2065
  467TMC3     H 7008   0.710   2.588  13.726 -0.5898 -2.3802 -1.1876
  467TMC3    H1 7009   0.710   2.411  14.110 -1.6782  2.6163  2.6364
  467TMC3    H2 7010   0.345   2.548  13.929 -0.1042  0.4402 -0.9556
  467TMC3    C7 7011   0.460   2.463  14.162  0.0995  0.1232 -0.3813
  467TMC3    C8 7012   0.469   2.661  13.717  0.4769 -0.1029 -0.4818
  467TMC3    O1 7013   0.520   2.393  14.246  0.1944  0.4347  0.8602
  467TMC3    O2 7014   0.542   2.727  13.642 -0.7523  0.3007  0.3643
  468MPD2     C 7015   4.590   1.193  10.528  0.0671 -0.3574  0.0424
  468MPD2    C1 7016   4.725   1.173  10.561 -0.0597 -0.2402  0.1969
  468MPD2    C2 7017   0.028   1.048  10.588 -0.2760 -0.3255 -0.3860
  468MPD2    C3 7018   4.688   0.938  10.578  0.5831 -0.2818  0.3919
  468MPD2    C4 7019   4.563   0.959  10.522  0.2665 -0.5292  0.9285
  468MPD2    C5 7020   4.514   1.087  10.499  0.1878  0.0286  0.3836
  468MPD2     H 7021   0.133   1.036  10.612 -0.6878  1.6598  2.3429
  468MPD2    H1 7022   4.495   0.879  10.497  0.2787  0.0664 -0.9860
  468MPD2    H2 7023   4.541   1.290  10.523  3.3851  1.2990 -0.4589
  468MPD2    H3 7024   4.409   1.091  10.474  0.4512 -1.1678 -0.9245
  468MPD2     N 7025   4.715   0.806  10.613  0.1360 -0.6202 -0.2096
  468MPD2    H5 7026   4.643   0.736  10.602 -2.1524  2.0622 -2.4125
  468MPD2    N1 7027   0.075   1.277  10.591 -0.3536  1.1199 -0.6696
  468MPD2    H7 7028   0.165   1.242  10.624  0.7384  2.6885 -1.9751
  469TMC3    C1 7029   0.144   1.496  10.675  0.3699  0.1196 -0.2311
  469TMC3    C2 7030   0.250   1.443  10.745  0.6442  0.4943 -0.6358
  469TMC3    C3 7031   0.327   1.525  10.820  0.0261  0.2899  0.6506
  469TMC3    C4 7032   0.116   1.633  10.686 -0.2590 -0.3131 -0.9077
  469TMC3    C5 7033   0.198   1.710  10.753 -0.3457 -0.2246  0.5239
  469TMC3    C6 7034   0.301   1.660  10.829  0.5942 -0.8119 -0.4706
  469TMC3     C 7035   0.047   1.414  10.602 -0.1635 -0.6586  0.0162
  469TMC3     O 7036   4.688   1.473  10.563  0.5268 -0.3835 -0.3182
  469TMC3     H 7037   0.256   1.335  10.756  1.2354  0.5388 -0.5224
  469TMC3    H1 7038   0.047   1.677  10.615  2.9945  2.1519 -2.5161
  469TMC3    H2 7039   0.377   1.727  10.868  1.3377 -0.4454 -2.5744
  469TMC3    C7 7040   0.150   1.845  10.781  0.1671  0.2086 -0.2911
  469TMC3    C8 7041   0.425   1.458  10.900 -0.3465 -0.7765  0.1111
  469TMC3    O1 7042   0.069   1.893  10.696 -0.3222  0.7791 -0.4286
  469TMC3    O2 7043   0.476   1.359  10.854 -0.8956 -0.1730  0.0427
  470TMC3    C1 7044   1.779   1.953   0.642  0.0856 -0.0500  0.3296
  470TMC3    C2 7045   1.701   2.064   0.631 -0.0775  0.4221 -0.2088
  470TMC3    C3 7046   1.750   2.179   0.683  0.0100 -0.3316 -0.1459
  470TMC3    C4 7047   1.897   1.949   0.707  0.2473  0.1996 -0.2258
  470TMC3    C5 7048   1.943   2.069   0.749  0.5663 -0.3230  0.4220
  470TMC3    C6 7049   1.867   2.182   0.748 -0.7186  1.0870  0.5051
  470TMC3     C 7050   1.753   1.835   0.560 -0.3646 -0.5622  0.7624
  470TMC3     O 7051   1.693   1.854   0.455 -0.3474 -0.6719 -0.3575
  470TMC3     H 7052   1.600   2.047   0.595  1.3493 -1.9181 -3.0998
  470TMC3    H1 7053   1.955   1.858   0.720  1.3768  1.1615  1.4331
  470TMC3    H2 7054   1.909   2.276   0.781  2.7544 -0.3259  0.0721
  470TMC3    C7 7055   2.051   2.056   0.844  0.0767 -0.9829 -0.4106
  470TMC3    C8 7056   1.692   2.309   0.658  0.2720  0.2621  0.0465
  470TMC3    O1 7057   2.145   1.978   0.831 -0.1930  0.0116 -0.4759
  470TMC3    O2 7058   1.771   2.400   0.665  0.1143  0.2170 -1.0701
  471MPD2     C 7059   2.187   3.273  16.649 -0.0059 -0.1158 -0.6371
  471MPD2    C1 7060   2.151   3.144  16.670  0.7739  0.2321  1.1304
  471MPD2    C2 7061   2.222   3.066  16.758 -0.4660 -0.2043  0.4601
  471MPD2    C3 7062   2.320   3.117  16.837  0.4640 -0.6682  0.7851
  471MPD2    C4 7063   2.357   3.254  16.823 -0.2721 -0.3426  0.4207
  471MPD2    C5 7064   2.283   3.328  16.738 -0.4523 -0.3743 -0.1896
  471MPD2     H 7065   2.205   2.960  16.773 -4.0379  0.6039  2.1247
  471MPD2    H1 7066   2.421   3.318  16.883 -0.8337  0.9574 -0.3953
  471MPD2    H2 7067   2.139   3.327  16.568 -2.4079 -0.8804  0.2985
  471MPD2    H3 7068   2.311   3.431  16.716 -0.1048 -0.7728 -1.5857
  471MPD2     N 7069   2.382   3.028  16.928  0.0342  0.7556 -0.0056
  471MPD2    H5 7070   2.346   2.933  16.923  0.1634  0.6358  1.1608
  471MPD2    N1 7071   2.057   3.071  16.594 -0.5510  0.2471  0.4302
  471MPD2    H7 7072   2.055   2.970  16.607 -1.1784 -0.1970 -2.8751
  472TMC3    C1 7073   1.906   3.014  16.419  0.4998  0.3807  0.2242
  472TMC3    C2 7074   1.775   3.023  16.382 -0.0199  0.2682 -0.3490
  472TMC3    C3 7075   1.723   2.931  16.297  0.1715  0.1311 -0.3433
  472TMC3    C4 7076   1.977   2.907  16.376  0.1689  0.6713 -0.1944
  472TMC3    C5 7077   1.923   2.821  16.285  0.4861  0.7200 -0.2396
  472TMC3    C6 7078   1.789   2.824  16.254  0.0353  0.1981  0.1944
  472TMC3     C 7079   1.965   3.120  16.499  0.0351  0.7827 -0.5302
  472TMC3     O 7080   1.943   3.239  16.466 -0.1611 -0.0271  0.0033
  472TMC3     H 7081   1.705   3.086  16.435 -0.2980  1.8226 -2.5723
  472TMC3    H1 7082   2.083   2.902  16.399 -0.0588 -0.8996  0.4789
  472TMC3    H2 7083   1.738   2.766  16.178  1.0500 -1.7638  1.0090
  472TMC3    C7 7084   1.984   2.692  16.298  0.3733  0.2732  0.6837
  472TMC3    C8 7085   1.573   2.937  16.290 -0.1749 -0.4875 -0.3312
  472TMC3    O1 7086   2.052   2.684  16.399  0.5378  0.3943 -0.2534
  472TMC3    O2 7087   1.534   3.050  16.293  0.2858  0.1190 -0.1460
  473MPD2     C 7088   2.428   0.457  13.554  0.0299  0.2864  0.1069
  473MPD2    C1 7089   2.362   0.567  13.500  0.2043  0.4675 -0.4997
  473MPD2    C2 7090   2.387   0.689  13.552  0.5596 -0.4151  0.4018
  473MPD2    C3 7091   2.485   0.699  13.644 -0.3940 -1.4718 -0.0504
  473MPD2    C4 7092   2.551   0.592  13.687  0.9304  0.1257  0.4698
  473MPD2    C5 7093   2.526   0.464  13.647  0.3222  0.8046  0.0929
  473MPD2     H 7094   2.332   0.774  13.512  0.1388 -0.7970  0.1579
  473MPD2    H1 7095   2.636   0.610  13.753 -0.2537 -0.0297  2.0345
  473MPD2    H2 7096   2.390   0.360  13.521  1.7128  0.1334 -1.3932
  473MPD2    H3 7097   2.570   0.377  13.696 -1.3984  0.0293  0.2543
  473MPD2     N 7098   2.515   0.822  13.712  0.2328 -0.4050 -0.7028
  473MPD2    H5 7099   2.578   0.822  13.792 -1.4377  1.7242  0.6226
  473MPD2    N1 7100   2.268   0.547  13.391 -0.7797 -0.2579 -0.0468
  473MPD2    H7 7101   2.237   0.637  13.354  0.4540 -0.8116 -2.4598
  474TMC3    C1 7102   2.492   1.039  13.790  0.6360 -0.1896 -0.5624
  474TMC3    C2 7103   2.434   1.162  13.770  0.3853 -0.6525 -0.4462
  474TMC3    C3 7104   2.455   1.272  13.843  0.3721  0.6069 -0.7049
  474TMC3    C4 7105   2.577   1.021  13.889  0.0450 -0.1316 -0.2483
  474TMC3    C5 7106   2.595   1.135  13.966 -0.5934 -0.1995  0.9642
  474TMC3    C6 7107   2.544   1.263  13.948 -0.1934 -0.2454  1.0113
  474TMC3     C 7108   2.450   0.938  13.692  0.2307 -0.2833 -0.5450
  474TMC3     O 7109   2.367   0.979  13.606  0.1100 -0.0577  0.4508
  474TMC3     H 7110   2.370   1.176  13.684 -0.0206 -1.7975 -0.3209
  474TMC3    H1 7111   2.634   0.931  13.911 -1.8327 -1.4746 -0.8781
  474TMC3    H2 7112   2.572   1.344  14.014 -1.8959  0.6547  0.5981
  474TMC3    C7 7113   2.722   1.129  14.037  0.3710 -0.0112 -0.1984
  474TMC3    C8 7114   2.412   1.403  13.796 -0.4790  0.3298 -0.0529
  474TMC3    O1 7115   2.810   1.056  13.990  0.4312 -0.6627 -0.0230
  474TMC3    O2 7116   2.322   1.397  13.715 -0.2090  0.3090 -0.3054
  475MPD2     C 7117   1.639   3.397  10.616  0.0684  0.2793 -0.0793
  475MPD2    C1 7118   1.638   3.491  10.511  0.1899  0.0724 -0.1487
  475MPD2    C2 7119   1.525   3.563  10.490  0.7161  0.4469  0.0416
  475MPD2    C3 7120   1.426   3.569  10.587 -0.0021 -0.2373  0.1241
  475MPD2    C4 7121   1.432   3.474  10.694  0.1457 -0.0830 -0.7469
  475MPD2    C5 7122   1.535   3.382  10.704 -0.5869 -0.5516 -0.7283
  475MPD2     H 7123   1.524   3.628  10.404 -1.3588  0.0787 -0.2041
  475MPD2    H1 7124   1.369   3.497  10.779 -0.0273 -0.7464 -0.7006
  475MPD2    H2 7125   1.728   3.337  10.632 -0.3337 -0.0357  0.9827
  475MPD2    H3 7126   1.546   3.312  10.786 -0.0109  2.2324  1.5988
  475MPD2     N 7127   1.326   3.673  10.576 -0.1808  0.2982  0.5878
  475MPD2    H5 7128   1.336   3.743  10.503  0.1431  0.7890  1.1049
  475MPD2    N1 7129   1.756   3.495  10.439 -0.1622  0.3589 -0.2735
  475MPD2    H7 7130   1.844   3.497  10.491  0.5553 -2.4079 -1.3714
  476TMC3    C1 7131   1.835   3.623  10.257 -0.1940  0.1535  0.2662
  476TMC3    C2 7132   1.770   3.683  10.156  0.3023  0.2623 -0.6350
  476TMC3    C3 7133   1.727   3.811  10.172 -0.0487 -0.1654 -0.6960
  476TMC3    C4 7134   1.890   3.702  10.357 -0.1861 -0.2656  1.1641
  476TMC3    C5 7135   1.864   3.836  10.369  0.6250  0.2224 -0.3897
  476TMC3    C6 7136   1.771   3.885  10.281  0.1882  0.5562 -0.7647
  476TMC3     C 7137   1.742   3.525  10.311 -0.6937  0.6690 -0.3926
  476TMC3     O 7138   1.646   3.503  10.240 -0.4144 -0.3375  0.0590
  476TMC3     H 7139   1.742   3.627  10.067 -2.3446 -1.8155  1.5022
  476TMC3    H1 7140   1.943   3.647  10.434  1.1855  1.3937  1.3861
  476TMC3    H2 7141   1.738   3.988  10.288  2.7509  1.4443 -1.7576
  476TMC3    C7 7142   1.836   3.863  10.508 -0.1420 -0.1308  0.3030
  476TMC3    C8 7143   1.593   3.833  10.127  0.3005 -1.0884  0.4506
  476TMC3    O1 7144   1.923   3.820  10.580  0.3925  0.3988  0.3983
  476TMC3    O2 7145   1.556   3.951  10.137  0.3083 -0.0061 -0.3499
  477MPD2     C 7146   2.891   0.210  12.017  0.3687 -0.3886  0.3716
  477MPD2    C1 7147   2.981   0.209  11.918  0.3118  0.1088 -0.1100
  477MPD2    C2 7148   3.098   0.140  11.924  1.2179  0.5815 -0.4498
  477MPD2    C3 7149   3.106   0.048  12.023 -0.7776 -0.2009 -0.1978
  477MPD2    C4 7150   3.010   0.040  12.125 -0.3037 -0.1855 -0.6461
  477MPD2    C5 7151   2.915   0.138  12.126  0.4173 -0.0046  0.1884
  477MPD2     H 7152   3.172   0.149  11.845  1.2038  1.1629 -0.3961
  477MPD2    H1 7153   3.011   4.717  12.214 -0.1339  0.4439 -0.2135
  477MPD2    H2 7154   2.803   0.272  12.012  2.4198  2.4746 -0.6044
  477MPD2    H3 7155   2.839   0.128  12.203  0.1754  0.5226  0.0154
  477MPD2     N 7156   3.223   4.717  12.042  0.0645  0.2353 -0.3784
  477MPD2    H5 7157   3.233   4.660  12.125  2.4721 -0.8115 -1.3974
  477MPD2    N1 7158   2.951   0.288  11.807 -0.2916 -0.2323 -0.7507
  477MPD2    H7 7159   2.860   0.331  11.798 -0.3786 -0.6110 -1.6342
  478TMC3    C1 7160   2.978   0.434  11.630  0.3987 -0.6126 -0.1927
  478TMC3    C2 7161   2.903   0.524  11.701 -0.2452  0.5293 -0.1319
  478TMC3    C3 7162   2.865   0.634  11.635  0.0026  0.4249  0.5583
  478TMC3    C4 7163   3.002   0.445  11.500 -0.0515  0.0427 -0.1508
  478TMC3    C5 7164   2.944   0.550  11.434 -0.0615 -0.9344 -0.3299
  478TMC3    C6 7165   2.879   0.649  11.502  0.8328  0.3786  0.2892
  478TMC3     C 7166   3.022   0.316  11.700  0.4935 -0.3386  0.4573
  478TMC3     O 7167   3.129   0.271  11.658 -0.9128 -0.0016 -0.0720
  478TMC3     H 7168   2.902   0.519  11.809 -1.9946 -0.1252 -0.1920
  478TMC3    H1 7169   3.063   0.372  11.447  0.1051  0.5535 -0.6766
  478TMC3    H2 7170   2.843   0.741  11.458  0.2819  0.5213  1.0326
  478TMC3    C7 7171   2.950   0.558  11.284 -0.5888  0.3619 -0.6585
  478TMC3    C8 7172   2.834   0.752  11.711 -0.5080  0.2462 -0.5555
  478TMC3    O1 7173   3.045   0.505  11.235 -0.5637 -0.4017  0.3365
  478TMC3    O2 7174   2.743   0.811  11.663 -0.1303  0.2190  0.2382
  479MPD2     C 7175   2.075   2.413  15.213  0.2557  0.5810  0.5207
  479MPD2    C1 7176   1.990   2.342  15.295  0.1299 -0.0432 -0.0648
  479MPD2    C2 7177   2.032   2.328  15.429  0.1501 -0.2781  0.0189
  479MPD2    C3 7178   2.137   2.392  15.487 -0.0762 -0.4470  0.2608
  479MPD2    C4 7179   2.219   2.458  15.403  0.9170  0.2380 -0.1948
  479MPD2    C5 7180   2.187   2.474  15.269 -0.0909 -0.3625  0.9840
  479MPD2     H 7181   1.966   2.270  15.494 -1.2812 -0.7431 -1.8311
  479MPD2    H1 7182   2.305   2.512  15.440 -0.1424  0.7041  1.5884
  479MPD2    H2 7183   2.040   2.439  15.113 -0.1717 -0.4693  0.4043
  479MPD2    H3 7184   2.250   2.543  15.214 -0.2168 -1.9992 -1.1888
  479MPD2     N 7185   2.179   2.386  15.624 -0.2811 -0.3017 -0.4410
  479MPD2    H5 7186   2.271   2.422  15.645 -0.4963 -0.1740  0.2665
  479MPD2    N1 7187   1.872   2.288  15.241 -0.2442  0.5673  0.3904
  479MPD2    H7 7188   1.873   2.292  15.140 -0.5625  1.5091  0.4287
  480TMC3    C1 7189   1.775   2.186  15.801 -0.6350  0.3952 -0.2252
  480TMC3    C2 7190   1.694   2.289  15.764  0.6725 -0.0991 -0.3054
  480TMC3    C3 7191   1.758   2.399  15.706 -0.2440  0.0591 -0.5812
  480TMC3    C4 7192   1.913   2.201  15.795 -0.5937 -0.3671 -0.6092
  480TMC3    C5 7193   1.971   2.315  15.746  0.3467  0.3852 -0.8111
  480TMC3    C6 7194   1.894   2.419  15.697  0.6684 -0.6897  0.5821
  480TMC3     C 7195   1.720   2.052  15.818 -0.7169  0.1096 -0.5141
  480TMC3     O 7196   1.795   1.966  15.867 -0.1959  0.2454  0.6314
  480TMC3     H 7197   1.586   2.277  15.760  0.4146  2.0139 -0.1506
  480TMC3    H1 7198   1.979   2.121  15.827 -1.0680 -0.1601  0.9126
  480TMC3    H2 7199   1.935   2.513  15.664 -0.7597  0.1741  1.2669
  480TMC3    C7 7200   2.117   2.317  15.731 -0.1022 -0.3531 -0.0856
  480TMC3    C8 7201   1.668   2.486  15.628 -0.7575  0.3813 -0.0263
  480TMC3    O1 7202   2.184   2.275  15.824  0.0942  0.4919  0.2101
  480TMC3    O2 7203   1.551   2.488  15.662  0.2930  0.2018 -0.2994
  481MPD2     C 7204   3.897   1.606  14.734 -0.6914 -0.1332  0.3036
  481MPD2    C1 7205   3.805   1.714  14.724 -0.0849 -0.5197  0.5204
  481MPD2    C2 7206   3.751   1.767  14.838 -0.5618 -0.3114  0.5505
  481MPD2    C3 7207   3.775   1.705  14.957  0.2604  0.7857  0.4668
  481MPD2    C4 7208   3.854   1.592  14.964 -0.2075  0.2835 -0.1170
  481MPD2    C5 7209   3.915   1.541  14.850  0.2629  0.0011  1.0314
  481MPD2     H 7210   3.677   1.846  14.833  0.0368  0.1728 -0.6845
  481MPD2    H1 7211   3.887   1.555  15.060 -0.1385 -1.7717 -0.9255
  481MPD2    H2 7212   3.940   1.568  14.641  0.1578  1.9910 -0.1626
  481MPD2    H3 7213   3.988   1.462  14.864  1.4732  0.8047 -0.7786
  481MPD2     N 7214   3.708   1.750  15.068 -0.1581 -0.0822  0.2974
  481MPD2    H5 7215   3.702   1.699  15.155  0.5172  2.0674  1.5999
  481MPD2    N1 7216   3.771   1.760  14.595 -0.1406  0.1638  0.2506
  481MPD2    H7 7217   3.830   1.731  14.518 -1.1782 -0.4185 -0.3202
  482TMC3    C1 7218   3.636   1.845  14.430  0.2200  0.0276 -0.3562
  482TMC3    C2 7219   3.663   1.722  14.367  0.0071 -0.3934  0.5241
  482TMC3    C3 7220   3.639   1.714  14.230  0.9194  0.0699  0.2368
  482TMC3    C4 7221   3.572   1.947  14.370 -0.0955 -0.6134 -0.3660
  482TMC3    C5 7222   3.553   1.931  14.233  0.5096  0.4705 -0.2569
  482TMC3    C6 7223   3.579   1.817  14.159  0.4710  0.0583  0.5226
  482TMC3     C 7224   3.683   1.860  14.568  0.7340 -0.4173 -0.4353
  482TMC3     O 7225   3.637   1.946  14.639  0.0233 -0.3105 -0.1400
  482TMC3     H 7226   3.698   1.634  14.419  0.5621 -0.8647 -0.6485
  482TMC3    H1 7227   3.552   2.038  14.426  3.4767  0.2126 -0.4374
  482TMC3    H2 7228   3.556   1.798  14.055  0.4151  2.1971  0.1324
  482TMC3    C7 7229   3.501   2.047  14.163 -0.3208 -0.1677 -0.4548
  482TMC3    C8 7230   3.621   1.579  14.177  0.6816  0.4169  0.2979
  482TMC3    O1 7231   3.467   2.133  14.244 -0.1163  0.4825 -0.3458
  482TMC3    O2 7232   3.516   1.551  14.112  0.0133  0.1444 -0.6944
  483TMC3    C1 7233   2.110   0.483   0.254 -0.3008 -0.6129 -0.1279
  483TMC3    C2 7234   2.176   0.593   0.289 -0.0475 -0.2184 -0.0039
  483TMC3    C3 7235   2.170   0.641   0.416  0.5431 -0.6643  0.4608
  483TMC3    C4 7236   2.064   0.398   0.347 -0.3955 -0.0572  0.7401
  483TMC3    C5 7237   2.080   0.435   0.484  0.3224 -0.7327 -0.1940
  483TMC3    C6 7238   2.128   0.559   0.520 -0.0830  0.7254  0.0859
  483TMC3     C 7239   2.009   0.526   0.158  0.4191 -0.1951  0.2921
  483TMC3     O 7240   2.000   0.648   0.136  0.8575  0.5245 -0.2208
  483TMC3     H 7241   2.221   0.648   0.208  0.9824 -1.9137 -0.5722
  483TMC3    H1 7242   2.018   0.305   0.316 -0.5957  0.2549  0.0985
  483TMC3    H2 7243   2.126   0.599   0.621  0.5261 -0.8848  0.7248
  483TMC3    C7 7244   1.966   0.385   0.560  0.0738 -0.5769 -0.0241
  483TMC3    C8 7245   2.210   0.780   0.433  0.0392 -0.3831  0.6462
  483TMC3    O1 7246   1.901   0.296   0.495  0.2671 -0.4707 -0.4954
  483TMC3    O2 7247   2.211   0.854   0.337  0.3202 -0.8690  0.4437
  484MPD2     C 7248   4.483   3.481  12.784  0.0061 -0.2370  0.2398
  484MPD2    C1 7249   4.410   3.554  12.687 -0.4263  0.5136 -0.3132
  484MPD2    C2 7250   4.482   3.620  12.583  0.2481 -0.4730 -0.0818
  484MPD2    C3 7251   4.617   3.612  12.573 -0.2535  0.3875 -0.2254
  484MPD2    C4 7252   4.684   3.531  12.666 -0.0349  0.0816 -0.1116
  484MPD2    C5 7253   4.616   3.461  12.767 -0.6769  0.3065  0.0714
  484MPD2     H 7254   4.432   3.672  12.503  1.3353  1.4922  0.4947
  484MPD2    H1 7255   0.050   3.508  12.655 -0.7233 -2.0649 -2.1312
  484MPD2    H2 7256   4.438   3.424  12.865  1.4008  1.5488  2.2501
  484MPD2    H3 7257   4.675   3.402  12.836 -0.9035  0.9837  0.8427
  484MPD2     N 7258   4.708   3.673  12.480  0.1121 -0.3788 -0.1755
  484MPD2    H5 7259   0.065   3.653  12.503 -0.4614  1.8950  4.2898
  484MPD2    N1 7260   4.270   3.559  12.702 -0.2846 -0.4378 -0.8528
  484MPD2    H7 7261   4.233   3.532  12.793 -0.7033  1.8968 -0.3420
  485TMC3    C1 7262   0.046   3.795  12.290 -0.4347  0.3729 -0.2517
  485TMC3    C2 7263   0.162   3.821  12.359 -0.2901  0.4695 -0.1238
  485TMC3    C3 7264   0.247   3.921  12.316 -0.4014  0.6271  0.4292
  485TMC3    C4 7265   0.014   3.881  12.189 -0.3217 -0.8199 -0.7821
  485TMC3    C5 7266   0.098   3.980  12.143 -0.2291  0.0487 -0.1008
  485TMC3    C6 7267   0.207   4.011  12.217 -0.7129 -0.1458  0.0043
  485TMC3     C 7268   4.671   3.731  12.360  0.0315  0.6641  0.8252
  485TMC3     O 7269   4.558   3.733  12.310  0.0884 -0.1203  0.0279
  485TMC3     H 7270   0.197   3.749  12.432  1.1078 -0.2826 -1.5254
  485TMC3    H1 7271   4.668   3.862  12.124 -1.2303 -0.2988  0.2557
  485TMC3    H2 7272   0.273   4.081  12.167 -1.7665  0.2235 -0.8588
  485TMC3    C7 7273   0.129   3.971  12.003 -0.1394  0.1054  0.1128
  485TMC3    C8 7274   0.390   3.899  12.318  0.2493  1.0062 -0.6568
  485TMC3    O1 7275   0.102   3.867  11.939  0.6717  0.0238  0.2970
  485TMC3    O2 7276   0.454   3.968  12.241 -0.2427 -0.0364 -0.2875
  486MPD2     C 7277   1.902   2.918  13.202  0.8122  0.7411  0.1423
  486MPD2    C1 7278   1.843   2.912  13.078  0.5162  0.7143  0.4352
  486MPD2    C2 7279   1.791   3.024  13.014 -0.0507 -0.0339  0.1313
  486MPD2    C3 7280   1.792   3.146  13.078 -0.1714  0.4765  0.0340
  486MPD2    C4 7281   1.837   3.151  13.209 -0.3274  0.0170  0.1973
  486MPD2    C5 7282   1.901   3.041  13.263 -0.3510  0.9822 -1.0102
  486MPD2     H 7283   1.747   3.024  12.915 -0.4037 -1.3465  0.2913
  486MPD2    H1 7284   1.833   3.240  13.271  0.6531  0.6459 -0.6431
  486MPD2    H2 7285   1.934   2.836  13.265  0.7596  1.1810  0.7393
  486MPD2    H3 7286   1.939   3.052  13.364 -0.1759  3.6630 -1.3576
  486MPD2     N 7287   1.734   3.259  13.015 -0.4330  0.1622 -0.3405
  486MPD2    H5 7288   1.700   3.239  12.921  2.6466  1.9032 -1.8406
  486MPD2    N1 7289   1.831   2.776  13.026 -0.4342  0.5427 -0.9264
  486MPD2    H7 7290   1.863   2.703  13.090  0.1977 -1.0126 -2.9966
  487TMC3    C1 7291   1.752   2.607  12.884  1.0389  0.2051  0.8519
  487TMC3    C2 7292   1.672   2.563  12.775 -0.3574  0.1673 -0.0177
  487TMC3    C3 7293   1.670   2.434  12.753 -0.3283  0.6555 -0.5832
  487TMC3    C4 7294   1.842   2.517  12.940  0.0771  0.4441  0.8204
  487TMC3    C5 7295   1.823   2.388  12.920  0.8617  0.4520  0.1421
  487TMC3    C6 7296   1.730   2.346  12.831  0.0690 -0.0332 -0.1270
  487TMC3     C 7297   1.763   2.749  12.909 -0.2689 -0.2576  0.3928
  487TMC3     O 7298   1.700   2.825  12.837  0.5333 -0.0819  0.2611
  487TMC3     H 7299   1.631   2.636  12.706 -2.6186 -1.0988 -0.0229
  487TMC3    H1 7300   1.909   2.550  13.018  0.5987 -1.5450  1.2231
  487TMC3    H2 7301   1.733   2.243  12.797  0.1400  0.0022 -0.2283
  487TMC3    C7 7302   1.874   2.296  13.018 -0.2447  0.2381  0.0332
  487TMC3    C8 7303   1.550   2.373  12.713 -0.7255  0.2635  0.1079
  487TMC3    O1 7304   1.924   2.339  13.119 -0.3431  0.3072 -0.2604
  487TMC3    O2 7305   1.549   2.331  12.597  0.3125 -0.4217 -0.1916
  488MPD2     C 7306   1.609   4.160  16.108  0.2056 -0.7853  0.0313
  488MPD2    C1 7307   1.642   4.291  16.133 -0.1652  0.7947 -0.1127
  488MPD2    C2 7308   1.645   4.346  16.253  0.3373 -0.2301  0.0004
  488MPD2    C3 7309   1.603   4.274  16.366  0.0082 -0.5271  0.2589
  488MPD2    C4 7310   1.561   4.145  16.348  0.3917 -0.0041  0.9991
  488MPD2    C5 7311   1.563   4.087  16.219  0.0043  0.0227 -0.6792
  488MPD2     H 7312   1.656   4.454  16.255 -1.3617 -0.0250 -2.0610
  488MPD2    H1 7313   1.519   4.082  16.425  0.3594 -0.8160  0.3201
  488MPD2    H2 7314   1.608   4.119  16.008  4.7225  0.2211 -0.4060
  488MPD2    H3 7315   1.530   3.985  16.202  0.6092  0.0490 -2.0210
  488MPD2     N 7316   1.597   4.348  16.483  0.5321 -0.3770 -0.1193
  488MPD2    H5 7317   1.637   4.441  16.483  1.7631 -0.9157 -0.0520
  488MPD2    N1 7318   1.692   4.376  16.034  0.3283  0.2559 -0.1881
  488MPD2    H7 7319   1.716   4.471  16.059  1.1937 -1.2786  4.8268
  489TMC3    C1 7320   1.553   4.424  16.700 -0.4308  0.3185  0.1686
  489TMC3    C2 7321   1.641   4.528  16.675 -0.1670  0.4563  0.1445
  489TMC3    C3 7322   1.626   4.646  16.750 -0.1751 -1.0399 -0.1001
  489TMC3    C4 7323   1.448   4.446  16.787 -0.6410 -0.2359 -0.1208
  489TMC3    C5 7324   1.437   4.561  16.854 -0.1582  1.3021  0.1913
  489TMC3    C6 7325   1.527   4.665  16.837  0.0584 -0.1018 -0.0354
  489TMC3     C 7326   1.536   4.314  16.602  0.3161  0.2317  0.1625
  489TMC3     O 7327   1.485   4.209  16.633 -0.0043 -0.2553  0.0709
  489TMC3     H 7328   1.728   4.513  16.612 -0.9555 -1.8665 -0.3852
  489TMC3    H1 7329   1.385   4.359  16.808  1.5933 -1.5198  1.2412
  489TMC3    H2 7330   1.515   0.023  16.884 -0.5826 -0.6845  1.0023
  489TMC3    C7 7331   1.364   4.571  16.971 -0.0727  0.4319 -0.0972
  489TMC3    C8 7332   1.741   4.728  16.747 -0.8132  0.3321  0.3137
  489TMC3    O1 7333   1.396   4.660  17.046  0.3988  0.3572 -0.0359
  489TMC3    O2 7334   1.822   4.701  16.661 -0.3142  0.2087  0.4733
  490MPD2     C 7335   2.509   3.120  17.675  0.3501  0.0064  0.9081
  490MPD2    C1 7336   2.415   3.193  17.743  0.4393 -0.4301 -0.3436
  490MPD2    C2 7337   2.368   3.316  17.686  0.0542  0.7170 -0.2943
  490MPD2    C3 7338   2.420   3.364  17.566  0.6578  0.6813 -0.1533
  490MPD2    C4 7339   2.514   3.285  17.497  0.1549  0.5607 -0.1990
  490MPD2    C5 7340   2.552   3.166  17.553  0.6435 -1.1851  0.1894
  490MPD2     H 7341   2.298   3.377  17.742  0.8955  0.0021  1.5387
  490MPD2    H1 7342   2.553   3.312  17.400 -0.0719 -1.4703 -0.8429
  490MPD2    H2 7343   2.562   3.034  17.712 -0.4898 -1.3552 -1.0507
  490MPD2    H3 7344   2.630   3.103  17.512  1.5588 -0.4291  0.7568
  490MPD2     N 7345   2.390   3.487  17.499 -0.0301 -0.2435 -0.5302
  490MPD2    H5 7346   2.441   3.501  17.412  0.9659 -0.1500  0.0593
  490MPD2    N1 7347   2.358   3.141   0.104 -0.1668  0.0846  0.7530
  490MPD2    H7 7348   2.283   3.195   0.146  0.8485  0.9226  1.5121
  491TMC3    C1 7349   2.257   2.968   0.200 -1.1045 -0.6733  1.0550
  491TMC3    C2 7350   2.193   3.036   0.302  0.2606  0.5438  0.7339
  491TMC3    C3 7351   2.058   3.069   0.290 -0.0371 -0.1962 -0.1054
  491TMC3    C4 7352   2.188   2.939   0.085  0.5080  0.3025  0.8524
  491TMC3    C5 7353   2.056   2.968   0.074 -0.7185 -0.3908 -1.1034
  491TMC3    C6 7354   1.991   3.035   0.175  0.6545  0.3291  0.4377
  491TMC3     C 7355   2.382   3.015   0.161  0.3076  0.2843  0.3153
  491TMC3     O 7356   2.462   2.930   0.122 -0.9007  0.3215  0.0622
  491TMC3     H 7357   2.248   3.071   0.389 -1.1262 -0.8917  2.1843
  491TMC3    H1 7358   2.244   2.902  17.754 -0.4911  0.3102  0.1964
  491TMC3    H2 7359   1.891   3.071   0.155  0.7603  0.9818  1.0629
  491TMC3    C7 7360   2.006   2.989  17.693  0.4669 -0.0999 -0.3976
  491TMC3    C8 7361   2.010   3.162   0.389  0.2062  0.3516 -0.3957
  491TMC3    O1 7362   1.887   3.002  17.680  0.2926  0.0227  0.8103
  491TMC3    O2 7363   2.087   3.213   0.472 -0.6196 -0.1774  0.0998
  492MPD2     C 7364   2.645   4.090  11.898 -0.0968  1.2712 -0.3231
  492MPD2    C1 7365   2.663   3.998  11.790 -0.0656  0.1499 -0.2905
  492MPD2    C2 7366   2.659   3.861  11.813 -0.1852 -0.3613  0.2085
  492MPD2    C3 7367   2.667   3.805  11.939 -0.3717 -0.2530 -0.0757
  492MPD2    C4 7368   2.655   3.896  12.043  0.2768  0.0900  0.3534
  492MPD2    C5 7369   2.639   4.026  12.024 -0.2485  0.6897  0.9730
  492MPD2     H 7370   2.665   3.800  11.723 -0.4988  2.8794 -1.9918
  492MPD2    H1 7371   2.655   3.859  12.145 -1.9105  2.3219  1.1647
  492MPD2    H2 7372   2.644   4.198  11.890  0.6778  1.2139 -1.2295
  492MPD2    H3 7373   2.607   4.084  12.110  2.2179  1.3461  1.4760
  492MPD2     N 7374   2.690   3.669  11.966  0.2257 -0.0770  0.4897
  492MPD2    H5 7375   2.708   3.636  12.060 -0.5888 -0.0365  0.6650
  492MPD2    N1 7376   2.664   4.051  11.661 -0.0445 -0.4529  0.9655
  492MPD2    H7 7377   2.660   4.152  11.672 -3.2601 -0.3444 -1.2151
  493TMC3    C1 7378   2.700   4.079  11.427  0.0743 -0.1313 -0.3826
  493TMC3    C2 7379   2.711   4.218  11.435 -0.2778  0.0002  0.2522
  493TMC3    C3 7380   2.715   4.304  11.333 -0.7734 -0.2382 -0.3875
  493TMC3    C4 7381   2.688   4.030  11.300 -0.2959 -0.1350 -0.1399
  493TMC3    C5 7382   2.691   4.114  11.196 -0.1909  0.0308 -0.0185
  493TMC3    C6 7383   2.707   4.255  11.209 -0.5907  0.5040 -0.4291
  493TMC3     C 7384   2.668   3.990  11.538 -0.0227  0.5417 -0.7382
  493TMC3     O 7385   2.653   3.872  11.513  0.3071 -0.1398  0.2083
  493TMC3     H 7386   2.732   4.259  11.533 -2.2679  2.6169 -0.4409
  493TMC3    H1 7387   2.684   3.921  11.298 -2.1725 -0.0794  0.5589
  493TMC3    H2 7388   2.692   4.321  11.124 -0.3007  2.0498  0.7242
  493TMC3    C7 7389   2.676   4.056  11.062  0.5949 -1.0125  0.3912
  493TMC3    C8 7390   2.742   4.444  11.360  0.5281  0.4014  0.0449
  493TMC3    O1 7391   2.615   3.951  11.059  0.4932 -0.6424 -0.0844
  493TMC3    O2 7392   2.724   4.485  11.474  0.1982 -0.3328  0.3060
  494TMC3    C1 7393   2.784   0.421   0.145 -0.5922 -0.1101  0.1031
  494TMC3    C2 7394   2.774   0.282   0.145  0.7278  0.3117 -0.0662
  494TMC3    C3 7395   2.809   0.217   0.028  0.2357 -0.4075  1.2294
  494TMC3    C4 7396   2.810   0.489   0.029  0.0280 -0.2081 -0.2527
  494TMC3    C5 7397   2.837   0.414  17.667  0.3317  0.4858  0.0745
  494TMC3    C6 7398   2.839   0.273  17.666 -0.4999  0.1525 -0.5957
  494TMC3     C 7399   2.820   0.487   0.264 -0.4253 -0.4798 -0.2628
  494TMC3     O 7400   2.892   0.587   0.250  0.1262  0.1819  0.0333
  494TMC3     H 7401   2.752   0.222   0.233 -0.4273 -0.5336 -0.9398
  494TMC3    H1 7402   2.822   0.597   0.035  2.5216 -0.5212  0.3678
  494TMC3    H2 7403   2.871   0.225  17.574  0.6560 -2.6463  1.2592
  494TMC3    C7 7404   2.910   0.481  17.566  1.0958 -0.4718 -0.0179
  494TMC3    C8 7405   2.836   0.077   0.047  0.5419  0.3555  0.5213
  494TMC3    O1 7406   2.980   0.416  17.494 -0.2141  0.4213 -0.0558
  494TMC3    O2 7407   2.850   0.033   0.158 -0.3274  0.1968 -0.4415
  495TMC3    C1 7408   2.158   2.607  14.795  0.4054  0.4014  0.2416
  495TMC3    C2 7409   2.090   2.657  14.686 -0.5083  0.7080 -0.1531
  495TMC3    C3 7410   1.965   2.720  14.698 -0.2310  0.2461  0.6609
  495TMC3    C4 7411   2.100   2.627  14.914 -0.2572  0.3236  0.3739
  495TMC3    C5 7412   1.973   2.685  14.924  0.0947 -0.5141  0.0861
  495TMC3    C6 7413   1.911   2.740  14.818  0.1270  0.1597 -0.1427
  495TMC3     C 7414   2.168   2.463  14.774  0.4830 -0.3215  0.0519
  495TMC3     O 7415   2.106   2.393  14.857  0.2894 -0.2381  0.1165
  495TMC3     H 7416   2.138   2.660  14.589  0.2253  2.4919  0.2619
  495TMC3    H1 7417   2.146   2.587  15.004  0.0214 -0.3075 -0.0467
  495TMC3    H2 7418   1.816   2.788  14.835 -0.5966 -1.3437  0.0411
  495TMC3    C7 7419   1.913   2.692  15.062 -0.3067 -0.6451 -0.1254
  495TMC3    C8 7420   1.867   2.678  14.601 -0.3536  0.1386  0.2790
  495TMC3    O1 7421   1.995   2.681  15.158 -0.5549 -0.1835  0.6147
  495TMC3    O2 7422   1.756   2.732  14.605 -0.3372  0.2359  0.1769
  496MPD2     C 7423   3.711   3.140  15.397  0.5530  0.4270  0.2832
  496MPD2    C1 7424   3.713   3.042  15.491 -0.5392 -0.1082 -0.2497
  496MPD2    C2 7425   3.592   3.008  15.542  0.5315 -0.1642 -0.2340
  496MPD2    C3 7426   3.470   3.059  15.496  0.2127  0.3142 -0.4796
  496MPD2    C4 7427   3.459   3.147  15.387  0.0264 -0.2978  0.2780
  496MPD2    C5 7428   3.583   3.187  15.347  0.4221  0.1391 -0.9376
  496MPD2     H 7429   3.582   2.934  15.621  2.2040 -2.3501 -2.0781
  496MPD2    H1 7430   3.364   3.183  15.347  0.6353  0.6089 -0.3541
  496MPD2    H2 7431   3.809   3.181  15.374 -0.1455  2.4370  0.8526
  496MPD2    H3 7432   3.589   3.264  15.271  0.4074 -0.9750 -2.0482
  496MPD2     N 7433   3.350   3.004  15.538  0.0759 -0.0724 -0.3387
  496MPD2    H5 7434   3.278   2.990  15.468 -0.3003  1.0001 -0.1613
  496MPD2    N1 7435   3.838   2.978  15.519  0.6219 -0.1223 -0.0351
  496MPD2    H7 7436   3.904   2.973  15.442 -1.2747 -1.9803 -1.5396
  497TMC3    C1 7437   3.262   2.821  15.658 -0.1436  0.8742  0.3655
  497TMC3    C2 7438   3.239   2.748  15.538  0.2325 -0.8289  0.5694
  497TMC3    C3 7439   3.205   2.616  15.550  0.0912 -0.2064  0.2508
  497TMC3    C4 7440   3.252   2.761  15.781  0.1620 -0.6023  0.6520
  497TMC3    C5 7441   3.208   2.637  15.782  0.6224  0.3163 -0.3951
  497TMC3    C6 7442   3.197   2.555  15.676 -0.4887 -0.2110 -0.3387
  497TMC3     C 7443   3.333   2.946  15.659 -0.0267  0.3234 -0.9624
  497TMC3     O 7444   3.375   2.989  15.767  0.2315  0.2362  0.0267
  497TMC3     H 7445   3.239   2.799  15.443 -1.5599  0.5847  1.3262
  497TMC3    H1 7446   3.260   2.819  15.872  0.3712  0.5870 -0.1206
  497TMC3    H2 7447   3.171   2.451  15.687 -0.2266 -0.1106  1.3697
  497TMC3    C7 7448   3.236   2.566  15.906  0.1696 -0.0535 -0.2657
  497TMC3    C8 7449   3.171   2.545  15.428  0.3622 -0.4645 -0.4460
  497TMC3    O1 7450   3.164   2.473  15.929  0.0970  0.3382  0.5777
  497TMC3    O2 7451   3.176   2.601  15.320  0.8002 -0.0013 -0.0323
  498MPD2     C 7452   1.189   3.364   9.775  0.6798  0.6057 -0.0855
  498MPD2    C1 7453   1.088   3.455   9.793  0.1438 -0.2947 -0.8507
  498MPD2    C2 7454   0.961   3.405   9.838  0.4111  0.3803  0.8347
  498MPD2    C3 7455   0.936   3.269   9.843 -0.3617 -0.2728  0.0841
  498MPD2    C4 7456   1.037   3.180   9.809 -0.6430 -0.6775  0.2424
  498MPD2    C5 7457   1.159   3.229   9.788 -0.1965  0.2201  0.4408
  498MPD2     H 7458   0.885   3.475   9.871  1.0429  2.2211 -1.6597
  498MPD2    H1 7459   1.025   3.073   9.807  2.0646 -0.9191 -2.2651
  498MPD2    H2 7460   1.295   3.386   9.767  1.2016 -1.8738  0.1364
  498MPD2    H3 7461   1.240   3.160   9.765  0.5810  0.5725  2.0529
  498MPD2     N 7462   0.803   3.230   9.875 -0.5200  0.0044 -0.0197
  498MPD2    H5 7463   0.733   3.301   9.892 -0.3514  0.3018 -0.5663
  498MPD2    N1 7464   1.101   3.595   9.787  0.0942 -1.1798 -0.6624
  498MPD2    H7 7465   1.014   3.645   9.805  1.6098  2.1388 -2.6788
  499TMC3    C1 7466   1.202   3.811   9.749  0.6050 -0.5935  0.2941
  499TMC3    C2 7467   1.317   3.883   9.726  0.6312 -0.9474  0.1280
  499TMC3    C3 7468   1.303   4.013   9.688 -0.4234 -0.0849  0.0278
  499TMC3    C4 7469   1.078   3.863   9.743  0.7551 -0.5340 -0.0373
  499TMC3    C5 7470   1.066   3.997   9.709  0.2663 -0.2846  0.4362
  499TMC3    C6 7471   1.179   4.074   9.686  0.0972 -0.3519 -0.0204
  499TMC3     C 7472   1.219   3.666   9.752  0.0283  0.2995  0.0566
  499TMC3     O 7473   1.333   3.619   9.742 -0.2337  0.2586  0.0619
  499TMC3     H 7474   1.413   3.833   9.735 -0.5510 -3.4333 -1.0518
  499TMC3    H1 7475   0.989   3.806   9.764 -0.1193  1.0219  0.4363
  499TMC3    H2 7476   1.170   4.171   9.640  0.9008  0.3260  1.2777
  499TMC3    C7 7477   0.939   4.038   9.657  0.9127  0.0040 -0.0796
  499TMC3    C8 7478   1.415   4.105   9.698 -0.8441 -0.3379 -0.1368
  499TMC3    O1 7479   0.939   4.146   9.601  0.0568 -0.0806 -0.2896
  499TMC3    O2 7480   1.399   4.226   9.682 -0.5576  0.3529 -0.0134
  500MPD2     C 7481   1.476   0.067  10.533 -0.1075 -0.0378 -0.3600
  500MPD2    C1 7482   1.537   0.102  10.415 -0.9020  0.3671  0.6351
  500MPD2    C2 7483   1.468   0.090  10.296 -0.3078  0.4062 -0.1545
  500MPD2    C3 7484   1.334   0.046  10.303  0.3676  0.3886 -0.3334
  500MPD2    C4 7485   1.279   0.018  10.428 -0.3716 -0.5375  0.2900
  500MPD2    C5 7486   1.348   0.025  10.544  0.7854  0.1746 -0.9190
  500MPD2     H 7487   1.517   0.115  10.203 -3.5827  1.8900 -1.4693
  500MPD2    H1 7488   1.174   4.731  10.433 -1.1577  2.4957  0.1510
  500MPD2    H2 7489   1.525   0.081  10.629  0.6268 -0.3771 -0.6835
  500MPD2    H3 7490   1.304   4.736  10.639  0.7108 -0.0699 -1.0264
  500MPD2     N 7491   1.248   0.030  10.186 -0.1773  0.1878  0.1441
  500MPD2    H5 7492   1.151   0.008  10.208 -0.2431  0.7033  0.3606
  500MPD2    N1 7493   1.668   0.150  10.414  0.2028  0.8081 -0.2182
  500MPD2    H7 7494   1.694   0.187  10.323  3.6030 -2.8547 -0.7305
  501TMC3    C1 7495   1.883   0.226  10.478  0.3257 -0.5159  0.5125
  501TMC3    C2 7496   1.877   0.346  10.404 -0.0625 -0.1805 -0.2738
  501TMC3    C3 7497   1.990   0.427  10.410 -0.5943  0.2090  0.8384
  501TMC3    C4 7498   1.997   0.196  10.552 -0.3305 -1.3780  0.0517
  501TMC3    C5 7499   2.104   0.273  10.550 -0.3987 -0.1718  0.2811
  501TMC3    C6 7500   2.101   0.394  10.488 -0.0552  0.6011  0.1942
  501TMC3     C 7501   1.761   0.145  10.510  0.0062  0.4997 -0.5636
  501TMC3     O 7502   1.762   0.084  10.617  0.0898  0.0684  0.2456
  501TMC3     H 7503   1.795   0.367  10.337  0.7960  4.1768  0.0175
  501TMC3    H1 7504   1.989   0.123  10.632 -0.2285 -0.4866  0.8888
  501TMC3    H2 7505   2.193   0.445  10.466 -0.4856  0.4550 -2.0164
  501TMC3    C7 7506   2.184   0.271  10.664 -0.4388 -0.4470 -0.7776
  501TMC3    C8 7507   1.983   0.557  10.357  0.1995  0.5038  0.2044
  501TMC3    O1 7508   2.188   0.168  10.727 -0.4418  0.3541 -0.1559
  501TMC3    O2 7509   1.932   0.574  10.245  0.2656  0.4800 -0.0668
  502TMC3    C1 7510   1.498   3.217  15.207 -0.1311  0.3952  0.6321
  502TMC3    C2 7511   1.520   3.279  15.091  0.1641 -0.0262 -0.4890
  502TMC3    C3 7512   1.436   3.251  14.984 -0.0169 -0.3099 -0.0803
  502TMC3    C4 7513   1.395   3.122  15.211  0.8742  0.4674  1.1754
  502TMC3    C5 7514   1.309   3.097  15.108  0.2545  0.6541  0.6553
  502TMC3    C6 7515   1.330   3.166  14.998 -0.9765 -0.6776 -0.5366
  502TMC3     C 7516   1.576   3.252  15.325 -0.0718 -0.2512  0.3909
  502TMC3     O 7517   1.655   3.337  15.301 -0.2024 -1.1038  0.4731
  502TMC3     H 7518   1.607   3.341  15.072 -0.7604  1.2120 -0.6821
  502TMC3    H1 7519   1.391   3.059  15.300 -1.6331  0.6955  1.2183
  502TMC3    H2 7520   1.256   3.167  14.918  0.8975  0.5323 -2.2817
  502TMC3    C7 7521   1.171   3.053  15.148  0.2321  0.5994 -0.7562
  502TMC3    C8 7522   1.417   3.366  14.904 -0.1506 -0.2105  0.6464
  502TMC3    O1 7523   1.169   2.965  15.232  0.0035  0.0274 -0.0368
  502TMC3    O2 7524   1.466   3.468  14.951  0.6188  0.2003  0.0835
  503MPD2     C 7525   3.240   4.061  16.663 -0.1762  0.8370  0.7212
  503MPD2    C1 7526   3.224   4.087  16.800 -0.3110 -0.0533  0.0644
  503MPD2    C2 7527   3.224   3.971  16.879  1.1018  0.4466 -0.1031
  503MPD2    C3 7528   3.244   3.847  16.818  0.1766  0.1646 -0.2900
  503MPD2    C4 7529   3.256   3.831  16.680 -0.1347  0.2727  0.5012
  503MPD2    C5 7530   3.257   3.936  16.605  0.0456 -0.0741 -1.1788
  503MPD2     H 7531   3.217   3.989  16.986  1.2597 -1.3159  0.1980
  503MPD2    H1 7532   3.266   3.733  16.635 -0.2323  0.5468 -0.1233
  503MPD2    H2 7533   3.228   4.137  16.587 -0.3608 -2.1352 -2.2093
  503MPD2    H3 7534   3.266   3.926  16.498  2.8458  1.1557 -1.0636
  503MPD2     N 7535   3.273   3.736  16.905  0.2797 -0.7848  0.6436
  503MPD2    H5 7536   3.269   3.760  17.003  2.8802  1.5829  0.1481
  503MPD2    N1 7537   3.211   4.219  16.850 -0.2831  0.0771 -0.1336
  503MPD2    H7 7538   3.188   4.232  16.948 -1.8651  1.5247 -0.7081
  504TMC3    C1 7539   3.352   3.522  16.971  0.2543  0.1786  0.5024
  504TMC3    C2 7540   3.267   3.525  17.078 -0.0414  0.2458 -0.2765
  504TMC3    C3 7541   3.299   3.445  17.185 -0.3183 -0.2440 -0.2642
  504TMC3    C4 7542   3.472   3.453  16.974  0.3779  0.3817  0.4791
  504TMC3    C5 7543   3.503   3.378  17.083  0.0650 -0.3643  0.2357
  504TMC3    C6 7544   3.414   3.370  17.188 -0.2043  0.1659  0.0052
  504TMC3     C 7545   3.327   3.613  16.862  0.6633  0.4521  0.3969
  504TMC3     O 7546   3.390   3.588  16.759  0.0221  0.1046 -0.2015
  504TMC3     H 7547   3.179   3.589  17.074 -0.3661 -0.2220 -0.5830
  504TMC3    H1 7548   3.540   3.461  16.889 -1.1631 -1.3808 -0.9387
  504TMC3    H2 7549   3.442   3.315  17.277 -0.3783  0.6192  0.3360
  504TMC3    C7 7550   3.640   3.388  17.122 -0.8628  0.1463 -0.0809
  504TMC3    C8 7551   3.217   3.468  17.305  0.0494 -0.0808  0.3814
  504TMC3    O1 7552   3.658   3.385  17.244 -0.1904 -0.2769  0.3093
  504TMC3    O2 7553   3.123   3.544  17.287  0.6576  0.2504 -0.0488
  505MPD2     C 7554   4.243   3.187  10.358  0.3016 -0.6275 -0.9092
  505MPD2    C1 7555   4.305   3.102  10.447  0.1747  0.1742  0.7761
  505MPD2    C2 7556   4.375   3.158  10.551 -0.7510 -0.5003 -0.5313
  505MPD2    C3 7557   4.393   3.300  10.557 -0.0448  0.1554 -0.0809
  505MPD2    C4 7558   4.340   3.381  10.460 -0.5741  0.9597  0.3282
  505MPD2    C5 7559   4.259   3.325  10.364  1.4412  0.7567 -0.2678
  505MPD2     H 7560   4.431   3.091  10.616 -2.1219  0.6489  1.8543
  505MPD2    H1 7561   4.351   3.489  10.457 -0.8188  0.9713 -0.2296
  505MPD2    H2 7562   4.184   3.138  10.281 -0.9678 -0.5916  0.0347
  505MPD2    H3 7563   4.203   3.385  10.293  0.5488 -0.8193 -0.8919
  505MPD2     N 7564   4.477   3.360  10.656 -1.0553 -0.0373  0.2044
  505MPD2    H5 7565   4.485   3.461  10.644  0.2813  0.0613  1.8005
  505MPD2    N1 7566   4.291   2.963  10.420  0.1579 -0.0807  0.0172
  505MPD2    H7 7567   4.258   2.927  10.332 -0.8244 -1.8561  1.1074
  506TMC3    C1 7568   4.312   2.726  10.470  0.7389 -0.2715  0.6835
  506TMC3    C2 7569   4.371   2.702  10.351 -0.1184  0.0021 -0.4644
  506TMC3    C3 7570   4.453   2.593  10.344  0.0496 -0.9742 -0.1730
  506TMC3    C4 7571   4.332   2.651  10.583 -0.6233 -0.3789 -0.0892
  506TMC3    C5 7572   4.429   2.561  10.572 -0.4687  0.0106  1.1110
  506TMC3    C6 7573   4.488   2.522  10.450 -0.1123  0.3911 -0.1394
  506TMC3     C 7574   4.320   2.861  10.514 -0.5249  0.1729  0.4478
  506TMC3     O 7575   4.355   2.874  10.633  0.1345  0.4205 -0.2380
  506TMC3     H 7576   4.379   2.770  10.267 -0.3182  1.7465  0.9206
  506TMC3    H1 7577   4.291   2.673  10.681 -1.7284  0.5981 -0.7721
  506TMC3    H2 7578   4.573   2.457  10.440 -0.9548 -0.4188 -2.0179
  506TMC3    C7 7579   4.528   2.568  10.676  0.2304  0.4359  0.2685
  506TMC3    C8 7580   4.528   2.571  10.220  0.6068  0.8795 -0.3491
  506TMC3    O1 7581   4.581   2.461  10.695  0.2230  0.0289 -0.7260
  506TMC3    O2 7582   4.560   2.460  10.185  0.7305 -0.4222 -0.3620
  507TMC3    C1 7583   0.175   4.589  15.218  1.0023 -0.5576  0.1650
  507TMC3    C2 7584   0.036   4.606  15.221 -0.4191  0.4353 -0.1163
  507TMC3    C3 7585   4.701   4.584  15.110 -0.5171 -0.0187 -0.2041
  507TMC3    C4 7586   0.228   4.544  15.101  0.2531  0.8770 -0.2996
  507TMC3    C5 7587   0.152   4.512  14.992  0.1156 -0.0722 -0.4048
  507TMC3    C6 7588   0.016   4.529  15.000  0.4789  0.5681 -0.0534
  507TMC3     C 7589   0.262   4.597  15.331  0.3533 -0.0029  0.1562
  507TMC3     O 7590   0.368   4.536  15.323 -0.5228  0.5162  0.3252
  507TMC3     H 7591   4.732   4.661  15.304 -0.6140  0.9055 -0.5334
  507TMC3    H1 7592   0.336   4.528  15.103  0.1851  0.7291  1.5716
  507TMC3    H2 7593   4.699   4.480  14.921  0.6193 -0.0971  0.2605
  507TMC3    C7 7594   0.200   4.534  14.854 -0.1112 -0.2720 -0.2345
  507TMC3    C8 7595   4.609   4.691  15.078  0.4998  0.0211  0.2962
  507TMC3    O1 7596   0.108   4.574  14.783 -0.2489  0.2276 -0.5199
  507TMC3    O2 7597   4.522   4.730  15.158  0.3169 -0.1189  0.1590
  508MPD2     C 7598   0.638   1.002  16.056 -0.7372  0.6485 -0.0124
  508MPD2    C1 7599   0.615   1.102  16.143 -0.1567  0.0877 -0.1903
  508MPD2    C2 7600   0.611   1.235  16.102  0.8921 -0.0848  0.4716
  508MPD2    C3 7601   0.637   1.268  15.972 -0.7802 -0.0660 -0.7952
  508MPD2    C4 7602   0.658   1.164  15.879 -0.2283 -0.3900 -0.0370
  508MPD2    C5 7603   0.660   1.029  15.919  0.4372 -0.4235 -0.6939
  508MPD2     H 7604   0.577   1.309  16.174 -0.5094  0.8280 -1.1401
  508MPD2    H1 7605   0.689   1.189  15.778  0.1768 -1.4182 -0.1674
  508MPD2    H2 7606   0.629   0.896  16.080  2.2162  0.2954 -0.4739
  508MPD2    H3 7607   0.688   0.955  15.846  1.2057  0.5206 -1.3480
  508MPD2     N 7608   0.623   1.408  15.944 -0.4122  0.1157 -0.1738
  508MPD2    H5 7609   0.592   1.470  16.019 -0.3462  0.3761 -0.3614
  508MPD2    N1 7610   0.587   1.063  16.274 -0.3574 -0.5942 -0.3641
  508MPD2    H7 7611   0.611   0.968  16.299  3.5907  0.4384 -0.1824
  509TMC3    C1 7612   0.512   1.776  15.681  0.2800 -0.3457 -0.2907
  509TMC3    C2 7613   0.603   1.865  15.738  0.5568  0.2328  0.0318
  509TMC3    C3 7614   0.674   1.821  15.840  0.5072 -0.6064  0.0093
  509TMC3    C4 7615   0.505   1.644  15.721 -0.0952  0.1573 -0.1772
  509TMC3    C5 7616   0.582   1.606  15.825 -0.4428  0.8018  0.8115
  509TMC3    C6 7617   0.667   1.690  15.888  0.1833 -0.2340 -0.7525
  509TMC3     C 7618   0.448   1.815  15.556  0.0779  0.2030 -0.2172
  509TMC3     O 7619   0.382   1.740  15.492  0.0009 -0.6629  0.3802
  509TMC3     H 7620   0.628   1.960  15.692  2.7806 -0.5137 -0.3082
  509TMC3    H1 7621   0.472   1.577  15.643 -0.8487  0.1477  0.1580
  509TMC3    H2 7622   0.723   1.658  15.975 -1.8331 -0.1812  0.5677
  509TMC3    C7 7623   0.625   1.463  15.823 -0.2286 -0.7505  0.2241
  509TMC3    C8 7624   0.781   1.902  15.884  0.0385  0.3566 -0.0831
  509TMC3    O1 7625   0.645   1.417  15.711 -0.1497 -0.0536  0.2171
  509TMC3    O2 7626   0.788   2.011  15.836 -0.2827 -0.0046 -0.0112
  510MPD2     C 7627   3.240   3.185  14.714 -0.8463 -0.2232  0.4896
  510MPD2    C1 7628   3.278   3.069  14.767 -1.0275 -0.7068 -0.9594
  510MPD2    C2 7629   3.404   3.025  14.730  0.1525  0.1412  0.5966
  510MPD2    C3 7630   3.478   3.110  14.646  0.1720 -0.1056  0.1474
  510MPD2    C4 7631   3.435   3.223  14.598 -0.2977 -0.0049  0.1587
  510MPD2    C5 7632   3.317   3.271  14.639  0.1364  0.2120 -0.4129
  510MPD2     H 7633   3.454   2.937  14.769  0.4963  0.2767  0.4633
  510MPD2    H1 7634   3.496   3.278  14.527 -0.9519  0.2123 -0.2265
  510MPD2    H2 7635   3.148   3.233  14.745 -1.1038  0.0934 -0.7752
  510MPD2    H3 7636   3.276   3.363  14.601  0.5075  1.1328  1.4081
  510MPD2     N 7637   3.613   3.074  14.617 -0.0068  0.4462  0.2128
  510MPD2    H5 7638   3.646   2.989  14.663  0.2050 -0.2070 -1.1309
  510MPD2    N1 7639   3.186   2.987  14.842  0.5638  0.6443 -0.5495
  510MPD2    H7 7640   3.091   3.016  14.862  1.5651  2.0846  2.0068
  511TMC3    C1 7641   3.100   2.798  14.951  0.4600 -0.3558  0.0503
  511TMC3    C2 7642   3.000   2.868  15.015  1.0141  0.4735 -1.0116
  511TMC3    C3 7643   2.889   2.792  15.053 -0.1062  0.5463 -0.4408
  511TMC3    C4 7644   3.082   2.675  14.907 -0.2101 -0.4509  0.0924
  511TMC3    C5 7645   2.964   2.612  14.923  0.1157 -0.2147  0.1147
  511TMC3    C6 7646   2.864   2.665  15.006 -0.3623 -0.2436 -0.3796
  511TMC3     C 7647   3.216   2.867  14.903  0.1213 -0.3162  0.3584
  511TMC3     O 7648   3.320   2.798  14.889  0.4237 -1.0015  0.1461
  511TMC3     H 7649   3.028   2.963  15.059 -2.9122  1.3024 -0.3421
  511TMC3    H1 7650   3.159   2.640  14.839 -1.0580  0.9002 -1.5779
  511TMC3    H2 7651   2.783   2.602  15.041  1.1996 -2.0065  0.0571
  511TMC3    C7 7652   2.948   2.494  14.848 -0.2704 -0.3616 -0.3484
  511TMC3    C8 7653   2.819   2.843  15.172 -0.4698 -0.5047  0.7083
  511TMC3    O1 7654   2.995   2.495  14.736 -0.5757  0.1713 -0.4426
  511TMC3    O2 7655   2.869   2.943  15.225 -0.5963  0.3391  0.2913
  512TMC3    C1 7656   2.264   2.951  13.192 -0.8664 -0.2470  0.6295
  512TMC3    C2 7657   2.304   2.885  13.306 -0.3743  0.0471  0.3357
  512TMC3    C3 7658   2.315   2.753  13.303  0.6712 -0.3790  0.8231
  512TMC3    C4 7659   2.223   2.893  13.076  0.0238 -0.3514 -0.0401
  512TMC3    C5 7660   2.238   2.756  13.078  0.2058  0.1661 -0.0121
  512TMC3    C6 7661   2.282   2.682  13.191 -1.3593 -0.2604  0.4569
  512TMC3     C 7662   2.249   3.095  13.205  0.2867 -0.2330 -0.3736
  512TMC3     O 7663   2.212   3.137  13.312 -0.4478 -0.0316 -0.4745
  512TMC3     H 7664   2.332   2.947  13.390 -0.1098  1.5197 -0.8381
  512TMC3    H1 7665   2.185   2.946  12.990  3.0147  1.8822  0.0341
  512TMC3    H2 7666   2.284   2.574  13.199  4.4141 -0.1461  0.9865
  512TMC3    C7 7667   2.204   2.680  12.959 -0.2840  0.6715 -0.3016
  512TMC3    C8 7668   2.380   2.680  13.406 -0.4523  0.6928 -0.3182
  512TMC3    O1 7669   2.134   2.744  12.883 -0.2091  0.1478  0.6349
  512TMC3    O2 7670   2.426   2.568  13.371 -0.4098 -0.1585  0.6823
  513MPD2     C 7671   4.689   2.934  12.987 -0.1672  0.2097  0.0383
  513MPD2    C1 7672   0.036   2.969  12.883  0.1715  0.6256 -0.1589
  513MPD2    C2 7673   0.157   2.919  12.886  0.2571 -0.0335 -0.6695
  513MPD2    C3 7674   0.200   2.829  12.985  0.4234 -0.5302 -0.0363
  513MPD2    C4 7675   0.117   2.804  13.096 -0.8835  0.2962  0.2852
  513MPD2    C5 7676   4.729   2.857  13.093  0.1293 -0.2054  0.7225
  513MPD2     H 7677   0.223   2.942  12.803  0.3906  0.9061 -0.3120
  513MPD2    H1 7678   0.138   2.737  13.179 -1.5540  1.9713  1.8095
  513MPD2    H2 7679   4.584   2.959  12.981 -0.2639 -0.2928 -0.4081
  513MPD2    H3 7680   4.662   2.831  13.174  0.0069 -0.2950  0.5914
  513MPD2     N 7681   0.327   2.778  12.968 -0.5474  0.0460 -0.4614
  513MPD2    H5 7682   0.383   2.812  12.890  2.0280  2.2816  2.3591
  513MPD2    N1 7683   0.004   3.045  12.764 -0.5615 -0.0108 -0.5146
  513MPD2    H7 7684   0.079   3.058  12.697  1.0307 -0.1532  1.2349
  514TMC3    C1 7685   4.615   3.160  12.608 -0.1359 -0.3378 -0.2181
  514TMC3    C2 7686   4.521   3.105  12.528  0.2359  0.6301  1.0283
  514TMC3    C3 7687   4.554   3.069  12.399 -0.0818 -0.4070  0.5584
  514TMC3    C4 7688   0.005   3.174  12.559  0.0813  0.6321 -0.0063
  514TMC3    C5 7689   0.041   3.131  12.433 -0.2154 -0.0941 -0.8460
  514TMC3    C6 7690   4.685   3.080  12.350  0.2842 -1.1297 -0.2089
  514TMC3     C 7691   4.619   3.103  12.738  1.0402  0.0411 -0.0352
  514TMC3     O 7692   4.516   3.089  12.807  0.3436  0.2137 -0.3624
  514TMC3     H 7693   4.422   3.086  12.568 -1.3134  1.2672 -2.5011
  514TMC3    H1 7694   0.082   3.232  12.608  0.3530 -1.1234  1.6890
  514TMC3    H2 7695   4.713   3.023  12.263  0.4769  1.1186 -1.6151
  514TMC3    C7 7696   0.160   3.053  12.454 -0.2309  0.3064  0.4712
  514TMC3    C8 7697   4.440   3.047  12.305  0.1851 -0.1715  0.2328
  514TMC3    O1 7698   0.203   3.039  12.567  0.0327 -0.3089  0.1166
  514TMC3    O2 7699   4.331   3.095  12.338  0.7063 -0.5327 -0.2910
  515MPD2     C 7700   2.048   4.285  15.063  0.3200  0.2153 -0.2611
  515MPD2    C1 7701   2.107   4.233  14.955 -0.9044  0.3333  0.1007
  515MPD2    C2 7702   2.239   4.253  14.938  0.7073  0.2546  0.0348
  515MPD2    C3 7703   2.308   4.339  15.019  0.3436  0.0267  0.0423
  515MPD2    C4 7704   2.243   4.393  15.127 -0.0455 -0.0680  0.2443
  515MPD2    C5 7705   2.111   4.365  15.152 -0.2363 -0.2649 -0.1341
  515MPD2     H 7706   2.288   4.199  14.857 -0.7403  0.0984 -0.7302
  515MPD2    H1 7707   2.304   4.460  15.186  0.7650 -0.9128  0.3652
  515MPD2    H2 7708   1.940   4.282  15.073  0.3646  0.5420  0.3391
  515MPD2    H3 7709   2.052   4.410  15.231 -0.9778  0.7220 -1.2346
  515MPD2     N 7710   2.441   4.377  14.987  0.0403 -0.6273  0.0347
  515MPD2    H5 7711   2.470   4.467  15.026  0.8173  0.3554 -2.7931
  515MPD2    N1 7712   2.040   4.151  14.859  0.0397  0.2804 -0.3939
  515MPD2    H7 7713   2.098   4.107  14.788 -0.8720  1.4121 -1.8270
  516TMC3    C1 7714   1.859   4.009  14.781  0.1255  0.2548  0.3966
  516TMC3    C2 7715   1.864   4.039  14.647 -1.0823 -0.1900 -0.1787
  516TMC3    C3 7716   1.837   3.940  14.556  0.4393 -0.5033 -0.3190
  516TMC3    C4 7717   1.846   3.878  14.820  0.1666 -0.0213  0.4107
  516TMC3    C5 7718   1.821   3.784  14.730  0.6473 -0.7208 -0.0759
  516TMC3    C6 7719   1.807   3.815  14.597 -0.0362 -0.2475  0.2569
  516TMC3     C 7720   1.914   4.098  14.882  0.1375 -0.2086 -0.3646
  516TMC3     O 7721   1.858   4.093  14.989 -0.0133 -0.1590  0.2777
  516TMC3     H 7722   1.901   4.139  14.625  0.4522 -0.8419 -0.5411
  516TMC3    H1 7723   1.860   3.850  14.923  2.6012 -0.1332  0.0488
  516TMC3    H2 7724   1.804   3.734  14.525  0.2216  0.7584 -0.8690
  516TMC3    C7 7725   1.829   3.643  14.768  0.1142  0.2013  0.6963
  516TMC3    C8 7726   1.804   3.968  14.422  0.2764 -0.1924 -0.4061
  516TMC3    O1 7727   1.889   3.618  14.871  0.2098  0.5681  0.0221
  516TMC3    O2 7728   1.744   3.882  14.364  0.4017 -0.9259  0.7635
  517MPD2     C 7729   1.812   0.989  17.655 -0.6136  0.4636  0.4766
  517MPD2    C1 7730   1.943   0.982  17.675 -0.4342 -0.1611  0.8182
  517MPD2    C2 7731   2.009   1.090  17.728  0.1421 -1.0299  0.8442
  517MPD2    C3 7732   1.947   1.213  17.754  0.7322 -0.8596  0.8341
  517MPD2    C4 7733   1.815   1.221  17.730  0.0372  0.3616 -0.5675
  517MPD2    C5 7734   1.751   1.113  17.673  0.6006 -0.2333  0.2189
  517MPD2     H 7735   2.113   1.080   0.003  1.0548  2.4891 -1.2773
  517MPD2    H1 7736   1.759   1.312  17.743 -3.0841 -1.1822 -3.1513
  517MPD2    H2 7737   1.750   0.911  17.613  1.5151 -1.9308  1.7705
  517MPD2    H3 7738   1.646   1.132  17.653  0.5509 -0.2904  0.4263
  517MPD2     N 7739   2.011   1.325   0.053 -0.5116 -0.2366  0.1649
  517MPD2    H5 7740   1.951   1.401   0.083 -0.4104 -0.3108  0.5495
  517MPD2    N1 7741   2.016   0.855  17.646  0.0206  0.2059  0.5331
  517MPD2    H7 7742   2.105   0.831  17.687 -0.3223 -1.8167  0.1007
  518TMC3    C1 7743   2.054   0.653  17.554 -0.6185 -0.3136  0.2055
  518TMC3    C2 7744   2.015   0.520  17.561 -0.2289 -0.5270  0.2400
  518TMC3    C3 7745   2.099   0.418  17.515 -0.4579  0.4250  0.0707
  518TMC3    C4 7746   2.178   0.688  17.511 -0.2711 -0.6961 -0.0581
  518TMC3    C5 7747   2.260   0.581  17.471 -0.1025  0.1926 -0.3618
  518TMC3    C6 7748   2.228   0.450  17.478  0.1135  0.3239  0.4074
  518TMC3     C 7749   1.952   0.746  17.598 -0.1798 -0.0150 -0.3311
  518TMC3     O 7750   1.838   0.729  17.559  0.3549 -0.2489  0.1301
  518TMC3     H 7751   1.917   0.492  17.597 -0.2862  0.0460  0.5402
  518TMC3    H1 7752   2.198   0.792  17.489  1.4948 -0.9515  0.3725
  518TMC3    H2 7753   2.294   0.367  17.458  0.9413  1.3641 -1.1423
  518TMC3    C7 7754   2.389   0.608  17.417  0.2112 -0.3084 -1.0430
  518TMC3    C8 7755   2.049   0.299  17.454 -0.0302 -0.0819  1.0269
  518TMC3    O1 7756   2.466   0.697  17.461  0.7043  0.2319 -0.1894
  518TMC3    O2 7757   2.130   0.232  17.396 -0.8037 -0.1831  0.1846
  519MPD2     C 7758   4.015   4.447  13.817 -0.5518 -0.2875 -0.4117
  519MPD2    C1 7759   3.910   4.406  13.895 -0.2032  0.1636 -0.5595
  519MPD2    C2 7760   3.928   4.295  13.976 -0.2541  0.6455  0.8399
  519MPD2    C3 7761   4.048   4.224  13.974 -0.0354  0.5979 -0.8420
  519MPD2    C4 7762   4.149   4.262  13.893 -0.0387 -0.3990  0.0104
  519MPD2    C5 7763   4.133   4.373  13.817 -0.4313 -0.4489  0.2265
  519MPD2     H 7764   3.844   4.269  14.040 -0.6806  0.7492  0.3183
  519MPD2    H1 7765   4.245   4.212  13.891  0.4437  0.6233 -2.1962
  519MPD2    H2 7766   3.999   4.529  13.748 -0.0051  1.3588  1.4188
  519MPD2    H3 7767   4.211   4.405  13.749 -0.6641 -0.0188  0.1630
  519MPD2     N 7768   4.050   4.097  14.035 -0.4974 -1.0421 -0.4880
  519MPD2    H5 7769   4.133   4.041  14.016  1.2808  0.8156  1.8203
  519MPD2    N1 7770   3.774   4.463  13.891 -0.1477  0.1940 -0.1465
  519MPD2    H7 7771   3.710   4.405  13.944 -0.6715  1.1344  0.2636
  520TMC3    C1 7772   3.955   3.899  14.114  0.1668 -0.3762  0.0271
  520TMC3    C2 7773   3.838   3.848  14.069 -0.0486  0.0196 -0.3620
  520TMC3    C3 7774   3.840   3.717  14.023  0.6561  0.2760 -0.8818
  520TMC3    C4 7775   4.075   3.840  14.094 -0.0605  0.5753  0.0489
  520TMC3    C5 7776   4.070   3.712  14.053 -0.1207 -0.9091  0.6692
  520TMC3    C6 7777   3.955   3.648  14.025 -0.0556 -0.2395 -0.2084
  520TMC3     C 7778   3.953   4.041  14.117 -0.1635 -0.1128 -0.2513
  520TMC3     O 7779   3.850   4.087  14.163 -0.3515  0.3778 -0.7108
  520TMC3     H 7780   3.747   3.907  14.066  0.7830  1.3193 -0.1096
  520TMC3    H1 7781   4.170   3.886  14.118  0.3997 -0.5556  0.4075
  520TMC3    H2 7782   3.947   3.541  14.008 -0.5202 -0.1874 -0.3002
  520TMC3    C7 7783   4.186   3.638  14.036 -0.1458  0.6408  0.4856
  520TMC3    C8 7784   3.735   3.660  13.950  0.1742  0.5470 -0.3074
  520TMC3    O1 7785   4.270   3.653  14.125 -0.5683 -0.2222 -0.3412
  520TMC3    O2 7786   3.757   3.573  13.866 -0.4725 -0.4448 -0.8157
  521MPD2     C 7787   3.993   1.680  17.500  0.0408 -0.4683  0.2446
  521MPD2    C1 7788   4.010   1.657  17.363  0.4703 -0.0290  0.6567
  521MPD2    C2 7789   4.143   1.634  17.320 -0.6702  0.3135 -0.8846
  521MPD2    C3 7790   4.248   1.637  17.412  0.7546  0.2898  0.4695
  521MPD2    C4 7791   4.223   1.674  17.545  0.3325  0.4063  0.3399
  521MPD2    C5 7792   4.092   1.697  17.589  0.1817 -0.9146  0.4301
  521MPD2     H 7793   4.166   1.609  17.218  0.5969 -1.6692 -0.1092
  521MPD2    H1 7794   4.302   1.684  17.618 -0.6516 -2.6891  1.8214
  521MPD2    H2 7795   3.893   1.689  17.542  0.4760  3.3252  0.4237
  521MPD2    H3 7796   4.073   1.717  17.693  1.0721  0.6534  0.2898
  521MPD2     N 7797   4.383   1.618  17.361 -0.1395  0.7282 -0.3401
  521MPD2    H5 7798   4.393   1.608  17.261  0.2495 -2.4206  0.0139
  521MPD2    N1 7799   3.894   1.645  17.282  0.0647  0.1015  0.2646
  521MPD2    H7 7800   3.803   1.650  17.326  0.5671 -1.4765  1.5017
  522TMC3    C1 7801   4.606   1.576  17.348 -0.0598 -0.0830 -0.0146
  522TMC3    C2 7802   4.717   1.502  17.384  0.2964 -0.2654 -0.3194
  522TMC3    C3 7803   0.069   1.467  17.292  0.9832  0.3992 -0.0732
  522TMC3    C4 7804   4.598   1.629  17.217 -0.2263  0.0077 -0.0288
  522TMC3    C5 7805   4.690   1.584  17.120  0.1163 -0.0309  0.2625
  522TMC3    C6 7806   0.058   1.501  17.158  0.1325 -0.0408  0.4691
  522TMC3     C 7807   4.499   1.608  17.437  0.9209 -0.7848  0.2765
  522TMC3     O 7808   4.519   1.611  17.556  0.0092  0.5725  0.0490
  522TMC3     H 7809   4.713   1.446  17.476 -0.6314 -2.2280 -1.5643
  522TMC3    H1 7810   4.533   1.715  17.201 -1.3515 -0.6714  0.9201
  522TMC3    H2 7811   0.109   1.448  17.078  1.9555  0.5923  1.2085
  522TMC3    C7 7812   4.696   1.659  16.998  0.0221  0.8221  0.1236
  522TMC3    C8 7813   0.165   1.366  17.334  0.0007  0.0241 -0.1731
  522TMC3    O1 7814   0.058   1.641  16.927  0.2946 -0.2238  0.1614
  522TMC3    O2 7815   0.146   1.305  17.441 -0.1904 -0.2618  0.1805
  523MPD2     C 7816   3.035   1.900  10.126 -0.6098 -0.5311  1.5874
  523MPD2    C1 7817   2.898   1.902  10.125  0.8077  0.0243  0.5077
  523MPD2    C2 7818   2.827   1.993  10.047  0.6711  0.5190  0.2720
  523MPD2    C3 7819   2.899   2.075   9.960 -0.4735  0.6305 -0.1031
  523MPD2    C4 7820   3.040   2.071   9.957 -0.2281 -0.9022 -0.1967
  523MPD2    C5 7821   3.109   1.988  10.041 -0.1089 -0.5534 -0.2488
  523MPD2     H 7822   2.719   1.991  10.040  0.6203 -2.1213  2.1460
  523MPD2    H1 7823   3.098   2.138   9.894  1.6450 -2.8660 -0.5778
  523MPD2    H2 7824   3.082   1.831  10.196 -1.0345 -2.4376 -0.0098
  523MPD2    H3 7825   3.217   1.982  10.035  0.0623 -0.0440  2.3879
  523MPD2     N 7826   2.831   2.145   9.857  0.0707  0.0520 -0.1789
  523MPD2    H5 7827   2.880   2.185   9.778  0.3130  0.1288  0.0079
  523MPD2    N1 7828   2.843   1.791  10.194  0.1381  0.2700  0.3007
  523MPD2    H7 7829   2.908   1.716  10.214 -0.7999 -0.2800  1.3148
  524TMC3    C1 7830   2.659   2.250   9.745 -0.1544  0.3616 -0.6283
  524TMC3    C2 7831   2.633   2.159   9.646 -0.0111 -0.3750  0.0154
  524TMC3    C3 7832   2.538   2.200   9.551  0.7534  0.3286 -0.6713
  524TMC3    C4 7833   2.596   2.370   9.758 -0.1102  0.5207 -0.1024
  524TMC3    C5 7834   2.517   2.410   9.658 -0.5760  0.0616 -0.3586
  524TMC3    C6 7835   2.488   2.329   9.553  0.0724  0.1868  0.2537
  524TMC3     C 7836   2.704   2.191   9.868  0.2251  0.1294  0.1907
  524TMC3     O 7837   2.644   2.213   9.972 -0.3269 -0.3395  0.4630
  524TMC3     H 7838   2.644   2.053   9.668 -1.2178 -0.7932 -1.3398
  524TMC3    H1 7839   2.608   2.434   9.844 -0.5115 -0.2668  0.5437
  524TMC3    H2 7840   2.434   2.358   9.464 -0.0711  1.2637  0.6924
  524TMC3    C7 7841   2.460   2.543   9.689  0.0052  0.3707  0.1876
  524TMC3    C8 7842   2.497   2.105   9.446  0.7910  0.8030 -0.1835
  524TMC3    O1 7843   2.499   2.608   9.785  0.8746 -0.4563 -0.0655
  524TMC3    O2 7844   2.571   2.008   9.432 -0.2237 -0.0128 -0.2246
  525MPD2     C 7845   4.737   3.436  14.325 -0.7327 -0.1089 -0.1174
  525MPD2    C1 7846   0.135   3.446  14.319  0.4032 -0.0694 -0.6679
  525MPD2    C2 7847   0.190   3.557  14.254  0.3577 -0.6425  0.0696
  525MPD2    C3 7848   0.117   3.657  14.192  0.0134 -0.5271 -0.4745
  525MPD2    C4 7849   4.720   3.632  14.187  0.1337  0.0184 -0.4901
  525MPD2    C5 7850   4.665   3.527  14.252  0.4699 -0.0514 -0.3928
  525MPD2     H 7851   0.296   3.575  14.265  0.1169 -0.2931  1.7415
  525MPD2    H1 7852   4.644   3.702  14.156  0.1260 -0.1326 -0.8138
  525MPD2    H2 7853   4.689   3.362  14.388  1.1822 -1.1435  0.1194
  525MPD2    H3 7854   4.557   3.524  14.251  0.4564  0.3264  0.0010
  525MPD2     N 7855   0.168   3.789  14.174 -0.2599 -0.3783  0.6244
  525MPD2    H5 7856   0.100   3.862  14.155  0.1335 -0.0997  0.2827
  525MPD2    N1 7857   0.225   3.359  14.389  0.1208  0.0062 -0.3615
  525MPD2    H7 7858   0.323   3.379  14.372 -0.1980  3.1523  1.4473
  526TMC3    C1 7859   0.293   3.205  14.561  0.0015 -0.3488  0.3108
  526TMC3    C2 7860   0.275   3.159  14.690 -0.0045 -0.2088  0.1063
  526TMC3    C3 7861   0.381   3.105  14.755 -0.0894 -0.1550  0.4630
  526TMC3    C4 7862   0.422   3.209  14.507  0.4634  0.5513 -0.0495
  526TMC3    C5 7863   0.523   3.157  14.580  0.2492  0.6393 -0.1463
  526TMC3    C6 7864   0.505   3.087  14.697 -1.2500  0.0320  0.0981
  526TMC3     C 7865   0.185   3.273  14.490  0.2318 -0.5335 -0.2439
  526TMC3     O 7866   0.071   3.265  14.534 -0.6790 -0.3681  0.8343
  526TMC3     H 7867   0.179   3.174  14.739  0.3640 -0.3893  0.8636
  526TMC3    H1 7868   0.433   3.219  14.400 -0.7046  1.5162 -0.0736
  526TMC3    H2 7869   0.583   3.039  14.755 -0.9693 -0.1889 -0.4649
  526TMC3    C7 7870   0.652   3.149  14.514 -0.1241  0.8474 -0.8406
  526TMC3    C8 7871   0.376   3.085  14.897  0.3389 -0.1541 -0.0935
  526TMC3    O1 7872   0.675   3.227  14.423 -0.6705  0.0936  1.0077
  526TMC3    O2 7873   0.475   3.120  14.959  0.2340 -0.4300  0.2258
  527MPD2     C 7874   3.537   1.130   1.527  0.2582 -0.1712  0.4521
  527MPD2    C1 7875   3.451   1.081   1.431 -1.0599 -0.6573  0.6722
  527MPD2    C2 7876   3.496   1.060   1.302 -0.5470 -0.9645 -0.3098
  527MPD2    C3 7877   3.634   1.089   1.271  0.0074 -0.5103 -0.1494
  527MPD2    C4 7878   3.718   1.146   1.371  0.4321 -0.6753 -1.0296
  527MPD2    C5 7879   3.662   1.163   1.498 -0.8896  0.0701 -0.1446
  527MPD2     H 7880   3.429   1.013   1.230  0.6628 -3.5782  0.2689
  527MPD2    H1 7881   3.825   1.166   1.372  0.4372 -0.7389 -0.4979
  527MPD2    H2 7882   3.497   1.144   1.627  2.6149  0.3256  1.3163
  527MPD2    H3 7883   3.722   1.207   1.577 -1.0726 -0.9095  0.5360
  527MPD2     N 7884   3.678   1.076   1.133  0.2158  0.2298  0.1865
  527MPD2    H5 7885   3.604   1.042   1.072  1.0919  0.8125 -1.1946
  527MPD2    N1 7886   3.321   1.042   1.470 -1.1677 -0.4990  0.0123
  527MPD2    H7 7887   3.255   1.027   1.394 -1.1118  0.1470 -0.1640
  528TMC3    C1 7888   3.146   0.940   1.590  0.1526 -0.1443  0.3367
  528TMC3    C2 7889   3.069   0.963   1.479 -0.5467 -0.6090  0.3442
  528TMC3    C3 7890   2.957   0.875   1.468  0.1432  0.1102  0.5886
  528TMC3    C4 7891   3.127   0.838   1.681  0.4536  0.4614  0.0803
  528TMC3    C5 7892   3.009   0.773   1.672  0.0912 -0.0858  0.2084
  528TMC3    C6 7893   2.923   0.786   1.567 -0.1955 -0.3276 -0.3411
  528TMC3     C 7894   3.277   1.015   1.596  0.8836 -0.1266  1.1062
  528TMC3     O 7895   3.330   1.007   1.709 -0.4026  0.0180 -0.2543
  528TMC3     H 7896   3.086   1.051   1.419 -1.7914 -1.1929 -0.8595
  528TMC3    H1 7897   3.189   0.819   1.768  1.0349 -0.9110 -0.6354
  528TMC3    H2 7898   2.847   0.708   1.562  0.1309 -0.4250 -3.8510
  528TMC3    C7 7899   3.004   0.648   1.744  0.4529 -0.2936  0.1715
  528TMC3    C8 7900   2.887   0.891   1.342 -0.3912 -0.4781  0.0645
  528TMC3    O1 7901   3.115   0.599   1.772 -0.0507  0.6819 -0.0374
  528TMC3    O2 7902   2.943   0.948   1.248  0.1239 -0.2148 -0.2856
  529MPD2     C 7903   0.505   3.744   0.413 -0.0368 -0.7605 -0.3692
  529MPD2    C1 7904   0.426   3.767   0.522 -0.5019  0.0874  0.1466
  529MPD2    C2 7905   0.358   3.890   0.544 -0.5335  0.2194  0.1514
  529MPD2    C3 7906   0.365   3.984   0.444 -0.3700  0.1871  0.2857
  529MPD2    C4 7907   0.446   3.962   0.337  0.3942  0.0372 -0.4910
  529MPD2    C5 7908   0.517   3.845   0.322  0.6416 -0.3677  1.0925
  529MPD2     H 7909   0.280   3.894   0.619 -1.0587 -1.0022 -0.3160
  529MPD2    H1 7910   0.449   4.040   0.261  0.5835 -0.0746 -0.5969
  529MPD2    H2 7911   0.560   3.653   0.393  1.7299 -0.5027  3.2129
  529MPD2    H3 7912   0.585   3.834   0.239 -2.2091 -0.4347 -1.2091
  529MPD2     N 7913   0.281   4.095   0.448  0.5663  0.4343 -0.5319
  529MPD2    H5 7914   0.290   4.162   0.373  0.1440 -1.6439 -2.4434
  529MPD2    N1 7915   0.412   3.671   0.623  0.4329  0.0401 -0.0202
  529MPD2    H7 7916   0.377   3.699   0.715 -0.9780 -1.0391 -0.2377
  530TMC3    C1 7917   0.389   3.462   0.718  0.0890 -0.2427  0.0501
  530TMC3    C2 7918   0.411   3.515   0.834 -0.2198  0.5033  0.0254
  530TMC3    C3 7919   0.373   3.435   0.945  0.2458  0.0117  0.2255
  530TMC3    C4 7920   0.312   3.357   0.694  0.1123 -0.4514  0.1604
  530TMC3    C5 7921   0.268   3.289   0.799  0.0642  0.2030  0.3164
  530TMC3    C6 7922   0.300   3.325   0.926  0.9789 -0.1692  0.4121
  530TMC3     C 7923   0.428   3.535   0.602  0.4498 -0.0620 -0.5174
  530TMC3     O 7924   0.450   3.473   0.496 -0.2829  0.2457  0.0998
  530TMC3     H 7925   0.492   3.586   0.839 -0.5409  1.0582 -2.7525
  530TMC3    H1 7926   0.287   3.326   0.593 -0.3415  1.1878 -0.2288
  530TMC3    H2 7927   0.291   3.254   1.008  0.0863 -2.4388 -1.6749
  530TMC3    C7 7928   0.216   3.158   0.767 -0.4672  0.8056  0.8202
  530TMC3    C8 7929   0.418   3.475   1.078  0.8471 -0.3998  0.2963
  530TMC3    O1 7930   0.243   3.113   0.655 -0.3163  0.9712  0.0278
  530TMC3    O2 7931   0.343   3.470   1.175  0.1563 -0.4523 -0.4125
  531MPD2     C 7932   0.545   2.742  12.317 -0.0162 -0.3483  0.2185
  531MPD2    C1 7933   0.491   2.765  12.442 -1.0389  0.3458  0.3997
  531MPD2    C2 7934   0.381   2.852  12.448 -0.2253  0.0058  0.5325
  531MPD2    C3 7935   0.327   2.919  12.342  0.1004 -0.0119 -0.0167
  531MPD2    C4 7936   0.384   2.892  12.217 -0.4359 -0.0650  0.0937
  531MPD2    C5 7937   0.483   2.800  12.209 -0.6021 -0.1184  0.6724
  531MPD2     H 7938   0.330   2.866  12.543  1.3374  0.2979  1.3144
  531MPD2    H1 7939   0.348   2.932  12.123  1.2070 -1.2647 -1.0510
  531MPD2    H2 7940   0.620   2.666  12.300  1.7799  1.1136  1.6291
  531MPD2    H3 7941   0.524   2.785  12.110 -0.6911 -2.0474  0.9447
  531MPD2     N 7942   0.212   3.000  12.341 -0.2098  0.0721 -0.1504
  531MPD2    H5 7943   0.183   3.028  12.248 -0.5878 -0.5548 -0.2174
  531MPD2    N1 7944   0.560   2.715  12.560 -0.3822  0.2054 -0.2300
  531MPD2    H7 7945   0.637   2.653  12.536 -0.4526 -0.6926  1.8692
  532TMC3    C1 7946   0.610   2.680  12.784 -0.7451 -0.3530 -0.0761
  532TMC3    C2 7947   0.577   2.728  12.912 -0.1911  0.1500  0.0024
  532TMC3    C3 7948   0.519   2.644  13.007  0.1751  0.2357  0.0190
  532TMC3    C4 7949   0.608   2.542  12.763 -0.9762 -1.1357  0.0384
  532TMC3    C5 7950   0.567   2.457  12.862 -0.5549  0.5646  0.7373
  532TMC3    C6 7951   0.519   2.506  12.985  0.2195 -0.6071 -0.3352
  532TMC3     C 7952   0.546   2.766  12.688 -0.6635  0.1438  0.7509
  532TMC3     O 7953   0.463   2.844  12.734  0.0504 -0.4169 -0.2950
  532TMC3     H 7954   0.572   2.834  12.933  2.6081 -0.0666  1.7950
  532TMC3    H1 7955   0.653   2.501  12.674 -0.5615  0.4967 -0.5034
  532TMC3    H2 7956   0.487   2.428  13.052 -0.4852  0.3960  0.4969
  532TMC3    C7 7957   0.476   2.356  12.818 -0.2519 -1.2511 -0.0477
  532TMC3    C8 7958   0.380   2.680  13.049  0.2701  0.6213  0.3751
  532TMC3    O1 7959   0.518   2.291  12.726 -0.7074  0.1058 -0.3177
  532TMC3    O2 7960   0.327   2.604  13.125 -0.5492  0.3241  0.9517
  533TMC3    C1 7961   0.329   3.955  14.166  0.6272  0.0959  0.1884
  533TMC3    C2 7962   0.452   3.990  14.118  0.0321  0.0214  0.1541
  533TMC3    C3 7963   0.488   4.117  14.111  0.1164  0.2497  0.0849
  533TMC3    C4 7964   0.248   4.055  14.224 -0.1511  0.0391 -0.0104
  533TMC3    C5 7965   0.296   4.184  14.227 -0.4004  0.4485  0.8177
  533TMC3    C6 7966   0.405   4.221  14.153 -0.1427 -0.0413  0.2144
  533TMC3     C 7967   0.299   3.815  14.166 -0.1683  0.0220  0.2267
  533TMC3     O 7968   0.397   3.737  14.152 -0.3262 -0.4103  0.9618
  533TMC3     H 7969   0.508   3.914  14.065 -0.4939 -0.1981 -0.0953
  533TMC3    H1 7970   0.154   4.028  14.271  0.9620 -1.2260  1.5090
  533TMC3    H2 7971   0.435   4.325  14.155  0.5593 -0.3151  3.7947
  533TMC3    C7 7972   0.309   4.245  14.353 -0.2464  0.3232 -0.1145
  533TMC3    C8 7973   0.630   4.140  14.112  0.4113  0.4250  0.1304
  533TMC3    O1 7974   0.370   4.347  14.369 -0.4151  0.1998 -0.0957
  533TMC3    O2 7975   0.699   4.040  14.127 -0.3572 -0.4048 -0.0438
  534MPD2     C 7976   2.417   0.236   1.522 -1.2827  0.3964 -0.7909
  534MPD2    C1 7977   2.489   0.192   1.415 -0.5554 -0.0446  0.2463
  534MPD2    C2 7978   2.427   0.126   1.311  0.0243  0.7876 -0.1992
  534MPD2    C3 7979   2.286   0.112   1.294 -0.0391 -0.3557  0.3047
  534MPD2    C4 7980   2.215   0.164   1.398 -0.1271  0.1230  0.5513
  534MPD2    C5 7981   2.281   0.222   1.508 -0.3180 -0.1001 -0.3277
  534MPD2     H 7982   2.493   0.074   1.242  0.5911  1.8773 -0.4792
  534MPD2    H1 7983   2.107   0.166   1.404 -0.2040  2.7229 -1.9394
  534MPD2    H2 7984   2.457   0.293   1.606 -1.7352 -2.4805  1.3934
  534MPD2    H3 7985   2.220   0.260   1.589  0.5918 -0.4572  0.5176
  534MPD2     N 7986   2.218   0.053   1.186  0.1479  1.4195 -0.2558
  534MPD2    H5 7987   2.117   0.050   1.182  0.3387 -1.5755 -2.9635
  534MPD2    N1 7988   2.629   0.211   1.405 -0.2652  0.3538 -0.3434
  534MPD2    H7 7989   2.678   0.169   1.327  0.0239  0.9367 -0.4724
  535TMC3    C1 7990   2.196   4.688   0.978 -0.0638 -0.2913  0.3591
  535TMC3    C2 7991   2.067   4.667   1.011  0.0664  0.1542 -0.1722
  535TMC3    C3 7992   1.983   4.625   0.909 -0.8607  0.1457 -0.1030
  535TMC3    C4 7993   2.243   4.671   0.853 -0.4195  0.2104 -0.1021
  535TMC3    C5 7994   2.155   4.639   0.752 -0.4386  0.2980  0.3891
  535TMC3    C6 7995   2.021   4.622   0.778 -0.2214  0.2887  0.3863
  535TMC3     C 7996   2.279   4.731   1.083 -0.0489 -0.2253  0.0884
  535TMC3     O 7997   2.395   0.003   1.048 -0.1594  0.2217  0.1634
  535TMC3     H 7998   2.046   4.651   1.116 -2.2077  0.1185 -0.6420
  535TMC3    H1 7999   2.351   4.674   0.841 -0.4401 -1.1524 -0.6463
  535TMC3    H2 8000   1.958   4.578   0.702  0.0342 -0.7264  0.7706
  535TMC3    C7 8001   2.181   4.683   0.616 -0.3204 -0.6367 -0.7263
  535TMC3    C8 8002   1.849   4.577   0.943 -0.6979 -0.0527  0.7221
  535TMC3    O1 8003   2.111   4.649   0.519 -0.2459 -0.1097 -0.3737
  535TMC3    O2 8004   1.803   4.493   0.865  0.2959 -0.4151 -0.0097
  536MPD2     C 8005   1.678   3.330  16.709  0.5293 -0.4352  1.1091
  536MPD2    C1 8006   1.579   3.239  16.725 -0.3877 -1.3605  0.3977
  536MPD2    C2 8007   1.474   3.238  16.628  0.1179 -0.0497  0.8051
  536MPD2    C3 8008   1.488   3.315  16.516  0.1871 -0.0491 -0.3439
  536MPD2    C4 8009   1.590   3.406  16.499  0.0633 -0.3899 -0.3927
  536MPD2    C5 8010   1.679   3.416  16.603  0.4781 -0.1967 -0.6360
  536MPD2     H 8011   1.383   3.180  16.634  0.7886 -1.0022  1.7378
  536MPD2    H1 8012   1.615   3.461  16.409 -1.4717 -0.5592 -0.9102
  536MPD2    H2 8013   1.761   3.346  16.777 -0.5428 -0.1378  2.3590
  536MPD2    H3 8014   1.767   3.479  16.593  0.1979  0.1620 -0.8337
  536MPD2     N 8015   1.396   3.304  16.404  0.3821  0.0599 -0.1232
  536MPD2    H5 8016   1.411   3.345  16.312 -1.6237  2.0026  0.4242
  536MPD2    N1 8017   1.594   3.157  16.836 -0.6865  0.0495 -0.0625
  536MPD2    H7 8018   1.676   3.173  16.895 -0.6869  0.5178 -0.1966
  537TMC3    C1 8019   1.524   2.976  16.984 -0.5268 -0.7848 -0.2233
  537TMC3    C2 8020   1.648   2.966  17.043 -0.0896  0.2115  0.1834
  537TMC3    C3 8021   1.670   2.872  17.132  0.1533 -0.0695 -0.0934
  537TMC3    C4 8022   1.432   2.868  16.997  0.2396  0.4909  0.6867
  537TMC3    C5 8023   1.458   2.779  17.094 -0.0773 -0.0559  0.3522
  537TMC3    C6 8024   1.573   2.781  17.168 -0.0513  0.6167 -0.2401
  537TMC3     C 8025   1.494   3.075  16.876  0.5574 -0.4775 -0.0538
  537TMC3     O 8026   1.381   3.078  16.827 -0.6203 -0.6824  0.3660
  537TMC3     H 8027   1.728   3.035  17.019  0.1256 -0.1232 -0.0652
  537TMC3    H1 8028   1.351   2.854  16.926 -0.2562 -1.6114  1.6865
  537TMC3    H2 8029   1.586   2.706  17.246 -0.7040  0.5487 -0.1915
  537TMC3    C7 8030   1.368   2.669  17.105  0.3507  0.1530 -0.1202
  537TMC3    C8 8031   1.784   2.873  17.219 -0.3450 -0.5591  0.5982
  537TMC3    O1 8032   1.251   2.691  17.070 -0.2696  0.1210 -0.1346
  537TMC3    O2 8033   1.786   2.809  17.320 -0.2786 -0.3840  0.5683
  538TMC3    C1 8034   3.144   1.227  11.048 -0.6344 -0.6806  0.5550
  538TMC3    C2 8035   3.196   1.178  10.934 -0.9905  0.0945  0.4239
  538TMC3    C3 8036   3.216   1.256  10.826  0.0582  0.1786 -0.3634
  538TMC3    C4 8037   3.086   1.356  11.050  0.4953 -0.0314  0.1812
  538TMC3    C5 8038   3.098   1.431  10.935 -0.2336  0.1130  0.5159
  538TMC3    C6 8039   3.162   1.385  10.827 -0.0449  0.1631 -0.0054
  538TMC3     C 8040   3.219   1.200  11.170  0.1961  0.7348 -0.0415
  538TMC3     O 8041   3.180   1.251  11.273  1.1070 -0.0032  0.3571
  538TMC3     H 8042   3.230   1.075  10.932 -1.7439 -0.1371 -0.1044
  538TMC3    H1 8043   3.059   1.403  11.144 -2.7102 -1.7325  0.1184
  538TMC3    H2 8044   3.186   1.456  10.749 -2.0527 -1.0773 -1.7575
  538TMC3    C7 8045   3.050   1.566  10.930  0.5770 -0.5264  1.0280
  538TMC3    C8 8046   3.353   1.240  10.786  0.6657 -0.8604 -0.3753
  538TMC3    O1 8047   3.075   1.638  11.025  0.4725  0.0344 -0.2564
  538TMC3    O2 8048   3.428   1.169  10.856  0.1224  0.0022 -0.2944
  539MPD2     C 8049   2.910   0.859  12.049 -0.5212 -0.0342 -0.7095
  539MPD2    C1 8050   2.878   0.879  11.915 -0.1628  0.5791  0.5794
  539MPD2    C2 8051   2.850   1.001  11.867 -0.4301  0.0127 -0.8397
  539MPD2    C3 8052   2.832   1.115  11.943 -0.7351  0.3659 -0.3634
  539MPD2    C4 8053   2.863   1.098  12.079 -0.0535 -0.1622 -0.4597
  539MPD2    C5 8054   2.898   0.973  12.128  0.4902  0.5401  0.8877
  539MPD2     H 8055   2.819   1.018  11.764 -1.6903 -0.1533 -0.4924
  539MPD2    H1 8056   2.855   1.185  12.144  3.0317  0.4495 -0.8904
  539MPD2    H2 8057   2.927   0.760  12.090 -0.0971  0.6368  0.7363
  539MPD2    H3 8058   2.906   0.959  12.235 -0.3727  0.1768  0.9051
  539MPD2     N 8059   2.806   1.249  11.889 -0.3233 -0.5245 -0.5494
  539MPD2    H5 8060   2.819   1.326  11.954 -2.3352 -1.6129  1.1350
  539MPD2    N1 8061   2.887   0.758  11.837 -0.1064 -0.3059  0.2416
  539MPD2    H7 8062   2.955   0.688  11.861  0.1713 -1.1229 -2.9987
  540TMC3    C1 8063   2.751   1.427  11.749  0.0123  0.2838 -0.1646
  540TMC3    C2 8064   2.733   1.477  11.620  0.0239 -0.2346 -0.3063
  540TMC3    C3 8065   2.677   1.601  11.616  0.2245  1.0965  0.4587
  540TMC3    C4 8066   2.723   1.505  11.862  0.3261  0.7693  0.7428
  540TMC3    C5 8067   2.674   1.627  11.844  0.3415 -0.3233 -0.0610
  540TMC3    C6 8068   2.649   1.677  11.721  0.7005  0.0074  0.2929
  540TMC3     C 8069   2.793   1.285  11.760  0.8954 -0.6638 -0.7078
  540TMC3     O 8070   2.794   1.220  11.658  0.5005 -0.3031 -0.2727
  540TMC3     H 8071   2.761   1.421  11.531 -1.2906 -1.2838 -0.0634
  540TMC3    H1 8072   2.734   1.466  11.962 -1.7033 -0.6240  0.4296
  540TMC3    H2 8073   2.613   1.777  11.698  1.6146  0.5991  1.4286
  540TMC3    C7 8074   2.579   1.654  11.952 -0.3448  0.2527  0.0161
  540TMC3    C8 8075   2.673   1.678  11.489  0.2085 -0.8473 -0.6064
  540TMC3    O1 8076   2.475   1.702  11.912  0.0660  0.5535  0.2795
  540TMC3    O2 8077   2.717   1.793  11.489 -0.6200  0.4158 -0.2674
  541MPD2     C 8078   1.637   2.454  13.494 -0.3065 -0.0996 -0.6028
  541MPD2    C1 8079   1.567   2.387  13.396  0.1994  0.6378  0.5266
  541MPD2    C2 8080   1.508   2.455  13.288  0.5329 -0.2288 -0.0110
  541MPD2    C3 8081   1.533   2.592  13.268 -0.2621 -0.1432  0.7409
  541MPD2    C4 8082   1.613   2.655  13.360 -0.4322 -0.1478  0.0115
  541MPD2    C5 8083   1.665   2.584  13.467  0.0392  0.6741  1.1310
  541MPD2     H 8084   1.439   2.403  13.223 -0.3908  0.8355  0.1039
  541MPD2    H1 8085   1.637   2.759  13.346  1.1554 -0.3545  1.2086
  541MPD2    H2 8086   1.688   2.401  13.573 -2.3294  1.7947  1.9823
  541MPD2    H3 8087   1.742   2.636  13.523  2.3940  0.6494 -2.0625
  541MPD2     N 8088   1.465   2.664  13.167 -0.1316 -0.3489 -0.2294
  541MPD2    H5 8089   1.459   2.764  13.186  2.1585  0.0067 -1.3578
  541MPD2    N1 8090   1.550   2.252  13.405  0.1254  0.7776  0.2792
  541MPD2    H7 8091   1.483   2.207  13.344  1.4213  0.5085 -0.9471
  542TMC3    C1 8092   1.334   2.716  12.969 -0.3471 -0.1777 -0.1708
  542TMC3    C2 8093   1.301   2.675  12.838  0.4091 -0.4692  0.0813
  542TMC3    C3 8094   1.279   2.767  12.734  1.1326 -0.1804 -0.0348
  542TMC3    C4 8095   1.333   2.848  13.006 -0.0132  0.4256  0.3719
  542TMC3    C5 8096   1.307   2.943  12.900  0.4484 -0.1630 -0.4011
  542TMC3    C6 8097   1.277   2.903  12.767 -0.3392  0.0065  0.6098
  542TMC3     C 8098   1.404   2.616  13.053 -0.0232 -0.7809 -0.5027
  542TMC3     O 8099   1.396   2.497  13.018 -0.4120 -0.1466 -0.0602
  542TMC3     H 8100   1.308   2.568  12.820 -1.2283 -0.4788 -0.4811
  542TMC3    H1 8101   1.344   2.877  13.110  0.7289  4.6648 -0.9085
  542TMC3    H2 8102   1.253   2.977  12.691  2.1364  1.1629  0.9662
  542TMC3    C7 8103   1.297   3.082  12.927  0.0244  0.2691  0.1148
  542TMC3    C8 8104   1.269   2.718  12.594  0.7181 -1.2581 -0.6351
  542TMC3    O1 8105   1.221   3.144  12.853 -0.2412  0.0973  0.0164
  542TMC3    O2 8106   1.302   2.801  12.511 -0.3632  0.0646 -0.0424
  543TMC3    C1 8107   4.712   3.327  17.308 -0.0793 -0.1282 -0.2791
  543TMC3    C2 8108   0.006   3.208  17.365 -0.2079  0.3514 -0.5670
  543TMC3    C3 8109   4.709   3.175  17.493 -0.0683  0.0222 -0.4364
  543TMC3    C4 8110   4.672   3.436  17.379 -0.7512 -0.1231  0.4303
  543TMC3    C5 8111   4.653   3.403  17.511  0.2663 -0.3966  0.1048
  543TMC3    C6 8112   4.659   3.280  17.569  0.4950  0.3780 -0.0482
  543TMC3     C 8113   4.739   3.341  17.162  0.1261 -0.4571  0.0659
  543TMC3     O 8114   0.073   3.258  17.107 -0.1475  0.2468  0.1862
  543TMC3     H 8115   0.043   3.130  17.299  0.0656 -1.4738  1.7324
  543TMC3    H1 8116   4.648   3.529  17.328  0.8948  0.1692  0.1924
  543TMC3    H2 8117   4.658   3.274  17.677 -2.8145  0.4329 -0.0601
  543TMC3    C7 8118   4.602   3.503  17.610 -0.0384  0.0459  0.4077
  543TMC3    C8 8119   4.735   3.045  17.548 -0.3159  0.8315  0.8110
  543TMC3    O1 8120   4.544   3.451  17.706  0.2293  0.1944 -0.3015
  543TMC3    O2 8121   0.093   2.983  17.496 -0.2764 -0.1489  0.3357
  544MPD2     C 8122   4.681   2.699   0.178  0.3473 -0.2599  0.5544
  544MPD2    C1 8123   0.029   2.696   0.071 -0.1681 -0.7315 -0.7414
  544MPD2    C2 8124   0.025   2.802  17.739 -0.4273  0.2044 -0.3570
  544MPD2    C3 8125   4.693   2.915   0.011  0.0500 -0.6861  0.0876
  544MPD2    C4 8126   4.618   2.918   0.124 -0.6031  0.1798  0.1565
  544MPD2    C5 8127   4.610   2.811   0.207  0.2193 -0.9533  0.0228
  544MPD2     H 8128   0.085   2.789  17.650 -0.4873  0.7242 -0.4704
  544MPD2    H1 8129   4.557   3.005   0.144 -0.6619  0.3303 -0.6719
  544MPD2    H2 8130   4.673   2.617   0.249  0.9807 -1.9364 -1.3272
  544MPD2    H3 8131   4.546   2.808   0.294  0.0536  0.8513 -0.0515
  544MPD2     N 8132   4.672   3.023  17.670 -0.8964  0.4760 -0.0022
  544MPD2    H5 8133   4.606   3.091  17.705 -1.5153 -1.3846  2.5216
  544MPD2    N1 8134   0.097   2.574   0.045  0.1930  0.3871 -0.7208
  544MPD2    H7 8135   0.055   2.499   0.098  0.6094  0.9642  0.4479
  545TMC3    C1 8136   0.193   2.395  17.693  0.1693 -0.1000  0.6061
  545TMC3    C2 8137   0.186   2.358  17.566  0.0017 -0.3504 -0.6130
  545TMC3    C3 8138   0.188   2.227  17.542 -0.3745  0.1873  0.6656
  545TMC3    C4 8139   0.195   2.315   0.046 -0.5061  0.3395 -0.4190
  545TMC3    C5 8140   0.198   2.177   0.023  0.1588  0.5763 -0.2778
  545TMC3    C6 8141   0.195   2.134  17.648 -0.0584  0.1091 -0.5280
  545TMC3     C 8142   0.192   2.539  17.707 -0.7950 -0.1050  0.3875
  545TMC3     O 8143   0.243   2.601  17.616  0.3054 -0.1414 -0.3364
  545TMC3     H 8144   0.155   2.434  17.495  2.6250  2.3706  1.1349
  545TMC3    H1 8145   0.194   2.362   0.144  2.1414  0.8982 -0.6583
  545TMC3    H2 8146   0.202   2.026  17.647  0.8149  0.1420  2.0728
  545TMC3    C7 8147   0.251   2.104   0.138  0.0913  0.1825 -0.6751
  545TMC3    C8 8148   0.213   2.190  17.402 -0.1449  0.3161  0.0179
  545TMC3    O1 8149   0.319   2.171   0.214  0.0556  0.0161 -0.3387
  545TMC3    O2 8150   0.196   2.274  17.315 -0.4153  0.3759 -0.4392
  546MPD2     C 8151   1.720   3.822  16.430 -0.0253 -0.6060 -0.1244
  546MPD2    C1 8152   1.660   3.843  16.559 -0.1571  0.2645 -0.3296
  546MPD2    C2 8153   1.695   3.946  16.642 -0.0625 -0.0780  1.3185
  546MPD2    C3 8154   1.802   4.026  16.599 -0.6199  0.2756  0.3066
  546MPD2    C4 8155   1.861   4.006  16.476 -0.7697 -0.1485 -0.1481
  546MPD2    C5 8156   1.825   3.901  16.400 -0.4033 -0.2721  0.8387
  546MPD2     H 8157   1.645   3.948  16.738 -1.3538  1.7701  0.6078
  546MPD2    H1 8158   1.943   4.064  16.435 -0.5786 -1.1861 -1.2549
  546MPD2    H2 8159   1.692   3.738  16.367 -0.8716 -1.2632  1.1149
  546MPD2    H3 8160   1.869   3.895  16.301 -1.0209  2.8085  0.3842
  546MPD2     N 8161   1.842   4.140  16.672  0.0032 -0.3392 -0.5583
  546MPD2    H5 8162   1.912   4.199  16.628  0.5973  0.1251  1.0118
  546MPD2    N1 8163   1.575   3.737  16.610 -0.2256 -0.0579 -0.8039
  546MPD2    H7 8164   1.542   3.667  16.544 -0.8259  0.2040 -0.7874
  547TMC3    C1 8165   1.446   3.618  16.763 -0.3220 -0.0145  0.0894
  547TMC3    C2 8166   1.335   3.625  16.689  0.6149  0.3795  0.4395
  547TMC3    C3 8167   1.231   3.537  16.721  0.7290 -0.4538  0.4466
  547TMC3    C4 8168   1.459   3.554  16.879 -0.2305  0.0874 -0.6316
  547TMC3    C5 8169   1.354   3.469  16.914 -0.6377  0.2657 -0.5087
  547TMC3    C6 8170   1.243   3.458  16.835 -0.1707  0.4364 -0.9048
  547TMC3     C 8171   1.544   3.714  16.743 -0.1834  0.0635  0.0872
  547TMC3     O 8172   1.599   3.755  16.844 -0.0225 -0.4837  0.2495
  547TMC3     H 8173   1.320   3.692  16.605 -2.1494 -0.9582 -0.1734
  547TMC3    H1 8174   1.548   3.561  16.939 -0.6397 -1.6220  0.1602
  547TMC3    H2 8175   1.164   3.389  16.860 -0.1211  0.7026 -0.0074
  547TMC3    C7 8176   1.375   3.372  17.013  0.0114  0.2549  0.4651
  547TMC3    C8 8177   1.111   3.532  16.635  0.3573 -0.4689  0.3232
  547TMC3    O1 8178   1.283   3.292  17.021  0.1270 -0.2008 -0.1100
  547TMC3    O2 8179   1.013   3.476  16.689  0.4932  0.1317 -0.3618
  548MPD2     C 8180   1.429   4.112  12.103  0.0944  0.6778 -0.2873
  548MPD2    C1 8181   1.463   4.179  12.220 -0.5551  0.1030  0.2905
  548MPD2    C2 8182   1.577   4.136  12.285 -0.0566  0.0862  0.4941
  548MPD2    C3 8183   1.648   4.027  12.236 -0.0577 -0.3008  0.2912
  548MPD2    C4 8184   1.615   3.980  12.108  0.6017  0.4455 -0.5801
  548MPD2    C5 8185   1.503   4.022  12.040 -0.6847 -0.4656 -0.9928
  548MPD2     H 8186   1.602   4.174  12.383 -1.1186  0.4026  0.6429
  548MPD2    H1 8187   1.670   3.897  12.066  3.3124  0.9859  1.9327
  548MPD2    H2 8188   1.343   4.142  12.044  0.5135 -0.9680 -1.7603
  548MPD2    H3 8189   1.474   3.982  11.944 -2.7671  0.3828 -0.7191
  548MPD2     N 8190   1.752   3.963  12.302  0.0967  0.2942 -0.7006
  548MPD2    H5 8191   1.789   3.888  12.244  0.9096  0.5426 -0.5040
  548MPD2    N1 8192   1.371   4.271  12.278  0.5334 -0.6034  0.0319
  548MPD2    H7 8193   1.273   4.262  12.257  0.4070 -0.1578  0.4381
  549TMC3    C1 8194   1.287   4.404  12.459  0.1158 -1.2941 -0.4409
  549TMC3    C2 8195   1.176   4.434  12.382  0.1652 -0.1482  0.4285
  549TMC3    C3 8196   1.056   4.432  12.452 -0.2593 -0.2855  0.0810
  549TMC3    C4 8197   1.292   4.378  12.589 -0.2372  0.2020 -0.4048
  549TMC3    C5 8198   1.171   4.377  12.650  0.6304 -0.1601  0.5849
  549TMC3    C6 8199   1.051   4.402  12.590  0.0020 -0.1175 -0.9111
  549TMC3     C 8200   1.404   4.354  12.379  0.2402 -0.0080  0.0803
  549TMC3     O 8201   1.516   4.380  12.421 -0.2049  0.2747 -0.5615
  549TMC3     H 8202   1.183   4.457  12.276  0.0905 -0.7525  0.2881
  549TMC3    H1 8203   1.384   4.337  12.628 -0.8603 -0.6148  0.1958
  549TMC3    H2 8204   0.956   4.402  12.642  0.0308 -5.0512 -0.9412
  549TMC3    C7 8205   1.160   4.328  12.787  0.6069  0.4570 -0.5138
  549TMC3    C8 8206   0.944   4.509  12.406 -0.9918 -0.3499 -0.3184
  549TMC3    O1 8207   1.090   4.379  12.872 -0.2698  0.0681  0.0160
  549TMC3    O2 8208   0.838   4.493  12.467  0.1333  0.2902 -0.4084
  550TMC3    C1 8209   0.884   2.465  11.844  0.3537  0.0359  0.2745
  550TMC3    C2 8210   0.934   2.535  11.943 -0.3471  0.2706  0.7542
  550TMC3    C3 8211   0.864   2.652  11.965  0.0175  0.2766  0.4117
  550TMC3    C4 8212   0.784   2.511  11.764  0.5420  0.3672 -0.4370
  550TMC3    C5 8213   0.709   2.619  11.800  0.1638  0.7353  0.2879
  550TMC3    C6 8214   0.755   2.692  11.899  0.9124  0.3553  0.6138
  550TMC3     C 8215   0.973   2.369  11.782  0.0615  0.0116  0.5214
  550TMC3     O 8216   1.094   2.388  11.791 -0.3864  0.3507  0.0034
  550TMC3     H 8217   1.020   2.509  12.005  0.9069 -2.0067 -1.9328
  550TMC3    H1 8218   0.729   2.449  11.694 -3.3794  2.3677  0.8319
  550TMC3    H2 8219   0.706   2.786  11.924 -1.2605 -0.5174 -0.3523
  550TMC3    C7 8220   0.596   2.649  11.720  0.6593  0.3894 -0.0887
  550TMC3    C8 8221   0.923   2.754  12.046  0.1123 -0.4315 -0.7007
  550TMC3    O1 8222   0.499   2.706  11.768 -0.2342  0.0093  0.1756
  550TMC3    O2 8223   0.942   2.858  11.989  0.1464 -0.0376 -0.2104
  551TMC3    C1 8224   2.730   0.261  13.239  0.8414  0.0405 -0.1336
  551TMC3    C2 8225   2.814   0.203  13.148  0.4860  0.6549 -0.4329
  551TMC3    C3 8226   2.946   0.243  13.140  0.8208  0.0558 -0.0956
  551TMC3    C4 8227   2.767   0.366  13.327  0.1183  0.0312 -0.5631
  551TMC3    C5 8228   2.906   0.384  13.327 -0.6746  0.8201 -0.3041
  551TMC3    C6 8229   2.991   0.329  13.241 -0.1726 -0.1334 -0.6144
  551TMC3     C 8230   2.595   0.270  13.188  0.2958 -0.4541 -0.0384
  551TMC3     O 8231   2.553   0.169  13.132 -0.5928  0.0466 -0.4153
  551TMC3     H 8232   2.782   0.126  13.079  1.8401 -0.3389  0.0440
  551TMC3    H1 8233   2.700   0.397  13.406  0.1016 -0.8565 -0.2265
  551TMC3    H2 8234   3.096   0.355  13.250 -0.6870  1.8386 -0.2320
  551TMC3    C7 8235   2.963   0.458  13.443 -0.1677  0.0048  0.4049
  551TMC3    C8 8236   2.987   0.269  13.000  0.2912 -0.0260  0.2505
  551TMC3    O1 8237   3.072   0.420  13.489 -0.0515 -0.0605 -0.3145
  551TMC3    O2 8238   2.934   0.200  12.922 -0.1416 -0.6099  0.1286
  552MPD2     C 8239   4.487   2.090  14.443 -0.2586  0.4020  0.1297
  552MPD2    C1 8240   4.612   2.087  14.386  0.2072  0.2348 -0.4760
  552MPD2    C2 8241   4.719   2.028  14.454 -0.3176 -0.8951 -0.1397
  552MPD2    C3 8242   4.698   1.965  14.577  0.0851 -0.4503  0.5184
  552MPD2    C4 8243   4.569   1.971  14.630  0.0597 -0.4553 -0.2608
  552MPD2    C5 8244   4.466   2.029  14.563  0.0649 -0.4326 -0.4320
  552MPD2     H 8245   0.081   2.038  14.417 -0.9864  0.0124 -1.6925
  552MPD2    H1 8246   4.532   1.926  14.722 -0.2725 -0.7709 -0.5496
  552MPD2    H2 8247   4.406   2.146  14.396 -0.2487  1.2851  1.1735
  552MPD2    H3 8248   4.367   2.017  14.606 -0.1245 -0.7727 -0.9616
  552MPD2     N 8249   0.067   1.900  14.650  0.3037  0.3982 -0.1559
  552MPD2    H5 8250   0.159   1.921  14.612 -0.3627  3.5983 -0.0420
  552MPD2    N1 8251   4.642   2.128  14.251 -0.3535 -0.0687 -0.7116
  552MPD2    H7 8252   4.734   2.125  14.209  0.5537  2.5834  1.0606
  553TMC3    C1 8253   4.612   2.259  14.053 -0.7085  0.0188 -0.4865
  553TMC3    C2 8254   4.540   2.359  13.997 -0.4744  0.1956 -0.2552
  553TMC3    C3 8255   4.594   2.450  13.915  0.0856  0.1747  0.6040
  553TMC3    C4 8256   0.010   2.251  14.029 -0.1219 -0.7416 -0.4654
  553TMC3    C5 8257   0.060   2.352  13.948 -0.1552 -0.7305  0.0976
  553TMC3    C6 8258   4.727   2.449  13.888  0.1587 -0.0224  0.0071
  553TMC3     C 8259   4.551   2.198  14.169  0.2723 -0.7491  0.3547
  553TMC3     O 8260   4.435   2.231  14.194 -0.3369  0.3739 -0.2626
  553TMC3     H 8261   4.433   2.359  14.011 -0.4113  0.6290  0.2197
  553TMC3    H1 8262   0.064   2.168  14.072  2.3695  1.4255  0.5840
  553TMC3    H2 8263   0.034   2.534  13.838  0.9603 -0.3294  0.2233
  553TMC3    C7 8264   0.189   2.329  13.882  0.4730 -0.1264  0.0434
  553TMC3    C8 8265   4.511   2.498  13.806  0.0944 -0.4871 -0.4193
  553TMC3    O1 8266   0.208   2.385  13.779 -0.0719 -0.0595 -0.0599
  553TMC3    O2 8267   4.433   2.418  13.757  0.5679  0.2790  0.1293
  554TMC3    C1 8268   1.721   1.238  11.550 -0.9803 -0.1322  0.2848
  554TMC3    C2 8269   1.619   1.184  11.476  0.4413  0.3107 -0.2713
  554TMC3    C3 8270   1.577   1.262  11.369 -0.4581  0.6967 -0.1302
  554TMC3    C4 8271   1.795   1.345  11.507  0.4744  0.4842  0.1607
  554TMC3    C5 8272   1.755   1.406  11.395 -0.2981 -0.1477  0.2383
  554TMC3    C6 8273   1.644   1.369  11.327  0.8129 -0.1968  0.1869
  554TMC3     C 8274   1.759   1.184  11.682  0.0440  0.3154 -0.3689
  554TMC3     O 8275   1.699   1.087  11.719  0.1519 -0.2970  0.1791
  554TMC3     H 8276   1.562   1.100  11.513  1.9170 -0.5361  0.0606
  554TMC3    H1 8277   1.893   1.370  11.545  1.1158  2.8973 -3.1591
  554TMC3    H2 8278   1.603   1.427  11.245  0.4862  1.7427  1.7148
  554TMC3    C7 8279   1.852   1.465  11.311  0.5390  0.0904 -0.2842
  554TMC3    C8 8280   1.481   1.219  11.269 -0.5656 -0.3139 -0.5037
  554TMC3    O1 8281   1.841   1.445  11.191  0.0287 -0.1963 -0.3322
  554TMC3    O2 8282   1.475   1.285  11.165  0.0672  0.7863 -0.0010
  555TMC3    C1 8283   0.829   0.687  15.459  0.4092  0.2010 -0.3417
  555TMC3    C2 8284   0.906   0.718  15.562  0.1772 -0.3057  0.7430
  555TMC3    C3 8285   0.993   0.628  15.611  0.2611 -0.4324 -0.5751
  555TMC3    C4 8286   0.857   0.577  15.379  0.3972  0.1835  0.1456
  555TMC3    C5 8287   0.955   0.489  15.427  0.0006 -0.3890  0.2201
  555TMC3    C6 8288   1.015   0.507  15.545 -0.3561 -0.2923 -0.2828
  555TMC3     C 8289   0.837   0.808  15.368  0.1235  0.2126  1.2142
  555TMC3     O 8290   0.925   0.887  15.397  0.3161 -0.1033  0.4979
  555TMC3     H 8291   0.886   0.816  15.603 -1.9734 -0.2458 -0.4096
  555TMC3    H1 8292   0.818   0.566  15.279 -1.7020 -0.0388  0.9792
  555TMC3    H2 8293   1.080   0.430  15.585 -1.1106 -1.1313 -0.6652
  555TMC3    C7 8294   0.950   0.352  15.375 -0.1001  0.5021 -0.5227
  555TMC3    C8 8295   1.091   0.681  15.702 -0.0598 -0.0438 -0.1937
  555TMC3    O1 8296   0.834   0.307  15.360 -0.1777  0.1657  0.6711
  555TMC3    O2 8297   1.083   0.800  15.717  0.1512 -0.0137  0.0909
  556MPD2     C 8298   4.233   2.297  10.629  0.0450 -0.1667 -0.6436
  556MPD2    C1 8299   4.116   2.265  10.689  0.5133  0.3738  1.2625
  556MPD2    C2 8300   4.023   2.190  10.622 -0.7030  0.3046  0.5349
  556MPD2    C3 8301   4.048   2.151  10.493  0.4189 -0.9683  0.2329
  556MPD2    C4 8302   4.154   2.208  10.426  0.9901  0.0407 -0.5078
  556MPD2    C5 8303   4.253   2.277  10.495  0.1115 -0.8179  0.1420
  556MPD2     H 8304   3.937   2.150  10.675  1.6811 -3.0786  1.7908
  556MPD2    H1 8305   4.178   2.190  10.322 -1.6707  2.6315 -1.5701
  556MPD2    H2 8306   4.314   2.329  10.693 -0.8243 -1.0256  0.8806
  556MPD2    H3 8307   4.342   2.314  10.447  0.2618 -1.8504 -0.3754
  556MPD2     N 8308   3.958   2.070  10.423  0.1904 -0.8059  0.3501
  556MPD2    H5 8309   3.885   2.023  10.476  1.6501 -1.2076  2.0101
  556MPD2    N1 8310   4.086   2.300  10.823  0.5344  0.1086 -0.2137
  556MPD2    H7 8311   3.998   2.269  10.863  0.3396 -0.4879 -1.1212
  557TMC3    C1 8312   3.842   1.952  10.248 -0.1928 -0.0896 -0.2173
  557TMC3    C2 8313   3.823   1.935  10.111 -0.2652 -0.8412  0.1357
  557TMC3    C3 8314   3.764   1.818  10.065 -0.1059  0.1271 -0.1420
  557TMC3    C4 8315   3.782   1.874  10.339 -0.4697 -0.2323 -0.2481
  557TMC3    C5 8316   3.713   1.762  10.292  0.4161  1.1977 -1.1928
  557TMC3    C6 8317   3.720   1.726  10.157 -0.4460 -0.1578  0.2501
  557TMC3     C 8318   3.951   2.044  10.289  0.3871 -0.7845  0.3406
  557TMC3     O 8319   4.026   2.079  10.198 -0.1425 -0.7717  1.0254
  557TMC3     H 8320   3.859   2.009  10.041  0.4181 -1.0368  0.2864
  557TMC3    H1 8321   3.766   1.907  10.441  1.9822 -0.9588  0.3660
  557TMC3    H2 8322   3.645   1.657  10.120  0.3552 -0.3803 -0.9306
  557TMC3    C7 8323   3.648   1.670  10.382  0.1936  0.5820 -0.4375
  557TMC3    C8 8324   3.797   1.788   9.924  0.1280 -0.3566 -0.8069
  557TMC3    O1 8325   3.574   1.581  10.337  0.0342 -0.0517  0.4400
  557TMC3    O2 8326   3.843   1.880   9.861 -0.2542  0.5601 -0.2066
  558TMC3    C1 8327   1.166   4.737   9.979  0.4797 -0.1579  0.4514
  558TMC3    C2 8328   1.091   4.641  10.039 -0.7292  0.3462 -0.3248
  558TMC3    C3 8329   0.958   4.632  10.003  0.1094 -0.2910 -0.2819
  558TMC3    C4 8330   1.124   0.080   9.881  0.0571  0.4025  0.3911
  558TMC3    C5 8331   0.990   0.069   9.850 -0.0233 -0.5816 -0.9256
  558TMC3    C6 8332   0.907   4.718   9.912 -0.6472  0.0872  0.4820
  558TMC3     C 8333   1.283   0.044  10.052 -0.2303  0.1048 -0.4134
  558TMC3     O 8334   1.376   0.098   9.997 -0.0147 -0.4115 -0.8870
  558TMC3     H 8335   1.149   4.580  10.108 -0.6121  2.2032  1.2122
  558TMC3    H1 8336   1.183   0.157   9.833 -1.2930  1.3732  0.2800
  558TMC3    H2 8337   0.801   4.725   9.893 -0.7331  1.0523  1.2823
  558TMC3    C7 8338   0.947   0.146   9.736 -0.0508  0.4279  0.2895
  558TMC3    C8 8339   0.862   4.570  10.092 -0.4531  0.0886  0.4941
  558TMC3    O1 8340   1.002   0.252   9.715  0.1346  0.2686  0.0080
  558TMC3    O2 8341   0.748   4.573  10.050  0.7604 -0.0071 -0.2251
  559MPD2     C 8342   1.588   0.682  10.346 -0.5859  0.0427 -0.0351
  559MPD2    C1 8343   1.511   0.583  10.408  0.4843  0.4772  0.7102
  559MPD2    C2 8344   1.561   0.528  10.524  0.1271 -0.8209 -0.5580
  559MPD2    C3 8345   1.680   0.578  10.579 -0.2863 -0.0826 -0.3391
  559MPD2    C4 8346   1.744   0.685  10.518 -0.2252  0.0901  0.2629
  559MPD2    C5 8347   1.699   0.729  10.402  0.6005 -0.1968  0.2515
  559MPD2     H 8348   1.507   0.448  10.573  0.3463 -1.4007 -1.2598
  559MPD2    H1 8349   1.822   0.745  10.562 -0.7982  2.4532 -1.9221
  559MPD2    H2 8350   1.559   0.710  10.246 -3.3615 -3.0915 -0.1120
  559MPD2    H3 8351   1.756   0.809  10.356  1.5208 -2.4090 -2.4675
  559MPD2     N 8352   1.747   0.515  10.688 -0.5516 -0.4771  0.2679
  559MPD2    H5 8353   1.693   0.451  10.745 -2.1625 -1.0526 -1.9368
  559MPD2    N1 8354   1.396   0.537  10.344 -0.6181 -0.1232 -0.3466
  559MPD2    H7 8355   1.389   0.568  10.247 -1.8941 -1.4418 -0.6859
  560TMC3    C1 8356   1.884   0.471  10.865 -0.5724  0.5811 -0.3082
  560TMC3    C2 8357   1.813   0.359  10.886 -0.6237 -0.1178 -0.3476
  560TMC3    C3 8358   1.786   0.330  11.017 -0.2017  0.9014 -0.2911
  560TMC3    C4 8359   1.929   0.548  10.967  0.4847 -0.3128  0.1808
  560TMC3    C5 8360   1.900   0.514  11.102  0.5345 -0.2745 -0.0007
  560TMC3    C6 8361   1.824   0.400  11.122  0.1131 -0.4104  0.2539
  560TMC3     C 8362   1.870   0.543  10.743  0.7836 -0.6281 -0.0212
  560TMC3     O 8363   1.954   0.628  10.713  0.0051 -0.2352  0.0221
  560TMC3     H 8364   1.794   0.295  10.801 -0.4444  0.0945 -0.5477
  560TMC3    H1 8365   1.968   0.647  10.946  0.0289 -0.1532  0.0794
  560TMC3    H2 8366   1.803   0.361  11.221  1.0629 -2.6347 -0.4222
  560TMC3    C7 8367   1.968   0.568  11.220  0.5144 -0.2409  0.0158
  560TMC3    C8 8368   1.688   0.224  11.021 -0.4246  0.1395 -0.1409
  560TMC3    O1 8369   1.941   0.510  11.325  0.2442 -0.2731 -0.3042
  560TMC3    O2 8370   1.692   0.135  10.935 -0.3888 -0.6964 -0.2355
  561TMC3    C1 8371   4.166   4.435  11.009  0.0698  0.0791  0.1089
  561TMC3    C2 8372   4.113   4.344  11.095  0.5209  0.2012  0.8111
  561TMC3    C3 8373   4.115   4.378  11.231  0.5225 -0.5808 -0.1713
  561TMC3    C4 8374   4.201   4.560  11.045 -0.0015 -0.4787 -0.2779
  561TMC3    C5 8375   4.209   4.587  11.181 -0.4653  0.4748 -0.3869
  561TMC3    C6 8376   4.165   4.502  11.272 -0.9139 -1.2551 -0.2191
  561TMC3     C 8377   4.154   4.407  10.865  0.1647  0.3790 -0.4084
  561TMC3     O 8378   4.065   4.336  10.821 -0.0353 -0.2709 -0.0723
  561TMC3     H 8379   4.084   4.243  11.067 -3.0049  1.6476 -0.8046
  561TMC3    H1 8380   4.217   4.637  10.970 -0.1060 -0.1769  0.0113
  561TMC3    H2 8381   4.177   4.527  11.376  2.0396 -0.0954 -0.8545
  561TMC3    C7 8382   4.257   4.719  11.224  0.3476  0.5481  0.1020
  561TMC3    C8 8383   4.080   4.279  11.329  0.2525  0.2235 -0.7190
  561TMC3    O1 8384   4.262   4.732  11.346 -0.0086  0.2259 -0.5329
  561TMC3    O2 8385   4.077   4.162  11.297  0.3638 -0.1667 -0.0070
  562TMC3    C1 8386   0.200   0.919  16.933  0.0126 -0.1879  0.2075
  562TMC3    C2 8387   0.153   1.040  16.903  0.5491  0.9188 -0.0583
  562TMC3    C3 8388   0.196   1.093  16.782 -0.5692  0.3115  0.5052
  562TMC3    C4 8389   0.265   0.835  16.849 -0.7588  0.2411  0.1323
  562TMC3    C5 8390   0.303   0.888  16.727  0.4855  0.9896  0.2360
  562TMC3    C6 8391   0.264   1.017  16.693  0.5125  0.2681  0.2105
  562TMC3     C 8392   0.164   0.859  17.061 -0.1503 -0.3503 -0.2361
  562TMC3     O 8393   0.216   0.751  17.092  0.6274  0.3053  0.3750
  562TMC3     H 8394   0.099   1.101  16.975  1.5237  0.9311  0.6630
  562TMC3    H1 8395   0.296   0.735  16.876 -0.1192  0.8611  1.7275
  562TMC3    H2 8396   0.293   1.049  16.593 -1.9483  1.3011 -0.1568
  562TMC3    C7 8397   0.356   0.799  16.624 -0.2263  0.4084 -0.3796
  562TMC3    C8 8398   0.148   1.224  16.738  0.0069  0.3760  0.0461
  562TMC3    O1 8399   0.339   0.841  16.511 -0.1141  0.2112  0.3960
  562TMC3    O2 8400   0.110   1.301  16.822 -0.5452 -0.2682 -0.3218
  563MPD2     C 8401   2.484   2.206  15.698 -0.5003  0.1972  0.1093
  563MPD2    C1 8402   2.545   2.240  15.815 -0.2945 -0.5604 -0.6916
  563MPD2    C2 8403   2.679   2.201  15.833  0.1183 -0.3858 -0.4900
  563MPD2    C3 8404   2.743   2.110  15.757  0.1718 -0.2555  0.3746
  563MPD2    C4 8405   2.670   2.058  15.653 -0.0879  0.1641 -0.1422
  563MPD2    C5 8406   2.545   2.110  15.618 -0.0714  0.3479  0.8117
  563MPD2     H 8407   2.733   2.237  15.920  1.1294  0.1948 -1.3729
  563MPD2    H1 8408   2.723   1.984  15.594  3.1919  0.3344  2.5659
  563MPD2    H2 8409   2.389   2.245  15.664 -0.2231 -1.3023 -2.4336
  563MPD2    H3 8410   2.507   2.072  15.524  0.9627  1.4949 -0.0776
  563MPD2     N 8411   2.872   2.059  15.797  0.5203 -0.1305 -0.7118
  563MPD2    H5 8412   2.916   2.102  15.878 -1.1699  0.8052 -0.2766
  563MPD2    N1 8413   2.468   2.309  15.914 -0.4281 -0.2469 -0.0490
  563MPD2    H7 8414   2.368   2.328  15.911  0.1316  2.6771 -0.5545
  564TMC3    C1 8415   2.425   2.344  16.139  0.7623  0.6346 -0.4472
  564TMC3    C2 8416   2.303   2.280  16.114 -1.0193  0.3157 -0.0166
  564TMC3    C3 8417   2.267   2.178  16.199  1.1392  0.0421  0.3314
  564TMC3    C4 8418   2.493   2.307  16.252 -0.7780  0.3006 -0.0160
  564TMC3    C5 8419   2.458   2.200  16.326 -0.1720  0.5411 -0.2878
  564TMC3    C6 8420   2.340   2.141  16.307 -0.0588  0.0244 -0.4464
  564TMC3     C 8421   2.517   2.364  16.026 -0.3351  0.3472  0.3155
  564TMC3     O 8422   2.628   2.388  16.050  0.2953  0.6794 -0.2597
  564TMC3     H 8423   2.243   2.317  16.032 -1.2965  2.9760  1.3817
  564TMC3    H1 8424   2.593   2.344  16.276 -0.1154 -1.4583 -0.0940
  564TMC3    H2 8425   2.319   2.049  16.361  0.1448  0.9967  1.2997
  564TMC3    C7 8426   2.564   2.093  16.321 -0.0266  0.0883  0.8296
  564TMC3    C8 8427   2.204   2.065  16.127  0.4065 -0.0013  0.3627
  564TMC3    O1 8428   2.626   2.057  16.424  0.0392 -0.3807 -0.4794
  564TMC3    O2 8429   2.147   1.973  16.190  0.5159 -0.1513  0.6011
  565TMC3    C1 8430   3.605   4.329  10.147  0.0990  0.8365  0.5780
  565TMC3    C2 8431   3.630   4.261  10.266 -0.2449  0.1665 -0.5294
  565TMC3    C3 8432   3.529   4.189  10.319 -0.6975  0.1529 -0.1549
  565TMC3    C4 8433   3.493   4.302  10.082  0.2521 -0.1309 -0.0880
  565TMC3    C5 8434   3.391   4.227  10.138 -0.4094  0.1230  0.5235
  565TMC3    C6 8435   3.407   4.174  10.262 -0.4494 -0.1657  0.5429
  565TMC3     C 8436   3.686   4.443  10.108 -0.3791 -0.1036 -0.0681
  565TMC3     O 8437   3.685   4.466   9.988  0.3574 -0.3019  0.0859
  565TMC3     H 8438   3.718   4.289  10.323 -1.1710 -1.5199  1.7310
  565TMC3    H1 8439   3.471   4.342   9.984 -1.1447  1.3611  0.8226
  565TMC3    H2 8440   3.352   4.087  10.293 -1.0883  0.0567  0.0280
  565TMC3    C7 8441   3.270   4.210  10.067 -0.1742 -0.3140  0.5315
  565TMC3    C8 8442   3.560   4.096  10.431  0.6891 -0.2465 -0.3224
  565TMC3    O1 8443   3.276   4.245   9.948 -0.8639 -0.4387  0.1094
  565TMC3    O2 8444   3.467   4.036  10.484 -0.3391  0.2649 -0.2712
  566MPD2     C 8445   0.544   0.595  14.352 -0.5012 -0.3192  0.7697
  566MPD2    C1 8446   0.674   0.625  14.313  0.7133 -0.5988 -0.2547
  566MPD2    C2 8447   0.699   0.649  14.180  0.0144  0.4161  0.6729
  566MPD2    C3 8448   0.606   0.623  14.084 -0.2211 -0.5577 -1.0681
  566MPD2    C4 8449   0.483   0.590  14.131  0.5263  0.4258 -0.1955
  566MPD2    C5 8450   0.450   0.579  14.262  0.3429  0.3272  0.0319
  566MPD2     H 8451   0.800   0.677  14.152  0.5341 -3.0482 -0.8924
  566MPD2    H1 8452   0.403   0.561  14.064  0.2962 -0.0145  0.2735
  566MPD2    H2 8453   0.518   0.594  14.458  2.8986 -0.1549  1.5963
  566MPD2    H3 8454   0.350   0.558  14.297 -0.2306  0.1534 -1.7214
  566MPD2     N 8455   0.638   0.624  13.946  0.4298 -0.1395  0.0755
  566MPD2    H5 8456   0.577   0.561  13.894  1.2277 -0.5065 -0.4115
  566MPD2    N1 8457   0.765   0.644  14.421 -0.0330  0.5584  0.3300
  566MPD2    H7 8458   0.725   0.637  14.514 -0.7293  2.4979  0.1646
  567TMC3    C1 8459   0.983   0.661  14.525  0.8650 -0.0346 -0.1988
  567TMC3    C2 8460   1.112   0.706  14.499  0.1005  0.3359  0.3534
  567TMC3    C3 8461   1.219   0.642  14.559  0.4596 -0.0350 -0.3174
  567TMC3    C4 8462   0.969   0.550  14.601  0.1086 -0.0705 -0.3847
  567TMC3    C5 8463   1.074   0.499  14.680 -0.0085  0.1424 -0.1023
  567TMC3    C6 8464   1.197   0.545  14.648 -0.6876 -0.3124 -0.1780
  567TMC3     C 8465   0.902   0.671  14.404 -0.4175 -0.1824  0.9262
  567TMC3     O 8466   0.973   0.680  14.302 -0.4642  0.2788  0.6423
  567TMC3     H 8467   1.126   0.791  14.433  2.3480 -0.4997 -0.2331
  567TMC3    H1 8468   0.871   0.505  14.615  0.7278 -0.7763  1.6838
  567TMC3    H2 8469   1.282   0.511  14.707 -1.0361 -1.2675 -0.2314
  567TMC3    C7 8470   1.074   0.370  14.736 -0.0712  0.1478  0.2168
  567TMC3    C8 8471   1.352   0.666  14.496 -0.1020  0.1993  0.0267
  567TMC3    O1 8472   1.179   0.304  14.732 -0.2658  0.3310  0.1796
  567TMC3    O2 8473   1.355   0.758  14.416  0.3066 -0.0114  0.2291
  568MPD2     C 8474   2.508   0.621  16.178 -0.9242  0.2613  0.4391
  568MPD2    C1 8475   2.471   0.703  16.275  0.4272 -0.2855 -0.8228
  568MPD2    C2 8476   2.379   0.804  16.244  0.0324 -0.1597 -0.0919
  568MPD2    C3 8477   2.329   0.821  16.118 -0.3537 -0.3287 -0.3162
  568MPD2    C4 8478   2.376   0.738  16.018 -1.0735 -0.0305 -0.3735
  568MPD2    C5 8479   2.465   0.641  16.049  0.8341 -0.0505 -0.1560
  568MPD2     H 8480   2.347   0.883  16.311  0.9195  0.2908 -0.2066
  568MPD2    H1 8481   2.334   0.739  15.917  0.4840  0.2265 -1.0205
  568MPD2    H2 8482   2.573   0.535  16.195 -0.6335  0.3388 -0.2978
  568MPD2    H3 8483   2.497   0.564  15.979  1.7817 -0.6794  0.9551
  568MPD2     N 8484   2.240   0.932  16.090 -0.4440  0.2363  0.5042
  568MPD2    H5 8485   2.221   1.006  16.157  1.6888 -1.2913  2.7855
  568MPD2    N1 8486   2.530   0.691  16.406 -0.3099  0.2865 -0.4327
  568MPD2    H7 8487   2.592   0.611  16.420 -3.1188 -1.5294  1.6118
  569TMC3    C1 8488   2.153   1.103  15.976  0.4093  0.2240 -0.3059
  569TMC3    C2 8489   2.063   1.116  16.081 -0.6480  0.2948  0.3402
  569TMC3    C3 8490   2.043   1.244  16.131  0.0188 -0.0067  0.9969
  569TMC3    C4 8491   2.224   1.219  15.933  0.1857  0.7615 -0.2739
  569TMC3    C5 8492   2.199   1.344  15.984  0.5430 -0.7060  0.4516
  569TMC3    C6 8493   2.110   1.357  16.092 -0.0814 -0.5519 -0.3103
  569TMC3     C 8494   2.219   0.971  15.960 -0.1058 -0.0008  0.4892
  569TMC3     O 8495   2.281   0.943  15.859 -0.5534 -0.1761 -0.2432
  569TMC3     H 8496   2.007   1.029  16.114 -0.6246  0.6718  1.3658
  569TMC3    H1 8497   2.284   1.208  15.843  0.8024  1.9456 -0.0050
  569TMC3    H2 8498   2.067   1.453  16.116  1.6135 -0.2970  1.6745
  569TMC3    C7 8499   2.239   1.453  15.895  0.0120  0.8153  0.3101
  569TMC3    C8 8500   1.975   1.255  16.259 -0.1916 -0.1799 -0.0130
  569TMC3    O1 8501   2.306   1.427  15.792  0.0029 -0.2084 -0.6543
  569TMC3    O2 8502   1.894   1.172  16.295  0.3489  0.1858  0.7386
  570TMC3    C1 8503   1.749   4.442  15.819 -0.1436 -0.3447 -0.2294
  570TMC3    C2 8504   1.837   4.432  15.718  0.0289  0.3737 -0.2588
  570TMC3    C3 8505   1.871   4.546  15.651 -0.4926 -0.2446 -0.4458
  570TMC3    C4 8506   1.698   4.564  15.854 -0.2981  0.4631 -0.2603
  570TMC3    C5 8507   1.721   4.679  15.770  0.1703  0.6279  0.4372
  570TMC3    C6 8508   1.813   4.667  15.673  0.0112 -0.3572  1.2652
  570TMC3     C 8509   1.711   4.335  15.901 -0.1545 -0.4467  0.1572
  570TMC3     O 8510   1.713   4.223  15.847  0.0779 -0.2238  0.1447
  570TMC3     H 8511   1.892   4.339  15.706  0.7600  0.9061 -1.0566
  570TMC3    H1 8512   1.620   4.575  15.928 -0.0784 -0.2720  0.0820
  570TMC3    H2 8513   1.851   0.012  15.616  2.3759 -1.2127  1.5733
  570TMC3    C7 8514   1.743   0.061  15.851  0.3242 -0.4308 -0.6312
  570TMC3    C8 8515   2.004   4.550  15.588 -0.0940 -0.0774 -0.4112
  570TMC3    O1 8516   1.770   0.039  15.967 -0.0286 -0.1136 -0.6038
  570TMC3    O2 8517   2.057   4.660  15.587 -0.1006 -0.2445  0.2757
  571MPD2     C 8518   3.876   1.157  17.667  0.0240 -0.1136 -0.2495
  571MPD2    C1 8519   3.918   1.080   0.017  0.5227 -0.0772 -0.5786
  571MPD2    C2 8520   4.033   1.119   0.092 -0.5624 -0.4194  0.0522
  571MPD2    C3 8521   4.098   1.247   0.062 -0.0765  0.2636 -0.0700
  571MPD2    C4 8522   4.041   1.320  17.709  0.5608  0.1491 -0.3956
  571MPD2    C5 8523   3.937   1.277  17.631  0.3739  0.1311 -0.0231
  571MPD2     H 8524   4.078   1.057   0.169  0.9960  0.7221  0.0589
  571MPD2    H1 8525   4.084   1.416  17.683  1.6427 -0.2037  0.0514
  571MPD2    H2 8526   3.794   1.126  17.603 -0.4847 -1.0259  0.8362
  571MPD2    H3 8527   3.901   1.338  17.548 -1.7713  1.7439  2.0960
  571MPD2     N 8528   4.207   1.307   0.140 -0.1364 -0.3183  0.0051
  571MPD2    H5 8529   4.257   1.387   0.104  1.7722 -0.7228  1.7588
  571MPD2    N1 8530   3.838   0.968   0.046  0.4069 -0.1785  0.1846
  571MPD2    H7 8531   3.761   0.960  17.736 -0.0204 -1.7747  0.9085
  572TMC3    C1 8532   4.391   1.335   0.285 -0.8522 -0.4271 -0.3261
  572TMC3    C2 8533   4.469   1.288   0.390 -0.3285 -0.4603 -0.0411
  572TMC3    C3 8534   4.561   1.375   0.453 -0.0988  0.0558 -0.4480
  572TMC3    C4 8535   4.397   1.467   0.241 -0.2354 -0.4764 -0.5660
  572TMC3    C5 8536   4.486   1.551   0.308 -0.2420  0.0709 -0.3416
  572TMC3    C6 8537   4.572   1.503   0.402  0.2931 -0.3901 -0.0181
  572TMC3     C 8538   4.287   1.244   0.236  0.5700  0.2054 -0.0761
  572TMC3     O 8539   4.280   1.131   0.278  0.0603  0.1442  0.7197
  572TMC3     H 8540   4.435   1.194   0.433  0.9479 -0.5157  0.8414
  572TMC3    H1 8541   4.339   1.510   0.159 -2.0752 -2.1059 -0.1140
  572TMC3    H2 8542   4.643   1.578   0.436 -0.1136 -0.5944  1.2797
  572TMC3    C7 8543   4.488   1.694   0.262  0.2566 -0.1659  0.5308
  572TMC3    C8 8544   4.587   1.364   0.592 -0.9398 -0.8794 -0.0082
  572TMC3    O1 8545   4.441   1.715   0.144  0.1996  0.2661  0.3843
  572TMC3    O2 8546   4.642   1.459   0.642  0.0266  0.9049  0.7848
  573MPD2     C 8547   4.554   0.569   0.672 -0.5933 -0.2103 -0.1243
  573MPD2    C1 8548   4.619   0.682   0.726 -0.1995  0.5103  0.4290
  573MPD2    C2 8549   4.661   0.783   0.639 -0.4427  0.0462  0.1182
  573MPD2    C3 8550   4.633   0.773   0.501  0.0735  0.5926  0.5878
  573MPD2    C4 8551   4.566   0.659   0.449 -0.7191  0.4581 -0.1436
  573MPD2    C5 8552   4.530   0.560   0.536 -0.3743  0.3322  0.6314
  573MPD2     H 8553   4.719   0.870   0.670  1.4209 -1.0056 -0.3880
  573MPD2    H1 8554   4.552   0.649   0.342  0.0470  2.4255 -0.4088
  573MPD2    H2 8555   4.530   0.490   0.741 -1.3423 -0.8621 -1.1318
  573MPD2    H3 8556   4.484   0.466   0.507 -1.8171  0.7695  1.5155
  573MPD2     N 8557   4.684   0.871   0.407 -0.3326  0.1966 -0.3249
  573MPD2    H5 8558   4.651   0.863   0.311 -0.9542  1.6969 -0.2299
  573MPD2    N1 8559   4.640   0.682   0.861  0.4883 -0.6254 -0.1001
  573MPD2    H7 8560   4.590   0.610   0.912  1.2838 -0.7910  0.4533
  574TMC3    C1 8561   0.041   1.079   0.337  0.6544  0.0873  0.5385
  574TMC3    C2 8562   0.113   1.187   0.384 -0.7450 -0.3376 -0.3856
  574TMC3    C3 8563   0.129   1.296   0.308 -0.0331 -0.1675 -0.5303
  574TMC3    C4 8564   4.723   1.072   0.214 -0.3872  0.1541 -0.3747
  574TMC3    C5 8565   4.738   1.188   0.139  0.4294  0.4596  0.1598
  574TMC3    C6 8566   0.069   1.297   0.186 -0.5491 -0.5291 -0.3116
  574TMC3     C 8567   0.020   0.983   0.440 -0.0865 -0.0081  0.5211
  574TMC3     O 8568   0.074   1.011   0.545 -0.6366 -0.7374 -0.0855
  574TMC3     H 8569   0.172   1.179   0.474  0.4010  4.3469 -0.7091
  574TMC3    H1 8570   4.667   0.985   0.180  0.7830 -1.0095  0.6590
  574TMC3    H2 8571   0.099   1.370   0.111 -0.5617  0.7575  0.9515
  574TMC3    C7 8572   4.646   1.223   0.029  0.7082  0.4130  0.8712
  574TMC3    C8 8573   0.206   1.413   0.348  0.1020  0.0966  0.2150
  574TMC3    O1 8574   4.670   1.328  17.725 -0.6003  0.0808 -0.1132
  574TMC3    O2 8575   0.256   1.393   0.460  0.8053  0.2561  0.8345
  575TMC3    C1 8576   3.549   3.672  11.244 -0.3377  0.9554 -0.1609
  575TMC3    C2 8577   3.426   3.620  11.250 -0.1733 -0.7619 -0.6883
  575TMC3    C3 8578   3.348   3.626  11.142 -0.5787  0.6505  0.4844
  575TMC3    C4 8579   3.603   3.734  11.135 -0.0963 -1.2902  0.1140
  575TMC3    C5 8580   3.515   3.739  11.025  0.4278 -0.7598  0.2715
  575TMC3    C6 8581   3.388   3.686  11.027 -0.3054 -0.0315 -0.0111
  575TMC3     C 8582   3.628   3.674  11.368  0.8724 -0.3632  0.5551
  575TMC3     O 8583   3.570   3.626  11.468 -0.1105  0.6743 -0.4841
  575TMC3     H 8584   3.394   3.560  11.334  2.7586 -1.4480 -0.0456
  575TMC3    H1 8585   3.686   3.802  11.143 -0.9298 -0.0638 -1.6123
  575TMC3    H2 8586   3.317   3.704  10.947 -1.0471  0.6969  0.8061
  575TMC3    C7 8587   3.552   3.813  10.901  0.2103 -0.3572  0.7910
  575TMC3    C8 8588   3.232   3.540  11.141  0.2273 -0.2040 -0.5172
  575TMC3    O1 8589   3.463   3.836  10.821  0.3505  0.1269 -0.9063
  575TMC3    O2 8590   3.175   3.503  11.242  0.3560 -0.0339 -0.2974
  576MPD2     C 8591   3.465   4.459  12.655  0.0847  0.2503  0.6432
  576MPD2    C1 8592   3.377   4.506  12.563 -0.0074  0.1542 -0.6308
  576MPD2    C2 8593   3.251   4.546  12.603 -0.4264 -0.5549 -0.3905
  576MPD2    C3 8594   3.212   4.534  12.735 -0.4243  0.5460 -0.6742
  576MPD2    C4 8595   3.300   4.471  12.830  0.1720  0.2771 -0.3264
  576MPD2    C5 8596   3.426   4.438  12.785 -0.6702 -0.7760  0.3431
  576MPD2     H 8597   3.190   4.609  12.539 -0.5722 -0.9630 -0.6531
  576MPD2    H1 8598   3.292   4.481  12.938 -0.2377  2.2517 -0.5437
  576MPD2    H2 8599   3.562   4.419  12.629  0.6172  2.6023 -0.9595
  576MPD2    H3 8600   3.496   4.398  12.858 -0.4414 -1.3100 -0.1779
  576MPD2     N 8601   3.078   4.567  12.769 -0.1989 -0.8218 -0.1975
  576MPD2    H5 8602   3.018   4.595  12.691  0.1951 -2.1232 -0.9693
  576MPD2    N1 8603   3.401   4.526  12.426  0.3051  0.1142  0.0093
  576MPD2    H7 8604   3.323   4.561  12.372  0.2766 -0.4397 -0.3082
  577TMC3    C1 8605   3.531   4.543  12.224  0.2411  0.3807  0.2952
  577TMC3    C2 8606   3.629   4.480  12.153  0.6345 -0.7348  0.2892
  577TMC3    C3 8607   3.633   4.500  12.018  0.4706 -0.5013 -0.4020
  577TMC3    C4 8608   3.439   4.623  12.165 -0.3931 -0.2807  0.5798
  577TMC3    C5 8609   3.448   4.643  12.031  0.0055  0.3271 -0.1572
  577TMC3    C6 8610   3.544   4.577  11.950 -0.4339 -0.5642 -0.2205
  577TMC3     C 8611   3.528   4.514  12.364  0.0018  0.1533  0.1615
  577TMC3     O 8612   3.637   4.482  12.412  0.1637 -0.5343  0.0133
  577TMC3     H 8613   3.695   4.411  12.204 -2.0556 -2.2287  1.7201
  577TMC3    H1 8614   3.368   4.677  12.227 -0.9145  0.5168 -0.7024
  577TMC3    H2 8615   3.542   4.578  11.842 -1.4760 -1.4404 -0.2148
  577TMC3    C7 8616   3.337   4.712  11.963 -0.2458  0.1780  0.4103
  577TMC3    C8 8617   3.697   4.389  11.951  0.3640  0.8325  0.1610
  577TMC3    O1 8618   3.349   4.726  11.843  0.0799  0.3074 -0.5499
  577TMC3    O2 8619   3.689   4.283  12.019 -0.3163  0.5250  0.4074
  578MPD2     C 8620   0.927   4.719   0.476  0.2764 -0.1612 -0.4269
  578MPD2    C1 8621   1.012   4.614   0.442  0.1871  0.0183  0.2333
  578MPD2    C2 8622   1.016   4.507   0.518 -0.2267  0.1463  0.2198
  578MPD2    C3 8623   0.950   4.488   0.634 -0.1382 -0.3480 -0.0362
  578MPD2    C4 8624   0.868   4.591   0.679 -0.1644 -0.2441  0.1546
  578MPD2    C5 8625   0.856   4.704   0.598  1.1691  0.4002  0.2482
  578MPD2     H 8626   1.083   4.428   0.485  0.0981  0.3233  0.4457
  578MPD2    H1 8627   0.816   4.589   0.774 -3.7604  1.2085 -1.8085
  578MPD2    H2 8628   0.914   0.078   0.431  0.1828 -0.5176 -1.1721
  578MPD2    H3 8629   0.792   0.043   0.638 -0.1192 -1.0789  1.0340
  578MPD2     N 8630   0.970   4.374   0.711 -0.4517  0.7072 -0.0551
  578MPD2    H5 8631   1.050   4.314   0.691  1.0502  2.9883 -0.9443
  578MPD2    N1 8632   1.080   4.632   0.323 -0.0878  0.7868 -0.0358
  578MPD2    H7 8633   1.082   4.723   0.278  2.9063  0.3208 -0.8817
  579TMC3    C1 8634   0.982   4.243   0.915 -0.2384 -0.9350 -0.2143
  579TMC3    C2 8635   1.055   4.308   1.018  0.2123  0.4876 -0.1385
  579TMC3    C3 8636   1.185   4.274   1.050  0.7932 -0.5466  0.0556
  579TMC3    C4 8637   1.043   4.144   0.842  0.1653 -0.0765 -0.1460
  579TMC3    C5 8638   1.176   4.118   0.874  0.3787 -0.3579  0.1505
  579TMC3    C6 8639   1.250   4.175   0.977  0.2305 -0.7156 -0.1348
  579TMC3     C 8640   0.908   4.342   0.832  0.1870 -0.3563  0.0761
  579TMC3     O 8641   0.807   4.384   0.885  0.0286  0.3321  0.1465
  579TMC3     H 8642   1.023   4.405   1.052 -0.6783 -0.0738  0.6033
  579TMC3    H1 8643   0.980   4.092   0.772  1.1023 -0.1329 -0.9400
  579TMC3    H2 8644   1.354   4.147   0.991  0.7937  1.5179  0.2167
  579TMC3    C7 8645   1.234   4.001   0.806 -0.1837  0.4303 -0.4717
  579TMC3    C8 8646   1.250   4.371   1.133 -0.2899  0.2482  0.3370
  579TMC3    O1 8647   1.331   3.951   0.862 -0.8577  0.5849  0.2478
  579TMC3    O2 8648   1.181   4.438   1.211  0.5143  0.5426  0.6942
  580TMC3    C1 8649   1.010   4.058  12.177  0.1569 -0.6421 -0.0270
  580TMC3    C2 8650   0.957   3.994  12.067 -0.1262 -0.0896 -0.0196
  580TMC3    C3 8651   1.027   3.891  12.006 -0.2118  0.1674 -1.2548
  580TMC3    C4 8652   1.122   4.005  12.239 -0.1846 -1.1232  0.1791
  580TMC3    C5 8653   1.178   3.892  12.187  0.0930  0.4098 -0.1895
  580TMC3    C6 8654   1.135   3.834  12.065 -0.8111  0.6732  0.3973
  580TMC3     C 8655   1.002   4.199  12.174 -0.3956  0.4251  0.1039
  580TMC3     O 8656   1.113   4.253  12.193 -0.2324  0.2469 -0.3933
  580TMC3     H 8657   0.882   4.044  12.007  0.0971 -1.3276 -1.3350
  580TMC3    H1 8658   1.170   4.053  12.324  0.7140 -3.8776  1.2224
  580TMC3    H2 8659   1.185   3.747  12.026 -0.0733  0.8641  0.9092
  580TMC3    C7 8660   1.289   3.842  12.262 -0.5565  0.0409  0.9838
  580TMC3    C8 8661   1.038   3.919  11.863  0.8521 -0.1447 -0.2943
  580TMC3    O1 8662   1.321   3.895  12.368 -0.4741 -0.1299  0.0399
  580TMC3    O2 8663   0.935   3.946  11.798 -0.1175  0.4424 -0.2293
  581MPD2     C 8664   3.953   3.421  14.668  0.6019  0.4146 -0.4206
  581MPD2    C1 8665   3.961   3.484  14.791 -0.5548 -0.3470  0.1474
  581MPD2    C2 8666   3.850   3.551  14.830 -0.2416  0.3243  0.4494
  581MPD2    C3 8667   3.740   3.566  14.747 -0.3769  0.1340 -0.6585
  581MPD2    C4 8668   3.742   3.525  14.615  0.7571 -0.1579  0.2093
  581MPD2    C5 8669   3.847   3.444  14.585 -0.5662 -0.3647  0.4794
  581MPD2     H 8670   3.841   3.588  14.932  0.3541  0.6360  0.3899
  581MPD2    H1 8671   3.661   3.537  14.543 -1.7253  0.1581  3.0616
  581MPD2    H2 8672   4.028   3.354  14.627  0.7442  0.3754 -0.0915
  581MPD2    H3 8673   3.841   3.398  14.487 -1.1375  2.4459 -0.8206
  581MPD2     N 8674   3.632   3.647  14.794  0.1331  0.2318 -0.3976
  581MPD2    H5 8675   3.649   3.707  14.874 -0.5440  0.8751 -0.7405
  581MPD2    N1 8676   4.072   3.453  14.873  0.6189 -0.3821  0.4737
  581MPD2    H7 8677   4.144   3.409  14.816  0.1006 -0.3602 -0.1993
  582TMC3    C1 8678   4.180   3.389  15.075 -0.0706  0.3904 -0.4838
  582TMC3    C2 8679   4.193   3.421  15.205 -0.3164  0.1289  0.2770
  582TMC3    C3 8680   4.221   3.321  15.294 -0.5223 -0.0848  0.8576
  582TMC3    C4 8681   4.160   3.260  15.038  0.5426 -0.2532 -0.0639
  582TMC3    C5 8682   4.167   3.159  15.127  0.1024 -0.2599  1.1305
  582TMC3    C6 8683   4.203   3.190  15.256  0.2159  0.4342 -0.3002
  582TMC3     C 8684   4.080   3.477  15.010 -0.4016  0.4829  0.2235
  582TMC3     O 8685   4.007   3.552  15.074  0.1308 -0.3136 -0.3767
  582TMC3     H 8686   4.193   3.525  15.236  0.5820 -0.1407  1.1699
  582TMC3    H1 8687   4.157   3.232  14.933  0.2433  0.3465 -0.2159
  582TMC3    H2 8688   4.197   3.121  15.339  0.0689  0.5792 -0.1908
  582TMC3    C7 8689   4.065   3.058  15.124  0.5261  0.2002 -0.1780
  582TMC3    C8 8690   4.176   3.352  15.429  0.3468 -0.0958  0.2714
  582TMC3    O1 8691   4.049   3.001  15.231  0.0078 -0.9537 -0.1185
  582TMC3    O2 8692   4.087   3.432  15.437 -0.1931  0.1785  0.3320
  583MPD2     C 8693   3.750   4.699  16.678  0.4411 -0.1381  0.0373
  583MPD2    C1 8694   3.766   0.079  16.611 -0.0418 -0.5329 -0.9904
  583MPD2    C2 8695   3.691   0.187  16.652 -0.3679 -0.1183  0.0281
  583MPD2    C3 8696   3.594   0.183  16.748 -0.3029  0.5690  0.6933
  583MPD2    C4 8697   3.572   0.061  16.808 -0.3102  0.9245 -0.6962
  583MPD2    C5 8698   3.643   4.694  16.767 -0.2194  0.7908 -0.0219
  583MPD2     H 8699   3.709   0.286  16.610 -0.7279 -0.3516 -0.6832
  583MPD2    H1 8700   3.492   0.041  16.878  0.4226  2.9205  0.7285
  583MPD2    H2 8701   3.806   4.612  16.650 -0.3140 -1.3124  2.1529
  583MPD2    H3 8702   3.612   4.601  16.812 -1.6309  1.7800  1.0192
  583MPD2     N 8703   3.521   0.301  16.777 -0.4804 -0.1017  0.7336
  583MPD2    H5 8704   3.518   0.375  16.707 -1.6632  0.8447  1.7802
  583MPD2    N1 8705   3.857   0.107  16.507 -0.2090 -0.8847  0.5995
  583MPD2    H7 8706   3.855   0.205  16.479 -0.9651 -2.0501 -3.4246
  584TMC3    C1 8707   3.405   0.448  16.912 -0.2985 -0.0612 -0.1106
  584TMC3    C2 8708   3.383   0.534  16.810 -0.0432 -0.4956 -0.1068
  584TMC3    C3 8709   3.318   0.653  16.815 -0.7091 -0.6213  0.2799
  584TMC3    C4 8710   3.373   0.494  17.037 -0.7403 -0.2085 -0.1694
  584TMC3    C5 8711   3.310   0.616  17.052 -0.2484  0.1074  0.2737
  584TMC3    C6 8712   3.284   0.696  16.945  0.5970 -0.2857  0.1546
  584TMC3     C 8713   3.450   0.314  16.899  0.4209  0.2138  0.6533
  584TMC3     O 8714   3.463   0.247  16.997 -0.2496  0.0964  0.8887
  584TMC3     H 8715   3.423   0.506  16.713  0.4538 -1.7162  0.4426
  584TMC3    H1 8716   3.395   0.429  17.121  1.4510  0.3131 -0.3627
  584TMC3    H2 8717   3.224   0.784  16.962  1.4397  0.1428  0.9033
  584TMC3    C7 8718   3.233   0.625  17.173  0.2681  0.1033 -0.5824
  584TMC3    C8 8719   3.366   0.749  16.723  0.0735  0.7745 -0.0362
  584TMC3    O1 8720   3.244   0.528  17.249 -0.2514  0.5054 -0.1332
  584TMC3    O2 8721   3.379   0.717  16.606 -0.1006  0.0782  0.2039
  585MPD2     C 8722   2.067   4.314   0.057  0.3113 -0.2123 -0.8101
  585MPD2    C1 8723   2.119   4.356  17.687 -0.1695  0.4460 -0.3636
  585MPD2    C2 8724   2.122   4.263  17.591 -0.0714 -0.7801 -0.4271
  585MPD2    C3 8725   2.086   4.127  17.614 -0.2050  0.5604 -0.2115
  585MPD2    C4 8726   2.035   4.093  17.732 -0.0586 -0.2761 -0.7656
  585MPD2    C5 8727   2.024   4.187   0.075 -0.1276 -0.5024 -0.2048
  585MPD2     H 8728   2.165   4.289  17.495  0.7530  2.1360  0.7258
  585MPD2    H1 8729   2.016   3.989   0.001  0.6229 -0.8290 -2.7299
  585MPD2    H2 8730   2.065   4.383   0.140  0.9132  0.1862 -1.1193
  585MPD2    H3 8731   1.995   4.153   0.174 -1.3757 -1.1566 -0.7940
  585MPD2     N 8732   2.116   4.025  17.532  0.9959 -0.4412 -0.1805
  585MPD2    H5 8733   2.087   3.934  17.565  1.3308 -0.5255 -0.1146
  585MPD2    N1 8734   2.167   4.487  17.666 -0.1639 -0.2190  0.6866
  585MPD2    H7 8735   2.206   4.543  17.742 -0.1090 -0.3967  0.7885
  586TMC3    C1 8736   2.233   3.905  17.367  0.6983 -0.3447 -0.5217
  586TMC3    C2 8737   2.342   3.908  17.278  1.2390 -0.4211  0.3470
  586TMC3    C3 8738   2.433   3.808  17.279  0.3528 -0.1263 -0.5848
  586TMC3    C4 8739   2.236   3.799  17.456  0.3881  0.4134  0.0967
  586TMC3    C5 8740   2.319   3.691  17.446 -0.2766 -0.3324 -0.0024
  586TMC3    C6 8741   2.427   3.701  17.365  0.1763 -0.0306  0.0869
  586TMC3     C 8742   2.208   4.036  17.427 -0.0553  0.6235  0.2976
  586TMC3     O 8743   2.287   4.122  17.391 -0.3694  0.6746  0.1704
  586TMC3     H 8744   2.351   3.996  17.215  0.1506 -1.2651 -0.9956
  586TMC3    H1 8745   2.156   3.793  17.528 -0.3246  1.6052 -0.6013
  586TMC3    H2 8746   2.505   3.627  17.355  0.0580 -0.1736  0.2408
  586TMC3    C7 8747   2.302   3.581  17.539  0.0782  0.1676 -0.4674
  586TMC3    C8 8748   2.510   3.774  17.162  0.1198  0.4704  0.2211
  586TMC3    O1 8749   2.231   3.583  17.638  0.0604 -0.4657 -0.3771
  586TMC3    O2 8750   2.615   3.708  17.165  0.5408 -0.3788 -0.3233
  587TMC3    C1 8751   0.271   2.358  16.692  0.0704  0.3869 -0.3314
  587TMC3    C2 8752   0.285   2.486  16.663  0.1014  0.1797 -0.3586
  587TMC3    C3 8753   0.408   2.543  16.644 -0.6819 -0.5001 -0.1303
  587TMC3    C4 8754   0.385   2.277  16.711 -0.5423 -0.3947  1.0271
  587TMC3    C5 8755   0.506   2.338  16.696 -0.1918 -0.3950  0.3442
  587TMC3    C6 8756   0.521   2.466  16.653  0.1069 -0.4489 -0.0808
  587TMC3     C 8757   0.145   2.296  16.731  0.3982  0.0044 -0.7702
  587TMC3     O 8758   0.143   2.199  16.807 -0.1901  0.5411 -0.0431
  587TMC3     H 8759   0.198   2.550  16.659  0.2139  0.2535 -1.6623
  587TMC3    H1 8760   0.378   2.172  16.737  0.9579 -1.0464 -1.1800
  587TMC3    H2 8761   0.622   2.503  16.637 -0.1934 -0.0900 -1.1824
  587TMC3    C7 8762   0.619   2.250  16.717 -0.5125 -0.7300 -0.4644
  587TMC3    C8 8763   0.429   2.673  16.602  0.1937  0.2194 -0.2299
  587TMC3    O1 8764   0.599   2.138  16.757 -0.5483 -0.1858 -0.3489
  587TMC3    O2 8765   0.535   2.696  16.543 -0.0073  0.7413  0.8931
  588TMC3    C1 8766   2.749   1.005   9.825  0.0983 -1.0329  0.6486
  588TMC3    C2 8767   2.674   0.895   9.861  0.1374 -0.5299  0.1013
  588TMC3    C3 8768   2.743   0.789   9.921  0.3378 -1.2608  0.3028
  588TMC3    C4 8769   2.881   1.015   9.848  0.2914  0.6038 -0.0361
  588TMC3    C5 8770   2.947   0.910   9.910 -0.6676  0.1229 -0.4850
  588TMC3    C6 8771   2.880   0.794   9.944 -0.4157 -0.1162 -0.1536
  588TMC3     C 8772   2.670   1.122   9.776 -0.5049 -0.1465  0.3982
  588TMC3     O 8773   2.554   1.125   9.799  0.6313  0.1529 -0.0870
  588TMC3     H 8774   2.574   0.878   9.822  0.1867 -3.0788  1.0583
  588TMC3    H1 8775   2.934   1.109   9.840 -1.4730  1.5539 -0.5731
  588TMC3    H2 8776   2.938   0.707   9.970 -1.2080 -0.3165  0.9372
  588TMC3    C7 8777   3.095   0.902   9.926  0.7253  1.2951  0.2311
  588TMC3    C8 8778   2.673   0.655   9.958 -0.0342  0.3642 -0.0496
  588TMC3    O1 8779   3.141   0.816  10.003  0.4007  0.4273 -0.1020
  588TMC3    O2 8780   2.569   0.630   9.901  0.0839  0.0041  0.2304
  589TMC3    C1 8781   1.538   3.075   1.111  0.1198 -0.1583 -0.0969
  589TMC3    C2 8782   1.661   3.106   1.156 -0.6417  0.0639  0.1934
  589TMC3    C3 8783   1.763   3.025   1.134 -0.4518  0.1960 -0.3429
  589TMC3    C4 8784   1.519   2.965   1.037  0.1841 -0.2331 -0.1433
  589TMC3    C5 8785   1.628   2.890   1.000  0.6657 -0.7134 -0.6524
  589TMC3    C6 8786   1.754   2.914   1.051  0.6973  0.0919  0.3546
  589TMC3     C 8787   1.417   3.152   1.137  0.1393 -0.1166  0.0994
  589TMC3     O 8788   1.303   3.110   1.114 -0.1151  0.3389  1.0209
  589TMC3     H 8789   1.674   3.193   1.221 -0.5489  1.6260 -1.9099
  589TMC3    H1 8790   1.416   2.943   1.012  0.0845 -0.3925  0.4072
  589TMC3    H2 8791   1.835   2.844   1.032 -0.8002 -1.6513  0.4130
  589TMC3    C7 8792   1.603   2.753   0.954  0.0116 -0.2470 -0.1470
  589TMC3    C8 8793   1.884   3.065   1.204  0.3676  0.0933  0.4245
  589TMC3    O1 8794   1.700   2.681   0.965 -0.0404 -0.5809  0.4331
  589TMC3    O2 8795   1.873   3.133   1.306  0.1997  0.3704 -0.5939
  590MPD2     C 8796   1.228   0.852  16.575 -0.6649 -1.1630  0.2378
  590MPD2    C1 8797   1.151   0.939  16.498 -0.4962 -0.0281 -0.8306
  590MPD2    C2 8798   1.221   0.996  16.391 -0.6049 -0.4381 -0.4476
  590MPD2    C3 8799   1.348   0.969  16.354 -0.4011  0.3594 -0.4081
  590MPD2    C4 8800   1.424   0.883  16.429 -0.4735  0.4921 -0.4278
  590MPD2    C5 8801   1.358   0.824  16.538 -0.5518  0.4274 -0.7247
  590MPD2     H 8802   1.169   1.068  16.329  0.5803 -1.0497 -2.1596
  590MPD2    H1 8803   1.521   0.839  16.410 -0.4991  1.4796 -2.7829
  590MPD2    H2 8804   1.188   0.818  16.669  2.2576 -2.8919  0.8468
  590MPD2    H3 8805   1.419   0.758  16.600  0.6433  1.0418 -1.2482
  590MPD2     N 8806   1.397   1.035  16.233  0.3122  0.4068  0.3363
  590MPD2    H5 8807   1.328   1.096  16.191  0.3575 -0.4733 -1.0350
  590MPD2    N1 8808   1.017   0.981  16.522  0.0182 -0.3357  0.2094
  590MPD2    H7 8809   0.970   1.051  16.464  0.2093 -0.2243  0.1903
  591TMC3    C1 8810   1.560   1.134  16.091 -0.8895 -0.1766 -0.1162
  591TMC3    C2 8811   1.681   1.113  16.015 -0.0011  0.0495 -0.5659
  591TMC3    C3 8812   1.714   1.223  15.932 -0.0903 -0.5691 -0.1150
  591TMC3    C4 8813   1.477   1.241  16.075 -0.2133 -0.1202  0.2327
  591TMC3    C5 8814   1.517   1.339  15.982 -0.1314 -0.5341  0.0300
  591TMC3    C6 8815   1.633   1.334  15.912  0.5610 -0.1863 -0.6448
  591TMC3     C 8816   1.524   1.027  16.185  0.1996  0.3127  0.4020
  591TMC3     O 8817   1.618   0.959  16.229  0.2395 -0.0221  0.1604
  591TMC3     H 8818   1.735   1.020  16.008  0.6851  0.2280  2.3501
  591TMC3    H1 8819   1.383   1.254  16.126  0.8188  1.7800  1.6123
  591TMC3    H2 8820   1.646   1.393  15.822 -0.2430  1.1757  0.1406
  591TMC3    C7 8821   1.448   1.462  15.975 -0.2846 -0.6245  1.3155
  591TMC3    C8 8822   1.857   1.227  15.875  0.2788  0.3971  0.1841
  591TMC3    O1 8823   1.335   1.473  16.017  0.2631 -0.2429  0.3530
  591TMC3    O2 8824   1.905   1.116  15.844 -0.0574 -0.2995  0.4335
  592MPD2     C 8825   2.272   3.429  11.525  0.4105 -0.1691  0.7928
  592MPD2    C1 8826   2.280   3.439  11.662  0.4896  0.1059  0.6198
  592MPD2    C2 8827   2.251   3.325  11.737  0.1621  0.3594 -0.7911
  592MPD2    C3 8828   2.214   3.204  11.683  0.3228  0.7522 -0.0201
  592MPD2    C4 8829   2.211   3.195  11.542  0.2871  0.0083  0.3065
  592MPD2    C5 8830   2.239   3.307  11.473  0.1063 -0.3230 -0.3571
  592MPD2     H 8831   2.257   3.325  11.846  0.7062 -1.5634 -0.8254
  592MPD2    H1 8832   2.175   3.106  11.493 -0.4005  0.3180  0.2521
  592MPD2    H2 8833   2.287   3.515  11.460 -2.4468 -0.0306  0.3118
  592MPD2    H3 8834   2.237   3.294  11.365 -2.2948  3.0545 -0.7234
  592MPD2     N 8835   2.179   3.093  11.769 -0.3876 -0.3175  0.0069
  592MPD2    H5 8836   2.188   3.113  11.868  1.8107  0.4398 -0.3331
  592MPD2    N1 8837   2.303   3.567  11.716 -0.1646 -0.0682  0.1424
  592MPD2    H7 8838   2.317   3.645  11.653  1.5957 -0.5745 -0.0946
  593TMC3    C1 8839   2.315   3.748  11.870  0.8749 -0.5145 -0.3283
  593TMC3    C2 8840   2.293   3.790  11.998  0.0884 -0.5198  0.2094
  593TMC3    C3 8841   2.268   3.919  12.024  0.6884 -0.0975  0.7428
  593TMC3    C4 8842   2.320   3.846  11.771  0.7541  0.5237 -0.1740
  593TMC3    C5 8843   2.288   3.974  11.801 -0.6291 -0.0383 -0.1590
  593TMC3    C6 8844   2.258   4.016  11.930  0.1320 -0.1409  0.2264
  593TMC3     C 8845   2.301   3.602  11.847  0.5855 -0.1663 -0.1557
  593TMC3     O 8846   2.273   3.536  11.945 -0.4693 -0.0861  0.1155
  593TMC3     H 8847   2.286   3.715  12.075 -1.7561  2.2680  2.7704
  593TMC3    H1 8848   2.352   3.812  11.674 -2.3696 -2.1315 -0.2868
  593TMC3    H2 8849   2.242   4.121  11.951  0.6484 -0.3512  1.6586
  593TMC3    C7 8850   2.300   4.078  11.704 -0.8654 -0.1703  0.1043
  593TMC3    C8 8851   2.313   3.969  12.155 -0.2873 -0.0018  0.1541
  593TMC3    O1 8852   2.272   4.190  11.746 -0.4014 -0.5974 -1.0815
  593TMC3    O2 8853   2.376   3.891  12.223 -0.7793 -0.6104  0.4031
  594MPD2     C 8854   0.793   1.910  15.124  0.2451 -0.1425 -0.4187
  594MPD2    C1 8855   0.729   1.942  15.005 -0.3127 -0.5658  0.5568
  594MPD2    C2 8856   0.800   2.035  14.925 -0.5048 -0.2413  0.0671
  594MPD2    C3 8857   0.922   2.089  14.969 -0.5775  0.0958  0.3007
  594MPD2    C4 8858   0.979   2.056  15.090  0.4059 -0.1717  0.2524
  594MPD2    C5 8859   0.918   1.959  15.163 -0.7559  0.3386  0.1348
  594MPD2     H 8860   0.758   2.074  14.834 -0.3086 -2.0613 -0.8077
  594MPD2    H1 8861   1.078   2.083  15.125  0.3854 -1.5144  1.3593
  594MPD2    H2 8862   0.747   1.830  15.182 -0.1598 -1.5036 -2.6199
  594MPD2    H3 8863   0.965   1.914  15.250 -1.3622 -2.3957 -0.9544
  594MPD2     N 8864   0.983   2.174  14.869  0.7745 -0.0533 -0.4401
  594MPD2    H5 8865   0.925   2.209  14.794 -0.1481  0.6426  0.5843
  594MPD2    N1 8866   0.612   1.872  14.983 -0.4432 -0.4334  0.1528
  594MPD2    H7 8867   0.588   1.798  15.049  0.3880  0.7793  1.8041
  595TMC3    C1 8868   1.290   2.371  14.591 -0.1374  0.1043 -0.4897
  595TMC3    C2 8869   1.271   2.300  14.709 -0.8425  0.1023 -0.1973
  595TMC3    C3 8870   1.150   2.318  14.773 -0.0204  0.7096  0.4030
  595TMC3    C4 8871   1.208   2.473  14.558 -0.0133  0.2453 -0.0135
  595TMC3    C5 8872   1.086   2.485  14.614  0.0719  0.4037 -0.0909
  595TMC3    C6 8873   1.056   2.405  14.725 -0.8190 -0.0461  0.7460
  595TMC3     C 8874   1.416   2.414  14.573 -0.0858  0.7153 -0.0343
  595TMC3     O 8875   1.458   2.488  14.660 -0.7269 -0.1666  0.3242
  595TMC3     H 8876   1.344   2.232  14.752 -1.4051 -0.9423 -0.9074
  595TMC3    H1 8877   1.254   2.551  14.497  0.1087  1.1133  1.1824
  595TMC3    H2 8878   0.963   2.420  14.779 -1.3420  0.6820 -0.3373
  595TMC3    C7 8879   1.017   2.612  14.614  0.0700  0.0848 -0.0978
  595TMC3    C8 8880   1.123   2.215  14.870 -1.1069  0.7782  0.8865
  595TMC3    O1 8881   0.921   2.617  14.687 -0.6372  0.4890 -0.1534
  595TMC3    O2 8882   1.212   2.153  14.928  0.9944  0.1838  0.0923
  596MPD2     C 8883   4.440   0.016  16.902  0.0033 -0.5289 -0.7241
  596MPD2    C1 8884   4.442   0.146  16.856 -0.4231 -0.1548  1.1051
  596MPD2    C2 8885   4.510   0.169  16.733  0.5348  0.4189  0.2908
  596MPD2    C3 8886   4.570   0.070  16.661 -0.0961 -0.1411  0.2158
  596MPD2    C4 8887   4.551   4.679  16.699 -0.8489  0.4290  0.4555
  596MPD2    C5 8888   4.488   4.665  16.816 -0.7969  0.1931 -0.2748
  596MPD2     H 8889   4.513   0.274  16.706 -2.5230  0.1250 -1.1402
  596MPD2    H1 8890   4.602   4.594  16.656 -0.5564  0.7971  0.0759
  596MPD2    H2 8891   4.391   4.716  16.991 -1.1029 -1.0420 -1.5645
  596MPD2    H3 8892   4.484   4.561  16.845 -3.2509 -0.1825 -1.9867
  596MPD2     N 8893   4.650   0.091  16.542  0.0048  0.1244 -0.6699
  596MPD2    H5 8894   4.684   0.005  16.500  2.5921 -0.3917  2.5083
  596MPD2    N1 8895   4.387   0.253  16.929  0.0056  0.0951  0.3250
  596MPD2    H7 8896   4.410   0.338  16.879  1.2505 -0.9781 -0.9333
  597TMC3    C1 8897   4.286   0.365  17.102 -0.0162  0.0891 -0.2571
  597TMC3    C2 8898   4.348   0.484  17.070  0.5596  0.4627  0.8388
  597TMC3    C3 8899   4.300   0.606  17.110  0.9856  0.1948 -0.7104
  597TMC3    C4 8900   4.160   0.377  17.156 -0.3897 -0.0087  0.2596
  597TMC3    C5 8901   4.113   0.496  17.193 -0.2543  0.1339 -0.5353
  597TMC3    C6 8902   4.182   0.616  17.173 -0.7272 -0.3244  0.8418
  597TMC3     C 8903   4.326   0.237  17.049 -0.1322 -0.2519 -0.2130
  597TMC3     O 8904   4.293   0.137  17.118 -0.0181 -0.2185 -0.3275
  597TMC3     H 8905   4.447   0.489  17.027 -0.5243 -2.1094 -2.0011
  597TMC3    H1 8906   4.105   0.285  17.172 -1.1349  0.4106  0.1103
  597TMC3    H2 8907   4.148   0.709  17.216 -1.4068  0.0004 -0.4047
  597TMC3    C7 8908   3.973   0.497  17.209 -0.2361 -0.3453 -0.2718
  597TMC3    C8 8909   4.346   0.728  17.040  0.5841  0.0068  0.3246
  597TMC3    O1 8910   3.919   0.399  17.257 -0.2488  0.1708 -0.0904
  597TMC3    O2 8911   4.417   0.697  16.943 -0.4870 -0.0654 -0.3391
  598TMC3    C1 8912   2.506   1.714  15.241 -0.0419  0.5279  0.2719
  598TMC3    C2 8913   2.389   1.653  15.206 -0.2708 -0.2215 -0.3318
  598TMC3    C3 8914   2.333   1.668  15.087 -0.0669 -0.0613  0.7178
  598TMC3    C4 8915   2.568   1.791  15.142 -0.2567  1.2306  0.2955
  598TMC3    C5 8916   2.508   1.800  15.020 -0.4116 -0.1765  0.2634
  598TMC3    C6 8917   2.390   1.740  14.981  0.8040  0.1801 -0.2540
  598TMC3     C 8918   2.573   1.690  15.368  1.1039 -0.2870  0.1961
  598TMC3     O 8919   2.496   1.671  15.464  0.1543 -0.2207 -0.2549
  598TMC3     H 8920   2.330   1.591  15.272  1.7313 -3.0437 -1.1714
  598TMC3    H1 8921   2.652   1.853  15.168  0.0319  0.5489  1.0037
  598TMC3    H2 8922   2.348   1.754  14.883 -2.5272 -0.4678  1.0881
  598TMC3    C7 8923   2.571   1.868  14.908 -0.7419 -0.7514 -0.2812
  598TMC3    C8 8924   2.188   1.668  15.074  0.1477  0.0767 -0.1157
  598TMC3    O1 8925   2.557   1.820  14.799  0.6247 -0.4016 -0.3111
  598TMC3    O2 8926   2.143   1.767  15.021  0.0348 -0.2637  0.7697
  599MPD2     C 8927   2.969   4.020  15.354 -0.9017 -0.8116  0.3640
  599MPD2    C1 8928   2.894   3.913  15.411 -0.1027  0.1369  0.3451
  599MPD2    C2 8929   2.798   3.947  15.504  0.0609  0.2921  0.5669
  599MPD2    C3 8930   2.770   4.078  15.542  0.9553 -0.1443  0.1346
  599MPD2    C4 8931   2.851   4.179  15.493  0.1592  0.2041 -0.0115
  599MPD2    C5 8932   2.952   4.146  15.399  0.3456  0.1339  0.0730
  599MPD2     H 8933   2.743   3.869  15.557  1.3312  0.1741  1.7268
  599MPD2    H1 8934   2.844   4.283  15.524 -0.7347  0.7222 -1.9428
  599MPD2    H2 8935   3.044   4.007  15.276 -1.0552  0.9984 -0.0874
  599MPD2    H3 8936   3.011   4.227  15.357 -0.6971  1.0468  0.3489
  599MPD2     N 8937   2.670   4.110  15.632 -0.3786 -0.8519 -0.1896
  599MPD2    H5 8938   2.657   4.210  15.644 -1.1714 -1.0314  0.4240
  599MPD2    N1 8939   2.914   3.785  15.358  0.7392  0.1338  0.1819
  599MPD2    H7 8940   2.980   3.780  15.281  1.2040 -1.6882  0.7151
  600TMC3    C1 8941   2.485   4.093  15.780 -0.2261  1.4029  0.0620
  600TMC3    C2 8942   2.373   4.025  15.800  0.2500 -0.9178 -0.1142
  600TMC3    C3 8943   2.265   4.101  15.827  0.1542  0.1817 -0.8025
  600TMC3    C4 8944   2.494   4.231  15.803  0.0749  0.4999 -0.3623
  600TMC3    C5 8945   2.383   4.303  15.840 -0.6867  0.3575  0.5400
  600TMC3    C6 8946   2.265   4.233  15.844  0.4791  0.5825 -0.1469
  600TMC3     C 8947   2.585   4.026  15.700  0.7702 -0.3059  0.0452
  600TMC3     O 8948   2.567   3.903  15.693  0.1067 -0.2797  0.4532
  600TMC3     H 8949   2.360   3.918  15.793  1.0516 -1.2106  2.7353
  600TMC3    H1 8950   2.587   4.285  15.813 -0.5115  1.2302  1.1693
  600TMC3    H2 8951   2.170   4.284  15.857 -0.7611 -1.8447  0.4862
  600TMC3    C7 8952   2.390   4.433  15.915  0.2028  0.3376  0.8334
  600TMC3    C8 8953   2.140   4.042  15.877 -0.7941  0.1998  0.4958
  600TMC3    O1 8954   2.279   4.491  15.931  0.6145  0.0548  0.4313
  600TMC3    O2 8955   2.037   4.108  15.882 -0.1381 -0.3772  0.3816
  601MPD2     C 8956   4.589   2.187   0.323  0.6719  0.3357 -0.0322
  601MPD2    C1 8957   4.530   2.128   0.219 -0.3417  0.1216 -0.5771
  601MPD2    C2 8958   4.512   1.995   0.225 -0.3847 -0.1693  0.7039
  601MPD2    C3 8959   4.577   1.916   0.319 -0.0057 -0.1023 -0.5424
  601MPD2    C4 8960   4.651   1.983   0.412  0.3089  0.0682 -0.3823
  601MPD2    C5 8961   4.656   2.123   0.413  0.5818  0.5558 -0.4552
  601MPD2     H 8962   4.451   1.952   0.147 -1.7555 -0.2438  1.8158
  601MPD2    H1 8963   4.711   1.931   0.486 -0.3504 -0.8320 -0.4803
  601MPD2    H2 8964   4.587   2.294   0.341 -0.8745  0.2496  0.2460
  601MPD2    H3 8965   4.706   2.177   0.492  2.0938 -0.5308 -0.6627
  601MPD2     N 8966   4.559   1.776   0.344 -0.4233 -0.4236 -0.2557
  601MPD2    H5 8967   4.596   1.746   0.433  0.3047 -0.8690 -0.7115
  601MPD2    N1 8968   4.474   2.205   0.116 -0.0295  0.0197  0.8500
  601MPD2    H7 8969   4.412   2.162   0.048  0.5744 -0.3676  0.5449
  602TMC3    C1 8970   4.475   2.365  17.710  1.2709 -0.1550 -0.9092
  602TMC3    C2 8971   4.557   2.434  17.625 -0.5709  0.1290  0.7335
  602TMC3    C3 8972   4.513   2.485  17.508  0.6389 -0.0572 -0.0763
  602TMC3    C4 8973   4.343   2.358  17.681 -0.2155  0.2221 -0.4114
  602TMC3    C5 8974   4.303   2.412  17.565  0.6769  0.0187  0.3105
  602TMC3    C6 8975   4.384   2.473  17.472 -0.1743 -0.3888  1.3758
  602TMC3     C 8976   4.526   2.330   0.084  0.2681 -0.8000  0.6235
  602TMC3     O 8977   4.616   2.396   0.137 -0.1672  0.1507  0.0720
  602TMC3     H 8978   4.660   2.448  17.655 -0.5483 -1.4479  1.3873
  602TMC3    H1 8979   4.273   2.316  17.753 -0.6448  2.4286  0.4634
  602TMC3    H2 8980   4.347   2.501  17.374 -0.5802 -0.2807  1.5588
  602TMC3    C7 8981   4.162   2.404  17.548 -0.0699 -0.5039  0.0869
  602TMC3    C8 8982   4.588   2.590  17.436 -0.8772 -0.7121  0.0055
  602TMC3    O1 8983   4.101   2.317  17.606 -0.4792  0.2111  0.3204
  602TMC3    O2 8984   4.710   2.575  17.428 -0.6742 -0.2134 -0.4125
  603TMC3    C1 8985   2.759   3.348  11.509 -0.6261  0.0865  0.0414
  603TMC3    C2 8986   2.833   3.261  11.582 -0.3738 -0.4234  0.6608
  603TMC3    C3 8987   2.936   3.308  11.657  0.4942 -0.3561  0.6703
  603TMC3    C4 8988   2.798   3.479  11.498 -0.2741  0.0049 -0.2828
  603TMC3    C5 8989   2.912   3.517  11.563  0.3992 -0.2258 -0.1385
  603TMC3    C6 8990   2.987   3.435  11.643 -0.5895 -0.0018 -0.0627
  603TMC3     C 8991   2.676   3.294  11.407 -0.3483 -0.1094  0.2447
  603TMC3     O 8992   2.679   3.362  11.301 -0.4616  0.5041 -0.1327
  603TMC3     H 8993   2.798   3.159  11.597  0.5356 -1.1861 -2.4672
  603TMC3    H1 8994   2.731   3.544  11.443  1.2790  0.5588 -1.4974
  603TMC3    H2 8995   3.050   3.477  11.721  0.0167  3.1590 -2.2213
  603TMC3    C7 8996   2.979   3.630  11.509  0.7907 -0.2046 -0.6108
  603TMC3    C8 8997   3.011   3.215  11.738 -0.5508  0.0832  0.3651
  603TMC3    O1 8998   3.065   3.684  11.575  0.4083  0.1535 -0.0685
  603TMC3    O2 8999   2.959   3.106  11.759  0.0099 -0.2163 -0.0019
  604MPD2     C 9000   3.629   1.503  16.375 -0.1634 -0.7993  0.3828
  604MPD2    C1 9001   3.532   1.442  16.299 -0.1955  0.1901 -0.2775
  604MPD2    C2 9002   3.570   1.389  16.178  0.3683  0.4229  0.2277
  604MPD2    C3 9003   3.703   1.393  16.140 -0.6173  0.3715 -0.2302
  604MPD2    C4 9004   3.794   1.455  16.217 -0.2169 -0.7826 -0.3977
  604MPD2    C5 9005   3.755   1.515  16.331  0.4917  0.3077 -0.1560
  604MPD2     H 9006   3.500   1.331  16.118  1.5256  0.7491 -1.4179
  604MPD2    H1 9007   3.895   1.477  16.184 -0.7505  0.4102 -1.2465
  604MPD2    H2 9008   3.604   1.536  16.475  0.2572 -0.9878  0.5526
  604MPD2    H3 9009   3.828   1.563  16.395  0.1999 -0.3497  0.6669
  604MPD2     N 9010   3.735   1.341  16.011 -0.0832  1.2696 -0.3536
  604MPD2    H5 9011   3.660   1.327  15.944  0.2491 -2.5046  0.0609
  604MPD2    N1 9012   3.404   1.423  16.369 -0.1421  0.7582 -0.4493
  604MPD2    H7 9013   3.390   1.455  16.464 -2.3134  0.8316 -0.7927
  605TMC3    C1 9014   3.174   1.404  16.385  0.2185  0.3258  0.9300
  605TMC3    C2 9015   3.197   1.391  16.518  0.3817  0.2228  0.4567
  605TMC3    C3 9016   3.140   1.483  16.602 -0.1783  0.0208 -0.2614
  605TMC3    C4 9017   3.082   1.491  16.338  0.0349 -0.0578  0.1876
  605TMC3    C5 9018   3.009   1.564  16.429 -0.4041 -1.0581  0.0595
  605TMC3    C6 9019   3.038   1.565  16.562  0.1653  0.1676 -0.0893
  605TMC3     C 9020   3.288   1.396  16.303  0.6547 -0.4472 -0.1699
  605TMC3     O 9021   3.273   1.427  16.185 -0.3188 -0.4019 -0.3141
  605TMC3     H 9022   3.273   1.327  16.562 -0.2135 -1.2833 -0.6882
  605TMC3    H1 9023   3.078   1.507  16.231 -1.1526  1.0815  0.4027
  605TMC3    H2 9024   2.986   1.637  16.624 -0.4330  0.4363 -0.9069
  605TMC3    C7 9025   2.898   1.647  16.388 -0.3332  0.5096  0.1191
  605TMC3    C8 9026   3.253   1.545  16.665 -0.4668 -0.2405 -0.0294
  605TMC3    O1 9027   2.849   1.719  16.474 -0.7041  0.2801  0.3997
  605TMC3    O2 9028   3.360   1.521  16.613  0.2545  0.1836  0.7056
  606TMC3    C1 9029   3.937   4.736  17.624  0.4619 -0.2172 -0.2563
  606TMC3    C2 9030   3.951   4.691  17.753  0.3463 -0.0514  0.2790
  606TMC3    C3 9031   3.934   4.559   0.026 -0.0621  0.0944  0.6794
  606TMC3    C4 9032   3.931   4.652  17.521 -0.0837  0.0467  0.5541
  606TMC3    C5 9033   3.933   4.515  17.546  0.6172  0.1785  0.2862
  606TMC3    C6 9034   3.928   4.468  17.677  0.6776  0.8012  0.4559
  606TMC3     C 9035   3.985   0.136  17.587 -0.0211  0.0780  0.0656
  606TMC3     O 9036   3.955   0.163  17.471  0.4355 -0.5175 -0.1123
  606TMC3     H 9037   4.000   0.008   0.077  0.4872  1.5114 -0.9327
  606TMC3    H1 9038   3.924   4.687  17.419 -1.0488  1.4481  1.1120
  606TMC3    H2 9039   3.954   4.364  17.693 -0.7661  0.8188  2.9287
  606TMC3    C7 9040   3.988   4.424  17.442  0.0771 -0.7302  0.2581
  606TMC3    C8 9041   4.041   4.516   0.111  0.1991  0.0292 -0.6300
  606TMC3    O1 9042   4.075   4.466  17.365 -0.0650  0.1343 -0.1504
  606TMC3    O2 9043   4.151   4.566   0.093 -0.5799 -1.1196  0.0650
  607MPD2     C 9044   2.467   2.833  11.797  0.0543  0.6658  0.4719
  607MPD2    C1 9045   2.497   2.892  11.922  0.0536  0.4285 -0.9428
  607MPD2    C2 9046   2.468   2.817  12.039  0.2865  0.4669 -0.2394
  607MPD2    C3 9047   2.394   2.700  12.042  0.3947 -0.0086  0.3190
  607MPD2    C4 9048   2.366   2.647  11.918  0.0633  0.7391 -0.0778
  607MPD2    C5 9049   2.409   2.707  11.803 -0.2282  0.5746  0.0889
  607MPD2     H 9050   2.501   2.861  12.132  0.7653 -1.4900  0.5274
  607MPD2    H1 9051   2.310   2.554  11.910 -1.0606  1.3658  0.4729
  607MPD2    H2 9052   2.490   2.885  11.704  1.6519 -1.1106 -0.1072
  607MPD2    H3 9053   2.396   2.656  11.708 -1.1542 -1.3181  1.2309
  607MPD2     N 9054   2.356   2.647  12.164 -0.5709  0.2526 -0.7536
  607MPD2    H5 9055   2.367   2.706  12.246  2.3563  0.6831 -1.4682
  607MPD2    N1 9056   2.565   3.011  11.943 -0.2149 -0.1066 -0.0676
  607MPD2    H7 9057   2.554   3.041  12.039  1.5823 -0.6032  0.2907
  608TMC3    C1 9058   2.680   3.212  11.910 -0.4824 -0.6998  0.4849
  608TMC3    C2 9059   2.730   3.187  12.039 -0.1324  0.4688  0.1349
  608TMC3    C3 9060   2.769   3.297  12.110 -0.1677 -0.6742 -0.3643
  608TMC3    C4 9061   2.667   3.332  11.859  0.1871 -0.5468 -0.8461
  608TMC3    C5 9062   2.700   3.435  11.937 -0.7890 -0.8966  0.2767
  608TMC3    C6 9063   2.760   3.422  12.059 -0.2967  0.2861  0.0701
  608TMC3     C 9064   2.606   3.099  11.840 -0.3720  0.3991  0.6584
  608TMC3     O 9065   2.601   3.095  11.722 -0.4033 -0.6085 -0.1741
  608TMC3     H 9066   2.760   3.087  12.067  1.5994  0.7224 -0.8472
  608TMC3    H1 9067   2.621   3.345  11.761  0.3556 -0.9243 -0.9741
  608TMC3    H2 9068   2.813   3.502  12.108  0.6324  0.1038 -0.6385
  608TMC3    C7 9069   2.679   3.564  11.872  0.8848  0.1408 -0.2382
  608TMC3    C8 9070   2.787   3.288  12.257 -0.1612 -0.1567 -0.1239
  608TMC3    O1 9071   2.638   3.578  11.757 -0.0556  0.0279  0.2474
  608TMC3    O2 9072   2.837   3.384  12.319  0.2083  0.0251  0.6939
  609TMC3    C1 9073   1.377   1.720   9.336  0.4514  0.5756  0.1258
  609TMC3    C2 9074   1.287   1.659   9.250 -0.3277 -0.4407 -0.5384
  609TMC3    C3 9075   1.343   1.593   9.145  0.0044 -0.2856 -0.0427
  609TMC3    C4 9076   1.511   1.729   9.310 -0.0186  0.6099 -0.0941
  609TMC3    C5 9077   1.567   1.667   9.200 -0.5115  0.6226 -0.1471
  609TMC3    C6 9078   1.484   1.594   9.118  0.0717 -0.5215 -0.1050
  609TMC3     C 9079   1.321   1.794   9.449 -0.1554 -0.3040  0.4107
  609TMC3     O 9080   1.204   1.837   9.436  0.1294  0.0624 -0.3495
  609TMC3     H 9081   1.183   1.648   9.279 -0.1284 -0.3219  0.2186
  609TMC3    H1 9082   1.582   1.787   9.368  1.2414 -1.1725  0.1799
  609TMC3    H2 9083   1.520   1.545   9.028 -2.4805  1.1622 -2.0389
  609TMC3    C7 9084   1.713   1.652   9.200 -0.0375 -0.2043 -0.4042
  609TMC3    C8 9085   1.270   1.510   9.052  0.4053  0.0464  0.6119
  609TMC3    O1 9086   1.777   1.734   9.270 -0.1469  0.5000 -0.0771
  609TMC3    O2 9087   1.326   1.429   8.977 -0.2329  0.0978 -0.1821
  610TMC3    C1 9088   3.084   2.954  12.614 -0.2943  0.0518 -0.4757
  610TMC3    C2 9089   3.019   2.965  12.489 -0.8390 -0.7117 -0.9677
  610TMC3    C3 9090   2.942   2.854  12.444 -0.9442 -0.8739 -0.1438
  610TMC3    C4 9091   3.077   2.839  12.685  0.0028  0.1927  0.0555
  610TMC3    C5 9092   2.994   2.741  12.633  0.5474  0.9148  0.7451
  610TMC3    C6 9093   2.925   2.745  12.516  0.4866  0.3316 -0.0917
  610TMC3     C 9094   3.159   3.065  12.667  0.5988  1.1044  0.6382
  610TMC3     O 9095   3.214   3.042  12.775  0.0383  0.3715 -0.6698
  610TMC3     H 9096   3.049   3.043  12.420 -1.6930 -2.2443 -3.0583
  610TMC3    H1 9097   3.124   2.835  12.782 -1.3292  0.8958  0.7357
  610TMC3    H2 9098   2.851   2.670  12.488  1.3188 -0.0190 -1.3412
  610TMC3    C7 9099   2.929   2.663  12.732  0.3610  0.1492  0.9184
  610TMC3    C8 9100   2.915   2.862  12.301  0.0265 -0.1606  0.4140
  610TMC3    O1 9101   2.805   2.653  12.728 -0.0813 -0.0278 -0.0846
  610TMC3    O2 9102   2.959   2.955  12.230 -0.3897  0.4680  0.3970
  611MPD2     C 9103   2.305   3.255  10.799 -0.0446  0.0372  0.6226
  611MPD2    C1 9104   2.363   3.219  10.680 -0.8501 -0.1290 -0.0789
  611MPD2    C2 9105   2.482   3.289  10.645  0.3304  0.3824  0.7665
  611MPD2    C3 9106   2.541   3.380  10.735 -0.3895 -0.0113 -0.1536
  611MPD2    C4 9107   2.489   3.401  10.864 -0.5683 -0.2834  0.1307
  611MPD2    C5 9108   2.368   3.338  10.890 -0.1842 -0.4941 -0.0145
  611MPD2     H 9109   2.508   3.294  10.540  2.1192 -1.1561  1.1396
  611MPD2    H1 9110   2.520   3.467  10.944 -0.7714  0.6426 -0.5599
  611MPD2    H2 9111   2.220   3.192  10.825 -1.9834  2.1079 -0.7437
  611MPD2    H3 9112   2.321   3.368  10.983 -0.6541 -2.4656  0.3937
  611MPD2     N 9113   2.649   3.461  10.701  0.4354  0.2711 -0.4124
  611MPD2    H5 9114   2.683   3.525  10.772  0.6723  1.5707 -1.7052
  611MPD2    N1 9115   2.287   3.151  10.587 -0.2278  0.4314  0.7328
  611MPD2    H7 9116   2.192   3.126  10.614  0.6398 -1.3417  2.1250
  612TMC3    C1 9117   2.812   3.594  10.590  0.2905 -0.3881  0.2746
  612TMC3    C2 9118   2.870   3.636  10.709  0.4442 -0.0367  0.6528
  612TMC3    C3 9119   2.957   3.742  10.696  0.0926 -0.8172  0.0118
  612TMC3    C4 9120   2.843   3.653  10.467 -0.6397  0.3310  0.0840
  612TMC3    C5 9121   2.935   3.753  10.462 -0.7152  0.4678  0.3132
  612TMC3    C6 9122   2.997   3.794  10.572 -0.9267 -0.5761 -0.1634
  612TMC3     C 9123   2.710   3.488  10.583  0.6082  0.2694  0.4818
  612TMC3     O 9124   2.679   3.443  10.472  0.2876  0.9210  0.2926
  612TMC3     H 9125   2.851   3.577  10.798 -1.7265  0.2891  0.4173
  612TMC3    H1 9126   2.788   3.622  10.380 -1.5895  0.4410  0.6508
  612TMC3    H2 9127   3.060   3.882  10.581  0.0176 -1.3903  1.1883
  612TMC3    C7 9128   2.995   3.780  10.332  0.6322  0.3323 -0.5005
  612TMC3    C8 9129   3.014   3.811  10.816 -0.5197  0.0038 -0.0011
  612TMC3    O1 9130   2.923   3.764  10.232 -0.7374  0.1384 -0.1035
  612TMC3    O2 9131   3.072   3.918  10.803 -0.3464  0.2387  0.4345
  613MPD2     C 9132   1.537   0.575  16.799  0.7541 -0.0089  0.2664
  613MPD2    C1 9133   1.520   0.460  16.728 -0.4188  0.4602 -0.5272
  613MPD2    C2 9134   1.405   0.389  16.746  0.6123 -0.3474  0.5136
  613MPD2    C3 9135   1.305   0.422  16.836  0.5834  0.5113  0.4200
  613MPD2    C4 9136   1.325   0.537  16.910 -0.6142  0.3222 -0.1508
  613MPD2    C5 9137   1.443   0.616  16.892  0.1851 -0.1453 -0.1903
  613MPD2     H 9138   1.384   0.298  16.691 -3.0116 -0.0088  1.3119
  613MPD2    H1 9139   1.245   0.584  16.966  0.2862 -1.6221  2.8005
  613MPD2    H2 9140   1.607   0.650  16.766  2.1973 -1.6679 -0.4090
  613MPD2    H3 9141   1.450   0.715  16.936 -1.1310  0.7625 -2.0088
  613MPD2     N 9142   1.189   0.339  16.851 -0.7776 -0.0615 -0.3001
  613MPD2    H5 9143   1.118   0.376  16.914 -0.3377 -2.0613  1.3645
  613MPD2    N1 9144   1.616   0.422  16.627  0.5331 -0.2379  0.5545
  613MPD2    H7 9145   1.685   0.492  16.601 -2.4659  2.2564 -0.7451
  614TMC3    C1 9146   1.736   0.299  16.458  0.1023 -0.2714 -0.3491
  614TMC3    C2 9147   1.729   0.172  16.408 -0.1384 -0.5142  0.8742
  614TMC3    C3 9148   1.675   0.155  16.286  0.2906  0.3505 -1.0315
  614TMC3    C4 9149   1.723   0.410  16.368 -0.6110  0.2217 -0.5913
  614TMC3    C5 9150   1.660   0.385  16.247 -0.0164 -0.7853 -0.3547
  614TMC3    C6 9151   1.633   0.258  16.208  0.3537  0.3545  0.6682
  614TMC3     C 9152   1.620   0.302  16.555 -0.1146  0.2093  0.1486
  614TMC3     O 9153   1.569   0.194  16.580  0.0924  1.3632  0.4025
  614TMC3     H 9154   1.763   0.088  16.467  0.1954 -1.7516 -1.0942
  614TMC3    H1 9155   1.726   0.513  16.402  0.4207 -0.5696  1.6963
  614TMC3    H2 9156   1.612   0.225  16.107  1.0213 -0.2971  0.7393
  614TMC3    C7 9157   1.632   0.505  16.160 -0.1381 -0.0970  0.0547
  614TMC3    C8 9158   1.609   0.024  16.273  0.0680  0.2888  0.0018
  614TMC3    O1 9159   1.689   0.607  16.197  0.2703 -0.6531  0.0599
  614TMC3    O2 9160   1.561   4.724  16.167  0.7948  0.1984 -0.7021
  615MPD2     C 9161   0.157   1.680  16.061 -0.0819 -0.3588 -0.0735
  615MPD2    C1 9162   0.028   1.739  16.054  0.1250 -0.3500 -0.7888
  615MPD2    C2 9163   4.693   1.737  15.942  0.1258  0.0537  0.2683
  615MPD2    C3 9164   0.011   1.695  15.825  0.8227  0.2707 -0.2274
  615MPD2    C4 9165   0.143   1.656  15.824  0.2214 -0.2101  0.1686
  615MPD2    C5 9166   0.213   1.646  15.941  0.1345 -0.3543 -0.0105
  615MPD2     H 9167   4.593   1.777  15.939  0.1035 -0.0038  0.2402
  615MPD2    H1 9168   0.198   1.634  15.733  0.7160  2.8554 -0.2874
  615MPD2    H2 9169   0.213   1.683  16.154 -0.3231 -0.9004  0.0888
  615MPD2    H3 9170   0.314   1.609  15.949 -0.0155 -0.7379  0.1248
  615MPD2     N 9171   4.687   1.709  15.702 -0.3303 -0.3832  0.4615
  615MPD2    H5 9172   0.007   1.713  15.620  0.0429  3.0040  0.8819
  615MPD2    N1 9173   4.709   1.809  16.159 -0.2764 -0.3795  0.1757
  615MPD2    H7 9174   4.619   1.852  16.139  0.4609  0.0691 -2.1936
  616TMC3    C1 9175   4.722   1.969  16.319  0.5652 -0.5790  0.3927
  616TMC3    C2 9176   0.067   2.076  16.330  0.0041  0.5603  0.0370
  616TMC3    C3 9177   0.009   2.193  16.331  0.6643  0.6301 -0.1336
  616TMC3    C4 9178   4.588   1.976  16.313 -0.2527  0.1977  0.6291
  616TMC3    C5 9179   4.533   2.104  16.301 -0.6267  0.2150  0.1277
  616TMC3    C6 9180   4.614   2.212  16.323 -0.6678 -0.3035 -0.3921
  616TMC3     C 9181   0.043   1.847  16.272 -0.2781 -0.1850 -0.0409
  616TMC3     O 9182   0.156   1.822  16.313  0.9534 -0.2457  0.0021
  616TMC3     H 9183   0.170   2.059  16.302 -0.1539 -0.8895  0.3486
  616TMC3    H1 9184   4.520   1.892  16.321  0.2767 -0.2630  0.2538
  616TMC3    H2 9185   4.578   2.315  16.321 -2.7244 -1.0032  0.0764
  616TMC3    C7 9186   4.389   2.116  16.310 -0.4568 -0.7196  0.3620
  616TMC3    C8 9187   0.098   2.308  16.320 -0.1608  0.2754  0.2419
  616TMC3    O1 9188   4.336   2.033  16.385 -0.3236 -0.0995  0.1418
  616TMC3    O2 9189   0.053   2.404  16.263  0.2203  0.2633  0.5193
  617MPD2     C 9190   3.568   0.330  13.624  0.1494 -0.4790 -0.1710
  617MPD2    C1 9191   3.638   0.282  13.734 -0.8480  0.1485 -1.2055
  617MPD2    C2 9192   3.571   0.241  13.849  0.6792  0.7256 -0.7324
  617MPD2    C3 9193   3.437   0.242  13.867  0.0500  0.3392 -0.2337
  617MPD2    C4 9194   3.369   0.295  13.757 -0.2734  0.8971 -0.0255
  617MPD2    C5 9195   3.431   0.338  13.643  0.2935  0.0560  0.1296
  617MPD2     H 9196   3.633   0.203  13.929 -2.4312 -1.7957  0.5275
  617MPD2    H1 9197   3.263   0.317  13.755 -0.5490 -0.3203  1.2708
  617MPD2    H2 9198   3.616   0.366  13.534 -0.1240  0.3412  0.0075
  617MPD2    H3 9199   3.361   0.375  13.569 -0.5334 -2.5719 -0.3850
  617MPD2     N 9200   3.362   0.199  13.980  0.3601 -0.0140 -0.8382
  617MPD2    H5 9201   3.263   0.221  13.983  0.4601  0.3083  0.0119
  617MPD2    N1 9202   3.782   0.269  13.720  0.0899  0.1195 -0.4580
  617MPD2    H7 9203   3.819   0.309  13.634  1.3086  0.2642  0.1284
  618TMC3    C1 9204   4.003   0.228  13.764  0.1997 -0.2878  0.1052
  618TMC3    C2 9205   4.092   0.118  13.775 -0.2612  0.3685  0.7851
  618TMC3    C3 9206   4.199   0.142  13.696 -0.0002 -0.1921 -0.4099
  618TMC3    C4 9207   4.015   0.341  13.687  0.8963 -0.4679 -0.1985
  618TMC3    C5 9208   4.125   0.353  13.617  0.2881 -0.6873  0.8482
  618TMC3    C6 9209   4.221   0.254  13.613 -0.1656 -0.3519  0.5356
  618TMC3     C 9210   3.870   0.201  13.807 -0.4030 -0.3863 -0.6839
  618TMC3     O 9211   3.850   0.146  13.911  0.5193  0.1428 -0.3549
  618TMC3     H 9212   4.061   0.030  13.829  0.2776  0.3125  1.0004
  618TMC3    H1 9213   3.956   0.431  13.695  2.6155  0.5576  0.8845
  618TMC3    H2 9214   4.303   0.268  13.544  0.9224 -0.3239  1.8179
  618TMC3    C7 9215   4.095   0.418  13.495 -0.0540  0.0564 -1.2863
  618TMC3    C8 9216   4.256   0.023  13.643 -0.4659 -0.0484  0.4150
  618TMC3    O1 9217   3.976   0.413  13.467 -0.4546  0.0683 -0.3234
  618TMC3    O2 9218   4.182   4.666  13.623  0.1210 -0.1334 -0.1617
  619MPD2     C 9219   4.330   1.824  13.122 -0.3360 -0.2249  0.1827
  619MPD2    C1 9220   4.260   1.925  13.183  0.1301 -0.7187  0.2098
  619MPD2    C2 9221   4.173   1.890  13.285 -0.3965 -0.2269  0.5520
  619MPD2    C3 9222   4.162   1.759  13.325  0.5921 -0.0858 -0.0934
  619MPD2    C4 9223   4.239   1.660  13.261  0.2848 -0.0800 -0.0062
  619MPD2    C5 9224   4.322   1.696  13.165 -0.2740  0.2906 -0.5133
  619MPD2     H 9225   4.115   1.973  13.324  0.5751  0.2650  0.9600
  619MPD2    H1 9226   4.236   1.558  13.299  1.8929 -0.5708 -1.2068
  619MPD2    H2 9227   4.407   1.847  13.049 -1.1003  1.4879 -0.0674
  619MPD2    H3 9228   4.374   1.616  13.114 -1.0391 -1.3327  1.2259
  619MPD2     N 9229   4.068   1.727  13.432  0.1915  0.1636  0.2825
  619MPD2    H5 9230   4.073   1.639  13.483  0.7049 -1.0356 -1.8414
  619MPD2    N1 9231   4.260   2.058  13.137  0.4332 -0.5407 -0.4788
  619MPD2    H7 9232   4.192   2.121  13.178  1.0006 -0.7431  0.7574
  620TMC3    C1 9233   4.304   2.249  13.010  0.3978 -0.4542 -0.2202
  620TMC3    C2 9234   4.265   2.319  13.124 -0.6857 -0.2543 -0.1954
  620TMC3    C3 9235   4.324   2.444  13.151 -0.1195 -0.4194  0.0200
  620TMC3    C4 9236   4.398   2.306  12.930 -0.3333  1.0979  0.5377
  620TMC3    C5 9237   4.442   2.429  12.955  0.2999  0.3247 -0.0473
  620TMC3    C6 9238   4.411   2.500  13.067 -0.0412  1.0601  0.2404
  620TMC3     C 9239   4.323   2.107  13.022 -0.3625 -0.2899  0.9328
  620TMC3     O 9240   4.388   2.043  12.946  0.4361 -0.1015  0.1439
  620TMC3     H 9241   4.190   2.281  13.192  0.5077 -2.5727 -0.1680
  620TMC3    H1 9242   4.447   2.240  12.858 -1.0995 -0.9743  1.8978
  620TMC3    H2 9243   4.452   2.600  13.071 -1.0457  1.4209  1.5668
  620TMC3    C7 9244   4.573   2.471  12.908  0.7053  0.6308  0.2447
  620TMC3    C8 9245   4.325   2.489  13.291 -0.2361  0.0030  0.4368
  620TMC3    O1 9246   4.649   2.524  12.986 -0.4376 -0.0240  0.1016
  620TMC3    O2 9247   4.322   2.398  13.366  0.0561 -0.1745 -0.0183
  621MPD2     C 9248   1.139   1.246   9.862 -0.5999  0.8399 -0.3516
  621MPD2    C1 9249   1.147   1.266   9.999 -0.1721 -0.3442  0.1124
  621MPD2    C2 9250   1.252   1.323  10.058  0.1298 -0.3810 -0.1510
  621MPD2    C3 9251   1.352   1.387   9.979 -0.0927 -0.1120 -0.0560
  621MPD2    C4 9252   1.346   1.360   9.842 -0.0126 -0.4483  0.3199
  621MPD2    C5 9253   1.242   1.290   9.789 -0.0380 -0.0935  0.4327
  621MPD2     H 9254   1.253   1.332  10.166  0.4809  0.1108 -0.1917
  621MPD2    H1 9255   1.426   1.392   9.776 -0.3252  0.6823  0.4953
  621MPD2    H2 9256   1.052   1.200   9.818 -1.4465  1.1309  1.0299
  621MPD2    H3 9257   1.253   1.267   9.684 -1.5704 -1.2997  0.5413
  621MPD2     N 9258   1.448   1.471  10.038  0.4352 -0.4606  0.0001
  621MPD2    H5 9259   1.442   1.475  10.139  1.0006 -1.7341  0.0876
  621MPD2    N1 9260   1.047   1.217  10.087 -0.0183 -0.2159  0.4518
  621MPD2    H7 9261   1.063   1.232  10.186  0.4606 -0.9325  0.4819
  622TMC3    C1 9262   0.866   1.132  10.186 -0.9041 -0.5543 -0.2643
  622TMC3    C2 9263   0.928   1.129  10.307 -0.2682  0.0884 -1.0151
  622TMC3    C3 9264   0.853   1.096  10.413 -0.4171 -0.5498  0.5760
  622TMC3    C4 9265   0.726   1.123  10.171  0.6245  0.1375  0.1651
  622TMC3    C5 9266   0.655   1.081  10.283  0.1385  0.5352 -0.6646
  622TMC3    C6 9267   0.719   1.069  10.403  0.6127 -0.1195  0.2924
  622TMC3     C 9268   0.936   1.149  10.061 -0.0217  0.2314 -0.6703
  622TMC3     O 9269   0.875   1.142   9.954  0.1369  0.3989  0.0663
  622TMC3     H 9270   1.034   1.137  10.330 -0.8791  1.5341  1.3330
  622TMC3    H1 9271   0.675   1.157  10.081 -1.3241 -0.1353  1.1720
  622TMC3    H2 9272   0.665   1.030  10.489 -0.8229 -0.8523 -0.9284
  622TMC3    C7 9273   0.516   1.127  10.288  0.2916 -0.2074 -0.0562
  622TMC3    C8 9274   0.872   1.187  10.524  0.0802  0.2965 -0.7746
  622TMC3    O1 9275   0.442   1.082  10.374 -0.0419 -0.1858  0.5068
  622TMC3    O2 9276   0.984   1.192  10.569 -0.5119 -0.7026  0.0370
  623MPD2     C 9277   3.651   1.736  15.845 -1.2139  0.2504 -0.0928
  623MPD2    C1 9278   3.574   1.782  15.947  0.1906  0.6581 -0.0428
  623MPD2    C2 9279   3.625   1.799  16.072  0.2561 -0.5114 -0.0664
  623MPD2    C3 9280   3.759   1.784  16.098  0.4129 -0.9802 -0.2362
  623MPD2    C4 9281   3.831   1.733  15.992  0.2327 -0.1782  0.1451
  623MPD2    C5 9282   3.779   1.718  15.869  0.1427 -0.9557  0.0369
  623MPD2     H 9283   3.563   1.847  16.148 -3.0531 -0.4919 -2.7776
  623MPD2    H1 9284   3.935   1.712  16.013  0.6692  0.1443 -1.7218
  623MPD2    H2 9285   3.620   1.708  15.745  1.2706 -0.3490 -0.7045
  623MPD2    H3 9286   3.841   1.672  15.792 -0.1921 -0.8766 -0.2825
  623MPD2     N 9287   3.804   1.817  16.225 -0.1729 -0.1308  0.0085
  623MPD2    H5 9288   3.739   1.830  16.301 -0.1882  0.2168 -0.0653
  623MPD2    N1 9289   3.439   1.804  15.930 -0.2225 -0.0952 -0.1424
  623MPD2    H7 9290   3.383   1.833  16.010  0.6758  2.4884 -0.4404
  624TMC3    C1 9291   4.041   1.872  16.603  0.3669 -0.3897 -0.0509
  624TMC3    C2 9292   3.917   1.882  16.666 -0.1760  0.5441  0.0514
  624TMC3    C3 9293   3.809   1.913  16.588  0.2163  0.6189 -0.1991
  624TMC3    C4 9294   4.053   1.876  16.469 -0.0898  0.2483  0.7092
  624TMC3    C5 9295   3.935   1.900  16.400  0.4728  0.1290  0.0369
  624TMC3    C6 9296   3.811   1.912  16.452 -0.9454  0.4519  0.2090
  624TMC3     C 9297   4.156   1.853  16.688 -0.1492 -0.0155 -0.9864
  624TMC3     O 9298   4.142   1.782  16.787  0.0233  0.2855  0.2553
  624TMC3     H 9299   3.904   1.861  16.772  1.7997 -1.5952 -0.1324
  624TMC3    H1 9300   4.146   1.890  16.415  0.0267  2.3042  1.4329
  624TMC3    H2 9301   3.719   1.938  16.401 -1.2930 -0.9856  0.1010
  624TMC3    C7 9302   3.928   1.843  16.265  0.5574  1.0681  0.0099
  624TMC3    C8 9303   3.687   1.845  16.629 -0.3472 -0.3596 -0.5194
  624TMC3    O1 9304   4.025   1.832  16.193  0.0115 -0.1128  0.1717
  624TMC3    O2 9305   3.626   1.782  16.546 -0.5377  0.2871 -0.4274
  625MPD2     C 9306   3.734   2.665   0.493  0.5310  0.2578 -0.2427
  625MPD2    C1 9307   3.759   2.785   0.560  0.4229 -0.2850 -0.5052
  625MPD2    C2 9308   3.870   2.797   0.644  0.0168 -0.0504 -0.2040
  625MPD2    C3 9309   3.957   2.685   0.656  0.5821 -0.1703 -0.4055
  625MPD2    C4 9310   3.922   2.564   0.590 -0.1321 -0.0708  0.9719
  625MPD2    C5 9311   3.813   2.555   0.504 -0.3947  0.4712  0.9701
  625MPD2     H 9312   3.892   2.882   0.707 -3.2769 -0.2160  1.1836
  625MPD2    H1 9313   3.991   2.480   0.593  0.0124  0.0334  0.5768
  625MPD2    H2 9314   3.652   2.653   0.422  0.3664  1.4464 -0.2425
  625MPD2    H3 9315   3.792   2.468   0.443  3.4079  0.2828 -0.0641
  625MPD2     N 9316   4.072   2.706   0.738  0.1793 -0.2250 -0.1116
  625MPD2    H5 9317   4.088   2.800   0.772  0.9627 -0.6181  0.6033
  625MPD2    N1 9318   3.686   2.900   0.539  0.2901  0.3163 -0.0921
  625MPD2    H7 9319   3.722   2.986   0.578 -1.0451  1.7634 -2.1126
  626TMC3    C1 9320   3.532   3.044   0.437 -0.7294 -0.0233  0.2634
  626TMC3    C2 9321   3.491   3.071   0.306  0.1546 -0.1805 -0.0909
  626TMC3    C3 9322   3.429   3.191   0.288  0.2272 -0.2916 -0.2776
  626TMC3    C4 9323   3.521   3.129   0.542  0.4603 -0.5129  0.0313
  626TMC3    C5 9324   3.463   3.250   0.514  0.4876 -0.1328  0.0625
  626TMC3    C6 9325   3.403   3.276   0.390 -0.1432  0.2773  0.4390
  626TMC3     C 9326   3.575   2.909   0.463  0.3790 -0.0168 -0.1107
  626TMC3     O 9327   3.519   2.821   0.398 -0.9081  0.0087  0.5293
  626TMC3     H 9328   3.507   2.999   0.227 -1.2323  0.3507 -0.8514
  626TMC3    H1 9329   3.547   3.100   0.643  0.3851  1.2118  0.5379
  626TMC3    H2 9330   3.373   3.379   0.379  3.5117  1.2512 -0.5862
  626TMC3    C7 9331   3.460   3.350   0.620  0.7725  0.1487  0.4823
  626TMC3    C8 9332   3.397   3.241   0.154  0.5227 -0.5994 -0.0600
  626TMC3    O1 9333   3.537   3.337   0.714 -0.4327 -0.0601  0.3625
  626TMC3    O2 9334   3.478   3.231   0.062 -0.2739 -0.0001  0.3011
  627MPD2     C 9335   2.799   3.887  14.567 -0.1186 -0.1354  0.2894
  627MPD2    C1 9336   2.867   3.788  14.629  0.3144 -0.4964 -0.4293
  627MPD2    C2 9337   2.805   3.660  14.640 -0.4711 -0.1687 -0.3505
  627MPD2    C3 9338   2.672   3.639  14.601  0.3440 -0.8012 -0.0916
  627MPD2    C4 9339   2.613   3.740  14.534  0.6357  0.3074 -0.5665
  627MPD2    C5 9340   2.671   3.862  14.516  0.4208  0.3123  0.1898
  627MPD2     H 9341   2.857   3.582  14.695  1.7908  0.9870 -0.8449
  627MPD2    H1 9342   2.517   3.726  14.486  0.3774  0.2880 -0.0318
  627MPD2    H2 9343   2.843   3.985  14.555  2.1419 -0.9472  2.0235
  627MPD2    H3 9344   2.608   3.932  14.463 -0.9828 -0.8148  0.3835
  627MPD2     N 9345   2.594   3.522  14.631 -0.4117 -0.1376 -0.0673
  627MPD2    H5 9346   2.495   3.534  14.613 -0.1180 -0.9607 -2.2682
  627MPD2    N1 9347   3.001   3.798  14.677  0.0695 -0.2837 -0.0332
  627MPD2    H7 9348   3.043   3.711  14.708 -0.3922 -1.2158 -2.0372
  628TMC3    C1 9349   3.214   3.890  14.755  0.4496 -0.2117  0.1789
  628TMC3    C2 9350   3.287   3.769  14.739  0.4619  0.1485  0.3761
  628TMC3    C3 9351   3.415   3.764  14.787  0.0500  0.0872  0.1603
  628TMC3    C4 9352   3.281   4.009  14.791 -0.1255  0.0334  0.2497
  628TMC3    C5 9353   3.410   4.001  14.827  0.3517 -0.0369 -0.4665
  628TMC3    C6 9354   3.477   3.881  14.829 -0.0175  1.1596 -0.1136
  628TMC3     C 9355   3.083   3.905  14.687  0.7322 -0.5720  0.2150
  628TMC3     O 9356   3.057   4.024  14.660  0.2193 -0.3181  0.4207
  628TMC3     H 9357   3.237   3.693  14.680 -0.5828  1.0712  0.0575
  628TMC3    H1 9358   3.231   4.105  14.801 -0.8551 -0.4430  1.1568
  628TMC3    H2 9359   3.585   3.885  14.832  0.0656 -1.8514  0.7016
  628TMC3    C7 9360   3.502   4.114  14.837  0.3303  0.0210  0.0245
  628TMC3    C8 9361   3.506   3.656  14.733  0.2993 -0.1854  0.8727
  628TMC3    O1 9362   3.608   4.093  14.892  0.3754  0.0145 -0.0211
  628TMC3    O2 9363   3.460   3.586  14.645 -0.3437  0.1484 -0.6472
  629MPD2     C 9364   0.570   2.508  16.299 -0.1948  0.3236 -0.3221
  629MPD2    C1 9365   0.582   2.378  16.327  0.4024 -0.0164  0.5069
  629MPD2    C2 9366   0.470   2.305  16.351 -1.0727 -0.2153 -0.4857
  629MPD2    C3 9367   0.337   2.358  16.331 -0.1630  0.4962  0.5882
  629MPD2    C4 9368   0.333   2.483  16.280  0.0150 -0.0429  0.8095
  629MPD2    C5 9369   0.454   2.559  16.260 -0.1572  0.4612 -0.2435
  629MPD2     H 9370   0.481   2.207  16.395 -1.0217  1.0181  2.2590
  629MPD2    H1 9371   0.243   2.543  16.270  0.0129  0.0779  1.5443
  629MPD2    H2 9372   0.663   2.564  16.291 -0.1362  0.3550  0.5704
  629MPD2    H3 9373   0.458   2.663  16.230  1.8914  0.6916  0.7915
  629MPD2     N 9374   0.222   2.271  16.356  0.4312 -0.4885  0.3438
  629MPD2    H5 9375   0.245   2.178  16.387 -0.0938 -1.0474 -0.9410
  629MPD2    N1 9376   0.710   2.327  16.359 -0.3881 -0.3291 -0.0081
  629MPD2    H7 9377   0.784   2.395  16.370 -0.0166 -1.1177  2.3489
  630TMC3    C1 9378   0.892   2.197  16.414  0.4347  0.1895  0.5532
  630TMC3    C2 9379   0.979   2.283  16.352  0.3575 -0.4635  0.3207
  630TMC3    C3 9380   1.112   2.264  16.376  0.0634 -0.0682  0.5940
  630TMC3    C4 9381   0.934   2.089  16.486  0.3005  0.1120  0.6824
  630TMC3    C5 9382   1.068   2.061  16.501  0.5992  0.2104  0.5967
  630TMC3    C6 9383   1.156   2.156  16.444  0.5101  0.0447  0.8089
  630TMC3     C 9384   0.752   2.199  16.386  0.3388 -0.1498  0.6379
  630TMC3     O 9385   0.686   2.101  16.407  0.0766 -0.6752 -0.8830
  630TMC3     H 9386   0.955   2.353  16.273 -1.3245  0.4338  1.6166
  630TMC3    H1 9387   0.857   2.048  16.551 -1.2281 -0.7020 -1.6169
  630TMC3    H2 9388   1.264   2.154  16.453  0.2863 -1.5514  3.2191
  630TMC3    C7 9389   1.116   1.950  16.582  0.2659  0.1627  0.3676
  630TMC3    C8 9390   1.201   2.382  16.390  0.0283 -0.3774  0.1846
  630TMC3    O1 9391   1.235   1.958  16.614 -0.7041  0.4846  0.0465
  630TMC3    O2 9392   1.324   2.368  16.387  0.3597 -0.4515 -0.1437
  631MPD2     C 9393   3.781   2.181  15.558 -0.2692 -0.6528 -0.0305
  631MPD2    C1 9394   3.891   2.257  15.505  0.1111  0.2257  0.0407
  631MPD2    C2 9395   4.012   2.195  15.492  0.2501  0.0637  0.0002
  631MPD2    C3 9396   4.022   2.057  15.514 -0.1488 -0.2791  0.1802
  631MPD2    C4 9397   3.915   1.984  15.554  0.2842 -0.0289 -0.1524
  631MPD2    C5 9398   3.793   2.049  15.571 -0.5089 -0.2153  0.3112
  631MPD2     H 9399   4.095   2.251  15.453  0.5626 -0.4356 -0.0461
  631MPD2    H1 9400   3.920   1.878  15.577 -0.3478  0.3157  1.5238
  631MPD2    H2 9401   3.679   2.217  15.565  0.1105  0.0440  1.9375
  631MPD2    H3 9402   3.704   1.991  15.589 -1.4968  1.8452  2.0880
  631MPD2     N 9403   4.146   1.999  15.477 -0.2650 -1.1240  1.0118
  631MPD2    H5 9404   4.218   2.056  15.433  0.6637 -0.9757  2.7465
  631MPD2    N1 9405   3.871   2.391  15.474  0.3033  0.5072 -0.3089
  631MPD2    H7 9406   3.793   2.446  15.511 -0.5882 -1.6794  1.0131
  632TMC3    C1 9407   3.958   2.618  15.419  0.1718  0.4285  0.4846
  632TMC3    C2 9408   3.910   2.669  15.537 -1.1317  0.0227  0.5773
  632TMC3    C3 9409   3.963   2.784  15.585 -0.2985 -0.1867  1.4007
  632TMC3    C4 9410   4.057   2.674  15.348  0.7326  0.1182  0.1122
  632TMC3    C5 9411   4.109   2.786  15.405  0.7020  0.4787 -0.1407
  632TMC3    C6 9412   4.064   2.846  15.517 -0.6912 -0.8413  0.6069
  632TMC3     C 9413   3.962   2.472  15.402 -0.2441 -0.2756 -0.2476
  632TMC3     O 9414   4.055   2.441  15.332  0.2560  0.6380  0.2347
  632TMC3     H 9415   3.840   2.603  15.587 -0.0474 -0.6639  1.1910
  632TMC3    H1 9416   4.086   2.641  15.249 -1.4048  0.3676 -0.6020
  632TMC3    H2 9417   4.100   2.943  15.548  0.5729 -1.1745  0.1782
  632TMC3    C7 9418   4.251   2.807  15.369 -0.0107 -0.1907 -0.7760
  632TMC3    C8 9419   3.856   2.874  15.620 -0.0970  0.5586  0.1020
  632TMC3    O1 9420   4.335   2.845  15.446 -0.4160  0.0229 -0.3015
  632TMC3    O2 9421   3.789   2.836  15.715  0.4176 -0.0077  0.2818
  633MPD2     C 9422   3.678   4.599  17.210 -0.2907  0.0407  0.1093
  633MPD2    C1 9423   3.733   4.546  17.098 -0.0179 -0.5427 -0.4504
  633MPD2    C2 9424   3.690   4.425  17.045 -0.3516 -0.7076 -0.2182
  633MPD2    C3 9425   3.587   4.359  17.099 -0.4180 -0.1069 -0.3306
  633MPD2    C4 9426   3.539   4.402  17.218  0.5405 -0.5972 -0.6086
  633MPD2    C5 9427   3.580   4.522  17.273  0.0470  0.3693 -0.8859
  633MPD2     H 9428   3.746   4.385  16.961 -0.5053  0.1081 -0.7114
  633MPD2    H1 9429   3.462   4.336  17.258  1.2767 -0.1911  1.4770
  633MPD2    H2 9430   3.714   4.688  17.261  0.3125 -0.5549  0.7269
  633MPD2    H3 9431   3.532   4.545  17.368  2.4454 -1.2855  0.7239
  633MPD2     N 9432   3.538   4.230  17.051 -0.2724  0.7364  0.0366
  633MPD2    H5 9433   3.471   4.176  17.106  1.6871 -1.6626  0.0463
  633MPD2    N1 9434   3.836   4.611  17.028 -0.1745  0.2318 -0.0182
  633MPD2    H7 9435   3.856   4.573  16.936 -2.9791  0.4609 -0.7319
  634TMC3    C1 9436   3.978   0.036  16.946  0.0523  0.0327  0.3389
  634TMC3    C2 9437   4.042   4.681  16.871  0.4074  0.1898  0.2188
  634TMC3    C3 9438   4.106   4.724  16.762 -0.3544  0.4180 -0.3368
  634TMC3    C4 9439   3.983   0.170  16.915 -0.2515 -0.0169 -0.2265
  634TMC3    C5 9440   4.056   0.209  16.808 -0.1932  0.4628  0.0133
  634TMC3    C6 9441   4.125   0.122  16.735 -0.2710  0.5381  0.1623
  634TMC3     C 9442   3.896   4.729  17.058  0.0951  0.5502 -0.0166
  634TMC3     O 9443   3.872   0.066  17.152 -0.4335 -0.9530 -0.8270
  634TMC3     H 9444   4.033   4.576  16.898 -2.7966  0.7365  1.2691
  634TMC3    H1 9445   3.924   0.232  16.980  1.8986  1.8014 -0.0145
  634TMC3    H2 9446   4.168   0.160  16.643 -0.4887 -0.0359 -0.1735
  634TMC3    C7 9447   4.024   0.332  16.740 -0.8381 -0.3466 -0.4242
  634TMC3    C8 9448   4.147   4.623  16.661  0.0743 -0.0923 -1.2514
  634TMC3    O1 9449   4.103   0.376  16.655  0.1380 -0.4649  0.0135
  634TMC3    O2 9450   4.121   4.505  16.685  0.1068 -0.3202 -0.6627
  635TMC3    C1 9451   3.731   0.795   0.196 -0.2756 -0.6857  0.1028
  635TMC3    C2 9452   3.688   0.708   0.105 -0.0200 -0.2890  0.5520
  635TMC3    C3 9453   3.649   0.583   0.152 -0.0421 -0.9433  0.6623
  635TMC3    C4 9454   3.747   0.753   0.324 -0.1457  0.5595 -0.2957
  635TMC3    C5 9455   3.689   0.641   0.363  0.3871  0.2742 -0.0658
  635TMC3    C6 9456   3.643   0.543   0.279 -0.0531  0.0275 -0.5082
  635TMC3     C 9457   3.833   0.899   0.165  0.3513 -0.2697 -0.2089
  635TMC3     O 9458   3.920   0.912   0.252  0.1360  0.4164  0.2705
  635TMC3     H 9459   3.700   0.736   0.001 -1.7087  0.0059  0.4369
  635TMC3    H1 9460   3.779   0.823   0.400  2.6735  1.3981 -2.2393
  635TMC3    H2 9461   3.600   0.446   0.303 -0.4325  0.8616  2.2322
  635TMC3    C7 9462   3.644   0.629   0.503  0.1733 -0.0481  0.6661
  635TMC3    C8 9463   3.631   0.491   0.044 -0.1421 -0.2320  0.6437
  635TMC3    O1 9464   3.635   0.739   0.560  0.4844  0.7646 -0.5702
  635TMC3    O2 9465   3.635   0.532  17.683  0.1583  0.2395  0.4066
  636MPD2     C 9466   0.487   0.601  16.458  0.5735 -0.3200 -0.3115
  636MPD2    C1 9467   0.497   0.601  16.596  0.0213  0.0049 -0.9154
  636MPD2    C2 9468   0.567   0.499  16.660 -0.0099  0.2393 -0.3366
  636MPD2    C3 9469   0.633   0.408  16.590  0.1404  1.0477 -0.0782
  636MPD2    C4 9470   0.618   0.399  16.454  0.0963  0.3456  0.5785
  636MPD2    C5 9471   0.550   0.501  16.390  0.0266  0.4475  0.3640
  636MPD2     H 9472   0.564   0.496  16.768  0.7146  1.2802 -0.2900
  636MPD2    H1 9473   0.657   0.316  16.396  0.7052  0.5984  0.6239
  636MPD2    H2 9474   0.419   0.659  16.396  0.7455  1.3732  1.0916
  636MPD2    H3 9475   0.542   0.477  16.285  0.8656  1.7487  0.0101
  636MPD2     N 9476   0.704   0.311  16.661  0.0359  0.1734 -0.5648
  636MPD2    H5 9477   0.707   0.328  16.761 -1.3168 -1.6178 -0.2158
  636MPD2    N1 9478   0.422   0.692  16.675  0.2452  0.0183 -0.0510
  636MPD2    H7 9479   0.430   0.685  16.776 -0.6156  3.0440  0.2442
  637TMC3    C1 9480   0.839   0.133  16.706 -0.5390 -1.0682  0.1416
  637TMC3    C2 9481   0.932   0.213  16.775 -0.3444 -0.2606  0.3940
  637TMC3    C3 9482   1.037   0.154  16.837  0.0672 -0.2135  0.1215
  637TMC3    C4 9483   0.858   4.739  16.697 -0.2041  0.4748  0.0874
  637TMC3    C5 9484   0.968   4.680  16.751 -0.1254 -0.1926 -0.5034
  637TMC3    C6 9485   1.054   0.013  16.825  0.0250  0.0709  0.0779
  637TMC3     C 9486   0.747   0.188  16.614 -0.7798  0.1764  0.4124
  637TMC3     O 9487   0.735   0.135  16.506  0.1931  0.2631 -0.3189
  637TMC3     H 9488   0.926   0.321  16.779  0.1889 -0.2392  0.5541
  637TMC3    H1 9489   0.797   4.680  16.630  0.3093 -0.5627  0.5330
  637TMC3    H2 9490   1.140   4.704  16.871  0.3021 -1.1233 -1.6751
  637TMC3    C7 9491   1.025   4.591  16.655  0.6288  0.4853  0.0582
  637TMC3    C8 9492   1.163   0.207  16.808 -0.2906  0.3318  0.3635
  637TMC3    O1 9493   0.964   4.504  16.597 -0.0704  0.4992 -0.2271
  637TMC3    O2 9494   1.234   0.127  16.753 -0.4938  0.1200  0.0091
  638MPD2     C 9495   0.420   4.247  14.640  0.4616  0.8119  0.4594
  638MPD2    C1 9496   0.370   4.137  14.573 -0.2382 -0.3164 -0.1400
  638MPD2    C2 9497   0.377   4.011  14.634 -0.0962 -0.2206 -1.0550
  638MPD2    C3 9498   0.437   3.989  14.760  0.4241  0.1161 -0.4150
  638MPD2    C4 9499   0.494   4.095  14.825 -0.1532 -0.1640  0.6366
  638MPD2    C5 9500   0.484   4.215  14.760  0.6033 -0.3474  1.0163
  638MPD2     H 9501   0.345   3.926  14.576  1.5202 -1.3837 -0.2220
  638MPD2    H1 9502   0.534   4.084  14.924  0.2405 -1.1036  0.3741
  638MPD2    H2 9503   0.433   4.348  14.603  0.1923  0.2430 -1.1688
  638MPD2    H3 9504   0.524   4.294  14.822 -0.2455  1.8635 -1.2523
  638MPD2     N 9505   0.425   3.857  14.807  0.1468  0.2859  0.5547
  638MPD2    H5 9506   0.367   3.795  14.752  1.3408 -0.0969 -0.2688
  638MPD2    N1 9507   0.309   4.145  14.444  0.0795  0.1975  0.3658
  638MPD2    H7 9508   0.275   4.057  14.407 -0.9480  0.1007  1.5486
  639TMC3    C1 9509   0.433   3.678  14.954  0.4656  0.4368  0.1673
  639TMC3    C2 9510   0.297   3.661  14.929  0.0769  0.1000  1.0089
  639TMC3    C3 9511   0.237   3.550  14.982  0.0226 -0.2444 -0.6922
  639TMC3    C4 9512   0.506   3.590  15.026  0.1805 -0.1579  0.2859
  639TMC3    C5 9513   0.443   3.483  15.077  0.1407 -0.5647 -0.5874
  639TMC3    C6 9514   0.312   3.461  15.054 -0.5243 -0.4699  0.0467
  639TMC3     C 9515   0.484   3.810  14.918 -0.4334 -0.7019 -0.1124
  639TMC3     O 9516   0.570   3.864  14.984 -0.6068 -0.9963  0.3878
  639TMC3     H 9517   0.243   3.730  14.865  2.1267  0.5436 -0.2306
  639TMC3    H1 9518   0.612   3.605  15.045 -0.1909  0.7151  1.6737
  639TMC3    H2 9519   0.256   3.371  15.077 -2.4845  0.5517 -0.7278
  639TMC3    C7 9520   0.515   3.387  15.150 -0.3023  0.5008  0.4297
  639TMC3    C8 9521   0.116   3.509  14.924  0.4724 -1.0395  0.5238
  639TMC3    O1 9522   0.467   3.345  15.254  0.0152  0.1819  0.2726
  639TMC3    O2 9523   0.097   3.550  14.812 -0.1175  0.1382 -0.0973
  640MPD2     C 9524   1.640   2.837   9.812  0.2620 -0.2159  0.6979
  640MPD2    C1 9525   1.525   2.756   9.802  0.0116  0.4923  0.4216
  640MPD2    C2 9526   1.403   2.800   9.854  0.4511  0.6170 -0.1515
  640MPD2    C3 9527   1.402   2.926   9.926 -0.0492 -0.1516  0.4061
  640MPD2    C4 9528   1.516   3.000   9.933 -0.2412  0.7038 -0.4496
  640MPD2    C5 9529   1.631   2.951   9.880  0.6250 -0.1995 -0.0836
  640MPD2     H 9530   1.314   2.738   9.857  0.9967 -0.1615 -0.1882
  640MPD2    H1 9531   1.539   3.086   9.996 -0.6530 -0.4065  1.2292
  640MPD2    H2 9532   1.739   2.805   9.780  1.0165  1.1961  1.6091
  640MPD2    H3 9533   1.721   3.007   9.899 -1.1025  2.2135  0.9121
  640MPD2     N 9534   1.295   2.981  10.004  0.5709 -0.3359  0.1120
  640MPD2    H5 9535   1.314   3.064  10.058 -2.0878 -1.4558  2.7837
  640MPD2    N1 9536   1.548   2.628   9.741 -0.7520  0.2626 -0.9594
  640MPD2    H7 9537   1.644   2.601   9.726 -1.2234 -1.5129 -0.8030
  641TMC3    C1 9538   1.487   2.418   9.648 -0.0705 -0.3383 -0.3212
  641TMC3    C2 9539   1.606   2.356   9.683 -0.3868  0.3573 -0.0102
  641TMC3    C3 9540   1.634   2.238   9.618  0.0458 -0.5297 -0.2717
  641TMC3    C4 9541   1.387   2.366   9.563  0.1468 -0.2002  0.3082
  641TMC3    C5 9542   1.426   2.251   9.505  0.0657  0.9646  0.8326
  641TMC3    C6 9543   1.549   2.188   9.521  0.5140 -0.1814 -0.0710
  641TMC3     C 9544   1.445   2.542   9.712  0.5794 -0.3838 -0.1521
  641TMC3     O 9545   1.323   2.553   9.710  0.1221 -0.3465 -0.1805
  641TMC3     H 9546   1.676   2.399   9.755 -0.0755 -2.2967  1.2685
  641TMC3    H1 9547   1.287   2.406   9.558  0.1037 -0.3362  0.0689
  641TMC3    H2 9548   1.569   2.090   9.479 -0.2741  0.7319 -2.5776
  641TMC3    C7 9549   1.330   2.206   9.409  0.4474  0.0999  0.1226
  641TMC3    C8 9550   1.766   2.169   9.627  0.0063 -0.4299 -1.1600
  641TMC3    O1 9551   1.217   2.255   9.412 -0.1775 -0.2490  0.2927
  641TMC3    O2 9552   1.781   2.056   9.575 -0.8161  0.5372  0.0850
  642TMC3    C1 9553   1.935   3.914  12.440  0.4991  0.2925  0.5518
  642TMC3    C2 9554   2.020   3.954  12.536  0.0382  0.4536 -0.3722
  642TMC3    C3 9555   2.127   3.872  12.566 -0.6211  0.2118  0.0550
  642TMC3    C4 9556   1.954   3.795  12.368 -0.6812 -0.4988  0.4137
  642TMC3    C5 9557   2.058   3.719  12.403  0.4014  0.6909  0.5474
  642TMC3    C6 9558   2.151   3.755  12.505 -0.0383 -0.4749  0.2017
  642TMC3     C 9559   1.814   3.989  12.418  0.1002 -0.3625 -0.1165
  642TMC3     O 9560   1.799   4.078  12.496  0.1188  0.4207 -0.2073
  642TMC3     H 9561   2.013   4.053  12.579 -0.2815 -0.5568  1.8652
  642TMC3    H1 9562   1.888   3.754  12.291  0.4845 -0.2546 -0.7202
  642TMC3    H2 9563   2.243   3.701  12.524  0.3106  0.2921  0.6739
  642TMC3    C7 9564   2.059   3.583  12.355  0.8271 -0.1236 -0.3188
  642TMC3    C8 9565   2.223   3.921  12.655  0.1087 -0.2399  0.1030
  642TMC3    O1 9566   2.003   3.563  12.246 -0.2634 -0.0241  0.5529
  642TMC3    O2 9567   2.331   3.864  12.647 -0.0269 -0.3324  0.4084
  643TMC3    C1 9568   1.287   2.604  17.576  0.5653  0.4507  0.1923
  643TMC3    C2 9569   1.162   2.605  17.519  0.6541 -0.5039  0.3593
  643TMC3    C3 9570   1.117   2.735  17.473  0.2190  0.4595 -0.0271
  643TMC3    C4 9571   1.386   2.702  17.563  0.4736  0.2911 -0.3299
  643TMC3    C5 9572   1.351   2.810  17.492 -0.5490  0.4047  0.2083
  643TMC3    C6 9573   1.216   2.830  17.453  0.0969  0.5772  0.0260
  643TMC3     C 9574   1.313   2.500  17.680 -0.0693  0.4057  0.0155
  643TMC3     O 9575   1.263   2.393  17.658 -0.3193  0.4255 -0.6994
  643TMC3     H 9576   1.097   2.519  17.527  0.4284 -0.1997  1.7061
  643TMC3    H1 9577   1.487   2.676  17.591  0.6256 -0.8596 -1.9122
  643TMC3    H2 9578   1.183   2.921  17.404 -1.1274 -0.7526 -1.6023
  643TMC3    C7 9579   1.445   2.919  17.480 -0.1654 -0.0386 -0.4776
  643TMC3    C8 9580   0.990   2.729  17.409  0.2029  0.2045  1.2542
  643TMC3    O1 9581   1.542   2.909  17.549  0.6392  0.0002  0.1836
  643TMC3    O2 9582   0.931   2.619  17.410  0.1122  0.0675  0.1379
  644MPD2     C 9583   1.050   3.011   9.491 -0.0827 -0.7629 -1.2070
  644MPD2    C1 9584   1.165   3.076   9.462  0.2099 -0.5309  0.2645
  644MPD2    C2 9585   1.167   3.215   9.440  0.3260  0.3546  0.2233
  644MPD2    C3 9586   1.045   3.283   9.441 -0.2368  0.0744 -0.0336
  644MPD2    C4 9587   0.932   3.221   9.482 -0.2891 -0.5473  0.6130
  644MPD2    C5 9588   0.938   3.092   9.513 -0.7018  0.5167 -0.2127
  644MPD2     H 9589   1.247   3.274   9.398 -0.6767  0.8731 -0.9972
  644MPD2    H1 9590   0.832   3.261   9.493  0.4992  1.9423 -1.1655
  644MPD2    H2 9591   1.040   2.910   9.529 -0.1505 -1.1532 -2.2477
  644MPD2    H3 9592   0.844   3.047   9.545 -1.2779  0.9947 -1.2184
  644MPD2     N 9593   1.050   3.417   9.406 -0.4129  0.3857  0.1721
  644MPD2    H5 9594   1.141   3.444   9.369 -1.0668 -1.0460 -2.4327
  644MPD2    N1 9595   1.281   2.998   9.437 -0.4909  0.0627  0.1852
  644MPD2    H7 9596   1.279   2.897   9.436  1.9588  0.0062  1.7504
  645TMC3    C1 9597   0.967   3.628   9.352 -0.0605  0.0506  0.1623
  645TMC3    C2 9598   1.090   3.682   9.383  0.6946  0.0796 -0.2320
  645TMC3    C3 9599   1.107   3.817   9.348  0.3037 -0.3689 -0.6649
  645TMC3    C4 9600   0.861   3.699   9.291  0.4601  0.2645 -0.0459
  645TMC3    C5 9601   0.878   3.827   9.266  0.6262  0.2900  0.6451
  645TMC3    C6 9602   0.998   3.883   9.294 -0.8258  0.1352  0.4566
  645TMC3     C 9603   0.936   3.497   9.401  0.1774  0.1315 -0.0210
  645TMC3     O 9604   0.816   3.478   9.428  0.3403  0.1332 -0.1774
  645TMC3     H 9605   1.154   3.625   9.449  1.1096  0.4334 -0.3275
  645TMC3    H1 9606   0.777   3.641   9.254  0.7460 -0.0746 -0.1581
  645TMC3    H2 9607   1.022   3.975   9.242 -1.1230 -0.2690 -0.3907
  645TMC3    C7 9608   0.774   3.896   9.189  0.3730  0.1903 -0.0870
  645TMC3    C8 9609   1.233   3.884   9.360 -0.8680 -0.0747 -0.3167
  645TMC3    O1 9610   0.816   4.006   9.157  0.5659  0.1333 -0.1426
  645TMC3    O2 9611   1.219   4.005   9.379  0.2714  0.4765 -0.1485
  646MPD2     C 9612   0.573   2.709  14.633  0.3970 -0.8237  1.0048
  646MPD2    C1 9613   0.468   2.710  14.725  0.1018 -0.1463  0.9757
  646MPD2    C2 9614   0.348   2.763  14.680 -0.4780 -0.0314  1.0612
  646MPD2    C3 9615   0.328   2.813  14.545  0.1175  0.4895 -0.0111
  646MPD2    C4 9616   0.434   2.791  14.451 -0.2970  0.0907 -0.1368
  646MPD2    C5 9617   0.552   2.740  14.502  0.0950  0.1596 -0.2243
  646MPD2     H 9618   0.266   2.786  14.746 -2.7581 -0.5987 -1.5878
  646MPD2    H1 9619   0.432   2.813  14.345 -2.7116  0.8372  0.0727
  646MPD2    H2 9620   0.673   2.687  14.667  1.2564 -3.1433 -3.0094
  646MPD2    H3 9621   0.640   2.750  14.440 -0.6259  2.6293 -0.8390
  646MPD2     N 9622   0.210   2.884  14.510 -0.4228 -0.2506 -0.1237
  646MPD2    H5 9623   0.130   2.874  14.571 -1.5118  0.9310 -1.3571
  646MPD2    N1 9624   0.498   2.686  14.861  0.0163  0.2072  0.2504
  646MPD2    H7 9625   0.595   2.659  14.878 -0.2661 -0.2511  1.1667
  647TMC3    C1 9626   0.485   2.698  15.088 -0.5639  0.4020  0.0519
  647TMC3    C2 9627   0.422   2.621  15.184  0.1176  0.2073  0.0955
  647TMC3    C3 9628   0.501   2.587  15.294  0.7866 -0.0858 -0.1064
  647TMC3    C4 9629   0.611   2.744  15.100  0.1694  0.0817 -0.6538
  647TMC3    C5 9630   0.679   2.717  15.210  0.0279  0.4587 -0.3614
  647TMC3    C6 9631   0.622   2.637  15.311 -0.4168  0.0335  0.0284
  647TMC3     C 9632   0.409   2.696  14.961  0.9143  0.7219 -0.2410
  647TMC3     O 9633   0.288   2.709  14.954 -0.7382  0.4293  0.3270
  647TMC3     H 9634   0.315   2.606  15.182  0.4235 -1.7027 -1.0134
  647TMC3    H1 9635   0.655   2.796  15.015  0.5733  1.7624  0.6003
  647TMC3    H2 9636   0.681   2.600  15.394 -2.4170 -1.8753  0.6183
  647TMC3    C7 9637   0.820   2.696  15.203  0.8227  0.5710  0.6525
  647TMC3    C8 9638   0.485   2.457  15.362  0.3867  0.0457 -0.3713
  647TMC3    O1 9639   0.871   2.633  15.294  0.2041 -0.3018  0.2576
  647TMC3    O2 9640   0.545   2.434  15.463  0.1151 -0.1786 -0.3917
  648TMC3    C1 9641   4.704   0.177  16.337 -0.0199  0.1792 -0.3069
  648TMC3    C2 9642   0.018   0.056  16.303 -0.0046  0.0217 -0.6177
  648TMC3    C3 9643   0.039   0.023  16.168  0.3281  0.1712 -0.8477
  648TMC3    C4 9644   4.662   0.264  16.236 -0.4539 -0.4319 -0.5266
  648TMC3    C5 9645   4.678   0.227  16.106 -0.4621 -0.2486 -0.2588
  648TMC3    C6 9646   4.723   0.100  16.075 -0.0631  0.4265  0.3582
  648TMC3     C 9647   4.660   0.213  16.471  0.2749  0.1304 -0.4294
  648TMC3     O 9648   4.627   0.329  16.504 -0.3232 -0.1500  0.3658
  648TMC3     H 9649   0.023   4.714  16.376  1.0415 -1.1743 -2.0195
  648TMC3    H1 9650   4.634   0.364  16.267 -2.7178 -0.7416 -1.5839
  648TMC3    H2 9651   4.737   0.073  15.971  0.5835 -0.7769  0.7605
  648TMC3    C7 9652   4.635   0.326  16.001  0.4313 -0.1994  0.5254
  648TMC3    C8 9653   0.060   4.619  16.132 -0.6632  0.0342 -0.4501
  648TMC3    O1 9654   4.686   0.314  15.890  0.4505  0.3321  0.5356
  648TMC3    O2 9655   0.030   4.536  16.221 -0.7144 -0.1435  0.1954
  649TMC3    C1 9656   3.994   1.575  12.788  0.4466 -0.4109  0.6847
  649TMC3    C2 9657   4.024   1.695  12.854 -0.4082 -1.1342  0.0676
  649TMC3    C3 9658   3.963   1.717  12.974  0.1100 -0.3971 -0.3619
  649TMC3    C4 9659   3.905   1.485  12.832 -0.5181 -0.6187 -0.4491
  649TMC3    C5 9660   3.847   1.512  12.950  0.0567 -0.2038 -0.7329
  649TMC3    C6 9661   3.882   1.619  13.029  0.1444 -0.8170 -0.3850
  649TMC3     C 9662   3.996   1.576  12.641 -0.1169  0.1670  0.0875
  649TMC3     O 9663   3.896   1.528  12.589 -0.5550 -0.2399 -0.4087
  649TMC3     H 9664   4.105   1.755  12.814 -2.6893  0.8572 -1.5633
  649TMC3    H1 9665   3.878   1.397  12.774  0.3123 -2.0488  1.3093
  649TMC3    H2 9666   3.828   1.640  13.121  1.2255 -0.2933  0.1279
  649TMC3    C7 9667   3.765   1.413  13.013 -0.1541  0.3553  0.1168
  649TMC3    C8 9668   3.948   1.852  13.029  0.8587 -0.3147  0.0846
  649TMC3    O1 9669   3.703   1.453  13.115  0.4303  0.5041 -0.1358
  649TMC3    O2 9670   3.882   1.873  13.132  0.6823 -0.5328 -0.2256
  650TMC3    C1 9671   1.697   3.486  12.945 -0.4203 -0.9490 -0.5897
  650TMC3    C2 9672   1.652   3.614  12.987 -0.6833 -0.3042  0.5059
  650TMC3    C3 9673   1.659   3.711  12.892  0.2674 -0.2158 -0.0706
  650TMC3    C4 9674   1.744   3.468  12.819 -0.1064 -0.5975  0.4254
  650TMC3    C5 9675   1.748   3.575  12.736 -0.3937 -0.3307  0.7079
  650TMC3    C6 9676   1.710   3.690  12.776 -0.0489 -0.0262 -0.3696
  650TMC3     C 9677   1.727   3.387  13.053 -1.1835  0.1717  0.7189
  650TMC3     O 9678   1.728   3.430  13.165 -0.2158  0.7332  0.6648
  650TMC3     H 9679   1.623   3.631  13.090 -0.3795 -2.2435  0.9168
  650TMC3    H1 9680   1.776   3.368  12.792 -0.0864 -0.2593 -0.8282
  650TMC3    H2 9681   1.711   3.772  12.705 -2.5349 -0.2560 -0.6971
  650TMC3    C7 9682   1.757   3.541  12.595  0.6565 -0.3749 -0.6391
  650TMC3    C8 9683   1.568   3.822  12.886 -0.0648  0.2445 -0.0888
  650TMC3    O1 9684   1.802   3.431  12.556  0.0757 -0.8803 -0.4453
  650TMC3    O2 9685   1.520   3.843  12.776  0.0553  0.0196  0.2317
  651MPD2     C 9686   0.457   0.088  10.430 -0.2725 -0.2042 -0.1808
  651MPD2    C1 9687   0.472   0.229  10.440 -0.1663  0.3086  0.2966
  651MPD2    C2 9688   0.588   0.284  10.382 -0.2547  0.7742 -0.7652
  651MPD2    C3 9689   0.688   0.203  10.328  0.3867  0.1425 -0.1271
  651MPD2    C4 9690   0.676   0.064  10.329 -0.2983 -0.4503  0.2910
  651MPD2    C5 9691   0.557   0.004  10.385 -0.8313  0.8756 -0.1246
  651MPD2     H 9692   0.596   0.391  10.396  1.0682  0.5256  0.3388
  651MPD2    H1 9693   0.752   4.737  10.289 -2.0880 -0.4976 -3.0831
  651MPD2    H2 9694   0.372   0.029  10.462 -0.3337  0.2490  0.5065
  651MPD2    H3 9695   0.545   4.636  10.384  0.0864  0.7786 -0.9230
  651MPD2     N 9696   0.795   0.272  10.274 -0.1701 -0.2175  0.2343
  651MPD2    H5 9697   0.787   0.373  10.275  1.9419 -0.0448 -2.2624
  651MPD2    N1 9698   0.374   0.317  10.495 -0.4282 -0.0154  0.0810
  651MPD2    H7 9699   0.392   0.416  10.502  1.5914 -0.3107 -0.8959
  652TMC3    C1 9700   1.192   0.448  10.300  0.4755  0.0160  0.1998
  652TMC3    C2 9701   1.119   0.335  10.302  0.4283  0.1037  0.4282
  652TMC3    C3 9702   1.010   0.318  10.217 -0.1633 -0.2991  0.1861
  652TMC3    C4 9703   1.141   0.565  10.244  0.1139  0.1771  0.4915
  652TMC3    C5 9704   1.018   0.557  10.183  0.3054 -0.0451 -0.1848
  652TMC3    C6 9705   0.959   0.432  10.160 -0.1715 -0.5520 -0.8105
  652TMC3     C 9706   1.291   0.469  10.401 -0.2910  0.4771 -0.4054
  652TMC3     O 9707   1.274   0.410  10.505  0.1449  0.4579 -0.0748
  652TMC3     H 9708   1.161   0.253  10.359 -0.1791 -0.5164 -0.0257
  652TMC3    H1 9709   1.186   0.661  10.268 -1.4380  1.5049 -1.9091
  652TMC3    H2 9710   0.871   0.420  10.097  0.9559 -1.5166 -2.2210
  652TMC3    C7 9711   0.916   0.613  10.270 -0.2819  0.1265 -0.6761
  652TMC3    C8 9712   0.921   0.217  10.241  0.7887  0.5294 -0.2607
  652TMC3    O1 9713   0.808   0.558  10.261 -0.4723  0.1792 -0.0375
  652TMC3    O2 9714   0.970   0.104  10.242  0.2512 -0.3500  0.1306
  653MPD2     C 9715   3.253   0.035  17.690 -0.2391 -0.5748  0.2656
  653MPD2    C1 9716   3.243   0.133  17.597 -0.2322 -0.3976  0.0570
  653MPD2    C2 9717   3.250   0.094  17.464  0.0699 -0.0317 -0.0436
  653MPD2    C3 9718   3.256   4.697  17.421 -0.4171 -0.9497 -0.5062
  653MPD2    C4 9719   3.256   4.599  17.523  0.1335  0.7300  0.1604
  653MPD2    C5 9720   3.253   4.642  17.656 -0.7035 -0.1294 -0.2205
  653MPD2     H 9721   3.251   0.174  17.391 -2.5671  0.7508  0.7498
  653MPD2    H1 9722   3.272   4.494  17.502 -0.2900  0.5536  0.7449
  653MPD2    H2 9723   3.258   0.045   0.044  2.6692 -0.5928  0.1276
  653MPD2    H3 9724   3.252   4.567  17.734 -0.9330  0.5346  0.4165
  653MPD2     N 9725   3.233   4.672  17.283 -0.3713 -0.1158 -0.5003
  653MPD2    H5 9726   3.224   0.021  17.234  0.8417 -0.3198 -1.0871
  653MPD2    N1 9727   3.254   0.268  17.623 -0.2236  0.1082  0.4283
  653MPD2    H7 9728   3.270   0.332  17.546 -0.9802  0.4576  0.5624
  654TMC3    C1 9729   3.208   4.556  17.077  0.2072  0.3954  0.4357
  654TMC3    C2 9730   3.179   4.679  17.018  0.7579 -0.5461 -0.2919
  654TMC3    C3 9731   3.166   4.685  16.881 -0.3941  0.2213 -0.2533
  654TMC3    C4 9732   3.232   4.440  17.007 -0.2973 -0.6763  0.4329
  654TMC3    C5 9733   3.214   4.454  16.869  0.0990 -0.8490 -0.7040
  654TMC3    C6 9734   3.169   4.571  16.802  0.3206 -0.1628  0.1001
  654TMC3     C 9735   3.218   4.552  17.222 -0.6336  0.1084 -0.3520
  654TMC3     O 9736   3.197   4.451  17.281  0.0316  0.0437 -0.2652
  654TMC3     H 9737   3.164   0.025  17.084  1.6361 -0.2390 -0.4946
  654TMC3    H1 9738   3.259   4.346  17.055 -2.0178 -1.1983  0.3679
  654TMC3    H2 9739   3.138   4.570  16.698  1.8263 -1.6184 -0.3309
  654TMC3    C7 9740   3.229   4.336  16.783 -0.2777 -0.1310  0.0062
  654TMC3    C8 9741   3.107   0.061  16.826  0.2871  0.4755  0.1351
  654TMC3    O1 9742   3.269   4.354  16.668 -0.0507  0.5140 -0.1391
  654TMC3    O2 9743   3.028   0.114  16.903  0.4406  0.4038 -0.0999
  655MPD2     C 9744   0.630   0.548  15.938 -0.1226 -0.1681 -0.2654
  655MPD2    C1 9745   0.505   0.536  15.883 -1.2498  0.2120  0.9584
  655MPD2    C2 9746   0.492   0.484  15.755 -0.0158 -0.1241 -0.2150
  655MPD2    C3 9747   0.602   0.434  15.682 -0.0415  0.0800 -0.8134
  655MPD2    C4 9748   0.723   0.423  15.743 -0.3645  0.0659  0.0075
  655MPD2    C5 9749   0.738   0.486  15.869  0.0488 -0.8102  0.3875
  655MPD2     H 9750   0.392   0.502  15.718  0.2093  1.1365 -0.2335
  655MPD2    H1 9751   0.806   0.389  15.682 -0.2210  0.4497 -0.0125
  655MPD2    H2 9752   0.659   0.596  16.031 -1.8059  0.8487 -0.2522
  655MPD2    H3 9753   0.838   0.496  15.911 -0.6653  0.6564  1.7325
  655MPD2     N 9754   0.591   0.388  15.550  0.1159  0.2336 -0.2980
  655MPD2    H5 9755   0.679   0.349  15.517  0.6964  0.0479  1.4596
  655MPD2    N1 9756   0.394   0.603  15.931 -0.7692 -0.0252  0.6297
  655MPD2    H7 9757   0.304   0.596  15.884 -0.6313 -0.9323  0.5090
  656TMC3    C1 9758   0.254   0.741  16.072  0.0596 -0.1441  0.2414
  656TMC3    C2 9759   0.171   0.721  16.179  0.0407  0.6426  0.3263
  656TMC3    C3 9760   0.046   0.774  16.166 -0.4529  0.2915 -1.2238
  656TMC3    C4 9761   0.218   0.805  15.958 -0.4521 -0.2128 -0.5598
  656TMC3    C5 9762   0.090   0.860  15.960  0.7366 -0.2148 -0.0257
  656TMC3    C6 9763   4.738   0.844  16.060 -0.4834 -0.2629  0.0351
  656TMC3     C 9764   0.382   0.669  16.055 -0.1320  0.7261  0.0724
  656TMC3     O 9765   0.452   0.658  16.153  0.1454  0.4832 -0.4028
  656TMC3     H 9766   0.213   0.678  16.270  2.6411  2.3900 -0.0730
  656TMC3    H1 9767   0.280   0.828  15.872  0.9134 -0.0283  0.4830
  656TMC3    H2 9768   4.631   0.849  16.041 -0.8878  0.5059  2.4677
  656TMC3    C7 9769   0.047   0.926  15.837 -0.3194 -0.3400  0.3953
  656TMC3    C8 9770   4.683   0.701  16.237  0.0159 -0.9822 -0.2649
  656TMC3    O1 9771   0.128   0.923  15.749 -0.1072 -0.3051 -0.2809
  656TMC3    O2 9772   4.727   0.601  16.292 -0.0098 -0.1578 -0.4592
  657TMC3    C1 9773   4.390   0.031  14.465  0.1900 -0.0005  0.5369
  657TMC3    C2 9774   4.309   0.046  14.572 -0.0215 -0.3119  0.1199
  657TMC3    C3 9775   4.250   0.167  14.594  0.8027  0.0887 -0.9169
  657TMC3    C4 9776   4.415   0.137  14.382  0.3819 -0.3072 -0.4642
  657TMC3    C5 9777   4.364   0.261  14.412 -0.0454  0.3610  0.7108
  657TMC3    C6 9778   4.273   0.278  14.514 -0.4908 -0.0012 -0.0735
  657TMC3     C 9779   4.473   4.651  14.443  0.3019  0.0556  0.6227
  657TMC3     O 9780   4.504   4.636  14.328  0.0867 -0.1752 -0.0827
  657TMC3     H 9781   4.296   4.702  14.641  0.2170 -1.5144 -1.2914
  657TMC3    H1 9782   4.499   0.123  14.316  1.1340  0.1065  0.4068
  657TMC3    H2 9783   4.253   0.379  14.547  0.3965  0.5196 -1.1264
  657TMC3    C7 9784   4.392   0.365  14.308 -0.2800 -0.4496 -0.8194
  657TMC3    C8 9785   4.160   0.179  14.707 -0.1060 -0.5162  0.0547
  657TMC3    O1 9786   4.479   0.333  14.226 -0.0722 -0.3008 -0.3283
  657TMC3    O2 9787   4.165   0.092  14.794 -0.3498 -0.4723  0.2884
  658MPD2     C 9788   0.838   4.727  14.980 -0.4938 -0.8530  0.1787
  658MPD2    C1 9789   0.810   0.105  15.050  0.2800 -1.0127 -0.2600
  658MPD2    C2 9790   0.854   0.222  14.994 -0.0229  0.6991 -0.3700
  658MPD2    C3 9791   0.936   0.230  14.875  0.4311 -0.1873  0.2249
  658MPD2    C4 9792   0.981   0.111  14.826  0.0511  0.0571 -0.2748
  658MPD2    C5 9793   0.927   4.735  14.881 -0.3348  0.0623 -0.3631
  658MPD2     H 9794   0.822   0.316  15.038  3.4557  1.9890 -0.5890
  658MPD2    H1 9795   1.045   0.097  14.739  0.4572  0.3022 -0.0183
  658MPD2    H2 9796   0.800   4.630  15.009  0.0376 -1.6459 -1.8174
  658MPD2    H3 9797   0.953   4.640  14.837  1.5201  0.3713  0.0431
  658MPD2     N 9798   0.964   0.348  14.815 -0.8088 -0.2882  0.4863
  658MPD2    H5 9799   0.891   0.417  14.830 -1.1583 -0.7872  1.0972
  658MPD2    N1 9800   0.719   0.119  15.157 -0.3905  0.0384 -0.3856
  658MPD2    H7 9801   0.714   0.209  15.205  2.7451 -0.4605  0.9113
  659TMC3    C1 9802   0.498   0.126  15.228  0.3536 -0.4537  0.2096
  659TMC3    C2 9803   0.545   0.202  15.334  0.0045 -0.4922 -1.2086
  659TMC3    C3 9804   0.466   0.311  15.352  0.3842 -0.1050  0.3139
  659TMC3    C4 9805   0.380   0.144  15.167 -0.1331 -0.0400  0.4574
  659TMC3    C5 9806   0.314   0.259  15.179  0.8566 -0.1386  0.7562
  659TMC3    C6 9807   0.354   0.341  15.279  0.4647 -1.0878  0.0351
  659TMC3     C 9808   0.597   0.055  15.153  0.4925  0.4314 -1.1600
  659TMC3     O 9809   0.562   4.717  15.066  0.7802 -0.3168 -0.3495
  659TMC3     H 9810   0.642   0.181  15.377 -0.6371 -1.8931 -0.4368
  659TMC3    H1 9811   0.355   0.075  15.087 -0.4998 -0.2980  0.7967
  659TMC3    H2 9812   0.297   0.431  15.299 -1.9786 -3.0255  1.9358
  659TMC3    C7 9813   0.173   0.251  15.155 -0.7024 -0.0381 -1.0538
  659TMC3    C8 9814   0.476   0.391  15.475 -0.2080  0.1232 -0.4318
  659TMC3    O1 9815   0.133   0.140  15.133 -0.1441  0.1381 -0.2122
  659TMC3    O2 9816   0.369   0.442  15.508  0.1822 -0.5297 -0.1449
  660MPD2     C 9817   3.187   3.958  13.149 -0.9464 -0.4915 -0.3680
  660MPD2    C1 9818   3.078   4.034  13.131  0.2977  0.2612  0.3253
  660MPD2    C2 9819   2.968   4.026  13.224  0.6566 -0.4703 -0.2360
  660MPD2    C3 9820   2.967   3.930  13.319  0.4341  0.8878  0.1379
  660MPD2    C4 9821   3.073   3.844  13.332  0.7460  0.4582  0.5716
  660MPD2    C5 9822   3.179   3.854  13.242 -0.1331 -0.4618  0.2289
  660MPD2     H 9823   2.878   4.084  13.209  2.0135  1.4416 -0.9504
  660MPD2    H1 9824   3.070   3.765  13.407 -2.4020  1.2222  1.2498
  660MPD2    H2 9825   3.255   3.934  13.067  0.0167  0.7747  0.0606
  660MPD2    H3 9826   3.250   3.772  13.237  0.2251 -0.1235 -0.2163
  660MPD2     N 9827   2.853   3.896  13.400  0.7508 -0.5187  0.0726
  660MPD2    H5 9828   2.862   3.819  13.465 -0.1614  0.3712  1.2616
  660MPD2    N1 9829   3.056   4.115  13.014  0.0652 -0.6389  0.1510
  660MPD2    H7 9830   3.110   4.085  12.934  1.1599 -0.1821  0.7169
  661TMC3    C1 9831   2.934   4.240  12.863  0.5210 -0.1080 -0.4404
  661TMC3    C2 9832   3.032   4.227  12.774  0.3131  0.5262  0.0513
  661TMC3    C3 9833   2.994   4.224  12.646 -0.2846 -0.6561  0.5569
  661TMC3    C4 9834   2.797   4.243  12.829 -0.0134  1.0412 -0.6202
  661TMC3    C5 9835   2.767   4.231  12.694  0.2645  0.2473 -0.1534
  661TMC3    C6 9836   2.865   4.228  12.600 -0.3046  0.1364  0.0602
  661TMC3     C 9837   2.951   4.205  12.997  0.9704  0.5660  0.1157
  661TMC3     O 9838   2.873   4.254  13.077  0.2067 -0.1374  0.1667
  661TMC3     H 9839   3.137   4.244  12.795  0.0995  0.7418  0.9286
  661TMC3    H1 9840   2.723   4.253  12.909  2.6520 -1.6601  2.1862
  661TMC3    H2 9841   2.841   4.225  12.494 -1.7549 -0.1407  0.3904
  661TMC3    C7 9842   2.629   4.260  12.653  0.1152 -0.1768  0.0952
  661TMC3    C8 9843   3.093   4.242  12.535 -0.3061  0.9905  0.1115
  661TMC3    O1 9844   2.573   4.343  12.725  0.3470 -0.4263 -0.8089
  661TMC3    O2 9845   3.053   4.296  12.435 -0.0112 -0.0830  0.1665
  662MPD2     C 9846   2.444   3.666  16.657  0.3327  0.5515  0.1970
  662MPD2    C1 9847   2.517   3.596  16.751 -0.2562  0.1996 -0.3235
  662MPD2    C2 9848   2.526   3.651  16.877  0.1844  0.2432 -0.1366
  662MPD2    C3 9849   2.439   3.750  16.920 -0.2952 -0.5267 -0.1467
  662MPD2    C4 9850   2.356   3.801  16.828  0.3950 -0.2249  0.2047
  662MPD2    C5 9851   2.359   3.765  16.699 -0.3479 -0.0273  0.5406
  662MPD2     H 9852   2.589   3.594  16.945 -1.7004 -1.4065  0.2423
  662MPD2    H1 9853   2.289   3.881  16.857 -1.4113 -0.9900 -1.9122
  662MPD2    H2 9854   2.446   3.644  16.550 -1.1448  1.5284 -0.0216
  662MPD2    H3 9855   2.303   3.825  16.628 -1.0482 -2.1999 -0.7546
  662MPD2     N 9856   2.432   3.804  17.053  0.0786  0.0059 -0.7542
  662MPD2    H5 9857   2.353   3.864  17.076  0.4871  0.2821 -0.0537
  662MPD2    N1 9858   2.605   3.487  16.727  0.9113  0.4093 -0.2387
  662MPD2    H7 9859   2.647   3.444  16.809  1.0702  1.0607  0.0193
  663TMC3    C1 9860   2.721   3.323  16.604  0.2029 -0.3022  0.1583
  663TMC3    C2 9861   2.810   3.305  16.706 -0.7244 -0.3225 -1.1687
  663TMC3    C3 9862   2.912   3.209  16.686  0.5932 -0.5907  0.2276
  663TMC3    C4 9863   2.713   3.244  16.487 -0.6055  0.9302 -0.2297
  663TMC3    C5 9864   2.806   3.141  16.479  0.2008 -0.2073 -0.2845
  663TMC3    C6 9865   2.914   3.140  16.568  1.2528  0.2232 -0.1057
  663TMC3     C 9866   2.626   3.428  16.601  1.0913  0.8003  0.0269
  663TMC3     O 9867   2.569   3.455  16.496 -0.1453  0.4593  0.2446
  663TMC3     H 9868   2.815   3.370  16.792  1.3694  0.8361 -2.1573
  663TMC3    H1 9869   2.624   3.249  16.425 -0.2710 -0.8574 -0.8596
  663TMC3    H2 9870   2.998   3.073  16.563 -0.8583 -2.3309 -1.3943
  663TMC3    C7 9871   2.760   3.019  16.426 -0.5419  0.7200  0.2867
  663TMC3    C8 9872   2.909   3.106  16.791 -0.0668  0.0410 -0.4275
  663TMC3    O1 9873   2.687   3.018  16.328 -0.1344  0.2717  0.4794
  663TMC3    O2 9874   2.923   2.994  16.757 -0.1406  0.0218  0.5314
  664MPD2     C 9875   1.499   1.419  17.662 -0.4614  0.5956  0.3697
  664MPD2    C1 9876   1.487   1.556  17.684 -0.1170  0.0116 -0.2579
  664MPD2    C2 9877   1.464   1.597   0.059  0.3120  0.2897  0.2776
  664MPD2    C3 9878   1.441   1.506   0.162 -0.3668 -0.1164 -0.7380
  664MPD2    C4 9879   1.440   1.373   0.128 -0.0829 -0.2331  0.1746
  664MPD2    C5 9880   1.478   1.326   0.008  0.4727  0.0413 -0.4223
  664MPD2     H 9881   1.469   1.702   0.083  0.4789  0.9407 -2.6318
  664MPD2    H1 9882   1.427   1.294   0.200  0.1381  0.0723  0.5479
  664MPD2    H2 9883   1.519   1.381  17.562 -1.0739 -1.1245  0.9041
  664MPD2    H3 9884   1.468   1.221  17.739  2.6688 -0.2754  0.0177
  664MPD2     N 9885   1.423   1.547   0.302  0.7109 -0.6040  0.2653
  664MPD2    H5 9886   1.393   1.643   0.314 -1.3804 -1.3929  1.4056
  664MPD2    N1 9887   1.489   1.653  17.582  0.0180 -0.5950 -0.1450
  664MPD2    H7 9888   1.494   1.749  17.616 -3.1915 -0.1139 -1.0591
  665TMC3    C1 9889   1.390   1.549   0.530 -0.1904  0.5060 -0.0081
  665TMC3    C2 9890   1.408   1.478   0.643 -0.2318  0.1236 -0.6545
  665TMC3    C3 9891   1.451   1.547   0.760  0.0427 -0.3403  0.5356
  665TMC3    C4 9892   1.394   1.687   0.531 -0.3199 -0.2645  0.1869
  665TMC3    C5 9893   1.441   1.753   0.643  0.4713  0.4834  0.1952
  665TMC3    C6 9894   1.471   1.684   0.758  0.3300  0.5215  0.3910
  665TMC3     C 9895   1.402   1.471   0.412 -0.2419 -0.7024 -0.1268
  665TMC3     O 9896   1.414   1.348   0.424  0.0700  0.2866 -0.0481
  665TMC3     H 9897   1.395   1.371   0.643  0.7646  0.0068 -1.4919
  665TMC3    H1 9898   1.370   1.737   0.438  1.0906  0.8990  0.4468
  665TMC3    H2 9899   1.503   1.744   0.841  0.9236 -0.5358  0.9178
  665TMC3    C7 9900   1.366   1.873   0.656  0.7231 -0.0664  0.3795
  665TMC3    C8 9901   1.368   1.510   0.875 -0.7669 -0.5761 -0.0611
  665TMC3    O1 9902   1.268   1.892   0.582  1.1753 -0.1829 -0.1186
  665TMC3    O2 9903   1.393   1.564   0.979  0.1581  0.9724  0.0428
  666TMC3    C1 9904   1.662   1.571  10.065 -0.7555 -0.3738 -0.0671
  666TMC3    C2 9905   1.663   1.498  10.175 -0.6052 -0.4782 -0.5994
  666TMC3    C3 9906   1.690   1.557  10.291  0.0405  0.2398 -0.3139
  666TMC3    C4 9907   1.698   1.701  10.064  0.2626  0.3104  0.4249
  666TMC3    C5 9908   1.739   1.755  10.184 -0.0961 -0.3020  0.4437
  666TMC3    C6 9909   1.707   1.695  10.296 -0.4506  0.0517  0.1382
  666TMC3     C 9910   1.556   1.530   9.969  0.3683  0.0423 -0.1494
  666TMC3     O 9911   1.581   1.536   9.846 -0.1258 -0.1373  0.4230
  666TMC3     H 9912   1.675   1.390  10.179  0.2426 -0.3780 -0.2663
  666TMC3    H1 9913   1.689   1.757   9.971 -1.1609 -0.4756  0.0776
  666TMC3    H2 9914   1.717   1.758  10.383  2.7186 -1.3462  0.7609
  666TMC3    C7 9915   1.711   1.893  10.197 -0.4948 -0.0014 -0.0742
  666TMC3    C8 9916   1.662   1.484  10.410  0.2691 -0.0245  0.6162
  666TMC3    O1 9917   1.614   1.927  10.265 -0.0579 -0.3561 -0.1499
  666TMC3    O2 9918   1.578   1.398  10.401 -0.7197 -0.1483  0.6139
  667MPD2     C 9919   2.234   1.866  14.523 -0.0645  0.0576 -0.1547
  667MPD2    C1 9920   2.174   1.869  14.652  0.1114  0.2603 -0.0828
  667MPD2    C2 9921   2.088   1.764  14.679  0.2667 -0.3395 -0.1240
  667MPD2    C3 9922   2.078   1.655  14.603 -0.3386 -0.9598  0.6373
  667MPD2    C4 9923   2.149   1.648  14.487 -0.3473 -0.0448  0.8025
  667MPD2    C5 9924   2.215   1.757  14.436 -0.7073 -0.5063 -0.1350
  667MPD2     H 9925   2.049   1.765  14.780  2.8143  0.1001  0.8446
  667MPD2    H1 9926   2.126   1.563  14.424  0.1493 -0.0264  0.5947
  667MPD2    H2 9927   2.291   1.950  14.486 -2.1721  0.0971 -3.3532
  667MPD2    H3 9928   2.247   1.768  14.333 -0.1438 -1.7425 -0.0917
  667MPD2     N 9929   1.997   1.546  14.651 -0.6157 -0.4724 -0.4185
  667MPD2    H5 9930   2.011   1.453  14.612  1.9779 -0.8365  1.4092
  667MPD2    N1 9931   2.191   1.975  14.744 -0.3040  0.1572  0.1087
  667MPD2    H7 9932   2.127   1.972  14.823  0.1632 -0.4459  0.4676
  668TMC3    C1 9933   2.317   2.138  14.865  0.6838  0.4584  0.0298
  668TMC3    C2 9934   2.395   2.248  14.845 -0.2668  0.3429 -0.2575
  668TMC3    C3 9935   2.447   2.304  14.960 -0.2841  0.4014 -0.3209
  668TMC3    C4 9936   2.285   2.073  14.985  0.1286  0.3878  0.6622
  668TMC3    C5 9937   2.330   2.142  15.093  0.9748 -1.3360  1.5937
  668TMC3    C6 9938   2.406   2.254  15.081  1.0296  0.3520 -0.0516
  668TMC3     C 9939   2.290   2.067  14.739  0.7182 -0.8721 -0.3136
  668TMC3     O 9940   2.364   2.100  14.650  0.5102  0.4512  0.1598
  668TMC3     H 9941   2.418   2.287  14.747 -1.4291 -2.0724 -1.4972
  668TMC3    H1 9942   2.254   1.969  14.994  0.1843  0.2216 -1.1895
  668TMC3    H2 9943   2.438   2.303  15.172  0.2937  1.8651 -0.6094
  668TMC3    C7 9944   2.292   2.094  15.230  0.0251 -0.3499  0.0823
  668TMC3    C8 9945   2.475   2.445  14.960 -0.2902 -0.4436  0.5911
  668TMC3    O1 9946   2.346   2.143  15.330  0.4462 -0.7374 -0.0693
  668TMC3    O2 9947   2.445   2.503  15.062  0.5832 -0.0282 -0.1274
  669TMC3    C1 9948   0.258   1.680  15.033 -0.8246  0.2262 -1.1053
  669TMC3    C2 9949   0.155   1.713  14.954 -0.1859  0.0541  0.3819
  669TMC3    C3 9950   0.173   1.783  14.836 -0.0682 -0.8121 -0.1352
  669TMC3    C4 9951   0.382   1.736  15.016 -0.4129  0.8149 -0.0899
  669TMC3    C5 9952   0.399   1.813  14.898 -0.4409 -0.8295 -1.3009
  669TMC3    C6 9953   0.296   1.838  14.810  0.0999 -0.2020 -0.3148
  669TMC3     C 9954   0.231   1.596  15.152  0.4990  0.2332  0.7764
  669TMC3     O 9955   0.119   1.614  15.198  0.2877 -0.0472  0.1450
  669TMC3     H 9956   0.056   1.676  14.980 -0.2682  0.4674  0.6446
  669TMC3    H1 9957   0.454   1.723  15.095 -1.6380  1.6178  1.1476
  669TMC3    H2 9958   0.309   1.917  14.736  1.7092  2.3375  2.6969
  669TMC3    C7 9959   0.525   1.884  14.879  0.6481  0.1374  0.3197
  669TMC3    C8 9960   0.053   1.815  14.752  0.6581  0.5486  0.5466
  669TMC3    O1 9961   0.538   1.961  14.787 -0.4160 -0.6204  0.3113
  669TMC3    O2 9962   4.689   1.768  14.794 -0.7042 -1.0315  0.3041
  670MPD2     C 9963   3.269   0.057  13.109 -0.1456 -0.4119  0.6642
  670MPD2    C1 9964   3.384   0.113  13.159 -0.0748  1.4254  0.9989
  670MPD2    C2 9965   3.420   0.078  13.294 -0.5181  0.4524  0.4190
  670MPD2    C3 9966   3.339   4.739  13.378  0.7887 -0.1000 -0.7807
  670MPD2    C4 9967   3.223   4.688  13.328 -0.0998  0.3546  0.0594
  670MPD2    C5 9968   3.188   4.717  13.196 -0.4084 -0.0113 -0.7367
  670MPD2     H 9969   3.494   0.133  13.351 -2.7649  2.5399  1.3441
  670MPD2    H1 9970   3.152   4.625  13.380 -0.3428  1.4253  1.0135
  670MPD2    H2 9971   3.226   0.086  13.014  1.1087  1.0826  0.5625
  670MPD2    H3 9972   3.096   4.678  13.154 -0.1287  0.0187 -1.3737
  670MPD2     N 9973   3.376   4.712  13.511  0.2366 -0.2032 -0.2804
  670MPD2    H5 9974   3.472   0.003  13.528 -0.2532  0.3898  1.4942
  670MPD2    N1 9975   3.472   0.191  13.083 -0.3394  0.0038 -0.0321
  670MPD2    H7 9976   3.555   0.226  13.131 -0.9644  1.5182 -0.0630
  671TMC3    C1 9977   3.383   4.628  13.733 -0.1590  0.9260  0.4958
  671TMC3    C2 9978   3.520   4.636  13.735 -0.3648  0.3375 -0.8613
  671TMC3    C3 9979   3.583   4.575  13.836 -0.1623  1.3886  0.3395
  671TMC3    C4 9980   3.316   4.559  13.835  0.1133 -0.3087  0.1876
  671TMC3    C5 9981   3.380   4.519  13.942 -0.5944  0.0894  0.1365
  671TMC3    C6 9982   3.515   4.529  13.946 -0.4151  0.0712 -0.6413
  671TMC3     C 9983   3.307   4.649  13.610 -0.4264 -0.1819 -0.0483
  671TMC3     O 9984   3.189   4.616  13.604  0.0097 -0.0350 -0.2780
  671TMC3     H 9985   3.567   4.647  13.638 -1.2559 -2.6214 -1.6400
  671TMC3    H1 9986   3.211   4.533  13.829  0.2915 -0.9773 -0.0780
  671TMC3    H2 9987   3.579   4.495  14.027 -0.3115  1.9912  0.0797
  671TMC3    C7 9988   3.299   4.436  14.039  0.7775  0.0137  0.6368
  671TMC3    C8 9989   3.728   4.572  13.817  0.3373  0.2160 -0.2638
  671TMC3    O1 9990   3.186   4.407  14.002  0.0237 -0.3333  0.1463
  671TMC3    O2 9991   3.790   4.638  13.735  0.4505  0.2407  0.3204
  672MPD2     C 9992   3.251   4.423   0.766 -0.0434  0.0631 -0.1908
  672MPD2    C1 9993   3.326   4.356   0.674  0.1373 -0.5323  0.2131
  672MPD2    C2 9994   3.460   4.389   0.660 -0.1624 -0.1501 -0.2101
  672MPD2    C3 9995   3.515   4.486   0.742  0.8421 -0.2209 -0.0323
  672MPD2    C4 9996   3.444   4.551   0.843  0.1132  0.0591 -0.2134
  672MPD2    C5 9997   3.316   4.510   0.860 -0.3121  0.2100  0.2771
  672MPD2     H 9998   3.516   4.344   0.579  1.3339  0.4207  0.5055
  672MPD2    H1 9999   3.485   4.620   0.915 -1.0716 -0.7691  1.2675
  672MPD2    H210000   3.145   4.403   0.778 -0.1210  0.5730 -0.0116
  672MPD2    H310001   3.259   4.555   0.941 -0.1584 -0.8731  1.0003
  672MPD2     N10002   3.645   4.535   0.729 -0.0223  0.4638 -0.1783
  672MPD2    H510003   3.669   4.619   0.780  2.0805 -0.3040  0.1125
  672MPD2    N110004   3.275   4.259   0.588  0.1759  0.6010  0.4666
  672MPD2    H710005   3.347   4.227   0.524 -1.7980  0.4175 -1.7014
  673TMC3    C110006   3.141   4.154   0.441  0.3766 -0.0863 -0.0106
  673TMC3    C210007   3.206   4.037   0.436  0.4674  0.1515 -0.6812
  673TMC3    C310008   3.238   3.982   0.315  0.6375 -0.0452 -0.3065
  673TMC3    C410009   3.117   4.232   0.330  0.0571  0.4917  0.5281
  673TMC3    C510010   3.140   4.168   0.205 -1.1390 -0.1726 -0.2416
  673TMC3    C610011   3.202   4.050   0.203 -0.4837 -0.3311 -0.0685
  673TMC3     C10012   3.146   4.215   0.575 -0.0327 -0.4341 -0.2982
  673TMC3     O10013   3.043   4.269   0.619  0.0352  0.3386  0.1430
  673TMC3     H10014   3.233   3.979   0.524  0.4749 -0.8543 -1.3505
  673TMC3    H110015   3.063   4.325   0.341  0.1939  0.7315 -0.7883
  673TMC3    H210016   3.216   4.004   0.106 -1.8796 -0.1969 -0.3448
  673TMC3    C710017   3.125   4.232   0.068 -0.8026  0.1192 -0.2446
  673TMC3    C810018   3.299   3.852   0.298 -0.2785 -0.1992 -0.0828
  673TMC3    O110019   3.163   4.173  17.722  0.0095 -0.3623 -0.3152
  673TMC3    O210020   3.288   3.790   0.193 -0.4248  0.2754 -0.3999
  674MPD2     C10021   2.874   4.453  17.096  0.5893  0.0962  0.7013
  674MPD2    C110022   2.785   4.377  17.168 -0.0124  0.5312 -0.7544
  674MPD2    C210023   2.700   4.439  17.256  0.4527 -0.2806 -0.8449
  674MPD2    C310024   2.690   4.573  17.270 -0.0499 -0.0546  0.3147
  674MPD2    C410025   2.772   4.650  17.192  0.0632  0.3433 -0.1483
  674MPD2    C510026   2.857   4.589  17.112  0.7947 -0.1018 -0.8864
  674MPD2     H10027   2.640   4.372  17.317 -1.3698  1.0763 -1.1470
  674MPD2    H110028   2.780   0.017  17.208  0.7980  0.3720 -0.7337
  674MPD2    H210029   2.954   4.410  17.036 -0.7743  0.1943 -1.1958
  674MPD2    H310030   2.925   4.654  17.057 -0.7206  1.4721 -0.8833
  674MPD2     N10031   2.600   4.618  17.369  0.0531  0.0788  0.4098
  674MPD2    H510032   2.534   4.555  17.412  0.8199 -0.2128  1.1582
  674MPD2    N110033   2.796   4.237  17.168  0.1155 -0.2731 -0.4533
  674MPD2    H710034   2.732   4.190  17.232  1.0150 -0.3187  0.4253
  675TMC3    C110035   2.864   4.018  17.144 -0.2114 -0.4651 -0.2185
  675TMC3    C210036   2.762   3.997  17.226 -0.2984  0.0159 -0.1899
  675TMC3    C310037   2.785   3.933  17.350 -0.1628  0.0438  0.7092
  675TMC3    C410038   2.985   3.958  17.168  0.0213  0.7913  1.1305
  675TMC3    C510039   3.006   3.887  17.286 -0.1534 -0.0725  0.1344
  675TMC3    C610040   2.908   3.881  17.385  0.7934 -0.6058 -0.0936
  675TMC3     C10041   2.874   4.154  17.090  0.0891 -0.1107  0.3831
  675TMC3     O10042   2.964   4.187  17.013  0.3713  0.5216 -0.4420
  675TMC3     H10043   2.662   4.024  17.197 -0.4823 -0.0814  0.3543
  675TMC3    H110044   3.063   3.985  17.098  0.6371  0.2821  1.6187
  675TMC3    H210045   2.931   3.842  17.483 -0.8717 -2.7239 -0.5434
  675TMC3    C710046   3.145   3.840  17.303  0.6674 -0.1305 -0.6071
  675TMC3    C810047   2.738   4.027  17.446 -0.4781 -0.5923 -0.1622
  675TMC3    O110048   3.217   3.845  17.205 -0.0400 -0.2417  0.0882
  675TMC3    O210049   2.655   4.112  17.402  0.2028  0.2747 -0.9685
  676MPD2     C10050   2.023   3.010  11.137 -0.1204  0.2239  0.2691
  676MPD2    C110051   1.917   2.959  11.209  0.2794 -0.3029  0.4302
  676MPD2    C210052   1.868   2.839  11.175  0.2055  0.5853 -0.7530
  676MPD2    C310053   1.917   2.771  11.061 -0.0002  0.8896 -0.9754
  676MPD2    C410054   2.006   2.836  10.976  0.0163 -1.3462 -0.0957
  676MPD2    C510055   2.054   2.953  11.017 -0.2570 -0.0012 -0.3802
  676MPD2     H10056   1.790   2.800  11.239  1.3195 -0.5391 -0.0683
  676MPD2    H110057   2.051   2.798  10.885  1.1674 -1.6814  0.6075
  676MPD2    H210058   2.067   3.102  11.174  1.7272 -0.3899 -0.4064
  676MPD2    H310059   2.141   2.986  10.961 -1.1847 -0.0590 -1.8517
  676MPD2     N10060   1.887   2.641  11.016 -0.1337  0.4204 -0.3152
  676MPD2    H510061   1.930   2.616  10.927  2.6537  0.4646  1.0022
  676MPD2    N110062   1.867   3.024  11.325  0.7342 -0.2972  0.1345
  676MPD2    H710063   1.798   2.976  11.382 -0.3812 -0.5440 -1.4002
  677TMC3    C110064   1.820   3.182  11.494 -0.1954  0.6220 -0.0707
  677TMC3    C210065   1.729   3.084  11.538 -0.2684  0.2772  0.0175
  677TMC3    C310066   1.706   3.090  11.670  0.8823 -0.8623  0.0145
  677TMC3    C410067   1.890   3.265  11.576  0.0196 -0.3044  0.1085
  677TMC3    C510068   1.859   3.260  11.705 -0.1070  1.0105 -0.1715
  677TMC3    C610069   1.762   3.177  11.757  0.1325  0.0252 -0.7167
  677TMC3     C10070   1.887   3.150  11.368  0.1133  0.4815  0.3849
  677TMC3     O10071   1.962   3.236  11.321 -0.0451 -0.4385  0.2141
  677TMC3     H10072   1.676   3.007  11.482  0.2837 -0.2277  0.1897
  677TMC3    H110073   1.983   3.309  11.543 -0.5942 -1.5062 -3.2114
  677TMC3    H210074   1.734   3.179  11.861  0.1306  1.9824 -0.7554
  677TMC3    C710075   1.883   3.368  11.794  0.0069  0.2552  0.4182
  677TMC3    C810076   1.681   2.956  11.725  0.4660 -0.2627  0.2749
  677TMC3    O110077   1.869   3.355  11.917 -0.3622  0.4159  0.4761
  677TMC3    O210078   1.697   2.859  11.654 -0.9513 -0.4514 -0.0354
  678MPD2     C10079   2.384   3.156   1.180 -0.6671 -0.1624 -0.1900
  678MPD2    C110080   2.356   3.046   1.098 -0.0288  0.2380 -1.0627
  678MPD2    C210081   2.233   2.991   1.093  0.2302 -0.0626 -0.5919
  678MPD2    C310082   2.126   3.050   1.161 -0.3481  0.5493  0.3940
  678MPD2    C410083   2.161   3.160   1.245 -0.3962  0.1328  0.3565
  678MPD2    C510084   2.283   3.212   1.248  0.0295  0.2642 -0.0013
  678MPD2     H10085   2.216   2.901   1.033  1.2136  0.7664 -2.1264
  678MPD2    H110086   2.084   3.215   1.296 -1.1981  0.5399 -1.2944
  678MPD2    H210087   2.484   3.197   1.184 -1.2784  1.1140  2.4446
  678MPD2    H310088   2.306   3.293   1.317  0.5591 -0.2024  0.3734
  678MPD2     N10089   1.996   3.007   1.142 -0.0428 -0.1149  0.0873
  678MPD2    H510090   1.980   2.942   1.066  0.7531 -0.8996  0.5836
  678MPD2    N110091   2.458   2.981   1.023  0.0590 -0.6177 -0.6492
  678MPD2    H710092   2.437   2.885   0.998 -1.0879 -0.4806 -0.2019
  679TMC3    C110093   2.690   2.747   0.792 -0.7668 -0.3770  0.2554
  679TMC3    C210094   2.622   2.820   0.882 -0.3280 -0.0778  0.7379
  679TMC3    C310095   2.648   2.952   0.884  0.2185 -0.1293 -0.0438
  679TMC3    C410096   2.781   2.797   0.706 -0.4340 -0.6454  0.4391
  679TMC3    C510097   2.811   2.931   0.720  0.4512 -0.2266  0.2435
  679TMC3    C610098   2.748   3.012   0.807 -0.0968 -0.7148  0.4099
  679TMC3     C10099   2.702   2.604   0.814 -0.3967  0.8779  0.4959
  679TMC3     O10100   2.810   2.557   0.785 -0.5200 -0.0791 -0.4754
  679TMC3     H10101   2.560   2.764   0.951 -2.5686  0.4340 -0.8435
  679TMC3    H110102   2.826   2.733   0.632  0.4677  0.9274 -0.3708
  679TMC3    H210103   2.780   3.115   0.815 -1.8507 -0.0370 -1.1331
  679TMC3    C710104   2.877   2.994   0.608 -1.0940 -0.3558 -0.2522
  679TMC3    C810105   2.571   3.039   0.969  0.8417 -0.3837  0.2434
  679TMC3    O110106   2.851   3.117   0.594  0.4409 -0.7527 -0.2386
  679TMC3    O210107   2.600   3.159   0.970 -0.0282 -0.0632 -0.0306
  680MPD2     C10108   3.783   1.124  14.006  0.2478  0.6479 -0.3524
  680MPD2    C110109   3.675   1.195  13.972  0.4026  0.0870 -0.1648
  680MPD2    C210110   3.649   1.317  14.031 -0.1418 -0.2929 -1.0831
  680MPD2    C310111   3.738   1.371  14.121  0.1537  0.0586 -0.1964
  680MPD2    C410112   3.853   1.303  14.149 -0.3785  0.1626 -0.2062
  680MPD2    C510113   3.876   1.176  14.094 -0.2230  0.2781 -0.1176
  680MPD2     H10114   3.565   1.376  13.996 -1.0901  0.1022  1.8659
  680MPD2    H110115   3.930   1.346  14.211  0.6689 -2.9058  0.6058
  680MPD2    H210116   3.803   1.028  13.958 -1.3234  1.9644 -3.6378
  680MPD2    H310117   3.976   1.136  14.106  0.0985  1.6760  1.9317
  680MPD2     N10118   3.728   1.497  14.188  0.3730  0.4317  0.4569
  680MPD2    H510119   3.808   1.538  14.236  1.0144 -0.5275  0.2121
  680MPD2    N110120   3.585   1.151  13.868 -0.6849  0.1045 -0.0486
  680MPD2    H710121   3.506   1.214  13.856  0.1487  1.3907  1.1865
  681TMC3    C110122   3.503   1.061  13.664  0.1616  0.5827 -0.8405
  681TMC3    C210123   3.372   1.054  13.702 -0.0991  0.2650  0.4521
  681TMC3    C310124   3.281   1.015  13.607  0.7961  0.5076 -0.0537
  681TMC3    C410125   3.533   1.018  13.537 -0.2174 -0.4330  0.6754
  681TMC3    C510126   3.440   0.966  13.457  0.2547  0.7041 -0.7100
  681TMC3    C610127   3.313   0.962  13.491  0.6021 -0.6716  0.1443
  681TMC3     C10128   3.612   1.065  13.762 -0.2031 -1.3778 -0.0834
  681TMC3     O10129   3.719   1.008  13.735 -0.1690  0.2909  0.3759
  681TMC3     H10130   3.339   1.058  13.805 -0.8717  1.0808  0.1706
  681TMC3    H110131   3.635   1.012  13.502  0.3212  1.7014  1.8751
  681TMC3    H210132   3.235   0.928  13.423 -0.5028 -1.7405  1.9313
  681TMC3    C710133   3.464   0.932  13.322 -0.8789 -0.3427 -0.6075
  681TMC3    C810134   3.158   1.090  13.598  0.5285  0.0946 -0.0597
  681TMC3    O110135   3.414   0.836  13.266  0.1636 -0.3702 -0.4110
  681TMC3    O210136   3.089   1.073  13.496  0.1819 -0.3814 -0.5453
  682MPD2     C10137   1.246   3.133  10.466  0.1020  0.0483  0.1330
  682MPD2    C110138   1.143   3.037  10.455 -0.1469 -0.0157 -0.6408
  682MPD2    C210139   1.014   3.063  10.495 -0.5155 -0.3591 -0.4509
  682MPD2    C310140   0.992   3.187  10.544 -0.2812 -1.1043 -0.3181
  682MPD2    C410141   1.088   3.276  10.561 -1.5153 -0.8929  0.0036
  682MPD2    C510142   1.215   3.250  10.525 -0.5305  0.9882  0.9213
  682MPD2     H10143   0.942   2.983  10.482 -1.1601  0.2599 -0.6824
  682MPD2    H110144   1.064   3.375  10.601 -0.2358  0.0438 -1.5806
  682MPD2    H210145   1.354   3.123  10.456 -0.0652 -2.8281  1.2744
  682MPD2    H310146   1.286   3.330  10.545  0.1165  0.9397 -1.2060
  682MPD2     N10147   0.858   3.229  10.566  0.0432 -0.5174  0.0447
  682MPD2    H510148   0.840   3.328  10.579 -0.3750 -0.5998  0.0936
  682MPD2    N110149   1.177   2.909  10.401  0.1569  0.1439  0.2151
  682MPD2    H710150   1.102   2.841  10.407  1.4578 -1.3860 -0.8077
  683TMC3    C110151   0.553   3.192  10.841 -0.2377 -0.5418  0.2302
  683TMC3    C210152   0.445   3.111  10.815 -0.1138  0.4920 -0.3377
  683TMC3    C310153   0.429   3.098  10.685 -0.1720 -0.3316 -0.5535
  683TMC3    C410154   0.644   3.248  10.747 -0.3131  0.4077  0.3891
  683TMC3    C510155   0.625   3.205  10.615 -0.6619 -0.2399  0.2959
  683TMC3    C610156   0.516   3.128  10.585 -0.1913 -0.0290  0.2621
  683TMC3     C10157   0.584   3.211  10.979  0.2498 -0.1794  0.2487
  683TMC3     O10158   0.672   3.291  11.010 -1.1098 -0.0456  0.4692
  683TMC3     H10159   0.377   3.081  10.894 -1.9472  4.1382 -0.5330
  683TMC3    H110160   0.710   3.329  10.776  0.1556 -1.1877  3.7857
  683TMC3    H210161   0.500   3.083  10.487 -0.2276  0.3872  0.0760
  683TMC3    C710162   0.744   3.143  10.563  0.0143 -0.0917 -0.3663
  683TMC3    C810163   0.337   2.995  10.646  0.4258 -0.2097  0.1818
  683TMC3    O110164   0.729   3.025  10.553 -0.3373 -0.7338 -0.0488
  683TMC3    O210165   0.274   3.008  10.539 -0.1864  0.2601  0.2151
  684MPD2     C10166   3.106   2.000  16.453 -0.3615  0.1019  0.5225
  684MPD2    C110167   3.074   2.059  16.328 -0.1778 -0.0326 -0.8390
  684MPD2    C210168   3.073   2.198  16.333  0.9745 -0.3778 -0.8175
  684MPD2    C310169   3.091   2.273  16.449 -0.2947  0.3056  0.3167
  684MPD2    C410170   3.117   2.216  16.571 -0.2675 -0.1431 -0.3841
  684MPD2    C510171   3.136   2.076  16.567 -0.2332 -0.4043  0.0016
  684MPD2     H10172   3.054   2.240  16.236  2.5398  0.0121 -0.9680
  684MPD2    H110173   3.136   2.268  16.664 -0.1826 -1.5618  0.3937
  684MPD2    H210174   3.124   1.893  16.447  0.8523  0.4750 -2.6938
  684MPD2    H310175   3.173   2.032  16.658 -0.7821 -1.1353 -0.1286
  684MPD2     N10176   3.125   2.410  16.438  0.1402  0.6632  0.4058
  684MPD2    H510177   3.164   2.460  16.517  0.2200 -0.8606  1.3435
  684MPD2    N110178   3.052   1.990  16.206 -0.1187 -0.0935  0.3849
  684MPD2    H710179   3.025   2.047  16.126  0.4204 -0.5734 -0.1462
  685TMC3    C110180   3.107   1.843  16.038 -0.2644 -0.9798 -0.7711
  685TMC3    C210181   3.011   1.908  15.961  0.0986  1.3662 -0.6018
  685TMC3    C310182   3.036   1.904  15.825  0.0068 -0.0536  0.6389
  685TMC3    C410183   3.210   1.764  15.989 -0.9486  0.5819 -0.2814
  685TMC3    C510184   3.234   1.768  15.854 -0.0775  0.5274 -0.0658
  685TMC3    C610185   3.144   1.841  15.772  0.6935  0.3939 -0.0850
  685TMC3     C10186   3.113   1.874  16.175  0.1504 -0.2294  0.2695
  685TMC3     O10187   3.188   1.819  16.248 -0.6340 -0.3101 -0.0277
  685TMC3     H10188   2.924   1.955  16.007 -1.7470  1.2429 -4.0099
  685TMC3    H110189   3.267   1.710  16.064 -1.1623  0.3606 -0.2768
  685TMC3    H210190   3.154   1.822  15.666  0.3075 -1.9165  0.2862
  685TMC3    C710191   3.372   1.767  15.817 -0.2906 -0.4611 -0.0866
  685TMC3    C810192   2.940   1.957  15.733  0.0567  0.4180  0.0609
  685TMC3    O110193   3.410   1.773  15.701 -0.4210  0.1845 -0.3135
  685TMC3    O210194   2.939   1.909  15.619  0.2242  0.2448  0.6713
  686MPD2     C10195   4.315   2.417  15.483 -0.6058  0.2136  0.2606
  686MPD2    C110196   4.374   2.309  15.548 -0.6951  0.6834 -0.3049
  686MPD2    C210197   4.459   2.224  15.480  0.9138 -0.0025 -0.4800
  686MPD2    C310198   4.477   2.236  15.346  0.2932 -0.4507 -0.1939
  686MPD2    C410199   4.431   2.346  15.285 -0.0984 -0.3410  0.4593
  686MPD2    C510200   4.360   2.442  15.356 -0.0111  0.2965  0.2386
  686MPD2     H10201   4.525   2.155  15.531 -0.2088 -1.4004 -0.9095
  686MPD2    H110202   4.444   2.364  15.179  0.8355  0.5178  0.7151
  686MPD2    H210203   4.235   2.479  15.522  0.3791  0.6427  1.5864
  686MPD2    H310204   4.319   2.523  15.297 -0.9516  0.4846  1.1502
  686MPD2     N10205   4.552   2.144  15.265 -0.6589  0.1030  0.7871
  686MPD2    H510206   4.585   2.187  15.180  0.7678 -0.6533  0.9595
  686MPD2    N110207   4.333   2.277  15.681  0.1070  0.2098  0.6466
  686MPD2    H710208   4.270   2.342  15.728  0.4012 -0.2155  1.6062
  687TMC3    C110209   4.524   1.944  15.404  0.1147  0.8081 -0.6516
  687TMC3    C210210   4.387   1.935  15.383 -0.6022 -0.1020 -0.0806
  687TMC3    C310211   4.317   1.843  15.452  0.1087 -0.4000  0.1050
  687TMC3    C410212   4.583   1.857  15.490  0.1758  0.8070 -0.2054
  687TMC3    C510213   4.508   1.766  15.560  0.5946  0.1095 -0.0744
  687TMC3    C610214   4.375   1.754  15.533  0.0772  0.2177  0.7186
  687TMC3     C10215   4.609   2.025  15.311 -0.0694 -0.7691  0.2420
  687TMC3     O10216   4.715   1.970  15.278 -0.2977 -0.3185  0.2870
  687TMC3     H10217   4.344   1.988  15.298 -0.6820  0.8537  0.5553
  687TMC3    H110218   4.681   1.885  15.526  1.5047 -0.5420 -2.8196
  687TMC3    H210219   4.313   1.685  15.590  0.0841 -2.5606 -2.6479
  687TMC3    C710220   4.553   1.714  15.686  0.3665  0.0600  0.7058
  687TMC3    C810221   4.178   1.871  15.489 -0.4095 -0.0674  0.0833
  687TMC3    O110222   4.464   1.680  15.766  0.1404 -0.2104 -0.3234
  687TMC3    O210223   4.119   1.789  15.562 -0.6248 -0.3636  0.3623
  688MPD2     C10224   3.546   0.772  17.245 -0.0917 -0.3705 -0.5510
  688MPD2    C110225   3.587   0.668  17.320  0.2560 -0.8941  0.5366
  688MPD2    C210226   3.711   0.601  17.297 -0.0525 -0.2277 -0.6482
  688MPD2    C310227   3.798   0.665  17.210 -0.2814 -0.2326 -1.0511
  688MPD2    C410228   3.750   0.779  17.145  0.8470  0.2119  0.0092
  688MPD2    C510229   3.624   0.835  17.161 -0.6153 -0.6319  0.0561
  688MPD2     H10230   3.743   0.517  17.358  1.9814  1.8560  1.1473
  688MPD2    H110231   3.805   0.826  17.064 -0.0848 -0.4962 -1.0376
  688MPD2    H210232   3.448   0.819  17.256  0.1531 -0.3403  1.4009
  688MPD2    H310233   3.590   0.917  17.099 -0.8835 -0.0521  0.9729
  688MPD2     N10234   3.922   0.617  17.174 -0.2754 -0.8412 -0.1242
  688MPD2    H510235   3.978   0.674  17.111  2.3830 -1.6271  1.5005
  688MPD2    N110236   3.513   0.630  17.434  0.2791 -0.1151 -0.5197
  688MPD2    H710237   3.537   0.542  17.480 -0.5623  1.1532  2.3187
  689TMC3    C110238   3.356   0.654  17.619  0.0252  0.1966 -0.0476
  689TMC3    C210239   3.323   0.736  17.723  0.9749 -0.0965 -0.5467
  689TMC3    C310240   3.262   0.685   0.075 -0.5361 -0.2727  0.3213
  689TMC3    C410241   3.326   0.526  17.624 -0.0622  0.4311 -0.0003
  689TMC3    C510242   3.271   0.471  17.739  0.3612 -0.3847 -0.0777
  689TMC3    C610243   3.231   0.557   0.088  0.1082 -0.3494  0.7305
  689TMC3     C10244   3.424   0.711  17.502 -0.7190 -1.0548  0.7857
  689TMC3     O10245   3.411   0.833  17.494 -0.1535 -0.2685 -0.2359
  689TMC3     H10246   3.342   0.842  17.709  3.2290 -0.3403  0.6884
  689TMC3    H110247   3.342   0.471  17.532 -0.1192  0.9242 -0.3057
  689TMC3    H210248   3.179   0.527   0.178  1.9412 -0.1293  1.8456
  689TMC3    C710249   3.249   0.325  17.748 -0.5582  0.5983 -0.4848
  689TMC3    C810250   3.290   0.753   0.199 -0.7738  0.7635 -0.2815
  689TMC3    O110251   3.215   0.292   0.107 -0.4942  0.1830  0.5858
  689TMC3    O210252   3.341   0.687   0.288 -0.1908 -0.0835  0.5498
  690MPD2     C10253   1.662   2.925  15.911 -0.0515 -0.6118  0.2769
  690MPD2    C110254   1.620   2.846  15.806 -0.0107 -0.3343  0.2878
  690MPD2    C210255   1.674   2.855  15.682  0.1540 -0.3295  0.1920
  690MPD2    C310256   1.765   2.961  15.649  0.6838  0.0948 -0.2965
  690MPD2    C410257   1.803   3.037  15.756 -0.0417  0.9063  0.0544
  690MPD2    C510258   1.754   3.019  15.885  0.0171  0.0010  0.4784
  690MPD2     H10259   1.634   2.781  15.614  0.0841 -0.9036  0.8524
  690MPD2    H110260   1.883   3.109  15.746 -0.5758  1.2342 -1.9061
  690MPD2    H210261   1.621   2.912  16.010 -1.5629 -0.8732 -0.3825
  690MPD2    H310262   1.795   3.083  15.963  2.5561  0.1644 -0.9784
  690MPD2     N10263   1.813   2.973  15.518  0.4314  0.6307 -0.0001
  690MPD2    H510264   1.761   2.912  15.456  0.2283  0.1957  0.6012
  690MPD2    N110265   1.534   2.738  15.830 -0.1056  0.2128  0.2535
  690MPD2    H710266   1.487   2.687  15.756 -1.8120  1.1996  0.6708
  691TMC3    C110267   1.410   2.598  15.970  0.7870 -0.1038  0.4649
  691TMC3    C210268   1.293   2.667  15.983  0.2607  0.3292 -0.7023
  691TMC3    C310269   1.176   2.599  15.998 -0.2626 -0.0068 -0.1167
  691TMC3    C410270   1.414   2.465  15.961 -0.0637  0.1767 -0.3276
  691TMC3    C510271   1.298   2.396  15.984 -0.2553 -0.3824  0.3137
  691TMC3    C610272   1.181   2.463  16.004  0.2799  0.6483  0.8818
  691TMC3     C10273   1.530   2.677  15.952  0.0730  0.3768  0.7780
  691TMC3     O10274   1.621   2.654  16.034 -0.2610  0.5030  0.0982
  691TMC3     H10275   1.294   2.773  16.006  3.2986  0.5659 -1.9736
  691TMC3    H110276   1.509   2.413  15.969 -0.0539  0.0016 -1.7060
  691TMC3    H210277   1.090   2.415  16.038  1.3940 -1.7790  0.5024
  691TMC3    C710278   1.300   2.259  16.022  0.6694 -0.1666  0.8267
  691TMC3    C810279   1.058   2.656  16.056 -0.5039  0.5852  0.0612
  691TMC3    O110280   1.410   2.217  16.057  0.2576 -0.1840 -0.0824
  691TMC3    O210281   0.980   2.580  16.111  0.4937  0.0299 -0.1859
  692TMC3    C110282   2.940   3.548  15.391  0.7989 -0.3272 -0.2762
  692TMC3    C210283   3.069   3.572  15.418  0.3677  0.4658 -1.0085
  692TMC3    C310284   3.153   3.478  15.472  0.6565 -0.1773 -0.1385
  692TMC3    C410285   2.879   3.429  15.427  0.1503 -0.3122 -0.0489
  692TMC3    C510286   2.956   3.346  15.506 -0.4112  0.3564  0.7454
  692TMC3    C610287   3.090   3.372  15.526  0.0015  0.3511 -0.6336
  692TMC3     C10288   2.852   3.668  15.405 -0.2571 -0.1501 -0.0035
  692TMC3     O10289   2.735   3.657  15.441  0.4537  0.3937  0.3393
  692TMC3     H10290   3.118   3.657  15.372 -0.3497  0.2288 -2.1895
  692TMC3    H110291   2.781   3.396  15.393 -0.4189 -0.0609  1.3486
  692TMC3    H210292   3.159   3.301  15.569 -1.5771 -1.2300 -0.6969
  692TMC3    C710293   2.900   3.223  15.551  0.5074  0.9029 -0.3358
  692TMC3    C810294   3.242   3.549  15.555 -0.1439  0.6172 -0.2469
  692TMC3    O110295   2.810   3.175  15.481  0.0149 -0.2749 -0.2264
  692TMC3    O210296   3.355   3.502  15.575  0.4642 -0.0201 -0.0867
  693MPD2     C10297   2.740   1.895  10.699  0.3830 -0.3418 -0.1834
  693MPD2    C110298   2.710   1.768  10.659  0.3886  0.0513  0.4816
  693MPD2    C210299   2.773   1.652  10.713 -0.2335  0.4523  0.5502
  693MPD2    C310300   2.880   1.682  10.794 -0.0579  0.3627 -0.8998
  693MPD2    C410301   2.916   1.811  10.837  0.4002 -0.3921 -0.0359
  693MPD2    C510302   2.855   1.913  10.770 -0.1206 -0.1106 -0.2762
  693MPD2     H10303   2.730   1.554  10.698  0.7574  0.2953 -1.2687
  693MPD2    H110304   2.996   1.827  10.908 -0.5614 -0.6290  1.1108
  693MPD2    H210305   2.694   1.976  10.644  1.8443  0.1171 -0.7292
  693MPD2    H310306   2.896   2.012  10.783 -1.1256  0.1064  1.1849
  693MPD2     N10307   2.961   1.572  10.829 -0.1816  0.0371 -0.1946
  693MPD2    H510308   2.946   1.483  10.782  0.2718  0.3858 -1.0090
  693MPD2    N110309   2.593   1.757  10.583 -0.4136  0.3289  0.2848
  693MPD2    H710310   2.548   1.843  10.553 -0.3362 -0.0266 -0.8651
  694TMC3    C110311   2.379   1.698  10.571 -0.5189 -0.4546  0.6327
  694TMC3    C210312   2.291   1.607  10.514 -0.8131 -0.4903  0.3405
  694TMC3    C310313   2.186   1.561  10.596 -0.3781  0.8604  0.7762
  694TMC3    C410314   2.349   1.765  10.684  0.0760 -0.5175 -0.1573
  694TMC3    C510315   2.247   1.712  10.759  0.0069 -0.5715 -0.3534
  694TMC3    C610316   2.168   1.609  10.722 -0.3327  0.7282  0.7531
  694TMC3     C10317   2.512   1.645  10.579  0.0587 -0.0938  0.2848
  694TMC3     O10318   2.529   1.529  10.620 -0.0354 -0.1105  0.0259
  694TMC3     H10319   2.301   1.580  10.409 -1.8012 -2.9232  0.8758
  694TMC3    H110320   2.410   1.845  10.725  0.4685 -1.5322  1.2473
  694TMC3    H210321   2.078   1.582  10.777 -0.7927 -1.6613 -1.1639
  694TMC3    C710322   2.230   1.765  10.892  0.5011 -0.2546 -0.0739
  694TMC3    C810323   2.092   1.458  10.553  0.0514  0.4021 -0.3478
  694TMC3    O110324   2.274   1.876  10.904  0.1537 -0.1907 -0.1426
  694TMC3    O210325   2.028   1.390  10.634 -0.2314  0.6256 -0.4750
  695MPD2     C10326   3.494   3.670  13.767  0.0264 -0.4431 -0.1018
  695MPD2    C110327   3.497   3.716  13.902 -0.8827 -0.6478 -0.5485
  695MPD2    C210328   3.378   3.777  13.946  0.5108 -0.0016 -0.3765
  695MPD2    C310329   3.260   3.772  13.863  0.2711 -0.0257 -0.0380
  695MPD2    C410330   3.264   3.718  13.736  0.0144  0.8247 -0.1018
  695MPD2    C510331   3.382   3.665  13.693  0.3906 -0.1655  0.3500
  695MPD2     H10332   3.379   3.832  14.040 -0.6077  1.7607 -1.3945
  695MPD2    H110333   3.187   3.743  13.663  0.4203 -0.2871 -0.9063
  695MPD2    H210334   3.578   3.623  13.717 -0.3426  0.4682 -1.6151
  695MPD2    H310335   3.374   3.601  13.606 -0.5090 -0.6659  0.8006
  695MPD2     N10336   3.145   3.828  13.915  0.4187 -0.7689  0.4101
  695MPD2    H510337   3.148   3.851  14.014  0.5616  1.9053 -0.2381
  695MPD2    N110338   3.616   3.722  13.983 -0.0404  0.1236 -1.3988
  695MPD2    H710339   3.615   3.785  14.063  0.2476 -0.9444 -0.5468
  696TMC3    C110340   2.923   3.896  13.944  0.3329 -0.4611 -0.1873
  696TMC3    C210341   2.946   3.894  14.080  0.2837 -0.7853 -0.2395
  696TMC3    C310342   2.865   3.966  14.171 -0.0092 -0.7496  0.3270
  696TMC3    C410343   2.810   3.953  13.894  0.8752 -0.1297 -0.4462
  696TMC3    C510344   2.726   4.011  13.982  0.1352 -0.2986  0.9184
  696TMC3    C610345   2.763   4.032  14.112 -0.4841  0.5860  0.4197
  696TMC3     C10346   3.024   3.844  13.852  0.2583  0.7608  0.2684
  696TMC3     O10347   2.997   3.836  13.729 -0.4429 -0.0434 -0.0551
  696TMC3     H10348   3.027   3.837  14.123  2.2752  1.8872 -0.4396
  696TMC3    H110349   2.804   3.982  13.789 -1.1840 -0.0169 -0.2929
  696TMC3    H210350   2.693   4.088  14.172  0.9893  2.2887  0.5593
  696TMC3    C710351   2.689   4.139  13.919 -0.3332 -0.3045 -0.3612
  696TMC3    C810352   2.936   4.065  14.245 -0.1774  0.0245  0.5086
  696TMC3    O110353   2.608   4.136  13.830 -0.0481  0.1862 -0.4020
  696TMC3    O210354   2.894   4.179  14.236  0.0890  0.4714  0.3022
  697MPD2     C10355   2.745   0.694  15.417  0.3486 -0.6674  0.2325
  697MPD2    C110356   2.682   0.664  15.301 -0.1227  0.2031  0.3803
  697MPD2    C210357   2.646   0.757  15.215  1.1338 -0.3420  0.0865
  697MPD2    C310358   2.678   0.886  15.242 -0.1574  0.1351 -0.0561
  697MPD2    C410359   2.746   0.916  15.363  0.7852  0.5444  0.3460
  697MPD2    C510360   2.774   0.823  15.455  0.4720 -0.7663  0.1962
  697MPD2     H10361   2.603   0.723  15.121  2.1976  1.1770 -0.9552
  697MPD2    H110362   2.768   1.013  15.405  0.4413  0.6211  0.3533
  697MPD2    H210363   2.772   0.617  15.488 -0.3431  0.4409  1.6998
  697MPD2    H310364   2.823   0.836  15.551  0.2950  1.5262 -0.0142
  697MPD2     N10365   2.661   0.985  15.142  0.2850 -0.4790  0.1333
  697MPD2    H510366   2.622   0.962  15.051 -0.3825 -0.8823  0.5204
  697MPD2    N110367   2.635   0.532  15.276 -0.2427  0.0765 -0.2520
  697MPD2    H710368   2.580   0.523  15.191  1.0427  0.2546 -1.0992
  698TMC3    C110369   2.658   1.198  15.044 -0.1531 -0.3327  0.1433
  698TMC3    C210370   2.665   1.331  15.069 -0.4871 -0.7715 -0.6094
  698TMC3    C310371   2.721   1.407  14.967  0.7791  1.1623  0.1852
  698TMC3    C410372   2.681   1.141  14.919 -0.4822 -0.8310 -0.6843
  698TMC3    C510373   2.726   1.228  14.823  0.3891  0.6070  0.4871
  698TMC3    C610374   2.746   1.363  14.843 -0.0349 -0.7796 -0.0644
  698TMC3     C10375   2.696   1.115  15.153  0.1818 -0.0148  0.2723
  698TMC3     O10376   2.754   1.171  15.249 -0.2258 -0.1869 -0.0638
  698TMC3     H10377   2.644   1.371  15.168  0.4502 -1.1178 -0.2739
  698TMC3    H110378   2.677   1.034  14.901 -0.4522 -0.9266 -0.1333
  698TMC3    H210379   2.775   1.433  14.766 -2.5159  0.8402  0.4747
  698TMC3    C710380   2.742   1.182  14.686  0.2673  0.0884 -0.8536
  698TMC3    C810381   2.791   1.533  15.009 -0.6980 -0.3944 -0.1448
  698TMC3    O110382   2.695   1.076  14.653  0.4530  0.3260  0.0650
  698TMC3    O210383   2.836   1.545  15.121 -0.3834 -0.5195  0.0406
  699TMC3    C110384   2.646   3.908  13.513 -0.4772 -0.0623 -0.1658
  699TMC3    C210385   2.698   3.808  13.595 -0.4344  0.2557  0.4835
  699TMC3    C310386   2.599   3.736  13.656  0.3230 -0.3291 -0.7229
  699TMC3    C410387   2.515   3.938  13.492  0.7068 -0.5016  0.3439
  699TMC3    C510388   2.422   3.856  13.555 -0.0516  0.0988 -0.5249
  699TMC3    C610389   2.464   3.760  13.648 -0.5306  0.6029 -0.1158
  699TMC3     C10390   2.739   3.971  13.418 -0.2910  0.7329 -0.8121
  699TMC3     O10391   2.696   4.063  13.345  0.3739  0.7079  0.1881
  699TMC3     H10392   2.805   3.798  13.614 -0.3399  0.5042  0.0869
  699TMC3    H110393   2.487   4.026  13.435 -0.0022  0.0603  1.5630
  699TMC3    H210394   2.393   3.696  13.699  0.5528 -1.2600 -0.9412
  699TMC3    C710395   2.281   3.865  13.528 -0.2036 -0.4620 -0.3309
  699TMC3    C810396   2.648   3.650  13.764  0.1676  0.2719 -0.0232
  699TMC3    O110397   2.204   3.835  13.620 -0.0954  0.7023  0.1883
  699TMC3    O210398   2.568   3.616  13.853  0.2115  0.3504  0.2413
  700TMC3    C110399   1.714   1.215  17.299  0.1349  0.3797  0.2447
  700TMC3    C210400   1.786   1.101  17.279 -0.1858 -0.2412  0.7302
  700TMC3    C310401   1.914   1.106  17.332 -1.0477  0.2138  0.0590
  700TMC3    C410402   1.770   1.331  17.356  0.1899  0.9835  0.3389
  700TMC3    C510403   1.896   1.330  17.402 -0.2168 -0.0015 -0.0519
  700TMC3    C610404   1.974   1.214  17.386 -0.2933  0.4844  0.7401
  700TMC3     C10405   1.621   1.237  17.190 -0.3098 -0.5045 -0.8448
  700TMC3     O10406   1.527   1.157  17.170 -0.2040 -0.5630 -0.6137
  700TMC3     H10407   1.752   1.019  17.217 -0.2544  1.0232 -0.9085
  700TMC3    H110408   1.711   1.422  17.365  1.3296  1.9599 -2.0606
  700TMC3    H210409   2.074   1.202  17.426 -0.3044  0.6017  0.8028
  700TMC3    C710410   1.962   1.448  17.451 -0.4338 -0.2464  0.3806
  700TMC3    C810411   2.014   1.001  17.286  0.6801 -0.2495 -0.3513
  700TMC3    O110412   2.062   1.452  17.522  0.6028  0.2378 -0.2002
  700TMC3    O210413   2.130   1.038  17.278 -0.0479  0.1842  0.5059
  701TMC3    C110414   1.868   4.704  15.295  0.4113 -0.7324  0.0516
  701TMC3    C210415   1.891   4.634  15.182 -0.0707  0.3084  0.0922
  701TMC3    C310416   1.988   4.679  15.099 -0.2231 -0.0722  0.4064
  701TMC3    C410417   1.958   0.055  15.347 -0.0855 -0.4769 -0.5474
  701TMC3    C510418   2.061   0.085  15.265  0.7473  0.3111 -0.2111
  701TMC3    C610419   2.080   0.038  15.135 -0.5150  0.5330  0.2799
  701TMC3     C10420   1.739   4.694  15.357  0.4350  0.1308 -0.5987
  701TMC3     O10421   1.687   4.584  15.359 -0.2180  0.7133 -0.1579
  701TMC3     H10422   1.809   4.569  15.153  1.1514 -0.8907 -0.6822
  701TMC3    H110423   1.933   0.093  15.445  2.6812 -0.4518  0.1457
  701TMC3    H210424   2.165   0.065  15.073 -0.5738 -2.5212 -1.1654
  701TMC3    C710425   2.145   0.200  15.297  0.3140 -0.4932 -0.9332
  701TMC3    C810426   2.011   4.619  14.976 -0.2224  0.9029  0.2311
  701TMC3    O110427   2.207   0.261  15.214 -0.1807 -0.6997  0.4469
  701TMC3    O210428   2.122   4.642  14.927  0.1517 -0.4732 -0.3559
  702MPD2     C10429   2.038   2.295  10.440  0.2254 -1.1452  0.1604
  702MPD2    C110430   2.001   2.395  10.526 -0.8104 -0.0889  0.9936
  702MPD2    C210431   2.031   2.525  10.495  0.1983  0.0686  0.3969
  702MPD2    C310432   2.095   2.552  10.373  0.2304 -0.4675  0.1339
  702MPD2    C410433   2.141   2.454  10.294  0.8578 -0.0332  0.5107
  702MPD2    C510434   2.102   2.328  10.325  0.8118 -0.7672 -0.1770
  702MPD2     H10435   1.982   2.600  10.557 -0.0111  0.6770 -0.5017
  702MPD2    H110436   2.191   2.471  10.199 -1.1350 -0.5041 -0.6284
  702MPD2    H210437   2.021   2.189  10.456 -1.7159 -0.8496  0.0717
  702MPD2    H310438   2.126   2.248  10.257 -0.3416  0.6210 -2.2278
  702MPD2     N10439   2.115   2.688  10.327 -0.4157  0.0349 -0.3355
  702MPD2    H510440   2.139   2.707  10.230 -0.5176 -1.2703 -0.6112
  702MPD2    N110441   1.928   2.381  10.647  0.1866  0.2194  0.0971
  702MPD2    H710442   1.902   2.465  10.698  1.0018 -0.3247  1.4133
  703TMC3    C110443   2.072   2.917  10.326  0.3887 -0.0174  0.5720
  703TMC3    C210444   1.958   2.982  10.368 -0.3513 -0.2568  0.0834
  703TMC3    C310445   1.969   3.106  10.418  0.9341  0.5132  1.0220
  703TMC3    C410446   2.193   2.974  10.335  0.5819  0.5581  0.2986
  703TMC3    C510447   2.194   3.094  10.397 -0.7875  0.3278 -0.0256
  703TMC3    C610448   2.090   3.173  10.429 -0.5377  0.0413  0.3909
  703TMC3     C10449   2.078   2.792  10.400  0.3372  0.3851  0.3723
  703TMC3     O10450   2.043   2.804  10.515 -0.4163  0.3406  0.3747
  703TMC3     H10451   1.867   2.923  10.377 -0.2195 -0.2278  1.6784
  703TMC3    H110452   2.280   2.911  10.323  0.3344  0.3262 -0.2803
  703TMC3    H210453   2.102   3.266  10.481  2.1977 -0.8923  1.3949
  703TMC3    C710454   2.316   3.130  10.459 -0.4541 -0.0274  0.5983
  703TMC3    C810455   1.911   3.108  10.548  0.2982  0.2958 -0.3855
  703TMC3    O110456   2.423   3.103  10.407 -0.1938 -0.1174 -0.6890
  703TMC3    O210457   1.998   3.105  10.631  0.1922 -0.6327  0.2373
  704TMC3    C110458   4.452   0.750  12.672  0.4457 -0.0431  0.5453
  704TMC3    C210459   4.579   0.727  12.623 -0.2194  0.7483 -0.1480
  704TMC3    C310460   4.643   0.615  12.664 -0.5944 -0.5090  0.0951
  704TMC3    C410461   4.411   0.684  12.788 -0.0055 -1.2166  0.4780
  704TMC3    C510462   4.489   0.573  12.823 -0.4897  0.5388  0.3152
  704TMC3    C610463   4.597   0.533  12.754 -0.3816 -0.8701  0.0527
  704TMC3     C10464   4.347   0.777  12.573 -0.4544 -0.4414 -0.2894
  704TMC3     O10465   4.234   0.772  12.620  0.1462 -0.2700 -0.3428
  704TMC3     H10466   4.620   0.782  12.540 -0.9848  0.6495 -0.5928
  704TMC3    H110467   4.312   0.700  12.830 -0.1159  1.8718 -0.9416
  704TMC3    H210468   4.645   0.436  12.764 -0.3740 -0.9421 -0.7263
  704TMC3    C710469   4.410   0.458  12.848  0.1770 -0.4462  0.0109
  704TMC3    C810470   4.705   0.556  12.549  0.6665 -0.2123 -0.1478
  704TMC3    O110471   4.346   0.418  12.751 -0.2329  0.4101 -0.5379
  704TMC3    O210472   0.081   0.513  12.561 -0.2629  0.3098  0.2559
  705MPD2     C10473   3.292   3.475  16.393  0.0495  0.3942  0.2436
  705MPD2    C110474   3.330   3.599  16.338  0.1463  0.4177 -0.4642
  705MPD2    C210475   3.231   3.687  16.300 -0.2542  0.3100 -0.1595
  705MPD2    C310476   3.097   3.658  16.333  0.3567 -0.2617  0.1208
  705MPD2    C410477   3.060   3.543  16.395 -0.1650  0.1832  0.0266
  705MPD2    C510478   3.157   3.451  16.417  0.0641  0.4004 -0.0574
  705MPD2     H10479   3.253   3.769  16.233 -0.7976  1.7430  1.4232
  705MPD2    H110480   2.959   3.522  16.428 -0.2864  0.5051 -0.1401
  705MPD2    H210481   3.352   3.389  16.419  1.4992  0.1950 -3.7998
  705MPD2    H310482   3.129   3.362  16.473  3.9095 -1.9060 -1.8118
  705MPD2     N10483   2.988   3.743  16.307  0.4894  0.0172 -0.0090
  705MPD2    H510484   2.896   3.704  16.324  2.0031 -4.7605 -2.9468
  705MPD2    N110485   3.465   3.631  16.308 -0.2530 -0.0716  0.2974
  705MPD2    H710486   3.480   3.722  16.267 -4.2960  0.2222 -0.5922
  706TMC3    C110487   3.887   3.518  16.114 -0.3863 -0.4222  0.2183
  706TMC3    C210488   3.912   3.653  16.076  0.0630 -0.1243  0.4354
  706TMC3    C310489   3.833   3.749  16.149  0.1573  0.5803  0.6952
  706TMC3    C410490   3.774   3.484  16.187 -0.0969  0.0570 -0.3077
  706TMC3    C510491   3.697   3.584  16.248  0.3295  0.2642 -0.2721
  706TMC3    C610492   3.725   3.714  16.225  0.2352  0.7724  0.5471
  706TMC3     C10493   3.973   3.412  16.071  0.0259  0.2018  0.4412
  706TMC3     O10494   3.977   3.313  16.145 -0.2577  0.3274 -0.4071
  706TMC3     H10495   3.996   3.691  16.019  0.1346  1.1585  1.3829
  706TMC3    H110496   3.766   3.381  16.218 -2.0962 -0.4314 -2.4665
  706TMC3    H210497   3.664   3.786  16.278 -1.8649 -0.8314  0.3203
  706TMC3    C710498   3.576   3.546  16.310 -0.5864  1.2394  0.2022
  706TMC3    C810499   3.836   3.884  16.101 -0.5675  0.1017  0.4352
  706TMC3    O110500   3.578   3.430  16.348 -0.2496  0.0289 -0.0174
  706TMC3    O210501   3.875   3.907  15.990  0.2113  0.3216  0.3692
  707TMC3    C110502   0.049   1.628   1.622 -0.6650 -0.5758 -0.1360
  707TMC3    C210503   0.102   1.748   1.572  1.4309  0.8833  0.1125
  707TMC3    C310504   0.063   1.862   1.640  0.4055  0.6131 -0.4281
  707TMC3    C410505   4.689   1.626   1.709  0.2427  0.0609 -0.3667
  707TMC3    C510506   4.650   1.738   1.773 -0.5200  0.0026  1.3279
  707TMC3    C610507   4.706   1.857   1.747 -0.1291  0.2825 -1.2035
  707TMC3     C10508   0.070   1.504   1.549 -0.6884 -0.0060  0.6989
  707TMC3     O10509   4.712   1.425   1.550 -0.1427 -0.1161  0.5131
  707TMC3     H10510   0.177   1.747   1.494  2.3555 -1.7495  1.0365
  707TMC3    H110511   4.646   1.531   1.739 -0.2428  0.6897  0.9494
  707TMC3    H210512   4.673   1.950   1.792 -0.3786 -0.6491  0.5410
  707TMC3    C710513   4.579   1.714   1.899 -0.2057  0.2836 -0.6670
  707TMC3    C810514   0.132   1.989   1.633 -0.1658 -0.0976  0.2000
  707TMC3    O110515   4.561   1.598   1.931 -0.6619  0.8638  0.2811
  707TMC3    O210516   0.102   2.080   1.710 -0.6702  0.8604 -0.2766
  708MPD2     C10517   1.984   1.504  14.055  0.2890  0.2501 -1.2562
  708MPD2    C110518   2.014   1.639  14.071  0.6972  0.0456 -0.3484
  708MPD2    C210519   1.959   1.713  14.174 -0.2759  0.3447  0.0801
  708MPD2    C310520   1.882   1.653  14.271 -0.4228  0.2707  0.5611
  708MPD2    C410521   1.872   1.521  14.264 -0.8490 -0.3003 -0.6710
  708MPD2    C510522   1.930   1.446  14.168  0.0098  0.3296  0.8343
  708MPD2     H10523   1.972   1.820  14.184  1.4250  0.4184 -2.7074
  708MPD2    H110524   1.821   1.467  14.343 -1.8086  0.2918 -0.8844
  708MPD2    H210525   2.024   1.442  13.975  0.3149  0.2943 -1.2775
  708MPD2    H310526   1.917   1.339  14.168 -1.1219  0.4735 -1.4374
  708MPD2     N10527   1.815   1.728  14.372 -0.6740  0.1601  0.3350
  708MPD2    H510528   1.825   1.828  14.363  0.0661  0.2084  1.6676
  708MPD2    N110529   2.089   1.699  13.972  0.3342  0.2296  0.4185
  708MPD2    H710530   2.101   1.657  13.881  0.6135 -0.2006  0.6545
  709TMC3    C110531   2.117   1.915  13.867 -0.2405  0.5463  0.0124
  709TMC3    C210532   2.068   1.861  13.752 -0.2362  0.0940  0.0353
  709TMC3    C310533   1.990   1.942  13.664  0.4202  0.1101 -0.0702
  709TMC3    C410534   2.081   2.037  13.900 -0.0005  0.2792  0.6029
  709TMC3    C510535   1.977   2.098  13.837  0.1257 -0.3493  0.2000
  709TMC3    C610536   1.945   2.063  13.712 -0.2674 -0.1304  1.0172
  709TMC3     C10537   2.133   1.832  13.984  0.5023 -0.0967  0.7555
  709TMC3     O10538   2.163   1.893  14.085  0.3202 -0.1865 -1.3579
  709TMC3     H10539   2.109   1.766  13.723 -1.6219 -0.8596  1.1679
  709TMC3    H110540   2.111   2.075  13.996 -1.4452 -0.6519  1.4219
  709TMC3    H210541   1.873   2.126  13.662 -0.9510 -0.9016  1.0177
  709TMC3    C710542   1.869   2.093  13.928  0.3445  0.6411  0.4448
  709TMC3    C810543   1.939   1.886  13.537  0.1175  0.4429  0.2459
  709TMC3    O110544   1.885   2.075  14.046  0.1421  0.2746 -1.1445
  709TMC3    O210545   1.965   1.769  13.514  0.1125  0.3630 -0.1904
  710TMC3    C110546   2.754   3.523  17.684 -0.3060 -0.0501  0.9983
  710TMC3    C210547   2.789   3.480  17.560  0.0321  0.1695 -0.0024
  710TMC3    C310548   2.834   3.350  17.547  0.1011  0.4311 -0.3628
  710TMC3    C410549   2.770   3.446   0.045 -0.2886  0.2467  0.0236
  710TMC3    C510550   2.813   3.319   0.027  0.6334 -0.0710  0.2309
  710TMC3    C610551   2.844   3.268  17.657 -0.9860  0.2696  0.1514
  710TMC3     C10552   2.675   3.642  17.674 -1.0179  0.4808  0.4309
  710TMC3     O10553   2.690   3.711  17.571  0.6434  0.1873  0.0133
  710TMC3     H10554   2.763   3.537  17.472 -0.0634 -0.7755 -0.5817
  710TMC3    H110555   2.754   3.478   0.148 -0.0797  0.8785 -0.1360
  710TMC3    H210556   2.865   3.162  17.644 -0.4988  0.6005 -1.6876
  710TMC3    C710557   2.861   3.254   0.146  1.0081 -0.6429  0.4976
  710TMC3    C810558   2.856   3.302  17.411  0.1478  0.8441  0.2357
  710TMC3    O110559   2.812   3.287   0.251  0.1578 -0.4308  0.2286
  710TMC3    O210560   2.852   3.387  17.321  0.8255  0.8048  0.2450
  711TMC3    C110561   2.665   4.360  14.909  0.4137  0.4627  0.6800
  711TMC3    C210562   2.694   4.425  15.024 -0.2066 -0.1908  0.2263
  711TMC3    C310563   2.812   4.401  15.093  0.1247  0.1405  0.5271
  711TMC3    C410564   2.755   4.265  14.858  0.1068 -0.3116  0.6193
  711TMC3    C510565   2.859   4.231  14.934 -0.5345  0.5944 -0.3818
  711TMC3    C610566   2.891   4.296  15.048 -0.7144  0.6245 -0.5109
  711TMC3     C10567   2.523   4.315  14.892  0.3184 -0.2496 -0.0029
  711TMC3     O10568   2.513   4.215  14.823  0.2265  0.4611 -0.4322
  711TMC3     H10569   2.634   4.506  15.064  0.1644  1.0543 -1.7451
  711TMC3    H110570   2.730   4.217  14.764 -0.5894 -0.2011  0.7433
  711TMC3    H210571   2.981   4.265  15.101 -0.7498  1.0046 -0.2293
  711TMC3    C710572   2.902   4.095  14.937  0.0900  0.4422 -0.1983
  711TMC3    C810573   2.829   4.463  15.218 -0.2429 -0.0259 -0.2918
  711TMC3    O110574   3.007   4.067  14.988 -0.1260  0.4237  0.3848
  711TMC3    O210575   2.730   4.490  15.283  0.3409 -0.0617  0.2277
  712MPD2     C10576   4.187   1.027  13.781  0.1059 -0.3519  0.1333
  712MPD2    C110577   4.055   1.046  13.743  0.2530  0.6203 -0.5825
  712MPD2    C210578   3.995   1.173  13.767  0.1253  0.8528 -0.2008
  712MPD2    C310579   4.059   1.278  13.817 -0.4459  0.1434  0.3086
  712MPD2    C410580   4.185   1.265  13.860 -0.5808 -0.3791 -0.4007
  712MPD2    C510581   4.246   1.139  13.837  0.5184  0.1843  0.1531
  712MPD2     H10582   3.890   1.181  13.740 -0.7416  1.8630  3.4882
  712MPD2    H110583   4.232   1.351  13.905 -0.1296 -0.0917 -1.4260
  712MPD2    H210584   4.236   0.931  13.792  0.0886 -0.1681  1.7262
  712MPD2    H310585   4.346   1.125  13.874 -0.2420 -1.7965  1.4194
  712MPD2     N10586   3.998   1.402  13.832 -0.0405 -0.5437  0.7365
  712MPD2    H510587   4.047   1.461  13.898  0.1348  1.6839 -1.3981
  712MPD2    N110588   3.979   0.937  13.695  0.0260  0.0628 -0.1514
  712MPD2    H710589   3.879   0.951  13.705  0.1112 -1.3917  2.8848
  713TMC3    C110590   3.863   1.592  13.771  0.5931 -0.5061 -0.4684
  713TMC3    C210591   3.943   1.653  13.682 -0.1999  0.2630 -0.1872
  713TMC3    C310592   3.896   1.749  13.597 -0.2360  0.3120 -0.2305
  713TMC3    C410593   3.732   1.629  13.779 -0.5523 -0.4292 -0.2642
  713TMC3    C510594   3.696   1.740  13.703 -0.6395 -0.2527 -0.7537
  713TMC3    C610595   3.775   1.803  13.616 -0.2184  0.0381 -0.1835
  713TMC3     C10596   3.881   1.447  13.771 -0.3872  0.6961  0.0654
  713TMC3     O10597   3.806   1.400  13.687  0.1922 -0.5734  0.1666
  713TMC3     H10598   4.045   1.617  13.674 -0.8880 -2.0143  1.4395
  713TMC3    H110599   3.660   1.566  13.829 -1.3717 -0.3730 -1.3570
  713TMC3    H210600   3.732   1.878  13.552  1.4124 -0.3370 -1.7238
  713TMC3    C710601   3.561   1.769  13.689  0.1815 -0.6608  0.3904
  713TMC3    C810602   3.978   1.814  13.499  0.3335 -0.1955  0.2633
  713TMC3    O110603   3.492   1.789  13.791 -0.0280 -0.2061 -0.3734
  713TMC3    O210604   3.950   1.930  13.466  0.0333 -0.1066  0.2418
  714MPD2     C10605   0.818   3.624   1.348  0.7286  0.5149 -0.1254
  714MPD2    C110606   0.854   3.603   1.219 -0.2857  0.3186 -0.3467
  714MPD2    C210607   0.769   3.543   1.137  0.6541  0.7581 -0.0132
  714MPD2    C310608   0.642   3.513   1.179 -0.6490 -0.5276 -0.2953
  714MPD2    C410609   0.600   3.536   1.313 -0.5714  0.4727 -0.0083
  714MPD2    C510610   0.693   3.601   1.396 -0.4537  0.2300 -0.3048
  714MPD2     H10611   0.794   3.512   1.036 -2.2788  0.8651 -0.7720
  714MPD2    H110612   0.496   3.523   1.342 -0.3263 -2.5182 -0.5446
  714MPD2    H210613   0.885   3.667   1.422 -0.1969  0.4943  0.7270
  714MPD2    H310614   0.671   3.631   1.498  0.8965 -0.6754  0.2416
  714MPD2     N10615   0.552   3.483   1.072 -0.5770  0.2697 -0.2198
  714MPD2    H510616   0.600   3.470   0.983 -0.3548  0.3603 -0.1110
  714MPD2    N110617   0.979   3.627   1.177  0.1564  0.0455  0.2695
  714MPD2    H710618   1.032   3.689   1.236  1.3952  0.6187 -1.4489
  715TMC3    C110619   1.176   3.654   1.048 -0.4613 -0.0010  0.8444
  715TMC3    C210620   1.271   3.573   1.000  0.0281  0.3591 -0.5084
  715TMC3    C310621   1.396   3.614   1.005 -0.5363  0.5139  0.6490
  715TMC3    C410622   1.207   3.776   1.111 -0.1744  0.6843 -0.1411
  715TMC3    C510623   1.341   3.815   1.108  0.3342  0.5799 -0.1567
  715TMC3    C610624   1.434   3.733   1.063  0.4617  0.5206  0.3278
  715TMC3     C10625   1.040   3.598   1.055 -0.3975  0.4149  0.2286
  715TMC3     O10626   1.013   3.502   0.984 -0.4038  0.4645 -0.2962
  715TMC3     H10627   1.244   3.485   0.943  1.7333  1.2775 -2.7427
  715TMC3    H110628   1.134   3.845   1.151 -0.9272  0.1578 -0.6176
  715TMC3    H210629   1.538   3.764   1.057  0.5111  0.2902  0.0125
  715TMC3    C710630   1.384   3.926   1.193 -0.1020 -0.5440 -0.5701
  715TMC3    C810631   1.489   3.522   0.953 -0.3336 -0.7966  0.2256
  715TMC3    O110632   1.501   3.958   1.185  0.1707 -0.5449 -0.1523
  715TMC3    O210633   1.445   3.424   0.888 -0.1247 -0.5486 -0.0076
  716MPD2     C10634   2.086   2.291   9.786 -0.1047 -0.1348 -0.1788
  716MPD2    C110635   1.996   2.202   9.730 -0.0096  0.6343  0.3105
  716MPD2    C210636   2.050   2.082   9.688 -0.6364 -0.4495  0.9851
  716MPD2    C310637   2.184   2.052   9.711  0.0209 -0.5610 -0.7661
  716MPD2    C410638   2.266   2.143   9.772  0.0103  0.3453 -0.5160
  716MPD2    C510639   2.219   2.268   9.806  0.8346  0.5736 -0.2318
  716MPD2     H10640   1.992   2.002   9.643 -0.3578  0.4844 -1.0315
  716MPD2    H110641   2.373   2.130   9.781  0.0574 -0.0071 -1.5795
  716MPD2    H210642   2.046   2.382   9.830 -0.6576 -0.5495  0.1784
  716MPD2    H310643   2.272   2.346   9.859  2.6276 -0.8140  0.0430
  716MPD2     N10644   2.234   1.926   9.658 -0.4224  0.4170  0.1868
  716MPD2    H510645   2.172   1.879   9.592  0.6281 -0.9601  0.1939
  716MPD2    N110646   1.862   2.239   9.705 -0.3594  0.0708 -0.2098
  716MPD2    H710647   1.847   2.332   9.742  0.3299 -0.6529  1.8867
  717TMC3    C110648   2.392   1.756   9.602 -0.4036 -0.2549 -0.1575
  717TMC3    C210649   2.295   1.671   9.573 -0.1908 -0.2470  0.1579
  717TMC3    C310650   2.313   1.575   9.479  0.4388  0.6581  0.0454
  717TMC3    C410651   2.516   1.742   9.562 -0.3950 -0.7783  0.1599
  717TMC3    C510652   2.538   1.647   9.467 -0.0991  0.2680 -0.3716
  717TMC3    C610653   2.440   1.559   9.416 -0.0919 -0.1516  0.2892
  717TMC3     C10654   2.356   1.865   9.686  0.2357 -0.2521 -0.2491
  717TMC3     O10655   2.446   1.909   9.758  0.9485  0.4641 -0.2334
  717TMC3     H10656   2.197   1.685   9.618  0.1088  0.4001  0.6102
  717TMC3    H110657   2.591   1.805   9.608 -0.7293  1.3756 -2.2557
  717TMC3    H210658   2.460   1.481   9.343  0.7448 -1.2315  1.6526
  717TMC3    C710659   2.672   1.629   9.412 -0.4082  0.4295  0.3905
  717TMC3    C810660   2.187   1.534   9.415  0.6341 -0.1018  0.2764
  717TMC3    O110661   2.704   1.518   9.367 -0.4093 -1.0031 -0.6255
  717TMC3    O210662   2.083   1.559   9.476 -0.2432 -0.3364 -0.0229
  718MPD2     C10663   0.882   0.877  12.656  0.6045 -0.6433  0.6567
  718MPD2    C110664   0.807   0.966  12.583  0.3926 -0.0424 -0.1633
  718MPD2    C210665   0.724   0.924  12.480 -0.0389 -1.0170 -0.6078
  718MPD2    C310666   0.707   0.794  12.455 -0.1649  0.1933 -1.1250
  718MPD2    C410667   0.771   0.710  12.537 -0.0193 -0.2544 -0.6177
  718MPD2    C510668   0.871   0.744  12.621  0.0549  0.4498  0.1063
  718MPD2     H10669   0.668   0.993  12.418 -1.8380 -1.2237  0.7882
  718MPD2    H110670   0.760   0.603  12.526  1.8235 -0.5820  0.7867
  718MPD2    H210671   0.945   0.897  12.742  2.5071  0.2272 -0.9581
  718MPD2    H310672   0.916   0.669  12.684  2.3041 -0.1791 -2.2584
  718MPD2     N10673   0.617   0.754  12.351 -0.7335 -0.2265 -0.2414
  718MPD2    H510674   0.572   0.829  12.300  2.1139  1.4431 -0.3148
  718MPD2    N110675   0.804   1.106  12.620 -0.4945 -0.0985 -0.0581
  718MPD2    H710676   0.872   1.131  12.691  0.2104 -1.9073 -0.1055
  719TMC3    C110677   0.732   1.332  12.603 -0.7011 -0.7592 -0.4094
  719TMC3    C210678   0.619   1.409  12.583  0.5614 -0.0958 -0.3678
  719TMC3    C310679   0.647   1.519  12.502  0.4970 -0.8654  0.3158
  719TMC3    C410680   0.862   1.365  12.572 -0.4524  0.0604 -0.1396
  719TMC3    C510681   0.881   1.480  12.511 -0.0940  0.4569  0.0425
  719TMC3    C610682   0.775   1.564  12.475  0.2439 -0.9163 -0.2581
  719TMC3     C10683   0.697   1.186  12.592 -0.5592  0.1658 -0.6918
  719TMC3     O10684   0.585   1.147  12.555  0.2350 -0.3497 -0.7314
  719TMC3     H10685   0.524   1.359  12.564 -0.3974  0.2644  3.5731
  719TMC3    H110686   0.937   1.288  12.585 -0.2394 -0.1856 -2.7673
  719TMC3    H210687   0.794   1.657  12.422  0.8288 -2.5879 -2.9529
  719TMC3    C710688   1.015   1.528  12.498 -0.0183 -0.8906  0.0859
  719TMC3    C810689   0.560   1.510  12.382  0.0496  0.1558  0.0478
  719TMC3    O110690   1.100   1.434  12.487 -0.2043 -0.4945 -0.1467
  719TMC3    O210691   0.439   1.496  12.395 -0.1780 -0.4113  0.4153
  720MPD2     C10692   3.693   2.875  14.146 -0.4463 -0.3068  0.3145
  720MPD2    C110693   3.798   2.862  14.059  1.0924  0.1650  0.2092
  720MPD2    C210694   3.909   2.791  14.106  0.1130 -0.7374  0.2947
  720MPD2    C310695   3.922   2.751  14.235  0.3812  0.1474  0.2315
  720MPD2    C410696   3.808   2.753  14.313 -0.0060  0.0203 -0.3814
  720MPD2    C510697   3.702   2.827  14.270  0.5747 -0.1114 -0.4008
  720MPD2     H10698   4.001   2.793  14.050 -0.1563  0.1640 -0.1039
  720MPD2    H110699   3.814   2.728  14.418 -0.4708 -0.3268 -0.4396
  720MPD2    H210700   3.597   2.918  14.118  0.9476  1.2994 -1.9468
  720MPD2    H310701   3.620   2.852  14.337  1.2746 -0.0428  0.4222
  720MPD2     N10702   4.046   2.695  14.274  0.5407  0.0904  0.3407
  720MPD2    H510703   4.129   2.698  14.214  0.7071 -0.1094  0.5641
  720MPD2    N110704   3.787   2.905  13.925  0.2068 -0.2305  0.0380
  720MPD2    H710705   3.852   2.874  13.854  0.5846  0.4408  0.0844
  721TMC3    C110706   4.233   2.655  14.415 -0.5285 -0.2328 -0.6098
  721TMC3    C210707   4.289   2.680  14.537 -0.7529 -0.1120 -0.2052
  721TMC3    C310708   4.422   2.705  14.553 -0.2777  0.0676  0.1625
  721TMC3    C410709   4.318   2.646  14.310 -0.2311 -0.0122  0.1418
  721TMC3    C510710   4.452   2.686  14.323 -0.0659  0.6262 -0.2326
  721TMC3    C610711   4.504   2.712  14.445 -0.3629 -0.7384 -0.3818
  721TMC3     C10712   4.089   2.664  14.402 -0.6344  0.0976  0.0269
  721TMC3     O10713   4.025   2.670  14.504 -0.3137  0.3129  0.0346
  721TMC3     H10714   4.221   2.665  14.620 -1.2613 -0.4642 -0.6848
  721TMC3    H110715   4.287   2.598  14.218 -1.3165  0.6845  0.1444
  721TMC3    H210716   4.613   2.713  14.452 -0.4898  1.3721  1.1196
  721TMC3    C710717   4.562   2.632  14.243 -0.3956  0.5273  0.2156
  721TMC3    C810718   4.490   2.697  14.685 -0.0233 -0.5954  0.4852
  721TMC3    O110719   4.627   2.707  14.178  0.7254 -0.6195  0.0921
  721TMC3    O210720   4.606   2.649  14.681 -0.3292 -0.0354 -0.4496
  722MPD2     C10721   2.842   1.398  12.778 -0.1393 -0.5216  0.5740
  722MPD2    C110722   2.858   1.522  12.836 -0.0253 -0.1810 -0.2242
  722MPD2    C210723   2.746   1.588  12.889 -0.1354 -0.1108 -0.1126
  722MPD2    C310724   2.622   1.529  12.899  0.1090  0.5267  0.2682
  722MPD2    C410725   2.611   1.402  12.845  0.8234 -0.5484 -0.9694
  722MPD2    C510726   2.716   1.340  12.783 -0.0604 -0.5911 -0.2305
  722MPD2     H10727   2.766   1.682  12.940 -0.6315  0.4626 -0.9876
  722MPD2    H110728   2.513   1.356  12.853  1.6175 -2.4621 -2.5292
  722MPD2    H210729   2.923   1.346  12.728  0.2633 -0.9934  1.7130
  722MPD2    H310730   2.693   1.252  12.724  2.2042 -2.0640  1.0477
  722MPD2     N10731   2.512   1.605  12.947  0.4600 -0.2302 -0.0567
  722MPD2    H510732   2.526   1.692  12.998 -3.6136  0.8494 -0.7775
  722MPD2    N110733   2.976   1.594  12.835 -0.2139  0.5266  0.6558
  722MPD2    H710734   2.981   1.682  12.885 -0.5661  2.2468 -2.3310
  723TMC3    C110735   2.265   1.660  12.982 -0.1736  0.5478 -0.9143
  723TMC3    C210736   2.138   1.610  12.974 -0.6531  0.5092  0.2490
  723TMC3    C310737   2.042   1.701  12.949 -0.3782 -0.9606  0.0067
  723TMC3    C410738   2.304   1.794  12.984  0.2197  0.0355 -0.3441
  723TMC3    C510739   2.199   1.877  12.961  0.0780 -0.0497 -0.1573
  723TMC3    C610740   2.070   1.837  12.945 -0.3516 -0.1374  0.2934
  723TMC3     C10741   2.376   1.565  12.945 -0.9806 -0.4925 -0.2639
  723TMC3     O10742   2.325   1.464  12.896  0.6178  0.4443 -0.4430
  723TMC3     H10743   2.117   1.505  12.992 -0.3771  0.2809 -0.7490
  723TMC3    H110744   2.406   1.826  13.001  0.8083 -1.9317 -0.1474
  723TMC3    H210745   1.985   1.903  12.931 -0.5382  0.3019  3.4976
  723TMC3    C710746   2.229   2.016  12.957 -0.3638  0.3612 -0.4100
  723TMC3    C810747   1.930   1.658  12.856  0.3423 -0.2281  0.0939
  723TMC3    O110748   2.289   2.065  13.050 -0.2327  0.2386  0.0822
  723TMC3    O210749   1.817   1.696  12.879  0.0035 -0.1749 -0.1525
  724TMC3    C110750   3.081   4.543  10.353 -0.1927 -0.6779  0.5643
  724TMC3    C210751   3.133   4.515  10.233  0.3569  0.4568  0.2797
  724TMC3    C310752   3.270   4.525  10.206  0.3185 -0.5562 -0.5084
  724TMC3    C410753   3.157   4.607  10.447  0.2668 -0.4831  0.2009
  724TMC3    C510754   3.297   4.617  10.418 -0.3638 -0.3730 -0.0289
  724TMC3    C610755   3.352   4.578  10.300 -0.0372  0.8294  0.2903
  724TMC3     C10756   2.959   4.486  10.404 -0.1617  0.6416  1.0693
  724TMC3     O10757   2.941   4.490  10.525  0.2493 -0.4793 -0.0549
  724TMC3     H10758   3.071   4.492  10.147  2.3114  0.2685 -1.0832
  724TMC3    H110759   3.122   4.636  10.545  0.1256 -1.3219  0.3964
  724TMC3    H210760   3.460   4.594  10.295 -0.3064  3.0378  1.8665
  724TMC3    C710761   3.370   4.720  10.485 -0.9670 -0.1440 -0.2203
  724TMC3    C810762   3.299   4.579  10.076 -0.2418  0.0447 -0.1609
  724TMC3    O110763   3.439   0.053  10.420 -0.2000  0.0286 -0.4245
  724TMC3    O210764   3.219   4.550   9.991  0.1929  0.1868  0.2071
  725TMC3    C110765   0.421   3.404  12.372  0.0303 -0.4500  0.4850
  725TMC3    C210766   0.361   3.451  12.257  0.1943 -0.0187  0.9496
  725TMC3    C310767   0.422   3.416  12.137  0.2646 -0.4201 -0.7769
  725TMC3    C410768   0.537   3.324  12.364 -0.2080  0.0999 -0.0941
  725TMC3    C510769   0.590   3.298  12.243  0.8735  0.0208 -0.1263
  725TMC3    C610770   0.525   3.332  12.131  0.2195 -0.1560 -0.0268
  725TMC3     C10771   0.348   3.436  12.497  0.1137  0.3591  0.1542
  725TMC3     O10772   0.278   3.540  12.499 -0.5164  0.1892 -0.3885
  725TMC3     H10773   0.271   3.511  12.262  0.7771  0.8911  0.5771
  725TMC3    H110774   0.593   3.307  12.455  1.5948 -1.3340 -1.4837
  725TMC3    H210775   0.561   3.294  12.037  2.5844  0.8330  0.4724
  725TMC3    C710776   0.690   3.190  12.225 -0.2940 -0.3372 -0.1314
  725TMC3    C810777   0.335   3.434  12.018 -0.4608  0.1237  0.6483
  725TMC3    O110778   0.742   3.185  12.114 -0.2137  0.1306  0.1861
  725TMC3    O210779   0.263   3.529  12.030 -0.1811  0.0894  0.0615
  726MPD2     C10780   2.544   0.495  10.668 -0.0427 -0.2682  0.2717
  726MPD2    C110781   2.497   0.472  10.545  0.2104  0.1612  0.2881
  726MPD2    C210782   2.470   0.341  10.500  1.1520 -0.0369 -0.1841
  726MPD2    C310783   2.505   0.234  10.583 -0.1780  0.2007 -0.1467
  726MPD2    C410784   2.575   0.260  10.697  0.7174  0.4568  0.1533
  726MPD2    C510785   2.583   0.389  10.740  0.5637 -0.0267  0.1814
  726MPD2     H10786   2.416   0.320  10.409  1.0121 -1.5570  0.2461
  726MPD2    H110787   2.621   0.182  10.756 -0.4718 -1.3884 -1.3448
  726MPD2    H210788   2.543   0.595  10.710  0.3501  0.0830 -0.5548
  726MPD2    H310789   2.635   0.395  10.835 -1.2903  0.1845  1.1898
  726MPD2     N10790   2.462   0.103  10.567  0.4340 -0.0880 -0.0657
  726MPD2    H510791   2.484   0.035  10.639 -2.3303  0.9871  1.7663
  726MPD2    N110792   2.468   0.571  10.451 -0.4167  0.5856 -0.1635
  726MPD2    H710793   2.440   0.545  10.357 -1.3253  2.1990 -0.3244
  727TMC3    C110794   2.499   0.783  10.360 -0.9084 -0.1093  0.0300
  727TMC3    C210795   2.587   0.887  10.372 -0.1496 -0.5121  0.5170
  727TMC3    C310796   2.585   0.979  10.273  0.2556  0.4964 -0.0891
  727TMC3    C410797   2.396   0.785  10.278 -0.4081  0.3171 -0.1297
  727TMC3    C510798   2.398   0.880  10.172  0.2374  0.1478 -0.2654
  727TMC3    C610799   2.502   0.969  10.169 -0.3806  0.6409  0.4752
  727TMC3     C10800   2.507   0.700  10.477  0.2138 -0.6729  0.9237
  727TMC3     O10801   2.544   0.763  10.578  0.1058  0.7669  0.0750
  727TMC3     H10802   2.666   0.865  10.443  0.2857 -0.0990  0.1645
  727TMC3    H110803   2.311   0.720  10.295 -0.8587  0.9708  0.1124
  727TMC3    H210804   2.511   1.022  10.074 -0.2015 -1.4318 -0.6656
  727TMC3    C710805   2.327   0.850  10.052 -0.7015  0.3828  0.0819
  727TMC3    C810806   2.720   1.017  10.239  0.7219 -0.3539 -0.3202
  727TMC3    O110807   2.320   0.944   9.975  0.3530 -0.4375  0.7877
  727TMC3    O210808   2.803   0.937  10.279  0.2809 -0.4975  0.4278
  728TMC3    C110809   1.962   3.047  15.346 -0.5483 -0.4679  0.5133
  728TMC3    C210810   2.092   3.083  15.315  0.1913 -0.0556 -0.1065
  728TMC3    C310811   2.134   3.060  15.187 -0.7154  1.0106  0.3806
  728TMC3    C410812   1.874   3.030  15.245 -0.9043  0.2402  0.0868
  728TMC3    C510813   1.911   3.018  15.118  0.4144  0.0506  0.3054
  728TMC3    C610814   2.046   3.020  15.086  0.4562 -0.5192 -0.4578
  728TMC3     C10815   1.928   3.052  15.485 -0.1416 -0.0746  0.7048
  728TMC3     O10816   1.993   3.125  15.555 -1.0595  0.1676  0.0855
  728TMC3     H10817   2.163   3.110  15.392  0.1908  0.2223 -0.2061
  728TMC3    H110818   1.768   3.047  15.261 -1.1900 -1.1685 -0.3066
  728TMC3    H210819   2.083   3.017  14.984 -0.8592 -1.7753 -0.8928
  728TMC3    C710820   1.812   3.054  15.023 -0.5088 -0.0640 -0.4422
  728TMC3    C810821   2.268   3.100  15.145 -0.1536  0.0765 -0.2809
  728TMC3    O110822   1.717   2.979  15.002 -0.4934  0.0779 -0.9248
  728TMC3    O210823   2.330   3.030  15.064 -0.1785  0.2029  0.1007
  729MPD2     C10824   4.001   3.504  16.466  0.4328 -0.0552  0.0975
  729MPD2    C110825   3.998   3.642  16.460  0.1399 -0.0601  0.6425
  729MPD2    C210826   3.890   3.710  16.510  0.0610 -0.3213 -0.5467
  729MPD2    C310827   3.796   3.640  16.583  0.0075 -0.0888 -0.3721
  729MPD2    C410828   3.800   3.502  16.584 -0.1651  0.0205  0.5427
  729MPD2    C510829   3.899   3.431  16.531  0.6351  0.0865 -0.5140
  729MPD2     H10830   3.890   3.818  16.510 -1.8150 -0.3237  1.5477
  729MPD2    H110831   3.737   3.447  16.653  1.5199 -1.3096  1.0428
  729MPD2    H210832   4.085   3.449  16.426  0.4498 -0.2686  0.4236
  729MPD2    H310833   3.897   3.324  16.548 -1.5429  0.6262  2.4872
  729MPD2     N10834   3.692   3.702  16.656 -0.0613  0.1391  0.7238
  729MPD2    H510835   3.639   3.651  16.725  2.0924 -0.7151  1.7553
  729MPD2    N110836   4.106   3.715  16.398  0.2784 -0.2335  0.3293
  729MPD2    H710837   4.186   3.658  16.373 -2.8271 -3.9444 -1.2195
  730TMC3    C110838   3.589   3.859  16.779 -0.3380 -0.0685 -0.7104
  730TMC3    C210839   3.617   3.787  16.891 -0.5394 -0.0352 -0.4794
  730TMC3    C310840   3.614   3.850  17.014  0.5563  0.6676  0.3908
  730TMC3    C410841   3.563   3.993  16.790  0.7110  0.3094 -0.3270
  730TMC3    C510842   3.537   4.048  16.909 -0.2792  0.4551 -0.4458
  730TMC3    C610843   3.555   3.974  17.025 -0.2558  0.2786  0.3087
  730TMC3     C10844   3.665   3.829  16.659 -0.3539  0.3106 -0.7851
  730TMC3     O10845   3.686   3.913  16.571  0.6260 -0.2496  0.2420
  730TMC3     H10846   3.661   3.688  16.888 -0.7718 -0.1077 -1.3170
  730TMC3    H110847   3.554   4.057  16.703  2.1243  3.3052  1.7465
  730TMC3    H210848   3.517   3.999  17.123  2.1376  0.9408  1.0716
  730TMC3    C710849   3.558   4.189  16.924 -0.2583  0.5322  0.0646
  730TMC3    C810850   3.735   3.845  17.080  0.2222 -0.2795 -0.2510
  730TMC3    O110851   3.611   4.249  16.836  0.3977 -0.3228 -0.4822
  730TMC3    O210852   3.821   3.779  17.021 -0.0676 -0.3323 -0.1419
  731MPD2     C10853   4.213   2.853  11.886 -0.3207  0.0207 -0.7809
  731MPD2    C110854   4.352   2.829  11.881 -0.2593  0.3998  0.6605
  731MPD2    C210855   4.438   2.874  11.986 -0.5994 -0.5450  0.5356
  731MPD2    C310856   4.386   2.943  12.091  0.1891 -0.0072 -0.8036
  731MPD2    C410857   4.252   2.968  12.094 -0.0658  0.9361  0.2381
  731MPD2    C510858   4.165   2.919  11.997  0.5133  0.5554  0.0305
  731MPD2     H10859   4.546   2.858  11.988 -0.4260  0.7434  1.8031
  731MPD2    H110860   4.208   3.002  12.187  1.0114  2.1333  0.2984
  731MPD2    H210861   4.143   2.829  11.807 -1.7303 -2.2771  1.1758
  731MPD2    H310862   4.058   2.937  12.005  0.6814  2.1949 -1.4129
  731MPD2     N10863   4.478   2.974  12.194 -0.0578  0.4427 -0.6473
  731MPD2    H510864   4.570   2.933  12.182  0.3240  1.2289 -0.4329
  731MPD2    N110865   4.402   2.780  11.758 -0.0350  0.3876 -0.0311
  731MPD2    H710866   4.333   2.735  11.698  1.3522 -1.3549 -0.3195
  732TMC3    C110867   4.552   2.667  11.621  0.6996  0.3388  0.5407
  732TMC3    C210868   4.454   2.571  11.601 -0.4677  0.0948  0.5501
  732TMC3    C310869   4.469   2.482  11.497 -0.2809  0.6252  0.0835
  732TMC3    C410870   4.662   2.676  11.538 -0.5975  0.3838  0.8204
  732TMC3    C510871   4.670   2.588  11.441  0.0512 -1.0478 -0.4666
  732TMC3    C610872   4.574   2.493  11.410 -0.2382 -1.0528  0.2062
  732TMC3     C10873   4.538   2.759  11.732 -0.5111 -0.1582  0.9165
  732TMC3     O10874   4.641   2.799  11.785  0.0060  1.0716  0.7865
  732TMC3     H10875   4.381   2.559  11.680 -0.8278 -2.1877 -0.1207
  732TMC3    H110876   0.001   2.749  11.557  0.7265 -1.2445  1.6076
  732TMC3    H210877   4.587   2.431  11.322  0.4249  1.7221 -1.6315
  732TMC3    C710878   0.062   2.584  11.376  0.3275  0.0008 -0.2398
  732TMC3    C810879   4.396   2.360  11.501 -0.1384  0.6285 -0.0931
  732TMC3    O110880   0.070   2.535  11.265 -0.0348 -0.1676 -0.0180
  732TMC3    O210881   4.410   2.282  11.407  0.1887 -0.3586 -0.0453
  733TMC3    C110882   0.293   0.829  12.370  0.0486  0.0636  0.2730
  733TMC3    C210883   0.349   0.706  12.379  0.0499  0.3099  0.6600
  733TMC3    C310884   0.435   0.662  12.284 -0.4604 -0.1065  0.7362
  733TMC3    C410885   0.310   0.912  12.264 -0.1489  0.6059 -0.0278
  733TMC3    C510886   0.389   0.865  12.158  0.6448 -0.6415  0.2028
  733TMC3    C610887   0.443   0.741  12.172  0.0412  0.6131 -1.1569
  733TMC3     C10888   0.188   0.856  12.471 -0.1010 -0.3107  0.5767
  733TMC3     O10889   0.095   0.935  12.453 -0.6622 -0.4071  0.1574
  733TMC3     H10890   0.325   0.644  12.465 -1.8197 -0.4721 -0.4140
  733TMC3    H110891   0.234   0.986  12.243  0.2296  1.1866  0.6079
  733TMC3    H210892   0.507   0.703  12.092  1.4036  3.7398 -1.5672
  733TMC3    C710893   0.462   0.962  12.083 -0.1938 -0.1582 -0.6841
  733TMC3    C810894   0.562   0.631  12.341  0.4286  0.3414  1.1738
  733TMC3    O110895   0.538   0.917  11.997 -0.1175 -0.3365 -0.2971
  733TMC3    O210896   0.562   0.540  12.425 -0.1942  0.0663  0.1460
  734MPD2     C10897   2.706   2.992  12.663 -0.8560  0.0064  0.3553
  734MPD2    C110898   2.639   2.941  12.552  0.4060  0.6662  0.7161
  734MPD2    C210899   2.640   3.011  12.436  0.1946 -0.3951  0.9028
  734MPD2    C310900   2.701   3.132  12.430 -0.1105 -0.8877 -0.8034
  734MPD2    C410901   2.769   3.184  12.538  0.3458 -0.4378 -0.3555
  734MPD2    C510902   2.785   3.106  12.655 -0.1342 -0.4826  0.3961
  734MPD2     H10903   2.599   2.966  12.347  0.4218 -1.1946  1.1997
  734MPD2    H110904   2.824   3.277  12.528 -0.9832  0.3426 -0.4340
  734MPD2    H210905   2.695   2.943  12.759 -3.3855 -0.7501 -0.3221
  734MPD2    H310906   2.835   3.145  12.742  0.5771 -1.2044  0.3040
  734MPD2     N10907   2.710   3.187  12.297 -0.9612 -0.0340  0.1169
  734MPD2    H510908   2.651   3.137  12.231 -1.0991 -1.3871  1.2622
  734MPD2    N110909   2.561   2.821  12.565  0.5104  0.4184 -0.0647
  734MPD2    H710910   2.584   2.775  12.653  1.3387 -0.4176 -0.7122
  735TMC3    C110911   2.414   2.643  12.501 -0.0495  1.5056  0.3260
  735TMC3    C210912   2.319   2.609  12.412  0.0611  0.2513 -0.0153
  735TMC3    C310913   2.319   2.494  12.337  0.2764 -0.3458  0.6082
  735TMC3    C410914   2.522   2.560  12.514 -0.4215 -0.6689 -0.5181
  735TMC3    C510915   2.527   2.439  12.449 -0.4812  0.6529  0.7584
  735TMC3    C610916   2.428   2.405  12.358  1.0871 -0.5123 -0.3094
  735TMC3     C10917   2.462   2.778  12.479  0.3035 -0.3589  0.1814
  735TMC3     O10918   2.419   2.827  12.375 -0.1722 -0.4918  0.1466
  735TMC3     H10919   2.243   2.684  12.392 -1.2210 -0.8767  0.7484
  735TMC3    H110920   2.599   2.584  12.587 -2.0964  0.5107  0.8448
  735TMC3    H210921   2.450   2.331  12.282 -1.5784 -0.8195 -0.7607
  735TMC3    C710922   2.660   2.391  12.422  0.2481  0.4820 -0.2493
  735TMC3    C810923   2.305   2.521  12.187  0.2589  0.2217 -0.3349
  735TMC3    O110924   2.752   2.468  12.434  0.1627 -0.4142 -1.0288
  735TMC3    O210925   2.290   2.434  12.109  1.0234 -0.1944  0.7068
  736MPD2     C10926   2.742   2.076  12.253 -0.2785  0.3975 -0.0637
  736MPD2    C110927   2.759   2.209  12.287 -0.0683  0.5475 -0.1233
  736MPD2    C210928   2.853   2.289  12.225  0.0633  0.6757  0.3260
  736MPD2    C310929   2.948   2.228  12.141  0.3761 -0.2184 -0.4347
  736MPD2    C410930   2.931   2.095  12.100 -0.2330  0.3610 -0.1505
  736MPD2    C510931   2.825   2.027  12.159 -0.3863 -0.2727 -0.5789
  736MPD2     H10932   2.860   2.395  12.245  0.2421  0.5468  0.9431
  736MPD2    H110933   2.988   2.047  12.022 -1.3732 -4.4222  1.9667
  736MPD2    H210934   2.662   2.014  12.293  1.4175 -1.1869  0.8575
  736MPD2    H310935   2.808   1.923  12.131 -1.2569  0.0767 -1.3262
  736MPD2     N10936   3.062   2.294  12.094 -0.2552  0.0568  0.4502
  736MPD2    H510937   3.109   2.243  12.020 -1.2204  0.4580 -0.4373
  736MPD2    N110938   2.658   2.260  12.369 -0.3102 -0.8938  0.2136
  736MPD2    H710939   2.574   2.205  12.381 -0.2946 -1.4115 -1.9833
  737TMC3    C110940   3.211   2.472  12.044 -0.1747  0.2900  0.1839
  737TMC3    C210941   3.262   2.596  12.069  0.7628  0.2549 -0.2474
  737TMC3    C310942   3.386   2.626  12.012  0.0411 -0.1900  0.0360
  737TMC3    C410943   3.288   2.382  11.962 -0.8842 -0.1811 -0.0875
  737TMC3    C510944   3.406   2.420  11.907 -0.3914 -0.0136 -0.9568
  737TMC3    C610945   3.458   2.545  11.927  0.2267 -0.0914 -0.1458
  737TMC3     C10946   3.100   2.419  12.124  0.4589 -0.2769 -1.4454
  737TMC3     O10947   3.060   2.474  12.224 -0.0166 -0.0772 -0.7968
  737TMC3     H10948   3.218   2.661  12.144 -0.5841  0.1201 -0.9259
  737TMC3    H110949   3.242   2.284  11.960 -0.0734 -0.5853  0.6799
  737TMC3    H210950   3.564   2.564  11.910  0.0594 -1.2129 -2.5752
  737TMC3    C710951   3.488   2.313  11.858 -0.3502 -0.7199 -0.1442
  737TMC3    C810952   3.424   2.765  12.002 -0.5126 -0.1706 -0.0938
  737TMC3    O110953   3.444   2.198  11.888 -0.7162  0.3514  0.4467
  737TMC3    O210954   3.543   2.787  11.995  0.0943 -0.5446 -0.4967
  738MPD2     C10955   2.923   1.797  14.797 -0.3642 -0.0235 -0.0223
  738MPD2    C110956   2.919   1.720  14.911  0.0448 -0.4138  0.1020
  738MPD2    C210957   3.009   1.752  15.016 -0.9820  0.1441  0.0372
  738MPD2    C310958   3.114   1.840  14.994 -0.1889 -0.4841 -0.5979
  738MPD2    C410959   3.119   1.909  14.872  0.2192  0.3172  0.3937
  738MPD2    C510960   3.025   1.884  14.782  0.7059 -0.4370 -0.2530
  738MPD2     H10961   3.001   1.703  15.112  2.3241 -0.4072  0.0318
  738MPD2    H110962   3.191   1.987  14.853 -0.9477  0.2809 -4.1159
  738MPD2    H210963   2.862   1.780  14.709  1.7556 -1.7439 -1.1571
  738MPD2    H310964   3.039   1.947  14.694 -0.5110  1.4752  0.9200
  738MPD2     N10965   3.212   1.867  15.092 -0.4017 -0.0923  0.1442
  738MPD2    H510966   3.272   1.947  15.075  2.0740 -1.7522  1.0708
  738MPD2    N110967   2.819   1.614  14.907 -0.6472 -0.8891  0.3645
  738MPD2    H710968   2.773   1.595  14.819  0.2577  2.7463 -0.8862
  739TMC3    C110969   3.367   1.848  15.273  0.2076 -0.6335  0.1103
  739TMC3    C210970   3.476   1.817  15.197  0.4509  0.1195  0.3289
  739TMC3    C310971   3.583   1.900  15.203 -0.1175 -1.0639 -0.6781
  739TMC3    C410972   3.365   1.970  15.343 -0.1405  0.2654  0.2962
  739TMC3    C510973   3.471   2.053  15.335  0.0573 -0.1362  0.4264
  739TMC3    C610974   3.589   2.015  15.275 -0.0609  1.1279 -0.4336
  739TMC3     C10975   3.239   1.807  15.217  0.2371  0.6003  0.1832
  739TMC3     O10976   3.170   1.733  15.284  0.0341 -0.2613  0.2546
  739TMC3     H10977   3.468   1.732  15.129  1.2183  1.1021 -0.9979
  739TMC3    H110978   3.271   2.006  15.384 -0.1798  1.6463 -1.0446
  739TMC3    H210979   3.670   2.085  15.265  1.1447 -0.3998 -1.4335
  739TMC3    C710980   3.452   2.185  15.400  0.5834  0.7000 -0.5356
  739TMC3    C810981   3.670   1.883  15.089  0.3519  0.0606 -0.6254
  739TMC3    O110982   3.384   2.194  15.505 -0.1523  0.0467 -0.6488
  739TMC3    O210983   3.700   1.987  15.042  0.0307 -0.4886  0.5491
  740TMC3    C110984   3.831   3.070  14.528  0.2532 -0.0102  0.2471
  740TMC3    C210985   3.882   3.019  14.647 -0.0194  0.2326  0.0894
  740TMC3    C310986   4.012   2.979  14.654 -0.1504 -0.2679 -0.2865
  740TMC3    C410987   3.911   3.070  14.417  0.2050  0.0430 -0.5274
  740TMC3    C510988   4.044   3.030  14.431 -0.0325 -0.2740 -0.1025
  740TMC3    C610989   4.092   2.984  14.547  0.7301 -0.2106  0.5482
  740TMC3     C10990   3.693   3.116  14.512  0.3177  0.2324  0.3446
  740TMC3     O10991   3.673   3.185  14.415  0.2362 -0.0141 -0.2135
  740TMC3     H10992   3.821   3.019  14.737 -0.4553  0.0177 -0.2062
  740TMC3    H110993   3.870   3.089  14.318  2.5935  1.4838 -1.2532
  740TMC3    H210994   4.188   2.936  14.544  1.0909  0.5861 -0.8926
  740TMC3    C710995   4.137   3.014  14.314  0.0590  0.2896 -0.1861
  740TMC3    C810996   4.058   2.878  14.749 -0.6861  0.6510  0.5679
  740TMC3    O110997   4.246   2.973  14.341 -0.2001 -0.0629  0.6710
  740TMC3    O210998   4.176   2.861  14.757  0.4042  0.7159  0.2973
  741TMC3    C110999   3.418   2.660  14.109 -0.5520  0.9303 -0.6164
  741TMC3    C211000   3.326   2.632  14.205 -0.3885 -0.1462 -1.2081
  741TMC3    C311001   3.348   2.519  14.282 -0.0078 -0.1955 -0.2328
  741TMC3    C411002   3.535   2.579  14.098 -0.3719  0.5628 -0.4285
  741TMC3    C511003   3.551   2.478  14.187  0.0806 -0.8253  0.2171
  741TMC3    C611004   3.457   2.438  14.268 -0.2849 -0.5432  0.1444
  741TMC3     C11005   3.380   2.728  13.985  0.3898 -0.7127 -0.3985
  741TMC3     O11006   3.262   2.763  13.981  0.5406  0.1605  0.1361
  741TMC3     H11007   3.233   2.687  14.205 -0.3798 -0.1649  1.7217
  741TMC3    H111008   3.622   2.610  14.041 -0.6578  0.9180 -0.6706
  741TMC3    H211009   3.482   2.363  14.342  2.4897 -0.1623 -0.4034
  741TMC3    C711010   3.681   2.425  14.214 -0.0027  0.4556 -0.1836
  741TMC3    C811011   3.223   2.449  14.309  0.4101  0.3316  0.1843
  741TMC3    O111012   3.705   2.388  14.328  0.0308  0.0753 -0.2711
  741TMC3    O211013   3.120   2.515  14.312 -0.7026  0.2314  0.2389
  742TMC3    C111014   3.043   0.398  15.409  0.7920 -0.0181  0.4720
  742TMC3    C211015   3.025   0.459  15.291  0.4151  0.2937 -0.8097
  742TMC3    C311016   3.069   0.385  15.180  0.1103 -0.1155  0.4668
  742TMC3    C411017   3.115   0.280  15.432 -0.0305 -0.5383  0.0113
  742TMC3    C511018   3.162   0.211  15.319  0.9034 -0.7657 -0.9373
  742TMC3    C611019   3.133   0.260  15.194 -0.2536 -0.0162  0.1759
  742TMC3     C11020   3.030   0.472  15.534  0.2368  0.3866  0.1662
  742TMC3     O11021   3.013   0.412  15.639  0.7504  0.0034  0.0133
  742TMC3     H11022   2.957   0.542  15.281 -1.0408 -0.7192  0.7882
  742TMC3    H111023   3.130   0.244  15.534  0.5275  0.8392  0.4167
  742TMC3    H211024   3.179   0.212  15.108  0.6890  0.1061  0.6107
  742TMC3    C711025   3.285   0.131  15.330 -0.7190 -0.6313 -0.0603
  742TMC3    C811026   3.058   0.440  15.044 -0.5612 -0.7681  0.1282
  742TMC3    O111027   3.352   0.127  15.429 -0.4401 -0.4547  0.4656
  742TMC3    O211028   3.130   0.384  14.958 -0.2929  0.2072 -0.0852
  743MPD2     C11029   1.144   2.562   1.560 -0.2274 -0.3959  0.2205
  743MPD2    C111030   1.202   2.456   1.503 -0.5511  0.3766 -0.7148
  743MPD2    C211031   1.337   2.422   1.527  0.2143 -0.1028 -0.1308
  743MPD2    C311032   1.411   2.512   1.604 -0.2260  0.2942 -0.1593
  743MPD2    C411033   1.348   2.623   1.658 -0.4173  0.1836  0.0902
  743MPD2    C511034   1.212   2.635   1.654 -0.1165  0.2980  0.2856
  743MPD2     H11035   1.385   2.337   1.480 -0.3237  0.1781 -1.1978
  743MPD2    H111036   1.396   2.702   1.715 -1.9570  1.9949 -1.1340
  743MPD2    H211037   1.040   2.587   1.542 -0.4381 -0.4732  1.3411
  743MPD2    H311038   1.175   2.725   1.703  2.9114  2.4899 -1.4203
  743MPD2     N11039   1.555   2.489   1.622  0.2179 -0.5912  0.4549
  743MPD2    H511040   1.585   2.401   1.581  0.2125 -0.6705  0.6223
  743MPD2    N111041   1.114   2.372   1.434  0.1499  0.0031 -0.2224
  743MPD2    H711042   1.014   2.387   1.445  0.4474  0.3983  1.9472
  744TMC3    C111043   1.056   2.189   1.298  0.2875  0.0109  0.2790
  744TMC3    C211044   0.930   2.184   1.351 -0.6751 -1.2422 -0.2885
  744TMC3    C311045   0.854   2.070   1.333 -0.5700  0.2880 -0.4310
  744TMC3    C411046   1.096   2.081   1.215 -0.7630 -0.3976  0.2818
  744TMC3    C511047   1.010   1.977   1.190 -0.1228  0.4292  0.3876
  744TMC3    C611048   0.887   1.967   1.248 -0.1276 -0.2634 -0.1122
  744TMC3     C11049   1.159   2.263   1.360  0.4680 -0.8222 -0.7139
  744TMC3     O11050   1.270   2.214   1.347 -0.0498  0.4695  0.0657
  744TMC3     H11051   0.907   2.244   1.438 -0.4783 -1.4803 -0.0692
  744TMC3    H111052   1.198   2.080   1.180 -1.0125  0.3530 -0.4671
  744TMC3    H211053   0.824   1.880   1.240  1.0869 -0.9007 -2.5457
  744TMC3    C711054   1.072   1.867   1.118  0.3849  0.8109 -0.1516
  744TMC3    C811055   0.711   2.068   1.377  0.0988 -0.6990  0.4789
  744TMC3    O111056   1.192   1.846   1.128 -0.3100 -0.5174  0.6369
  744TMC3    O211057   0.665   1.955   1.399 -0.0071 -0.2902  0.8067
  745TMC3    C111058   3.921   0.744  13.574  0.3849 -0.2589 -0.4912
  745TMC3    C211059   3.814   0.714  13.646 -0.2770 -0.5040 -0.4892
  745TMC3    C311060   3.702   0.665  13.589 -0.4481 -0.6569 -0.5342
  745TMC3    C411061   3.914   0.742  13.436 -0.6228  0.0914 -0.7476
  745TMC3    C511062   3.799   0.703  13.381  0.1114 -0.3117 -0.7989
  745TMC3    C611063   3.691   0.669  13.453 -1.2053 -0.3454 -0.1058
  745TMC3     C11064   4.028   0.824  13.631 -0.2848 -0.0501 -0.1311
  745TMC3     O11065   4.144   0.795  13.609 -0.6103 -0.1789  0.5494
  745TMC3     H11066   3.814   0.733  13.753 -2.4466 -0.6540 -0.4509
  745TMC3    H111067   4.000   0.778  13.381 -0.2822  1.0167  0.3935
  745TMC3    H211068   3.611   0.622  13.397 -1.1115  0.9751 -1.3755
  745TMC3    C711069   3.776   0.729  13.237 -0.4627  0.9353  0.3794
  745TMC3    C811070   3.573   0.663  13.659 -0.0086 -0.5275  0.2439
  745TMC3    O111071   3.688   0.668  13.180 -0.0213 -0.0418 -0.1109
  745TMC3    O211072   3.473   0.685  13.596  0.1170  0.4271  0.2339
  746TMC3    C111073   1.775   2.435  11.005 -0.2899 -0.2497 -0.5283
  746TMC3    C211074   1.864   2.393  10.906 -0.1649  0.1536 -0.4557
  746TMC3    C311075   1.814   2.292  10.822  0.5153  0.5652 -0.7077
  746TMC3    C411076   1.655   2.377  11.032  0.1560  0.2284  0.0505
  746TMC3    C511077   1.613   2.279  10.944 -0.3702 -0.4736  0.4127
  746TMC3    C611078   1.688   2.235  10.839  0.0156  0.2995  0.3200
  746TMC3     C11079   1.795   2.557  11.076 -0.0866  0.3288 -0.2412
  746TMC3     O11080   1.713   2.583  11.163 -0.7061  0.1611 -0.1341
  746TMC3     H11081   1.960   2.442  10.896  0.7182 -1.9511 -2.0886
  746TMC3    H111082   1.598   2.403  11.121  1.1560  0.4748  0.6200
  746TMC3    H211083   1.655   2.159  10.768  2.7794  1.2650 -1.9760
  746TMC3    C711084   1.482   2.216  10.958  0.4088 -1.1951 -0.3290
  746TMC3    C811085   1.877   2.265  10.692  0.0998  0.3067 -0.9294
  746TMC3    O111086   1.426   2.192  10.852  0.2714 -0.1499  0.3296
  746TMC3    O211087   1.867   2.157  10.629 -0.0299 -0.2844  0.9300
  747TMC3    C111088   4.113   2.420  11.022  0.5260 -0.3886  0.0468
  747TMC3    C211089   4.064   2.319  11.094 -0.6520  0.1044 -0.2632
  747TMC3    C311090   4.043   2.334  11.230 -0.0917 -0.6267  0.0388
  747TMC3    C411091   4.187   2.520  11.082 -0.0532  0.6393 -0.1796
  747TMC3    C511092   4.188   2.519  11.220 -0.4662 -0.3931 -0.5691
  747TMC3    C611093   4.106   2.443  11.292 -0.3853 -0.2689 -0.6096
  747TMC3     C11094   4.164   2.388  10.893  0.9623  0.4666 -0.1886
  747TMC3     O11095   4.275   2.431  10.866 -0.0614  0.1423  0.4345
  747TMC3     H11096   4.020   2.228  11.054 -1.7728  1.0614 -1.2206
  747TMC3    H111097   4.235   2.596  11.020  1.1334  0.0828  0.0569
  747TMC3    H211098   4.114   2.443  11.400 -0.3059 -1.8208 -0.6174
  747TMC3    C711099   4.249   2.628  11.294 -0.2739  0.5786 -0.3886
  747TMC3    C811100   3.958   2.242  11.310  0.7080  0.3751  0.5113
  747TMC3    O111101   4.204   2.658  11.404 -0.0231 -0.2239  0.1951
  747TMC3    O211102   3.945   2.129  11.264  0.0024 -0.0189 -0.2710
  748MPD2     C11103   0.043   2.550   1.389  1.2192  0.1137 -1.0353
  748MPD2    C111104   0.127   2.514   1.293  0.5182  0.3154  0.3363
  748MPD2    C211105   0.214   2.610   1.239  0.1578  0.6128  0.6297
  748MPD2    C311106   0.219   2.739   1.295 -0.2704  0.2299  1.0566
  748MPD2    C411107   0.118   2.780   1.390 -0.2843  0.3127  0.1151
  748MPD2    C511108   0.034   2.686   1.433 -0.4380  0.1805 -0.0336
  748MPD2     H11109   0.288   2.579   1.166 -0.0995  2.2882 -0.3209
  748MPD2    H111110   0.112   2.878   1.435 -1.3761  0.2812  0.0329
  748MPD2    H211111   4.720   2.471   1.431  0.6096  0.3520 -1.4892
  748MPD2    H311112   4.700   2.722   1.504 -1.6107  0.7242 -1.5127
  748MPD2     N11113   0.323   2.827   1.252 -0.6156  0.0676 -0.2521
  748MPD2    H511114   0.378   2.801   1.171  0.7759 -1.8776  1.3075
  748MPD2    N111115   0.120   2.384   1.236 -0.3649  0.7081  0.0014
  748MPD2    H711116   0.040   2.330   1.268  1.2565 -1.1169  0.9842
  749TMC3    C111117   0.450   3.019   1.249 -0.6137  0.1230 -0.0924
  749TMC3    C211118   0.535   3.077   1.330 -0.6309  0.2039  0.1600
  749TMC3    C311119   0.648   3.128   1.277 -0.5449  0.0678 -0.5031
  749TMC3    C411120   0.469   3.019   1.115 -0.3706 -0.2260  0.9975
  749TMC3    C511121   0.588   3.054   1.063 -0.1659  0.0046  0.3011
  749TMC3    C611122   0.672   3.127   1.143 -0.1594 -0.2990  0.7486
  749TMC3     C11123   0.338   2.949   1.309  0.4798 -0.3398 -0.3219
  749TMC3     O11124   0.304   2.993   1.419 -0.1461 -0.1985 -0.2402
  749TMC3     H11125   0.532   3.078   1.438 -1.5467  1.9059  0.1139
  749TMC3    H111126   0.414   2.957   1.045  0.6808  2.2418 -2.0136
  749TMC3    H211127   0.770   3.155   1.105 -0.5656 -0.4129 -0.4001
  749TMC3    C711128   0.595   3.091   0.925  0.1094 -0.3338  0.3312
  749TMC3    C811129   0.762   3.147   1.366  0.2850  0.8912  0.4994
  749TMC3    O111130   0.634   3.205   0.908  0.8113  0.7217  0.0687
  749TMC3    O211131   0.743   3.221   1.463 -0.5037 -0.0163 -0.0761
  750MPD2     C11132   1.605   4.659  11.229  0.1358 -0.4921 -0.5311
  750MPD2    C111133   1.502   4.593  11.296 -0.5716  0.3207 -0.2392
  750MPD2    C211134   1.501   4.457  11.281 -0.4941  0.6155 -0.4530
  750MPD2    C311135   1.581   4.391  11.187 -0.0586  0.7747 -0.1537
  750MPD2    C411136   1.679   4.461  11.125 -0.2012 -0.3958 -0.2574
  750MPD2    C511137   1.686   4.598  11.135  0.2915 -0.0610  0.1470
  750MPD2     H11138   1.427   4.399  11.335  0.3897  0.5568  0.6905
  750MPD2    H111139   1.749   4.416  11.055  2.5600  2.3507  0.7126
  750MPD2    H211140   1.628   0.024  11.248  0.6390 -0.7662  0.3965
  750MPD2    H311141   1.754   4.652  11.069 -1.7642  0.1991 -1.7411
  750MPD2     N11142   1.577   4.252  11.170  0.1302 -1.0191  0.0393
  750MPD2    H511143   1.658   4.216  11.122 -0.1779  0.9704 -1.9773
  750MPD2    N111144   1.420   4.663  11.386 -0.4050 -0.3545 -0.4757
  750MPD2    H711145   1.436   0.024  11.389 -2.0128 -0.1209  0.5712
  751TMC3    C111146   1.510   4.026  11.197  0.0875 -0.2773  0.4979
  751TMC3    C211147   1.402   3.943  11.186 -0.0666  0.5615  0.4218
  751TMC3    C311148   1.416   3.812  11.220  0.2633 -0.5985  0.1428
  751TMC3    C411149   1.639   3.973  11.217  0.0801 -1.0085  0.0635
  751TMC3    C511150   1.646   3.839  11.256 -0.0473  0.5998 -0.1060
  751TMC3    C611151   1.533   3.764  11.261 -0.3012  0.1711  0.2205
  751TMC3     C11152   1.483   4.168  11.227 -0.2856  0.5560  0.5083
  751TMC3     O11153   1.367   4.194  11.254  0.0265 -0.0597 -0.9404
  751TMC3     H11154   1.307   3.986  11.155  0.1062  1.2699  0.8819
  751TMC3    H111155   1.730   4.030  11.233  0.0971 -1.6256  2.0833
  751TMC3    H211156   1.543   3.659  11.286  0.0694  0.1593  0.0190
  751TMC3    C711157   1.758   3.778  11.180  0.6261 -0.1982  0.0215
  751TMC3    C811158   1.319   3.713  11.169 -0.3061  0.1271 -0.6343
  751TMC3    O111159   1.840   3.848  11.118 -0.6336 -0.2535 -0.0153
  751TMC3    O211160   1.344   3.593  11.183  0.2290 -0.4439  0.3516
  752TMC3    C111161   4.424   3.932  17.289 -0.7443 -0.0757  0.3622
  752TMC3    C211162   4.400   3.800  17.272  0.1881  0.0613 -0.0370
  752TMC3    C311163   4.347   3.732  17.379  0.9335  0.1524  0.4613
  752TMC3    C411164   4.377   4.003  17.399  0.5311  0.2466 -0.0439
  752TMC3    C511165   4.301   3.934  17.488  0.1594  0.0629 -0.6347
  752TMC3    C611166   4.281   3.796  17.479  0.3247  0.0478 -0.4928
  752TMC3     C11167   4.504   3.992  17.181  0.2405 -0.2294 -0.8864
  752TMC3     O11168   4.587   4.078  17.209 -0.0550 -0.1253  0.1943
  752TMC3     H11169   4.462   3.742  17.204 -0.4331 -0.7229  0.0677
  752TMC3    H111170   4.394   4.109  17.415 -2.1142  0.5359  0.8343
  752TMC3    H211171   4.236   3.740  17.561 -0.6810  0.3979 -0.7955
  752TMC3    C711172   4.203   4.010  17.567  0.5891 -0.3164 -0.0917
  752TMC3    C811173   4.351   3.588  17.364 -0.4505 -0.2005  0.1818
  752TMC3    O111174   4.234   4.128  17.595  0.1026 -0.3287  0.0032
  752TMC3    O211175   4.412   3.537  17.275  0.6596 -0.1188 -0.4830
  753TMC3    C111176   1.971   0.593  13.118 -0.1782  0.9807 -0.0138
  753TMC3    C211177   2.053   0.581  13.228 -0.1448  0.2165  0.0418
  753TMC3    C311178   2.103   0.455  13.243 -0.0535  1.2599  0.1971
  753TMC3    C411179   1.942   0.493  13.032 -0.2801  0.5881 -0.1761
  753TMC3    C511180   2.001   0.372  13.043  0.4230 -0.0387 -0.2768
  753TMC3    C611181   2.085   0.352  13.151  0.4116 -0.4258  0.1526
  753TMC3     C11182   1.913   0.724  13.097  0.6147  0.1709 -0.4410
  753TMC3     O11183   1.803   0.715  13.047 -0.3073  0.1708 -0.2120
  753TMC3     H11184   2.057   0.657  13.305  0.4404 -1.5614  1.7639
  753TMC3    H111185   1.867   0.507  12.955  1.7743  1.9180 -1.9248
  753TMC3    H211186   2.139   0.258  13.160  0.3972 -0.5694 -1.2804
  753TMC3    C711187   1.965   0.272  12.942 -0.3280  0.2545 -0.7056
  753TMC3    C811188   2.210   0.430  13.344 -0.4053 -0.7583  0.1390
  753TMC3    O111189   1.883   0.306  12.860 -0.3218  0.0397 -0.1527
  753TMC3    O211190   2.245   0.315  13.363 -0.6693 -0.3487 -0.2918
  754MPD2     C11191   0.648   3.637  13.762 -0.0929  0.1802  1.3521
  754MPD2    C111192   0.601   3.543  13.678 -0.0479  0.1101  0.1728
  754MPD2    C211193   0.592   3.576  13.545 -0.0873  0.4127 -0.3660
  754MPD2    C311194   0.621   3.701  13.498  0.4767  0.5117 -0.2714
  754MPD2    C411195   0.676   3.790  13.589  0.1546  0.3599  0.2583
  754MPD2    C511196   0.692   3.758  13.719  0.1039 -0.2003  0.6530
  754MPD2     H11197   0.560   3.498  13.476 -2.1534  0.0376  1.0411
  754MPD2    H111198   0.700   3.891  13.559 -0.8803  0.0512 -1.6392
  754MPD2    H211199   0.669   3.605  13.863  1.3493  0.5833  1.1795
  754MPD2    H311200   0.728   3.840  13.780 -0.4930  0.1854  0.4852
  754MPD2     N11201   0.572   3.757  13.380  0.6253 -0.2333  1.1085
  754MPD2    H511202   0.573   3.859  13.383 -1.4723 -0.2401  1.8784
  754MPD2    N111203   0.569   3.416  13.729 -0.0738 -0.2410  0.1039
  754MPD2    H711204   0.608   3.397  13.821  0.0217 -0.6570 -0.0195
  755MPD2     C11205   0.696   4.536  13.019  0.4046 -0.3714 -0.6077
  755MPD2    C111206   0.560   4.519  13.058  0.2014 -0.7423 -0.2922
  755MPD2    C211207   0.509   4.396  13.074 -0.5015  0.0085  0.2503
  755MPD2    C311208   0.589   4.289  13.036 -0.1605 -0.5867  0.1150
  755MPD2    C411209   0.718   4.308  12.993 -0.0450  0.9059  0.0709
  755MPD2    C511210   0.772   4.432  12.990 -1.0521 -0.2110  0.2323
  755MPD2     H11211   0.408   4.382  13.113 -0.0378 -0.4790  1.2892
  755MPD2    H111212   0.776   4.229  12.945  0.0460  0.8934  0.2037
  755MPD2    H211213   0.744   4.631  13.002 -1.4430  0.5225 -0.8707
  755MPD2    H311214   0.872   4.447  12.951 -2.0342  1.7047 -1.5321
  755MPD2     N11215   0.553   4.150  13.041 -0.0920 -0.4231  0.4382
  755MPD2    H511216   0.623   4.078  13.054 -0.2347 -0.6477 -0.0326
  755MPD2    N111217   0.472   4.633  13.091 -0.0464  0.1725  0.5712
  755MPD2    H711218   0.388   4.612  13.144  0.0141 -2.4261 -0.3464
  756MPD2     C11219   0.840   0.211   9.466 -0.1910  0.2397  0.5314
  756MPD2    C111220   0.811   0.092   9.532  0.1550 -0.1025  0.4283
  756MPD2    C211221   0.734   4.732   9.469  0.3992  0.3729  1.3288
  756MPD2    C311222   0.695   0.011   9.340  0.4347  0.2263  0.0178
  756MPD2    C411223   0.726   0.131   9.277  0.3249 -0.1649 -0.1692
  756MPD2    C511224   0.804   0.227   9.329 -0.4249 -0.3971  1.0342
  756MPD2     H11225   0.704   4.640   9.517 -2.9615  0.3273 -0.8540
  756MPD2    H111226   0.695   0.154   9.175  3.4604  0.3966 -0.9925
  756MPD2    H211227   0.905   0.286   9.510 -0.9994  0.8646  0.6760
  756MPD2    H311228   0.824   0.311   9.263 -0.0882 -1.3203 -0.0309
  756MPD2     N11229   0.614   4.650   9.282 -0.0867  0.0676 -0.3145
  756MPD2    H511230   0.591   4.569   9.340 -1.2872  0.2816 -0.4903
  756MPD2    N111231   0.858   0.067   9.661  0.0938 -0.3500  0.5169
  756MPD2    H711232   0.849   4.711   9.695  0.7984 -0.4283  0.4884
  757MPD2     C11233   0.617   3.883   9.626 -0.2742 -0.6804 -0.3498
  757MPD2    C111234   0.712   3.969   9.586  0.0884 -0.1919 -0.0975
  757MPD2    C211235   0.692   4.066   9.492  0.9602  0.0927  0.1444
  757MPD2    C311236   0.567   4.071   9.429 -0.5910  0.1491  0.5440
  757MPD2    C411237   0.475   3.981   9.461  0.3997 -0.3199  0.1818
  757MPD2    C511238   0.498   3.886   9.557  0.1372 -0.1150 -0.1928
  757MPD2     H11239   0.763   4.146   9.474 -1.3693  1.1686 -4.2780
  757MPD2    H111240   0.377   3.979   9.415 -0.1322 -0.5055  1.2975
  757MPD2    H211241   0.638   3.804   9.697  2.4089 -1.8561 -2.4579
  757MPD2    H311242   0.413   3.821   9.575 -1.2092  1.8283  0.4603
  757MPD2     N11243   0.549   4.174   9.330 -0.2928  0.1153 -0.2950
  757MPD2    H511244   0.631   4.227   9.302  0.9613 -1.8840 -0.3959
  757MPD2    N111245   0.831   3.953   9.657  0.0115  0.0860 -0.7676
  757MPD2    H711246   0.844   3.869   9.713 -0.9763 -0.7257 -1.7303
  758MPD2     C11247   0.796   3.554  15.854 -0.5639  0.3751  0.4918
  758MPD2    C111248   0.779   3.465  15.959 -0.9800  0.5610 -0.7950
  758MPD2    C211249   0.655   3.451  16.021  0.9571  0.1884 -0.5002
  758MPD2    C311250   0.559   3.542  15.988  0.4344 -0.1332  0.6033
  758MPD2    C411251   0.576   3.635  15.891  0.3790  0.5334 -0.2370
  758MPD2    C511252   0.693   3.640  15.820 -0.3650 -0.5114  0.2888
  758MPD2     H11253   0.644   3.375  16.098 -2.5988  2.5415  1.3004
  758MPD2    H111254   0.495   3.700  15.861 -0.0984  0.3444  0.6539
  758MPD2    H211255   0.889   3.564  15.800  0.7325 -1.7215  2.3407
  758MPD2    H311256   0.706   3.692  15.726 -0.5951 -0.8315  0.0819
  758MPD2     N11257   0.440   3.556  16.057 -0.8634  0.7477 -0.4303
  758MPD2    H511258   0.391   3.641  16.033 -1.2450 -0.0356 -2.3633
  758MPD2    N111259   0.888   3.385  15.994  0.3818  0.1519  0.8467
  758MPD2    H711260   0.978   3.415  15.957 -0.7116 -2.1445 -3.6875
  759MPD2     C11261   0.466   2.428  10.441  0.6754 -0.2002  0.2555
  759MPD2    C111262   0.519   2.308  10.393 -0.2593  0.2633 -0.1285
  759MPD2    C211263   0.632   2.316  10.314 -0.3850  0.0447 -0.7761
  759MPD2    C311264   0.698   2.434  10.283 -0.3987  0.2600  0.0039
  759MPD2    C411265   0.640   2.546  10.328  0.7973  0.3510  0.1290
  759MPD2    C511266   0.530   2.545  10.412 -0.3187  0.4816 -0.3866
  759MPD2     H11267   0.672   2.226  10.270 -0.3467 -1.0917  1.5827
  759MPD2    H111268   0.680   2.644  10.304  0.2086 -0.2066 -3.0407
  759MPD2    H211269   0.386   2.431  10.514  0.0181  0.5163 -0.4947
  759MPD2    H311270   0.499   2.634  10.465 -0.9120  0.1610 -0.1891
  759MPD2     N11271   0.817   2.433  10.208 -0.4738 -0.1486 -1.0629
  759MPD2    H511272   0.850   2.342  10.178  0.2972  0.6337 -2.6091
  759MPD2    N111273   0.464   2.180  10.413 -0.3325  0.0920  0.0609
  759MPD2    H711274   0.510   2.100  10.372 -1.5582 -1.0338  0.8992
  760MPD2     C11275   4.328   4.309  11.617  1.4617  0.2689 -0.7564
  760MPD2    C111276   4.398   4.345  11.507 -0.9088  0.3511 -0.0292
  760MPD2    C211277   4.452   4.239  11.429 -0.3813  0.0762  0.6634
  760MPD2    C311278   4.434   4.109  11.457  0.3001  0.6558 -0.7951
  760MPD2    C411279   4.352   4.086  11.560 -0.1406  0.2117 -0.0260
  760MPD2    C511280   4.300   4.178  11.646 -0.4999 -0.6064 -0.3223
  760MPD2     H11281   4.506   4.272  11.340 -3.3327  1.5763 -0.5788
  760MPD2    H111282   4.343   3.980  11.582  0.3286 -0.4010 -2.7746
  760MPD2    H211283   4.306   4.378  11.697  1.7310  0.1493 -0.5800
  760MPD2    H311284   4.240   4.145  11.730  2.6335  0.6719  2.4158
  760MPD2     N11285   4.517   3.999  11.397 -0.1146 -0.0557  0.8433
  760MPD2    H511286   4.510   3.910  11.445  0.7026 -0.9184 -0.6454
  760MPD2    N111287   4.426   4.481  11.487  0.5336  0.5662  0.0986
  760MPD2    H711288   4.384   4.552  11.545 -2.1520 -0.6828 -0.3121
  761MPD2     C11289   0.845   3.583  11.025  0.6301  0.5383 -0.3735
  761MPD2    C111290   0.969   3.511  11.032  0.5161  0.5708 -0.0163
  761MPD2    C211291   1.089   3.570  11.070 -0.3635  0.2284 -0.5506
  761MPD2    C311292   1.087   3.703  11.106  0.3978 -0.2546  0.9010
  761MPD2    C411293   0.967   3.771  11.098 -0.5813  0.4240  0.3378
  761MPD2    C511294   0.846   3.716  11.066  0.0287 -0.5242  0.1471
  761MPD2     H11295   1.180   3.511  11.070 -1.0695 -0.8837  0.4963
  761MPD2    H111296   0.968   3.877  11.121  0.0245  0.4022  0.4131
  761MPD2    H211297   0.753   3.543  10.983  1.3745 -0.3285 -1.2108
  761MPD2    H311298   0.758   3.778  11.065  0.4992  0.1406  0.3296
  761MPD2     N11299   1.197   3.773  11.151  0.2167  0.0571 -0.1405
  761MPD2    H511300   1.186   3.874  11.163  0.2272  0.0114  0.2336
  761MPD2    N111301   0.965   3.372  10.992  1.0330 -0.3086 -0.1860
  761MPD2    H711302   0.872   3.333  10.978  0.4524  0.7905  0.5697
  762MPD2     C11303   1.562   2.986  10.888 -0.5588  0.1288  0.3444
  762MPD2    C111304   1.495   2.987  10.769  0.0574  0.4941 -0.0090
  762MPD2    C211305   1.567   3.022  10.650 -0.0312 -0.1464  0.7535
  762MPD2    C311306   1.704   3.045  10.658  0.3386 -0.6323  0.1642
  762MPD2    C411307   1.765   3.035  10.787  0.2707 -0.0039 -0.3070
  762MPD2    C511308   1.695   3.005  10.897  0.6786  0.0936 -0.2591
  762MPD2     H11309   1.521   3.013  10.552  1.0444  0.5849  0.1850
  762MPD2    H111310   1.873   3.040  10.795  0.3397  0.1956 -1.4110
  762MPD2    H211311   1.511   2.960  10.980  0.1659 -2.7731 -0.0684
  762MPD2    H311312   1.743   3.004  10.994  2.0933 -0.3760 -0.9630
  762MPD2     N11313   1.778   3.082  10.547 -0.2505  0.0955 -0.4644
  762MPD2    H511314   1.721   3.072  10.463 -1.5615 -1.3109  0.5994
  762MPD2    N111315   1.360   2.967  10.771  0.0324 -0.0671  0.4222
  762MPD2    H711316   1.304   3.004  10.695 -0.5488  1.9680  1.8456
  763MPD2     C11317   2.983   3.647  15.874 -0.7464 -0.2982  0.2697
  763MPD2    C111318   2.863   3.704  15.858  0.7076 -0.5059  0.3887
  763MPD2    C211319   2.866   3.841  15.879  0.0580  0.2164 -0.2081
  763MPD2    C311320   2.974   3.913  15.931  0.3335  0.1802  0.1503
  763MPD2    C411321   3.092   3.848  15.960 -0.4055 -0.0656 -0.2472
  763MPD2    C511322   3.092   3.716  15.931 -0.9711  0.2440 -0.1652
  763MPD2     H11323   2.774   3.897  15.864  0.6425  1.4735  0.8638
  763MPD2    H111324   3.177   3.906  15.992 -0.1279 -1.0357  0.7544
  763MPD2    H211325   2.993   3.540  15.859 -0.8872 -0.0824 -1.3259
  763MPD2    H311326   3.187   3.668  15.952 -1.1948 -1.4963 -3.0638
  763MPD2     N11327   2.968   4.052  15.953 -0.5707  1.0335  1.0700
  763MPD2    H511328   3.052   4.096  15.989  0.1539  1.3201 -1.0200
  763MPD2    N111329   2.747   3.644  15.796  0.1436 -0.0218 -0.0018
  763MPD2    H711330   2.674   3.711  15.777  0.9011  0.4635 -1.2069
  764MPD2     C11331   0.362   0.108  17.695  1.2505  0.5448 -0.0106
  764MPD2    C111332   0.256   0.039  17.639  0.5504 -0.1017  0.0700
  764MPD2    C211333   0.190   4.686  17.714 -0.3133  0.1737 -0.4536
  764MPD2    C311334   0.222   4.668   0.099 -0.4392 -0.1342 -1.5457
  764MPD2    C411335   0.317   0.009   0.150 -0.4150  0.2682  0.6161
  764MPD2    C511336   0.388   0.095   0.071  0.1388 -0.1615 -0.6220
  764MPD2     H11337   0.100   4.638  17.678 -0.1011  0.9425 -2.0323
  764MPD2    H111338   0.338   0.007   0.257  2.1465 -2.2263  0.0534
  764MPD2    H211339   0.414   0.182  17.636  0.4583  0.3964 -0.8980
  764MPD2    H311340   0.473   0.139   0.121  2.1506 -4.3475 -0.3441
  764MPD2     N11341   0.156   4.564   0.166 -0.3639  0.0040  0.1056
  764MPD2    H511342   0.079   4.519   0.116  0.9193 -0.1304 -1.7412
  764MPD2    N111343   0.214   0.055  17.510 -0.0518  0.0591 -0.5047
  764MPD2    H711344   0.129   0.014  17.474  0.1090 -1.4505  0.8355
  765MPD2     C11345   0.688   2.995  16.102  0.0872 -0.2153  0.0721
  765MPD2    C111346   0.743   3.010  15.979 -0.5562 -0.1763  0.0987
  765MPD2    C211347   0.863   2.949  15.947  0.5587 -0.2725  0.2078
  765MPD2    C311348   0.910   2.849  16.031 -0.6961 -0.5761  0.2160
  765MPD2    C411349   0.845   2.819  16.144 -0.1908  0.6846  0.1960
  765MPD2    C511350   0.728   2.886  16.181 -0.1758  0.7862  1.2552
  765MPD2     H11351   0.914   2.960  15.852  0.9619 -1.2806  0.3073
  765MPD2    H111352   0.868   2.741  16.215 -1.3109 -0.4682 -0.7113
  765MPD2    H211353   0.607   3.064  16.122  0.4468 -0.2615  1.6517
  765MPD2    H311354   0.691   2.864  16.281 -1.6450  0.4606  0.6377
  765MPD2     N11355   1.029   2.777  16.004  0.0035  0.1851  0.0131
  765MPD2    H511356   1.088   2.811  15.929  0.8018 -1.5716 -0.1433
  765MPD2    N111357   0.677   3.104  15.896  0.7122  0.1719  0.7224
  765MPD2    H711358   0.587   3.135  15.931 -0.2652 -1.3124 -0.5047
  766MPD2     C11359   0.130   3.032  15.340  0.1317 -0.3568  0.6738
  766MPD2    C111360   0.246   3.097  15.310  0.4211  0.2585  0.5796
  766MPD2    C211361   0.288   3.095  15.177 -0.4751  1.2431 -0.5027
  766MPD2    C311362   0.208   3.042  15.076 -0.1777  0.5604  1.1355
  766MPD2    C411363   0.093   2.967  15.112  0.1952 -0.0153 -0.1759
  766MPD2    C511364   0.058   2.966  15.242  0.3403 -0.1814 -0.0603
  766MPD2     H11365   0.389   3.129  15.158  0.4859 -1.6273 -0.5547
  766MPD2    H111366   0.048   2.909  15.032 -0.1890  1.0075 -0.7070
  766MPD2    H211367   0.086   3.039  15.439 -1.8387 -1.8414 -0.0835
  766MPD2    H311368   4.713   2.906  15.275  0.5373 -0.1801  0.4469
  766MPD2     N11369   0.250   3.038  14.941  0.4320 -0.4180 -0.2112
  766MPD2    H511370   0.195   2.983  14.876 -0.9596  1.6506 -0.7564
  766MPD2    N111371   0.320   3.161  15.408  0.1188 -0.8264  0.7703
  766MPD2    H711372   0.389   3.227  15.374 -3.0161  2.2175  0.2115
  767MPD2     C11373   4.601   3.278  15.054  0.9907  0.0465  0.6725
  767MPD2    C111374   4.683   3.338  14.959  0.3101 -0.5542 -0.0332
  767MPD2    C211375   4.674   3.300  14.826 -0.3508  0.5220 -0.1800
  767MPD2    C311376   4.591   3.199  14.790  0.3615 -0.1692 -0.6661
  767MPD2    C411377   4.500   3.152  14.880  0.1689  0.0028 -0.4788
  767MPD2    C511378   4.512   3.184  15.012  0.3514 -0.3075 -0.2825
  767MPD2     H11379   0.017   3.336  14.766  1.1096  1.9838  2.6930
  767MPD2    H111380   4.424   3.077  14.861 -1.0107  0.8800  0.7395
  767MPD2    H211381   4.605   3.315  15.156 -1.7216  1.9614  0.0714
  767MPD2    H311382   4.454   3.137  15.091  1.1804  1.1351  1.1659
  767MPD2     N11383   4.599   3.151  14.658  0.0171  1.1225  0.0692
  767MPD2    H511384   4.676   3.179  14.598  0.2096 -0.3254 -0.3351
  767MPD2    N111385   0.037   3.439  15.003  0.1031 -0.8875  0.2331
  767MPD2    H711386   0.061   3.440  15.102  2.3701  2.6049 -0.3816
  768MPD2     C11387   1.512   1.783  10.568 -1.1601 -0.3521  0.1256
  768MPD2    C111388   1.439   1.732  10.674  0.0296 -0.3096  0.1640
  768MPD2    C211389   1.493   1.746  10.803 -0.7972 -0.3519  0.0462
  768MPD2    C311390   1.603   1.823  10.828 -0.3621 -0.3816 -0.3812
  768MPD2    C411391   1.671   1.880  10.723 -0.3192  0.4949 -0.0312
  768MPD2    C511392   1.627   1.854  10.600 -0.5290  0.6589  0.2086
  768MPD2     H11393   1.438   1.715  10.891  0.3063  1.1420  1.2672
  768MPD2    H111394   1.756   1.946  10.737  0.6887 -0.4722 -1.5862
  768MPD2    H211395   1.481   1.780  10.464  0.7837 -1.0240 -0.4244
  768MPD2    H311396   1.680   1.899  10.517 -0.0313  1.3287  0.8871
  768MPD2     N11397   1.657   1.844  10.957 -0.3533 -0.0748 -0.0392
  768MPD2    H511398   1.738   1.905  10.955  1.2062 -2.1481  0.7348
  768MPD2    N111399   1.313   1.678  10.657  0.4740  0.0466  0.3133
  768MPD2    H711400   1.263   1.659  10.744  0.1148  0.2345  0.1483
  769MPD2     C11401   1.841   4.474  14.515 -0.3102 -0.0331 -0.0552
  769MPD2    C111402   1.774   4.407  14.616  0.3931  0.0237  0.4442
  769MPD2    C211403   1.807   4.423  14.747  0.5899  0.2004  0.2823
  769MPD2    C311404   1.908   4.508  14.784  0.3265  0.8161  0.5129
  769MPD2    C411405   1.975   4.575  14.685 -0.1645  0.0885  0.0136
  769MPD2    C511406   1.944   4.556  14.557 -0.0554 -0.2423 -0.1078
  769MPD2     H11407   1.756   4.364  14.823  1.0436 -0.9368 -0.3037
  769MPD2    H111408   2.054   4.645  14.708 -0.8126 -0.1768  2.9946
  769MPD2    H211409   1.813   4.455  14.412  0.3098 -0.1928 -0.1905
  769MPD2    H311410   1.985   4.628  14.486  0.4530 -0.9775 -0.5595
  769MPD2     N11411   1.907   4.545  14.917  0.0711  0.3735  0.5757
  769MPD2    H511412   1.832   4.504  14.972  0.3151 -1.4559 -0.4540
  769MPD2    N111413   1.669   4.329  14.568 -0.0752  0.1861 -0.1655
  769MPD2    H711414   1.645   4.340  14.470 -1.3923  1.5385  0.3102
  770MPD2     C11415   1.285   3.368  14.558  0.1600 -0.4403 -0.1838
  770MPD2    C111416   1.332   3.425  14.677  0.0304  0.3047  0.7718
  770MPD2    C211417   1.361   3.559  14.689  0.0438  0.1165  0.7288
  770MPD2    C311418   1.348   3.640  14.570  0.6298 -0.3193 -0.8246
  770MPD2    C411419   1.322   3.576  14.452 -0.2832 -0.4041  0.6651
  770MPD2    C511420   1.285   3.441  14.443  0.8695 -0.1010 -0.5821
  770MPD2     H11421   1.387   3.603  14.785  0.0181 -2.0550  1.7289
  770MPD2    H111422   1.321   3.624  14.354 -1.1889 -0.4842  0.6330
  770MPD2    H211423   1.254   3.265  14.541  2.3224 -1.3695  1.3494
  770MPD2    H311424   1.244   3.395  14.354  3.1566  1.0407 -2.2479
  770MPD2     N11425   1.386   3.778  14.571 -0.3395 -0.6434 -0.2936
  770MPD2    H511426   1.407   3.826  14.657 -0.0170 -1.6416  0.1852
  770MPD2    N111427   1.351   3.335  14.787 -0.3958  0.4454 -0.1213
  770MPD2    H711428   1.335   3.236  14.770  1.9710  0.2471 -1.2077
  771MPD2     C11429   2.546   2.608  13.885  0.4824 -0.1018 -0.1550
  771MPD2    C111430   2.488   2.735  13.879 -0.0687  0.1424  0.2854
  771MPD2    C211431   2.433   2.778  13.759 -0.5590 -0.6327  0.8131
  771MPD2    C311432   2.446   2.697  13.648 -0.5934  0.2454  0.3562
  771MPD2    C411433   2.495   2.568  13.655  0.7905  0.0476 -0.6411
  771MPD2    C511434   2.542   2.530  13.776  0.2867 -0.1328  0.1448
  771MPD2     H11435   2.378   2.871  13.758  2.4927  1.1909  1.9904
  771MPD2    H111436   2.504   2.500  13.572 -1.6560  1.9352 -2.4516
  771MPD2    H211437   2.601   2.567  13.969 -1.7777 -1.5583  0.6074
  771MPD2    H311438   2.586   2.432  13.794  0.2362  0.1183  1.6559
  771MPD2     N11439   2.384   2.747  13.525  0.8844 -0.1429 -0.2335
  771MPD2    H511440   2.339   2.833  13.551 -2.2181 -1.4015 -1.4952
  771MPD2    N111441   2.497   2.825  13.987 -0.0340 -0.1332  0.2278
  771MPD2    H711442   2.449   2.914  13.979  2.1888  1.0792  0.3405
  772MPD2     C11443   2.127   3.297  14.353 -0.2399  0.9472 -0.0343
  772MPD2    C111444   2.152   3.198  14.267 -0.2928  0.3484 -0.5571
  772MPD2    C211445   2.049   3.121  14.222  0.4657 -0.4844 -0.2361
  772MPD2    C311446   1.913   3.141  14.260 -0.2094 -0.0702 -0.5098
  772MPD2    C411447   1.890   3.245  14.354 -0.6954  0.6823 -0.2012
  772MPD2    C511448   2.000   3.320  14.396 -0.0535 -0.1577  0.0263
  772MPD2     H11449   2.073   3.038  14.156  0.7374 -2.3910  2.2248
  772MPD2    H111450   1.790   3.277  14.381 -0.5294 -0.5315  1.8894
  772MPD2    H211451   2.203   3.359  14.398 -0.3324 -0.1694  1.6662
  772MPD2    H311452   1.983   3.394  14.473  0.1651 -1.3390  1.2114
  772MPD2     N11453   1.810   3.055  14.225 -0.5105  0.3830  0.1331
  772MPD2    H511454   1.725   3.088  14.270 -1.2617 -1.1992 -0.1294
  772MPD2    N111455   2.283   3.163  14.229 -0.3702  0.4873 -0.3185
  772MPD2    H711456   2.291   3.091  14.158  1.2951 -0.4086  0.7893
  773MPD2     C11457   0.889   3.770  17.517 -0.8291  0.2573  0.2549
  773MPD2    C111458   0.890   3.637  17.473  0.1987 -0.1392  0.5939
  773MPD2    C211459   0.941   3.533  17.551  0.5414 -1.2442 -0.5787
  773MPD2    C311460   1.004   3.564  17.671 -0.4311  0.6128  0.3724
  773MPD2    C411461   1.017   3.696  17.709 -0.4230 -0.0342  0.3088
  773MPD2    C511462   0.959   3.795  17.635 -0.6577 -0.6575  0.2761
  773MPD2     H11463   0.944   3.429  17.520 -0.9171 -1.9512  1.6167
  773MPD2    H111464   1.073   3.726   0.043  2.2505  2.6047 -2.2798
  773MPD2    H211465   0.845   3.852  17.460  0.5025  0.6284 -0.2258
  773MPD2    H311466   0.965   3.891  17.684 -0.0988 -0.4125 -0.2636
  773MPD2     N11467   1.041   3.458   0.005  0.1254  0.3087 -0.1249
  773MPD2    H511468   1.017   3.363  17.733 -0.0590 -0.2612  2.1420
  773MPD2    N111469   0.831   3.596  17.356 -0.6142 -0.0507 -0.3570
  773MPD2    H711470   0.845   3.501  17.324  1.0272 -0.3120  1.1523
  774MPD2     C11471   0.140   2.660  13.561  0.6288  0.5206  0.2920
  774MPD2    C111472   0.251   2.708  13.619  1.0323  0.2133  0.5548
  774MPD2    C211473   0.280   2.839  13.591 -0.7282  0.0755  0.6491
  774MPD2    C311474   0.198   2.919  13.504  0.7641 -0.6497  0.0057
  774MPD2    C411475   0.089   2.867  13.452  0.3963 -0.7052 -0.0105
  774MPD2    C511476   0.067   2.736  13.473 -0.5704  0.0427 -0.6776
  774MPD2     H11477   0.364   2.883  13.642  1.6298 -0.4295 -2.8197
  774MPD2    H111478   0.022   2.925  13.389 -1.4550 -0.0892  2.4990
  774MPD2    H211479   0.110   2.558  13.581 -1.0542  0.8274 -0.6529
  774MPD2    H311480   4.720   2.694  13.423 -0.0983 -0.2762 -1.2235
  774MPD2     N11481   0.244   3.049  13.475 -0.5718  0.2158 -0.0827
  774MPD2    H511482   0.330   3.082  13.518  0.0278 -2.0481  0.4577
  774MPD2    N111483   0.335   2.626  13.696 -0.3111 -0.0080  0.2540
  774MPD2    H711484   0.304   2.537  13.733 -0.7359 -0.6159 -1.5306
  775MPD2     C11485   2.235   4.277  15.507 -0.7921 -0.2287  0.3663
  775MPD2    C111486   2.189   4.404  15.522 -0.8855 -0.5065  0.5347
  775MPD2    C211487   2.278   4.507  15.486  0.4222  0.1975  0.3712
  775MPD2    C311488   2.406   4.488  15.444  0.3205  0.4841  0.0115
  775MPD2    C411489   2.448   4.355  15.436 -0.0131  0.1152  0.5799
  775MPD2    C511490   2.363   4.252  15.462  0.1888  0.0379  0.2105
  775MPD2     H11491   2.242   4.608  15.467  2.0937  1.0805  1.8534
  775MPD2    H111492   2.553   4.336  15.413 -0.3542  1.4732 -2.0634
  775MPD2    H211493   2.178   4.188  15.532  1.0614 -0.5853  3.2881
  775MPD2    H311494   2.395   4.149  15.448 -0.2646  0.2262 -2.1854
  775MPD2     N11495   2.494   4.592  15.395 -0.1304  0.5331 -0.4654
  775MPD2    H511496   2.585   4.568  15.356 -0.0465 -0.3808  0.3085
  775MPD2    N111497   2.063   4.426  15.574 -0.0396  0.0064 -0.6679
  775MPD2    H711498   2.001   4.346  15.586  1.7476 -1.1107  0.9326
  776MPD2     C11499   1.462   0.572  11.907  0.1762  0.0309  0.5315
  776MPD2    C111500   1.420   0.543  11.779  0.2325  0.1975  0.4231
  776MPD2    C211501   1.450   0.625  11.670  0.6645 -0.1453 -0.3589
  776MPD2    C311502   1.533   0.734  11.683  0.4136 -0.0976 -0.3750
  776MPD2    C411503   1.578   0.761  11.813  0.3051  0.1474 -0.1142
  776MPD2    C511504   1.539   0.688  11.926 -1.7134  0.1780 -0.5137
  776MPD2     H11505   1.426   0.588  11.571  2.4694 -0.8124 -0.5561
  776MPD2    H111506   1.637   0.850  11.829  1.4243 -0.9044  1.5348
  776MPD2    H211507   1.432   0.505  11.986  2.4972  0.5687  1.8912
  776MPD2    H311508   1.559   0.714  12.029 -0.7887 -1.1290 -0.3739
  776MPD2     N11509   1.587   0.792  11.569 -0.2440 -0.1826 -0.1078
  776MPD2    H511510   1.673   0.846  11.583  0.3032 -0.7008 -1.4351
  776MPD2    N111511   1.368   0.411  11.762  0.0522  0.1914  0.2625
  776MPD2    H711512   1.349   0.360  11.847 -0.1925  1.4241  0.9458
  777MPD2     C11513   1.175   2.255   0.960 -0.0714  0.6508 -0.3686
  777MPD2    C111514   1.314   2.243   0.980 -0.4875 -0.2948  0.0678
  777MPD2    C211515   1.381   2.137   0.925 -0.5000  0.2629  0.4829
  777MPD2    C311516   1.321   2.053   0.833 -0.1708 -0.2711  0.4484
  777MPD2    C411517   1.186   2.063   0.818  0.3476 -0.3520 -0.0376
  777MPD2    C511518   1.111   2.165   0.881 -0.8024  0.0276 -0.2923
  777MPD2     H11519   1.489   2.138   0.933 -0.4672 -1.3427  0.2620
  777MPD2    H111520   1.125   2.009   0.748  1.2245 -0.5246 -0.6739
  777MPD2    H211521   1.109   2.337   0.988 -0.1805 -0.2505  2.0458
  777MPD2    H311522   1.009   2.188   0.854 -1.8334 -0.4046  3.1787
  777MPD2     N11523   1.400   1.949   0.767 -0.6216 -0.2842  0.2421
  777MPD2    H511524   1.495   1.944   0.803 -0.1280  2.5116 -0.6004
  777MPD2    N111525   1.364   2.345   1.058  0.1159  0.6269  0.1397
  777MPD2    H711526   1.303   2.414   1.101 -0.0618  0.4708  0.1370
  778MPD2     C11527   2.531   2.742  14.920 -0.0498 -0.0554  0.0892
  778MPD2    C111528   2.579   2.634  14.838 -1.0071 -0.0718 -0.1927
  778MPD2    C211529   2.677   2.669  14.741 -0.3801 -0.5546  0.3772
  778MPD2    C311530   2.719   2.802  14.732  0.7368  0.2962  0.2193
  778MPD2    C411531   2.660   2.899  14.810 -0.5137 -0.2980  0.0409
  778MPD2    C511532   2.572   2.868  14.908 -0.9018  0.0760  0.0567
  778MPD2     H11533   2.730   2.598  14.678  0.3117  1.1265 -0.9264
  778MPD2    H111534   2.679   3.005  14.794  1.7298 -0.6563  0.3213
  778MPD2    H211535   2.448   2.719  14.986  0.5375 -0.4409  0.6963
  778MPD2    H311536   2.530   2.943  14.973 -2.6212 -0.3076 -0.6193
  778MPD2     N11537   2.826   2.822  14.636 -0.3055  0.6536 -0.0403
  778MPD2    H511538   2.864   2.741  14.589  1.4001  0.5112  1.6224
  778MPD2    N111539   2.543   2.493  14.854 -0.1289 -0.3651  0.0469
  778MPD2    H711540   2.585   2.425  14.792  0.3633  0.6878 -0.7693
  779MPD2     C11541   2.399   1.674  13.677 -0.3420  0.3933  0.7412
  779MPD2    C111542   2.435   1.649  13.813  0.1011  0.1661 -0.0614
  779MPD2    C211543   2.452   1.750  13.905  0.2475 -0.4795  0.3366
  779MPD2    C311544   2.436   1.878  13.859 -0.0234 -0.0911 -0.1517
  779MPD2    C411545   2.407   1.902  13.725  0.5403 -0.2545 -0.4503
  779MPD2    C511546   2.398   1.802  13.634 -0.0232  0.2931 -0.0968
  779MPD2     H11547   2.460   1.736  14.012  0.4900  1.1028  0.5359
  779MPD2    H111548   2.411   2.004  13.690 -1.2896  0.6686  2.0149
  779MPD2    H211549   2.379   1.588  13.613 -2.2224 -0.0101  1.8603
  779MPD2    H311550   2.364   1.832  13.535  0.9800  2.4368  0.2099
  779MPD2     N11551   2.440   1.987  13.958  0.4402  0.3348 -0.0907
  779MPD2    H511552   2.470   1.962  14.052 -1.1733 -0.8309  0.1327
  779MPD2    N111553   2.463   1.517  13.857 -0.0156 -0.4537  0.6569
  779MPD2    H711554   2.517   1.507  13.942  1.4766  1.6842 -0.0457
  780MPD2     C11555   2.292   0.965   0.755  1.2997  0.2154 -0.2758
  780MPD2    C111556   2.266   0.943   0.620  0.0531 -0.7345  0.0400
  780MPD2    C211557   2.264   1.056   0.545 -0.5845 -0.3352  0.0489
  780MPD2    C311558   2.283   1.178   0.599 -0.5286  0.0118  0.6542
  780MPD2    C411559   2.303   1.201   0.729 -0.4017  0.4312 -0.5010
  780MPD2    C511560   2.301   1.091   0.808  0.4704  0.2175 -0.2295
  780MPD2     H11561   2.237   1.051   0.440  0.0644 -0.5536 -0.1083
  780MPD2    H111562   2.331   1.298   0.769 -0.0360  1.6159 -3.6226
  780MPD2    H211563   2.299   0.880   0.822  3.3689  1.2822  0.8620
  780MPD2    H311564   2.314   1.109   0.915 -1.0907 -0.3746  0.0608
  780MPD2     N11565   2.279   1.276   0.497  0.5235 -0.5861  0.2468
  780MPD2    H511566   2.289   1.244   0.401 -0.1723  1.8727 -0.6653
  780MPD2    N111567   2.240   0.813   0.565  0.7092 -0.2575  0.2614
  780MPD2    H711568   2.250   0.739   0.634 -2.1133 -1.0333 -0.1659
  781MPD2     C11569   3.613   3.477  11.927  0.5744 -0.0249  0.2995
  781MPD2    C111570   3.690   3.427  12.032  0.3482 -0.4465 -0.4127
  781MPD2    C211571   3.818   3.397  12.005 -0.4473 -0.0138 -0.5252
  781MPD2    C311572   3.878   3.397  11.878 -0.7280  0.9423  0.1471
  781MPD2    C411573   3.800   3.421  11.775  0.1842  0.0492 -0.0817
  781MPD2    C511574   3.669   3.469  11.799 -0.2155  0.6344  0.2558
  781MPD2     H11575   3.883   3.375  12.090  0.6145 -0.6735 -1.4933
  781MPD2    H111576   3.836   3.412  11.673  0.1486 -0.1989 -0.0717
  781MPD2    H211577   3.526   3.537  11.948  2.2178  2.1283  0.9579
  781MPD2    H311578   3.618   3.509  11.712 -0.0980  0.0498 -0.0872
  781MPD2     N11579   4.012   3.365  11.857 -0.2572  0.5539  0.0109
  781MPD2    H511580   4.040   3.353  11.760  2.0691 -1.7012  0.9689
  781MPD2    N111581   3.645   3.403  12.160  0.1948 -0.3476 -0.3932
  781MPD2    H711582   3.711   3.376  12.232 -0.3814 -0.2423  0.1779
  782MPD2     C11583   2.153   3.946  10.143  0.2153 -0.0241  0.0166
  782MPD2    C111584   2.189   3.939  10.276  0.1942  0.6507  0.1926
  782MPD2    C211585   2.186   4.053  10.356 -0.2525 -0.7105 -0.2736
  782MPD2    C311586   2.141   4.172  10.305 -0.1526 -0.4444  0.0957
  782MPD2    C411587   2.105   4.180  10.171  0.0216  0.3195  0.4674
  782MPD2    C511588   2.115   4.067  10.099 -0.2483 -0.2294  0.0548
  782MPD2     H11589   2.221   4.047  10.458  0.0517  1.7951 -0.2414
  782MPD2    H111590   2.062   4.267  10.123  1.0502  0.3055 -0.4794
  782MPD2    H211591   2.152   3.860  10.077  3.1443  0.0489 -0.1055
  782MPD2    H311592   2.101   4.080   9.992 -0.1534  0.1382  0.0851
  782MPD2     N11593   2.148   4.287  10.385 -0.0405  0.1402  0.1450
  782MPD2    H511594   2.165   4.272  10.484  2.0403  0.0165 -0.2302
  782MPD2    N111595   2.241   3.825  10.341 -0.2703  0.2712  0.6199
  782MPD2    H711596   2.274   3.830  10.437  1.2599  4.2002 -0.0792
  783MPD2     C11597   1.755   3.442  11.038  0.1065  0.6682  0.7954
  783MPD2    C111598   1.799   3.575  11.049  0.0125  0.1485  0.6066
  783MPD2    C211599   1.901   3.622  10.966 -0.1457  0.4168 -0.4879
  783MPD2    C311600   1.950   3.530  10.863  0.5015 -0.1994  0.2365
  783MPD2    C411601   1.893   3.406  10.850  0.2530 -0.4406 -0.4209
  783MPD2    C511602   1.804   3.370  10.938  0.2006  0.3778  0.4533
  783MPD2     H11603   1.942   3.722  10.966 -0.2498  0.4594 -0.4687
  783MPD2    H111604   1.924   3.334  10.775 -2.1732 -0.6935 -1.2044
  783MPD2    H211605   1.674   3.402  11.099 -0.5303  0.6939 -0.0416
  783MPD2    H311606   1.770   3.267  10.925  1.3881  0.0060  0.3502
  783MPD2     N11607   2.060   3.570  10.782  0.6094 -0.9646  0.5247
  783MPD2    H511608   2.104   3.657  10.812  0.5735 -0.1071 -1.8862
  783MPD2    N111609   1.737   3.646  11.157  0.2011 -0.3158  0.8898
  783MPD2    H711610   1.677   3.590  11.216 -1.0238 -0.5195 -0.5697
  784MPD2     C11611   3.692   3.521   0.377  0.3465  0.4228 -0.2858
  784MPD2    C111612   3.690   3.619   0.476 -0.3988  0.2423  0.2043
  784MPD2    C211613   3.585   3.706   0.479 -0.2284 -0.5160 -0.3366
  784MPD2    C311614   3.480   3.705   0.390 -0.3559 -0.1086  0.1903
  784MPD2    C411615   3.482   3.599   0.300 -0.0419  0.2642  0.7317
  784MPD2    C511616   3.585   3.510   0.288  0.0832  0.3394 -0.5178
  784MPD2     H11617   3.587   3.770   0.566  1.5480 -1.2128  0.1245
  784MPD2    H111618   3.397   3.584   0.235 -1.4969  3.1367  1.9458
  784MPD2    H211619   3.773   3.451   0.360 -0.0164 -0.4559  1.6355
  784MPD2    H311620   3.598   3.445   0.203  0.3325  0.5895 -0.6742
  784MPD2     N11621   3.385   3.813   0.399  0.1308 -0.0829 -0.1393
  784MPD2    H511622   3.413   3.884   0.465  0.2145  0.5394 -0.8429
  784MPD2    N111623   3.787   3.617   0.576 -0.0956  0.0986  0.0991
  784MPD2    H711624   3.791   3.698   0.638  0.9003  0.2358 -0.1397
  785MPD2     C11625   0.107   2.833  10.975 -0.4830  0.3745 -0.4487
  785MPD2    C111626   0.022   2.923  10.915 -0.4862  0.2490 -0.6000
  785MPD2    C211627   4.663   2.870  10.834  0.2347 -0.5755 -0.4576
  785MPD2    C311628   4.640   2.734  10.817  0.9923 -0.4918 -0.5656
  785MPD2    C411629   4.726   2.648  10.885  0.5380  0.6632 -0.0688
  785MPD2    C511630   0.090   2.698  10.963  0.1915  0.0711  0.4422
  785MPD2     H11631   4.603   2.945  10.784 -1.0257  0.4596  2.6279
  785MPD2    H111632   4.716   2.541  10.873 -0.5557  0.4029  3.1240
  785MPD2    H211633   0.195   2.859  11.032  0.6247 -3.1678 -0.5381
  785MPD2    H311634   0.155   2.629  11.015  0.6787  0.5955  0.5353
  785MPD2     N11635   4.546   2.694  10.720  0.2330 -0.3706  0.6331
  785MPD2    H511636   4.486   2.766  10.682  0.4984  0.0798  1.0680
  785MPD2    N111637   0.016   3.062  10.928 -0.0394 -0.1063  0.2522
  785MPD2    H711638   4.678   3.107  10.879 -0.0781 -1.1092 -0.5974
  786MPD2     C11639   2.908   0.759  14.665 -0.3781  0.1074  0.3739
  786MPD2    C111640   2.997   0.652  14.668  0.9830  0.0955 -0.1100
  786MPD2    C211641   3.025   0.586  14.787 -0.2718 -0.2462 -0.0532
  786MPD2    C311642   2.971   0.626  14.904  0.3466  0.6640 -0.1107
  786MPD2    C411643   2.884   0.734  14.904 -0.7460  0.0679  0.4039
  786MPD2    C511644   2.846   0.797  14.784  0.8450 -0.1437 -0.6592
  786MPD2     H11645   3.091   0.501  14.780 -1.5207 -1.2707  0.5826
  786MPD2    H111646   2.833   0.781  14.988 -0.8705  0.5974  0.0356
  786MPD2    H211647   2.897   0.821  14.576 -0.3829  0.9997  0.9884
  786MPD2    H311648   2.777   0.880  14.792  1.6423  0.3631  0.8970
  786MPD2     N11649   2.991   0.561  15.031  0.0862  0.4919  0.0310
  786MPD2    H511650   2.953   0.617  15.106 -1.2662  1.7302 -1.5748
  786MPD2    N111651   3.065   0.602  14.556  0.7193 -0.0236 -0.5783
  786MPD2    H711652   3.107   0.509  14.560  1.3471  0.2412 -1.0907
  787MPD2     C11653   3.569   0.264  14.625  0.5214 -0.1104  0.1558
  787MPD2    C111654   3.568   0.280  14.491 -1.2025  0.1121  1.0143
  787MPD2    C211655   3.674   0.224  14.411  0.5646 -0.5160  0.1018
  787MPD2    C311656   3.767   0.140  14.465  0.1429  0.4352  0.6352
  787MPD2    C411657   3.754   0.115  14.603  0.6736 -0.1760  0.4972
  787MPD2    C511658   3.662   0.182  14.683 -0.2057 -0.1935 -0.1274
  787MPD2     H11659   3.674   0.246  14.305  0.0344  1.1287  0.4500
  787MPD2    H111660   3.808   0.047  14.667 -0.5389 -0.5629  1.1045
  787MPD2    H211661   3.486   0.297  14.686  0.3287  0.5494 -0.4594
  787MPD2    H311662   3.662   0.163  14.790 -0.1220 -1.6428 -0.3930
  787MPD2     N11663   3.855   0.062  14.385 -0.3566  0.4435  1.1591
  787MPD2    H511664   3.846   0.082  14.285  2.1813  0.1088  0.8704
  787MPD2    N111665   3.465   0.360  14.439  0.5449 -0.3001 -0.5981
  787MPD2    H711666   3.394   0.390  14.505  1.7221 -0.3253  0.6871
  788MPD2     C11667   4.514   3.239   0.988 -0.1790 -0.7732 -0.0391
  788MPD2    C111668   4.550   3.195   0.863  0.7361 -0.3814  0.3193
  788MPD2    C211669   4.619   3.278   0.781  0.1587 -0.4046  0.8457
  788MPD2    C311670   4.657   3.400   0.830  0.5741 -0.5545 -0.8581
  788MPD2    C411671   4.646   3.440   0.958 -0.1021  0.6202 -0.6280
  788MPD2    C511672   4.568   3.359   1.034 -0.0574  0.1376  0.3526
  788MPD2     H11673   4.652   3.248   0.682 -2.6800  0.3452 -0.3018
  788MPD2    H111674   4.678   3.534   1.002 -0.7098  1.3572 -1.7784
  788MPD2    H211675   4.463   3.179   1.063  0.9610  0.6876  1.9253
  788MPD2    H311676   4.545   3.380   1.138 -1.4589  1.3137 -0.1878
  788MPD2     N11677   4.722   3.489   0.739  0.8010 -0.6027  0.2722
  788MPD2    H511678   0.008   3.582   0.773 -0.4445 -0.0045 -0.4499
  788MPD2    N111679   4.513   3.064   0.815  0.4672 -0.2135  0.9249
  788MPD2    H711680   4.563   3.033   0.732  0.0332 -0.4317  0.7439
  789MPD2     C11681   0.385   2.922  16.444 -0.1851  0.2360 -0.3109
  789MPD2    C111682   0.305   2.884  16.550  0.4630  0.0294  1.3933
  789MPD2    C211683   0.186   2.955  16.569 -0.3870  0.0118  0.8704
  789MPD2    C311684   0.152   3.070  16.490 -0.8660 -0.2185 -0.3213
  789MPD2    C411685   0.242   3.102  16.387 -0.5666  0.5339 -0.5798
  789MPD2    C511686   0.354   3.030  16.364 -0.0267 -0.2443  0.5144
  789MPD2     H11687   0.113   2.916  16.639  0.1685 -1.2710  0.7433
  789MPD2    H111688   0.222   3.190  16.327  1.7666  0.8836 -0.8426
  789MPD2    H211689   0.483   2.878  16.430  0.9273  2.1795  1.4482
  789MPD2    H311690   0.419   3.065  16.284 -2.1007 -1.4498 -1.6989
  789MPD2     N11691   0.033   3.141  16.511  0.6554 -0.3092 -0.3919
  789MPD2    H511692   0.016   3.212  16.440  0.0000 -3.0504 -2.9559
  789MPD2    N111693   0.324   2.757  16.615 -0.5491  0.6235 -0.0849
  789MPD2    H711694   0.252   2.727  16.680 -0.5957  0.0765 -0.3872
  790MPD2     C11695   1.846   0.227  13.384  0.0630 -0.1295 -0.8543
  790MPD2    C111696   1.890   0.118  13.311  0.4353 -0.4814  0.0199
  790MPD2    C211697   1.812   0.080  13.201  0.2877  0.1888 -0.3353
  790MPD2    C311698   1.711   0.157  13.149  0.2092 -0.4511 -0.0671
  790MPD2    C411699   1.675   0.271  13.216  0.5826  0.6224  0.0356
  790MPD2    C511700   1.743   0.299  13.335 -0.4358 -0.2039  0.7027
  790MPD2     H11701   1.832   4.721  13.159 -1.2619  0.0537 -0.7319
  790MPD2    H111702   1.593   0.335  13.187  2.3593  1.4526 -3.1594
  790MPD2    H211703   1.908   0.267  13.464 -2.7510  2.3852  0.0576
  790MPD2    H311704   1.707   0.389  13.384  1.8460  1.4934 -0.7369
  790MPD2     N11705   1.648   0.111  13.033 -0.2506 -0.1043  0.0601
  790MPD2    H511706   1.694   0.037  12.981 -1.7455 -1.9477  1.3751
  790MPD2    N111707   2.007   0.055  13.358  0.2006 -0.0537  0.2252
  790MPD2    H711708   2.046   0.081  13.447 -0.9271  0.8612  0.4457
  791MPD2     C11709   0.913   0.269  12.803 -0.3925  0.4030  0.4199
  791MPD2    C111710   0.969   0.160  12.740  0.5200 -0.5179  1.0301
  791MPD2    C211711   0.885   0.062  12.687  0.2494 -0.2310 -0.2859
  791MPD2    C311712   0.747   0.066  12.719 -0.1790 -0.0790  0.1416
  791MPD2    C411713   0.696   0.172  12.782 -0.1984 -0.3794 -0.5530
  791MPD2    C511714   0.777   0.273  12.812  0.1197  0.1867  0.3105
  791MPD2     H11715   0.918   4.715  12.630  1.3079  1.3713 -2.0968
  791MPD2    H111716   0.590   0.188  12.801  0.2752  1.9203  0.2419
  791MPD2    H211717   0.973   0.352  12.838  0.6687  0.2078 -0.9503
  791MPD2    H311718   0.745   0.374  12.837 -0.6836  0.4198 -1.5819
  791MPD2     N11719   0.669   4.699  12.683 -0.3773 -0.1979 -1.2735
  791MPD2    H511720   0.717   4.617  12.650  3.3716  0.9905  1.2464
  791MPD2    N111721   1.114   0.148  12.728  0.0100 -0.2633  0.0873
  791MPD2    H711722   1.163   0.227  12.770 -1.4495  0.6157  0.1372
  792MPD2     C11723   1.365   0.233  11.213 -0.2020 -0.8882  0.0843
  792MPD2    C111724   1.454   0.196  11.117  0.0694  0.5788 -0.5869
  792MPD2    C211725   1.410   0.089  11.043 -0.3762  0.5865  0.3534
  792MPD2    C311726   1.294   0.021  11.069 -0.4352 -1.0553  0.4794
  792MPD2    C411727   1.201   0.076  11.154  0.2614  0.4677  0.4388
  792MPD2    C511728   1.239   0.186  11.224 -0.9335  0.2673 -0.0741
  792MPD2     H11729   1.477   0.042  10.973 -1.9609  0.1950 -0.9155
  792MPD2    H111730   1.103   0.033  11.174 -0.0310  1.4365  1.0886
  792MPD2    H211731   1.398   0.313  11.280  0.0917 -1.0992  0.1912
  792MPD2    H311732   1.171   0.235  11.293 -2.1004  2.0335 -2.5011
  792MPD2     N11733   1.257   4.634  11.021  0.3947  0.1912 -0.2354
  792MPD2    H511734   1.161   4.612  11.048  0.8279 -2.6352 -1.0241
  792MPD2    N111735   1.588   0.247  11.117  0.8815 -0.2672 -0.1092
  792MPD2    H711736   1.620   0.310  11.190  2.0348 -1.7446  0.6504
  793MPD2     C11737   0.749   4.396  10.305 -0.0894  0.5259 -0.3113
  793MPD2    C111738   0.869   4.454  10.316  0.3493 -0.4177 -0.1882
  793MPD2    C211739   0.938   4.450  10.439 -0.2129 -0.3631  0.3406
  793MPD2    C311740   0.886   4.388  10.557 -0.1063  0.4729  0.1032
  793MPD2    C411741   0.757   4.343  10.544 -0.6305  0.2189  0.4175
  793MPD2    C511742   0.693   4.340  10.417  0.3392 -0.1113 -0.4782
  793MPD2     H11743   1.043   4.480  10.443 -0.1132 -0.8220  1.0700
  793MPD2    H111744   0.694   4.298  10.620 -2.1810  1.7878  0.0615
  793MPD2    H211745   0.684   4.403  10.219  0.3991 -1.6597 -0.8387
  793MPD2    H311746   0.592   4.303  10.403  0.6795 -1.1953 -0.1120
  793MPD2     N11747   0.955   4.393  10.683  0.3522  0.3142  0.0830
  793MPD2    H511748   1.044   4.440  10.680 -0.8367  2.2853 -3.8765
  793MPD2    N111749   0.928   4.528  10.204  0.4205  0.1499 -0.1215
  793MPD2    H711750   1.018   4.570  10.220  1.2659 -1.4099 -0.7815
  794MPD2     C11751   0.310   3.822  16.722  0.1478  1.1076 -0.2839
  794MPD2    C111752   0.448   3.830  16.743 -0.7800 -0.0536  0.3711
  794MPD2    C211753   0.516   3.926  16.667 -0.5341 -0.2434 -0.3001
  794MPD2    C311754   0.447   4.007  16.572  0.1550 -0.2524  0.0133
  794MPD2    C411755   0.312   3.990  16.552 -0.2275 -0.2609  0.0425
  794MPD2    C511756   0.242   3.898  16.631  0.5381  0.4453  0.5053
  794MPD2     H11757   0.624   3.930  16.675 -0.3212 -0.2726 -3.3779
  794MPD2    H111758   0.259   4.042  16.473  0.3406  1.4228  0.7726
  794MPD2    H211759   0.243   3.762  16.783  2.0128 -0.0646  0.5927
  794MPD2    H311760   0.133   3.899  16.627  0.6080 -0.4063 -1.4360
  794MPD2     N11761   0.511   4.112  16.496 -0.2150 -0.4156 -0.4173
  794MPD2    H511762   0.446   4.166  16.439 -0.9259  0.0011  0.8045
  794MPD2    N111763   0.520   3.742  16.832 -0.2085 -0.1806 -0.0043
  794MPD2    H711764   0.620   3.757  16.848  0.1314  0.0562 -2.2652
  795MPD2     C11765   3.229   1.949  13.353  0.0124  0.0115 -0.5246
  795MPD2    C111766   3.298   1.845  13.290 -0.0540  0.5048 -0.2781
  795MPD2    C211767   3.394   1.781  13.362 -0.1925  0.4343  0.8698
  795MPD2    C311768   3.406   1.800  13.503  0.6555  0.0503 -0.0173
  795MPD2    C411769   3.320   1.883  13.570 -0.4527  0.0148  0.0121
  795MPD2    C511770   3.238   1.966  13.488  0.0890 -0.6075  0.3323
  795MPD2     H11771   3.461   1.716  13.307 -1.8867 -0.2701 -0.3611
  795MPD2    H111772   3.318   1.906  13.676 -2.3129 -2.3425  0.4979
  795MPD2    H211773   3.174   2.025  13.299 -0.1961 -0.1845 -0.5899
  795MPD2    H311774   3.185   2.043  13.543  0.3255  0.8525 -1.5015
  795MPD2     N11775   3.523   1.753  13.562 -0.4212 -0.7384 -0.3867
  795MPD2    H511776   3.590   1.719  13.494 -1.5064  0.9908 -2.2901
  795MPD2    N111777   3.285   1.813  13.155 -0.1245  0.4794 -0.2903
  795MPD2    H711778   3.333   1.730  13.121 -2.5269  0.2012 -2.9937
  796MPD2     C11779   2.886   2.771  15.798  0.1639 -0.1843  0.3433
  796MPD2    C111780   2.952   2.857  15.875  0.4734 -1.3855  0.2419
  796MPD2    C211781   2.978   2.984  15.824 -0.1844  0.1594 -0.2768
  796MPD2    C311782   2.940   3.031  15.699 -0.4064  0.6675 -0.7480
  796MPD2    C411783   2.863   2.936  15.625 -0.8329  0.7119 -0.2220
  796MPD2    C511784   2.843   2.816  15.674 -0.6303 -0.9778 -0.1031
  796MPD2     H11785   3.020   3.057  15.893 -2.0463  0.5523  0.4390
  796MPD2    H111786   2.824   2.955  15.526  0.3138  0.1844 -0.7679
  796MPD2    H211787   2.879   2.665  15.819 -1.4278  0.0847  1.1437
  796MPD2    H311788   2.778   2.740  15.632 -0.1209 -0.4980 -1.7368
  796MPD2     N11789   2.976   3.156  15.654  0.1775 -0.4659 -1.5945
  796MPD2    H511790   3.041   3.211  15.709  1.0856 -1.7610 -1.3987
  796MPD2    N111791   3.008   2.815  15.997 -0.0557  0.1549  0.2090
  796MPD2    H711792   2.983   2.718  16.013 -2.1780  0.8657  1.1612
  797MPD2     C11793   3.899   2.454  17.408  0.7780 -0.1052 -0.4164
  797MPD2    C111794   4.002   2.543  17.418  0.0999 -0.2225 -0.4381
  797MPD2    C211795   3.990   2.663  17.348 -0.2295 -0.3531  0.4972
  797MPD2    C311796   3.889   2.682  17.250 -0.3450  0.4587  0.5587
  797MPD2    C411797   3.789   2.589  17.234  0.3729 -0.1038  0.0750
  797MPD2    C511798   3.796   2.475  17.316 -0.1823  0.0143 -0.0820
  797MPD2     H11799   4.059   2.743  17.372 -0.8368  0.2062  0.3769
  797MPD2    H111800   3.712   2.611  17.162 -0.9469  1.2355  1.8917
  797MPD2    H211801   3.906   2.358  17.457  0.0681  0.1016  0.0863
  797MPD2    H311802   3.714   2.405  17.307  1.2144 -1.8075  1.3843
  797MPD2     N11803   3.896   2.801  17.180  0.5935 -0.4715 -0.2938
  797MPD2    H511804   3.977   2.857  17.204  1.4729 -1.9393  0.1655
  797MPD2    N111805   4.124   2.520  17.481 -0.3942  0.8349  0.0479
  797MPD2    H711806   4.197   2.591  17.479  0.7585 -0.2770  2.3155
  798MPD2     C11807   4.528   2.983  17.109 -0.2868  0.5705 -0.4498
  798MPD2    C111808   4.405   2.941  17.152 -0.0321 -0.3799 -0.3542
  798MPD2    C211809   4.404   2.842  17.243 -0.2395 -0.0419  0.1214
  798MPD2    C311810   4.520   2.787  17.292  0.6017  0.3294 -0.8977
  798MPD2    C411811   4.644   2.833  17.248 -0.6785  0.0242 -0.4894
  798MPD2    C511812   4.648   2.933  17.156  0.0552 -0.3732 -0.1843
  798MPD2     H11813   4.311   2.792  17.267 -0.6496  0.2007 -0.9619
  798MPD2    H111814   4.735   2.794  17.291 -1.0877  0.5253  0.8397
  798MPD2    H211815   4.530   3.061  17.034  1.6940  0.3092 -0.6692
  798MPD2    H311816   0.001   2.975  17.117  0.5055 -0.4818  0.7727
  798MPD2     N11817   4.497   2.682  17.384 -0.1871  0.2821  0.3750
  798MPD2    H511818   4.403   2.682  17.421 -0.9746 -1.3029 -1.6045
  798MPD2    N111819   4.290   3.010  17.109 -0.2878  0.4292  0.9658
  798MPD2    H711820   4.305   3.073  17.031  1.6548 -1.6471 -0.3212
  799MPD2     C11821   3.666   4.340  14.745  0.1844 -0.1007 -0.2574
  799MPD2    C111822   3.527   4.341  14.733  0.2307 -0.7626 -0.6222
  799MPD2    C211823   3.466   4.436  14.662 -1.0502  0.2545  0.3309
  799MPD2    C311824   3.534   4.533  14.594 -0.3677 -0.0356 -0.5817
  799MPD2    C411825   3.670   4.534  14.600 -0.0643 -0.0329  0.2041
  799MPD2    C511826   3.733   4.435  14.682  0.1566 -0.3753  0.2533
  799MPD2     H11827   3.362   4.414  14.639 -0.5424 -0.2760 -1.5065
  799MPD2    H111828   3.727   4.613  14.553  0.4592 -0.0443  0.8096
  799MPD2    H211829   3.721   4.278  14.814 -1.2162  1.2132  2.0466
  799MPD2    H311830   3.839   4.436  14.702  0.0510 -2.7606  0.9266
  799MPD2     N11831   3.468   4.629  14.512 -0.5142 -0.4673 -0.7794
  799MPD2    H511832   3.530   4.672  14.445 -1.6137 -0.0063 -1.4955
  799MPD2    N111833   3.451   4.231  14.780 -0.1551  0.4953 -0.9056
  799MPD2    H711834   3.354   4.214  14.753 -0.5253  0.9597  0.1253
  800MPD2     C11835   3.365   0.877  14.071 -0.0958 -0.1923  0.3217
  800MPD2    C111836   3.495   0.840  14.103  0.5753  0.0768  0.6503
  800MPD2    C211837   3.563   0.757  14.016 -0.4263  0.7802  0.5069
  800MPD2    C311838   3.511   0.718  13.895  0.3570 -0.0590 -0.1699
  800MPD2    C411839   3.386   0.767  13.859 -0.1057 -0.0548 -0.6014
  800MPD2    C511840   3.315   0.837  13.954 -0.0212  0.8404  0.1503
  800MPD2     H11841   3.669   0.754  14.039 -0.4133  1.9279  0.5545
  800MPD2    H111842   3.341   0.753  13.761  0.5263  2.9271 -1.3236
  800MPD2    H211843   3.299   0.934  14.135 -0.3284 -0.9698  0.7695
  800MPD2    H311844   3.220   0.883  13.930 -1.6806 -2.2387  0.7810
  800MPD2     N11845   3.595   0.668  13.795  0.3266  0.6212 -0.2793
  800MPD2    H511846   3.684   0.633  13.829  0.6836  2.1545  0.3828
  800MPD2    N111847   3.551   0.921  14.204 -0.3864 -0.2299 -0.3575
  800MPD2    H711848   3.497   1.005  14.219 -2.0236 -1.2693 -0.3757
  801MPD2     C11849   3.528   1.476  14.684  0.0222  0.8363  0.0773
  801MPD2    C111850   3.496   1.434  14.559  0.1294 -0.3368  0.6937
  801MPD2    C211851   3.371   1.478  14.506 -0.6407  0.3859 -0.2738
  801MPD2    C311852   3.294   1.564  14.577  0.6438 -0.5899  0.4521
  801MPD2    C411853   3.329   1.605  14.701  0.4904 -0.2269 -0.2272
  801MPD2    C511854   3.447   1.569  14.758  0.2475 -0.7167  0.2575
  801MPD2     H11855   3.326   1.439  14.416  1.7187 -1.3651 -0.6922
  801MPD2    H111856   3.264   1.663  14.765 -2.5308 -1.8807 -1.8187
  801MPD2    H211857   3.615   1.442  14.738 -1.7483  1.7345  3.4994
  801MPD2    H311858   3.463   1.609  14.858 -0.1242 -0.0116  0.0369
  801MPD2     N11859   3.173   1.621  14.526  0.1797 -0.0351 -0.2834
  801MPD2    H511860   3.118   1.677  14.590  0.9050 -0.7355  0.9710
  801MPD2    N111861   3.574   1.338  14.502 -0.3358  0.0805  0.0676
  801MPD2    H711862   3.539   1.297  14.416  1.1856 -1.1950  0.0590
  802MPD2     C11863   3.028   2.453   0.200  0.4595  0.0218 -0.1465
  802MPD2    C111864   2.917   2.370   0.214 -0.2005  0.0301  0.2654
  802MPD2    C211865   2.907   2.267   0.121  0.8726  0.2118 -0.2662
  802MPD2    C311866   3.002   2.242   0.028  0.6650  0.1108  0.1580
  802MPD2    C411867   3.108   2.323   0.026  0.0845 -0.4409 -0.1109
  802MPD2    C511868   3.121   2.434   0.099 -0.6014 -0.3868  0.1014
  802MPD2     H11869   2.815   2.210   0.115  1.5400 -1.0162  1.0540
  802MPD2    H111870   3.181   2.304  17.701  0.8981 -0.4271  0.6347
  802MPD2    H211871   3.042   2.541   0.262  2.5174 -1.2550  1.2250
  802MPD2    H311872   3.211   2.495   0.098 -0.4582 -0.6016  0.0139
  802MPD2     N11873   2.986   2.122  17.711  0.1942 -0.6757  0.3304
  802MPD2    H511874   2.902   2.065  17.721 -0.3142 -0.2735 -1.6982
  802MPD2    N111875   2.820   2.385   0.305  0.0522  0.3392 -0.4376
  802MPD2    H711876   2.733   2.334   0.296  1.6104 -2.0895 -1.4664
  803MPD2     C11877   4.044   4.602  11.953 -0.5730  0.3749  0.5378
  803MPD2    C111878   4.092   4.708  12.036  0.0414 -0.3089  0.3106
  803MPD2    C211879   4.106   4.678  12.170 -0.4652  0.4323 -0.1684
  803MPD2    C311880   4.083   4.549  12.222  0.2212  0.4090  0.1193
  803MPD2    C411881   4.040   4.452  12.135  0.1077  0.2609  0.3062
  803MPD2    C511882   4.025   4.477  12.001 -0.0941 -0.1547  0.8909
  803MPD2     H11883   4.141   0.019  12.234 -2.4497 -0.0541  1.4905
  803MPD2    H111884   4.020   4.353  12.173  2.4963 -0.2110  0.3387
  803MPD2    H211885   4.040   4.621  11.847  1.8640  0.7405  0.5068
  803MPD2    H311886   3.998   4.397  11.933 -0.2848 -1.3483  2.3871
  803MPD2     N11887   4.111   4.499  12.354  0.1145 -0.5138 -0.7745
  803MPD2    H511888   4.083   4.404  12.373  1.8949 -0.4936  1.8191
  803MPD2    N111889   4.125   0.107  11.992 -0.2533  0.3239 -0.0102
  803MPD2    H711890   4.164   0.169  12.062 -0.8565 -2.1693  2.5510
  804MPD2     C11891   3.459   0.997  16.583 -0.2787  0.0175  0.5692
  804MPD2    C111892   3.444   0.988  16.714  0.2293  0.6807  0.6245
  804MPD2    C211893   3.483   1.097  16.791  0.4181 -0.4091 -0.1033
  804MPD2    C311894   3.548   1.208  16.741  0.2275  0.0913  0.5584
  804MPD2    C411895   3.566   1.215  16.609 -0.0946  0.3353 -0.2334
  804MPD2    C511896   3.517   1.115  16.532  1.0292 -0.1298  0.1421
  804MPD2     H11897   3.477   1.071  16.896  1.0348 -2.0715 -0.4791
  804MPD2    H111898   3.614   1.297  16.557  1.4462 -0.4632 -0.0844
  804MPD2    H211899   3.427   0.918  16.515  0.1043  0.1546  0.2266
  804MPD2    H311900   3.515   1.128  16.424 -1.3335  0.6678  0.3007
  804MPD2     N11901   3.586   1.303  16.832  0.4574 -0.3945  0.2183
  804MPD2    H511902   3.567   1.286  16.931 -0.9425 -1.2106 -0.1903
  804MPD2    N111903   3.394   0.874  16.779  0.1028 -0.4938  0.2603
  804MPD2    H711904   3.387   0.880  16.880  1.4919 -0.0343  0.3270
  805MPD2     C11905   2.932   4.618  15.445  0.1373 -0.2339 -0.0163
  805MPD2    C111906   3.011   4.539  15.373  0.8902 -0.5544  0.1771
  805MPD2    C211907   3.139   4.510  15.403 -0.7882 -0.1399  0.4881
  805MPD2    C311908   3.189   4.583  15.507 -0.0636  0.8166 -0.0161
  805MPD2    C411909   3.110   4.662  15.588 -0.2588 -0.1197 -0.2563
  805MPD2    C511910   2.980   4.680  15.555 -0.3492  0.2079 -0.1026
  805MPD2     H11911   3.196   4.432  15.354  0.1473  0.0989  1.2095
  805MPD2    H111912   3.135   4.714  15.679  1.4791 -2.5477  0.6289
  805MPD2    H211913   2.829   4.637  15.418 -0.2372 -1.5251  0.5036
  805MPD2    H311914   2.912   0.008  15.607 -0.3428 -1.1723  1.6954
  805MPD2     N11915   3.320   4.571  15.548 -0.2947 -0.3361  0.4335
  805MPD2    H511916   3.342   4.622  15.633 -0.2459  0.2776  0.0543
  805MPD2    N111917   2.962   4.473  15.253 -0.2775 -0.3596  0.4828
  805MPD2    H711918   3.029   4.430  15.190 -1.6177 -1.1034 -0.4502
  806MPD2     C11919   2.666   4.268   0.131  0.4545  0.7878 -0.3844
  806MPD2    C111920   2.726   4.139   0.157 -0.5619 -0.8134 -0.3008
  806MPD2    C211921   2.770   4.058   0.053  0.1005  0.5715  0.1260
  806MPD2    C311922   2.746   4.103  17.679 -0.2821  0.1622  0.9614
  806MPD2    C411923   2.695   4.235  17.656  0.3579 -0.0623  0.0332
  806MPD2    C511924   2.663   4.319   0.008  0.1754 -0.4232  0.1297
  806MPD2     H11925   2.813   3.963   0.082 -1.7205  0.0159  1.0306
  806MPD2    H111926   2.697   4.286  17.560  0.8499  0.7760  0.4814
  806MPD2    H211927   2.636   4.337   0.210 -1.3022 -0.7423  0.2674
  806MPD2    H311928   2.621   4.417  17.743  0.2109 -0.6004 -0.8453
  806MPD2     N11929   2.781   4.016  17.578 -0.4727 -0.2358 -0.9442
  806MPD2    H511930   2.838   3.937  17.606 -2.7010 -1.0661  1.1552
  806MPD2    N111931   2.739   4.101   0.291  0.5024 -0.5870 -0.5055
  806MPD2    H711932   2.709   4.165   0.363  2.0489 -1.2947  0.7732
  807MPD2     C11933   2.339   3.831   0.891 -0.2057  0.6838  0.2190
  807MPD2    C111934   2.424   3.925   0.940 -0.0381 -0.4033 -1.5008
  807MPD2    C211935   2.404   3.980   1.061  0.1670 -0.1090 -0.2428
  807MPD2    C311936   2.289   3.948   1.128  0.3975 -0.1138  1.1093
  807MPD2    C411937   2.191   3.861   1.073  0.7766  0.1661 -0.8117
  807MPD2    C511938   2.224   3.795   0.958  1.0424 -0.3687 -0.3671
  807MPD2     H11939   2.485   4.036   1.107 -0.2071  0.3261 -0.1041
  807MPD2    H111940   2.100   3.828   1.122  1.1857  0.8601  0.4043
  807MPD2    H211941   2.362   3.782   0.797 -1.1221 -0.8332  0.7903
  807MPD2    H311942   2.153   3.729   0.909 -1.2583  0.0361  2.4415
  807MPD2     N11943   2.284   3.996   1.265 -0.4317 -0.3071 -0.1546
  807MPD2    H511944   2.363   4.053   1.294 -2.1909  1.2270  1.5956
  807MPD2    N111945   2.533   3.977   0.861  0.0447 -0.2925  0.1116
  807MPD2    H711946   2.593   4.041   0.911 -0.0829  0.4899 -0.7319
  808MPD2     C11947   3.955   0.955   9.605 -0.5893 -0.2016 -0.7632
  808MPD2    C111948   3.925   0.985   9.735 -0.0241  0.0761 -0.4456
  808MPD2    C211949   3.955   1.112   9.778  0.1540  0.5463  0.0675
  808MPD2    C311950   4.036   1.200   9.708 -0.4847  0.3385  0.1083
  808MPD2    C411951   4.076   1.159   9.581 -0.0798  0.2750 -0.4425
  808MPD2    C511952   4.026   1.043   9.528 -0.1766 -0.1347 -0.2626
  808MPD2     H11953   3.907   1.147   9.869 -2.8015 -0.3191 -1.1567
  808MPD2    H111954   4.133   1.230   9.522  1.4381  1.6498  2.6711
  808MPD2    H211955   3.941   0.855   9.564 -1.8869  0.2717 -1.4603
  808MPD2    H311956   4.060   1.016   9.428 -0.3658  0.6249 -0.5354
  808MPD2     N11957   4.058   1.334   9.751 -0.2511 -0.0857 -0.3373
  808MPD2    H511958   4.119   1.394   9.696  1.2002  0.6482  2.0762
  808MPD2    N111959   3.856   0.903   9.824  0.1679 -0.3172  0.3562
  808MPD2    H711960   3.845   0.940   9.918 -1.4033  1.6732 -0.6199
  809MPD2     C11961   4.625   2.159   9.715 -0.1069 -0.5173  0.8566
  809MPD2    C111962   4.653   2.033   9.733 -0.2533 -0.3082 -0.1448
  809MPD2    C211963   4.553   1.940   9.736 -0.5604  0.2653  0.1262
  809MPD2    C311964   4.417   1.982   9.743  0.2625 -0.0781  0.3993
  809MPD2    C411965   4.390   2.115   9.735 -0.3269 -0.7055 -0.2804
  809MPD2    C511966   4.494   2.202   9.719  0.0015 -0.0266 -0.3377
  809MPD2     H11967   4.580   1.835   9.736 -0.0648  0.3904 -0.1390
  809MPD2    H111968   4.290   2.155   9.744 -0.7013 -0.9843 -3.4339
  809MPD2    H211969   4.702   2.235   9.701 -0.1884 -0.7555 -0.8861
  809MPD2    H311970   4.462   2.306   9.712  0.3341  0.1908  1.3981
  809MPD2     N11971   4.311   1.890   9.752  0.1028 -0.4872  0.1281
  809MPD2    H511972   4.216   1.926   9.754  0.3393  0.1574 -0.7999
  809MPD2    N111973   0.043   1.980   9.747 -0.0091  0.0391  0.9264
  809MPD2    H711974   0.054   1.879   9.746  1.7891  0.2150  2.0953
  810MPD2     C11975   3.390   0.685  10.968 -0.3470  0.3630 -0.5001
  810MPD2    C111976   3.376   0.637  10.842 -0.2146  0.0700  0.2056
  810MPD2    C211977   3.423   0.715  10.739 -0.2042 -1.1307  0.0067
  810MPD2    C311978   3.481   0.839  10.767 -0.0717 -0.1697 -0.4805
  810MPD2    C411979   3.501   0.883  10.899  0.5078  0.3180  0.0858
  810MPD2    C511980   3.453   0.805  11.000  0.0194 -0.6064 -0.4394
  810MPD2     H11981   3.421   0.691  10.634  3.6900 -1.3002 -0.0096
  810MPD2    H111982   3.553   0.977  10.911  1.2439  0.0176 -0.7690
  810MPD2    H211983   3.339   0.637  11.051 -0.8295 -2.1915 -2.2915
  810MPD2    H311984   3.456   0.846  11.100  0.0272 -0.8963 -0.3192
  810MPD2     N11985   3.511   0.934  10.665  0.4829 -0.4752 -0.4366
  810MPD2    H511986   3.565   1.015  10.692 -0.7066 -0.2971  1.3589
  810MPD2    N111987   3.296   0.520  10.824  0.1652  0.4560 -0.4068
  810MPD2    H711988   3.256   0.477  10.906  0.0366  1.1154 -0.1298
  811MPD2     C11989   2.668   0.216  10.226 -0.1701 -0.1845  0.2188
  811MPD2    C111990   2.764   0.301  10.279 -0.1415  0.3045  0.3319
  811MPD2    C211991   2.775   0.424  10.222 -0.1759  0.0780  0.0424
  811MPD2    C311992   2.708   0.470  10.116 -1.0285 -0.2805  0.2263
  811MPD2    C411993   2.608   0.392  10.064 -0.8420 -0.0673 -0.5053
  811MPD2    C511994   2.590   0.264  10.118  0.2725  0.1554 -0.0389
  811MPD2     H11995   2.855   0.490  10.254 -1.0041  1.1918 -0.1485
  811MPD2    H111996   2.563   0.415   9.968 -1.9366  1.0737  0.2695
  811MPD2    H211997   2.638   0.119  10.263  0.8925  0.3951  2.6142
  811MPD2    H311998   2.514   0.197  10.079 -0.4047  1.4649 -0.9338
  811MPD2     N11999   2.747   0.587  10.055  0.2148 -0.3511 -0.6928
  811MPD2    H512000   2.828   0.634  10.093  0.0115  0.0328 -0.7288
  811MPD2    N112001   2.850   0.249  10.384  0.3336 -0.2714 -0.2030
  811MPD2    H712002   2.833   0.156  10.422 -1.3172  1.1429  2.5161
  812MPD2     C12003   2.517   0.611  11.834  0.3834  0.3386  0.1982
  812MPD2    C112004   2.476   0.690  11.943  0.0947  0.6494  0.4758
  812MPD2    C212005   2.424   0.626  12.052 -0.0391  0.5101  0.0681
  812MPD2    C312006   2.421   0.486  12.054 -0.8116  0.1948  0.0215
  812MPD2    C412007   2.479   0.409  11.950 -0.0617 -0.1210  0.1912
  812MPD2    C512008   2.517   0.477  11.837 -0.3976 -1.1351  0.2754
  812MPD2     H12009   2.369   0.684  12.125  0.2855  2.7005 -1.4153
  812MPD2    H112010   2.484   0.301  11.940  0.0576 -0.3456  2.7672
  812MPD2    H212011   2.546   0.654  11.739  1.2019 -0.7933 -0.0725
  812MPD2    H312012   2.555   0.429  11.748  0.1543 -3.4395  1.7430
  812MPD2     N12013   2.363   0.426  12.175 -0.9570 -1.1282  0.1380
  812MPD2    H512014   2.319   0.487  12.243 -2.2946 -1.7818 -0.1293
  812MPD2    N112015   2.489   0.830  11.932 -0.2167 -0.5894 -0.1163
  812MPD2    H712016   2.526   0.867  11.845  0.0926  1.8044  1.0237
  813MPD2     C12017   1.487   2.083  12.751 -0.1839  0.6998 -1.2544
  813MPD2    C112018   1.471   2.174  12.849 -0.9846 -0.6570 -0.4773
  813MPD2    C212019   1.430   2.132  12.971  0.0442 -0.2851  0.3542
  813MPD2    C312020   1.412   1.999  13.006  0.0892  0.5088 -0.1960
  813MPD2    C412021   1.449   1.901  12.915  0.0349  0.2271 -0.2295
  813MPD2    C512022   1.487   1.949  12.789 -0.5902 -0.0351 -0.7850
  813MPD2     H12023   1.412   2.213  13.040 -0.5442  2.6873 -3.2704
  813MPD2    H112024   1.433   1.795  12.935 -1.2783  0.3998 -0.3460
  813MPD2    H212025   1.509   2.108  12.648  1.1108  2.0002 -0.6701
  813MPD2    H312026   1.505   1.876  12.711  0.8813  0.4097 -0.8449
  813MPD2     N12027   1.396   1.976  13.142 -0.4407 -0.8937 -0.1984
  813MPD2    H512028   1.382   2.058  13.201  1.7900 -1.6036  1.3097
  813MPD2    N112029   1.496   2.315  12.833 -0.4108  0.2484 -0.2407
  813MPD2    H712030   1.490   2.373  12.916 -1.0890 -0.1549 -0.0140
  814MPD2     C12031   2.144   3.070  12.464  0.0076  0.4590 -0.8995
  814MPD2    C112032   2.110   3.131  12.345  0.7105 -0.1148  0.5989
  814MPD2    C212033   2.101   3.277  12.338  0.2004 -0.4419  0.3053
  814MPD2    C312034   2.120   3.355  12.450  0.3864 -0.4045  0.1145
  814MPD2    C412035   2.155   3.294  12.564  0.1731  0.2699 -0.0540
  814MPD2    C512036   2.168   3.154  12.567 -0.0506 -0.1784 -0.8915
  814MPD2     H12037   2.078   3.331  12.247 -1.6109 -0.0628  0.9746
  814MPD2    H112038   2.172   3.346  12.657 -3.1043 -1.0682  1.2726
  814MPD2    H212039   2.157   2.963  12.469  1.3515  0.6610 -0.0041
  814MPD2    H312040   2.182   3.102  12.661  3.2356  2.2476 -0.0673
  814MPD2     N12041   2.108   3.495  12.453 -0.3094 -0.2866  0.0574
  814MPD2    H512042   2.141   3.530  12.543 -0.7649 -3.7423  1.5789
  814MPD2    N112043   2.096   3.064  12.221  0.3352  0.6586 -0.1062
  814MPD2    H712044   2.096   3.127  12.141 -0.4084 -1.5604 -1.8583
  815MPD2     C12045   2.618   1.638  12.316 -0.2410  0.1837  0.1921
  815MPD2    C112046   2.556   1.654  12.197 -0.1322 -0.1807  0.2711
  815MPD2    C212047   2.417   1.663  12.197  0.5178  0.9404  0.0638
  815MPD2    C312048   2.348   1.657  12.312 -0.3833  0.3030  0.3859
  815MPD2    C412049   2.408   1.647  12.438  0.8094 -0.4601  0.4505
  815MPD2    C512050   2.545   1.634  12.434  0.8223 -0.4941  0.0338
  815MPD2     H12051   2.367   1.678  12.102  1.4274 -0.1354 -0.5858
  815MPD2    H112052   2.358   1.648  12.533  0.0784  0.0714  0.0526
  815MPD2    H212053   2.725   1.623  12.312 -0.0181  1.8658 -0.1100
  815MPD2    H312054   2.587   1.613  12.532 -2.3748 -1.0288  1.3158
  815MPD2     N12055   2.204   1.655  12.296 -0.4050  0.0452  0.3355
  815MPD2    H512056   2.163   1.666  12.204 -0.6813 -0.8091  0.3645
  815MPD2    N112057   2.632   1.642  12.077 -0.6685  0.0441 -0.5467
  815MPD2    H712058   2.732   1.626  12.085 -0.8462 -0.9452 -0.2717
  816MPD2     C12059   1.986   0.647  17.211 -0.8063  0.3307  0.1766
  816MPD2    C112060   2.040   0.779  17.198  0.2427  0.0903  0.9545
  816MPD2    C212061   2.173   0.791  17.152 -0.6494  1.0015 -0.0647
  816MPD2    C312062   2.237   0.685  17.093  0.2497 -0.7012  0.5937
  816MPD2    C412063   2.174   0.561  17.092  0.4323 -0.0143 -0.0898
  816MPD2    C512064   2.052   0.541  17.157  0.4790 -0.6677  0.1153
  816MPD2     H12065   2.231   0.882  17.148 -0.6960  0.8960 -3.6897
  816MPD2    H112066   2.219   0.471  17.053 -0.3474 -1.7903  3.1792
  816MPD2    H212067   1.891   0.634  17.262 -0.5545  0.6709  0.7436
  816MPD2    H312068   1.992   0.452  17.170  1.2602 -0.8750  2.2295
  816MPD2     N12069   2.359   0.705  17.031 -0.1796 -0.4866 -0.2698
  816MPD2    H512070   2.397   0.798  17.016  0.6074 -0.5298  1.4682
  816MPD2    N112071   1.963   0.880  17.248 -0.1479  0.2520  0.3139
  816MPD2    H712072   1.868   0.854  17.273  0.0902  1.4125  2.4810
  817MPD2     C12073   2.306   2.794   9.722  0.0204 -0.2705 -0.4028
  817MPD2    C112074   2.278   2.698   9.626 -0.0507 -0.2348 -0.2456
  817MPD2    C212075   2.157   2.720   9.556  0.2164 -0.1793 -0.5222
  817MPD2    C312076   2.074   2.827   9.579  0.2128 -0.1485 -0.2713
  817MPD2    C412077   2.108   2.913   9.682  0.1159 -0.1592  0.0370
  817MPD2    C512078   2.221   2.897   9.751 -0.1977  0.6405 -0.2882
  817MPD2     H12079   2.120   2.650   9.482 -0.7210 -2.4843  2.1269
  817MPD2    H112080   2.037   2.990   9.712  1.4444  0.9724  0.2354
  817MPD2    H212081   2.393   2.781   9.785 -0.1130 -0.9153 -0.3511
  817MPD2    H312082   2.234   2.970   9.830 -0.5550  0.9936 -0.5583
  817MPD2     N12083   1.955   2.838   9.502 -0.1550  0.2178 -0.3740
  817MPD2    H512084   1.930   2.769   9.432  0.0794  1.7035 -1.9156
  817MPD2    N112085   2.354   2.585   9.606 -1.0227  0.1611 -0.2680
  817MPD2    H712086   2.329   2.520   9.532  0.3498  0.6707 -1.1770
  818MPD2     C12087   1.788   2.383  10.084 -0.1258 -0.2882 -0.1118
  818MPD2    C112088   1.672   2.322  10.109  0.3036 -0.1947  0.6276
  818MPD2    C212089   1.674   2.186  10.132  0.3336  0.5024  0.1958
  818MPD2    C312090   1.790   2.106  10.112 -0.3125  0.3128  0.0450
  818MPD2    C412091   1.904   2.170  10.066  0.6951 -0.2923 -0.4655
  818MPD2    C512092   1.902   2.308  10.063 -0.0729 -0.2971  0.0751
  818MPD2     H12093   1.575   2.150  10.158 -0.6155  1.6786 -1.7534
  818MPD2    H112094   1.998   2.118  10.055  0.8640 -0.3338  1.0727
  818MPD2    H212095   1.798   2.491  10.086  0.3834 -0.3170 -1.1677
  818MPD2    H312096   1.992   2.360  10.033 -1.1146  1.0162 -0.7982
  818MPD2     N12097   1.797   1.967  10.127  0.5208 -0.0623  0.1366
  818MPD2    H512098   1.876   1.917  10.088 -0.1233 -1.3959  0.5453
  818MPD2    N112099   1.551   2.389  10.121 -0.0797 -0.1421 -0.1607
  818MPD2    H712100   1.474   2.334  10.159  1.8895 -1.6253  1.7016
  819MPD2     C12101   3.581   4.019  15.326 -0.0269 -0.4537  0.3093
  819MPD2    C112102   3.617   3.897  15.281  0.1407  0.2926  0.1972
  819MPD2    C212103   3.735   3.844  15.345  0.0075  0.9096 -1.6554
  819MPD2    C312104   3.806   3.922  15.429  0.4069 -0.4035 -0.6256
  819MPD2    C412105   3.766   4.049  15.454 -0.3694 -0.0749  0.3173
  819MPD2    C512106   3.651   4.100  15.407  0.3598 -0.2051  0.3654
  819MPD2     H12107   3.777   3.746  15.325  1.5761  1.3958 -0.7311
  819MPD2    H112108   3.810   4.119  15.524  0.4600  1.2593 -1.5115
  819MPD2    H212109   3.488   4.053  15.282  0.4054 -0.6905 -0.7990
  819MPD2    H312110   3.613   4.197  15.439 -2.0585 -1.1255  0.3360
  819MPD2     N12111   3.916   3.868  15.490  0.0717 -0.3169  0.2934
  819MPD2    H512112   3.936   3.773  15.461  2.3750 -0.2499  1.5859
  819MPD2    N112113   3.543   3.825  15.183  0.5774 -0.6636 -0.2589
  819MPD2    H712114   3.451   3.865  15.164  0.0549  0.0396  3.5661
  820MPD2     C12115   2.664   3.813  14.912 -0.3900  0.5767  0.1826
  820MPD2    C112116   2.783   3.876  14.943  0.2006 -0.1134 -0.5462
  820MPD2    C212117   2.885   3.798  14.986  0.1382  0.1350  0.5868
  820MPD2    C312118   2.886   3.658  14.980 -0.1502  0.7224 -0.3898
  820MPD2    C412119   2.767   3.596  14.943 -0.9400 -0.4611 -0.1259
  820MPD2    C512120   2.656   3.676  14.922 -0.4876 -0.3439 -0.7620
  820MPD2     H12121   2.976   3.849  15.015 -0.7546  1.3722  1.2595
  820MPD2    H112122   2.773   3.492  14.913  1.6880  0.4254 -2.6743
  820MPD2    H212123   2.575   3.867  14.881 -0.9575  0.3256  1.3918
  820MPD2    H312124   2.563   3.633  14.887 -0.5157 -1.0936  0.2379
  820MPD2     N12125   3.012   3.593  15.000 -0.0039  0.1285 -0.1518
  820MPD2    H512126   3.020   3.507  14.946 -1.5703  0.6869 -1.2748
  820MPD2    N112127   2.794   4.015  14.908  0.1114  0.1095 -0.1245
  820MPD2    H712128   2.707   4.055  14.872 -1.1101 -2.8029 -0.4115
  821MPD2     C12129   3.818   0.794  12.952 -0.0399 -0.4587 -0.2899
  821MPD2    C112130   3.874   0.863  13.058 -0.9884  0.0463 -0.3951
  821MPD2    C212131   3.974   0.959  13.027  0.1667 -0.5691 -0.1303
  821MPD2    C312132   4.016   0.981  12.892  0.5048 -0.1657 -0.0130
  821MPD2    C412133   3.970   0.902  12.790  0.0042  0.6056 -0.0036
  821MPD2    C512134   3.870   0.814  12.827 -0.2086 -0.2139 -0.0076
  821MPD2     H12135   4.028   1.008  13.108 -1.6274 -2.1832  2.0303
  821MPD2    H112136   4.006   0.915  12.689 -1.1987 -2.1961 -0.8121
  821MPD2    H212137   3.731   0.730  12.962  0.9334 -1.8447 -0.7218
  821MPD2    H312138   3.831   0.758  12.742 -0.9789 -1.1956  0.9982
  821MPD2     N12139   4.118   1.074  12.858  0.4750  0.4665 -1.3043
  821MPD2    H512140   4.156   1.071  12.764  1.0763  2.7784 -1.1249
  821MPD2    N112141   3.851   0.833  13.194 -0.3203 -0.1386  0.2205
  821MPD2    H712142   3.905   0.891  13.258 -1.8994  0.8958  0.6428
  822MPD2     C12143   4.548   0.575  15.862 -0.0241  0.0600 -0.3424
  822MPD2    C112144   4.486   0.525  15.970 -0.9994  0.3283 -0.1205
  822MPD2    C212145   4.365   0.579  16.019 -0.1070  0.0229 -0.2802
  822MPD2    C312146   4.313   0.694  15.967  0.0082 -0.6993 -0.1855
  822MPD2    C412147   4.379   0.752  15.858  0.0890 -0.4221  0.4581
  822MPD2    C512148   4.498   0.690  15.810 -0.0212 -0.5577 -0.1482
  822MPD2     H12149   4.318   0.543  16.110  2.2410 -1.1586  0.4666
  822MPD2    H112150   4.330   0.833  15.806 -0.9149 -0.1041  1.8871
  822MPD2    H212151   4.628   0.528  15.807 -0.1661  1.1375 -1.4646
  822MPD2    H312152   4.541   0.725  15.717 -1.7313 -1.0051 -1.1014
  822MPD2     N12153   4.200   0.753  16.033 -0.4357 -0.0938  0.8968
  822MPD2    H512154   4.164   0.710  16.118 -0.0182  1.1006  1.6756
  822MPD2    N112155   4.540   0.416  16.043  0.1720 -0.3756  0.1235
  822MPD2    H712156   4.494   0.382  16.127 -1.3987 -0.7877 -0.9047
  823MPD2     C12157   3.749   0.772  16.695 -0.2034 -0.2508  0.2555
  823MPD2    C112158   3.840   0.711  16.611  0.0744 -0.9197  0.1357
  823MPD2    C212159   3.888   0.582  16.634 -0.4656  0.0992  0.3117
  823MPD2    C312160   3.852   0.515  16.747 -0.1015  0.2323 -0.3511
  823MPD2    C412161   3.764   0.574  16.824 -0.0698 -0.2246 -0.3490
  823MPD2    C512162   3.701   0.692  16.798 -0.0999 -0.1988  0.3809
  823MPD2     H12163   3.960   0.537  16.567  0.6243  1.1967  0.7546
  823MPD2    H112164   3.733   0.523  16.915 -0.3820 -1.9616 -1.4189
  823MPD2    H212165   3.701   0.869  16.682 -3.8009 -2.2128 -1.0008
  823MPD2    H312166   3.631   0.738  16.868 -0.1447  2.1589 -1.2158
  823MPD2     N12167   3.909   0.391  16.792  0.5507 -0.4108  0.9183
  823MPD2    H512168   3.863   0.353  16.875 -1.6115  0.1441 -0.0398
  823MPD2    N112169   3.885   0.783  16.498 -0.8081 -0.0448  0.3557
  823MPD2    H712170   3.870   0.883  16.498  1.1022  0.2385  0.8051
  824MPD2     C12171   0.131   4.370  15.990 -0.5618  0.5346 -0.0481
  824MPD2    C112172   0.169   4.496  15.957 -0.6970 -0.2491 -0.5152
  824MPD2    C212173   0.275   4.491  15.871 -0.1360  0.0544  0.3230
  824MPD2    C312174   0.320   4.384  15.797  0.1728  0.6547  0.2788
  824MPD2    C412175   0.266   4.261  15.834  0.2113 -0.0421 -0.2948
  824MPD2    C512176   0.172   4.253  15.933 -0.6446 -0.7062 -0.2717
  824MPD2     H12177   0.311   4.591  15.846 -1.6457  0.9706  1.8685
  824MPD2    H112178   0.307   4.162  15.817  0.2140  0.2201 -1.7852
  824MPD2    H212179   0.048   4.355  16.059 -1.6000 -0.0821 -1.4518
  824MPD2    H312180   0.135   4.157  15.966 -1.3021 -0.8845 -1.4976
  824MPD2     N12181   0.428   4.394  15.707  0.1222 -0.8516  0.3142
  824MPD2    H512182   0.477   4.481  15.690  1.3025 -1.2505  1.6358
  824MPD2    N112183   0.125   4.617  16.010 -0.2431  1.2895  0.2238
  824MPD2    H712184   0.163   4.704  15.974  2.5955 -1.4480 -3.3696
  825MPD2     C12185   1.133   4.614  15.293 -0.9910  0.1575 -0.1912
  825MPD2    C112186   1.014   4.664  15.337  0.1242  0.5819  0.3837
  825MPD2    C212187   0.983   0.059  15.341  0.1862 -0.0316 -0.3619
  825MPD2    C312188   1.081   0.153  15.327 -0.3186  1.0606  0.3741
  825MPD2    C412189   1.206   0.107  15.307  0.1384  0.3119  0.2072
  825MPD2    C512190   1.230   4.714  15.282  0.0321 -0.3597  0.1136
  825MPD2     H12191   0.884   0.092  15.370  0.4655  1.6466 -1.3074
  825MPD2    H112192   1.289   0.176  15.299 -0.1472  0.7441  0.9319
  825MPD2    H212193   1.149   4.507  15.293 -1.6737  0.0525  0.8813
  825MPD2    H312194   1.331   4.684  15.256 -0.8375 -2.1206 -1.2153
  825MPD2     N12195   1.072   0.291  15.360 -0.1421  0.4482  0.2638
  825MPD2    H512196   1.156   0.348  15.350 -0.0182  0.2938  0.4258
  825MPD2    N112197   0.916   4.567  15.366  0.3594 -0.2952  0.0429
  825MPD2    H712198   0.943   4.471  15.350  0.5739 -0.0380 -1.1829
  826MPD2     C12199   0.331   0.022  13.527  0.6283  1.0979 -0.2091
  826MPD2    C112200   0.454   0.027  13.475  0.4046 -0.3146  0.0183
  826MPD2    C212201   0.531   0.147  13.472 -0.2645 -0.3080 -0.8514
  826MPD2    C312202   0.465   0.261  13.516 -0.5644 -0.2757  0.1983
  826MPD2    C412203   0.334   0.261  13.567 -0.4438  0.5064  0.4688
  826MPD2    C512204   0.265   0.138  13.566 -0.5692 -0.1581 -0.3941
  826MPD2     H12205   0.632   0.143  13.431  0.5347  0.5178  1.0370
  826MPD2    H112206   0.280   0.346  13.609 -1.6490 -0.2083  0.3483
  826MPD2    H212207   0.277   4.670  13.549  0.2854  1.3410 -0.0396
  826MPD2    H312208   0.164   0.123  13.602 -0.2394  0.7223  0.9076
  826MPD2     N12209   0.541   0.382  13.523  0.1773  0.3334 -0.1350
  826MPD2    H512210   0.490   0.456  13.571 -1.6326 -0.2878 -1.0754
  826MPD2    N112211   0.502   4.642  13.441  0.6392 -0.8313  0.0465
  826MPD2    H712212   0.424   4.577  13.434  0.2493 -0.2250 -1.0603
  827MPD2     C12213   1.374   0.848   9.918  0.1406 -0.5980 -0.0346
  827MPD2    C112214   1.293   0.878  10.029  0.1351 -0.3828  0.5482
  827MPD2    C212215   1.154   0.874  10.000  0.1214  0.4567 -0.1333
  827MPD2    C312216   1.104   0.862   9.867 -0.4212  0.5936 -0.3357
  827MPD2    C412217   1.190   0.849   9.766  0.1706 -0.4505 -0.3835
  827MPD2    C512218   1.326   0.846   9.791  0.2660 -0.8302  0.2395
  827MPD2     H12219   1.085   0.889  10.082 -1.1036 -0.7348 -0.9337
  827MPD2    H112220   1.158   0.841   9.662 -0.7833 -0.6533 -0.0671
  827MPD2    H212221   1.481   0.852   9.937  0.2884  1.1527 -1.2572
  827MPD2    H312222   1.388   0.824   9.704  3.6099 -3.1757  3.2134
  827MPD2     N12223   0.965   0.871   9.844  0.8884  0.3893 -0.5557
  827MPD2    H512224   0.911   0.913   9.919  2.3845 -3.3613  2.5635
  827MPD2    N112225   1.356   0.904  10.160  0.3778  0.2017 -0.0538
  827MPD2    H712226   1.456   0.914  10.168  0.2625  0.1956  1.3906
  828MPD2     C12227   4.623   1.432  12.517  0.5062  0.0244 -0.1561
  828MPD2    C112228   4.601   1.439  12.384  0.0296 -0.0078 -0.2283
  828MPD2    C212229   4.693   1.517  12.312 -0.3142 -0.5396 -0.5412
  828MPD2    C312230   0.072   1.564  12.373  0.2059 -1.0535  0.2710
  828MPD2    C412231   0.106   1.527  12.498 -0.2829  0.1319 -0.5438
  828MPD2    C512232   0.011   1.460  12.570  0.3233 -0.1566 -0.4643
  828MPD2     H12233   4.670   1.535  12.207  2.1769  0.9076 -0.8365
  828MPD2    H112234   0.198   1.548  12.551 -0.5886 -1.4976  0.6157
  828MPD2    H212235   4.552   1.378  12.579  1.1946  0.8783  1.3776
  828MPD2    H312236   0.025   1.443  12.676  1.0113 -0.2029 -0.5612
  828MPD2     N12237   0.173   1.637  12.305  0.3266 -0.2417 -0.2124
  828MPD2    H512238   0.262   1.641  12.354 -1.0053  1.9367  2.0278
  828MPD2    N112239   4.490   1.383  12.317  0.4614 -0.0840 -0.3124
  828MPD2    H712240   4.476   1.407  12.219  0.8919 -1.4485 -0.7028
  829MPD2     C12241   4.554   1.313  11.489 -0.6874 -0.6492 -0.0256
  829MPD2    C112242   4.445   1.231  11.512 -0.0906  0.1852 -0.7532
  829MPD2    C212243   4.394   1.216  11.637  0.1091 -0.5164  0.4302
  829MPD2    C312244   4.450   1.284  11.746 -0.6196  0.9793  0.0264
  829MPD2    C412245   4.557   1.367  11.726  0.8988  0.4335  0.3393
  829MPD2    C512246   4.611   1.375  11.597  0.6020 -0.2416  0.6378
  829MPD2     H12247   4.309   1.150  11.652 -0.5597  0.6355  1.6962
  829MPD2    H112248   4.611   1.426  11.798  1.7227 -0.1968  0.2362
  829MPD2    H212249   4.603   1.323  11.393 -0.4731 -1.7929 -0.0358
  829MPD2    H312250   4.707   1.425  11.591  1.5553 -1.9130  1.9340
  829MPD2     N12251   4.402   1.286  11.876 -0.3082 -0.6791 -0.3126
  829MPD2    H512252   4.446   1.342  11.948 -1.2572  3.1139 -2.6664
  829MPD2    N112253   4.388   1.166  11.396 -0.0827  0.3037  0.1262
  829MPD2    H712254   4.430   1.194  11.308 -1.0470  0.7893 -0.1739
  830MPD2     C12255   4.631   3.396  15.456 -0.0689  0.3600 -0.4875
  830MPD2    C112256   4.563   3.509  15.420 -0.2618  0.0977  0.4331
  830MPD2    C212257   4.628   3.604  15.336 -0.3297  0.1228  0.4326
  830MPD2    C312258   0.013   3.581  15.294 -0.2141  0.7359 -0.3974
  830MPD2    C412259   0.085   3.476  15.344 -0.2349  0.1241 -0.9936
  830MPD2    C512260   0.022   3.384  15.430  0.4608  0.1282  0.8507
  830MPD2     H12261   4.584   3.699  15.307  0.8045  1.1709  2.1392
  830MPD2    H112262   0.192   3.464  15.332 -0.1520  2.1158 -2.3274
  830MPD2    H212263   4.582   3.314  15.508  1.5071 -1.6540 -2.1918
  830MPD2    H312264   0.078   3.308  15.482 -0.0107 -1.0364 -0.3215
  830MPD2     N12265   0.088   3.677  15.225  0.3636 -0.0731  0.3951
  830MPD2    H512266   0.189   3.681  15.229  0.3601  0.3537  0.0439
  830MPD2    N112267   4.438   3.543  15.478  0.1136  0.0514 -0.0085
  830MPD2    H712268   4.412   3.491  15.561  0.0462  0.6856  0.3686
  831MPD2     C12269   4.382   0.825  16.409 -0.1001 -0.1199 -0.5099
  831MPD2    C112270   4.460   0.732  16.340  0.7855 -0.6534  0.0573
  831MPD2    C212271   4.420   0.603  16.348 -0.3712 -0.1301  0.2156
  831MPD2    C312272   4.304   0.558  16.425  0.5532 -0.4481  0.1662
  831MPD2    C412273   4.242   0.648  16.506 -0.1972  0.1646 -0.3183
  831MPD2    C512274   4.280   0.782  16.488 -0.8343 -0.0860 -0.0344
  831MPD2     H12275   4.471   0.533  16.282 -0.1047 -0.7850  1.1104
  831MPD2    H112276   4.169   0.621  16.582 -1.3403 -0.3398 -1.6006
  831MPD2    H212277   4.405   0.931  16.411  1.8763 -0.5421 -0.4578
  831MPD2    H312278   4.237   0.864  16.543  1.3606  0.0471  1.4999
  831MPD2     N12279   4.250   0.426  16.408 -0.8935 -0.5877 -0.9311
  831MPD2    H512280   4.170   0.404  16.467 -1.4220  0.1847 -1.3564
  831MPD2    N112281   4.573   0.780  16.271 -1.0106  0.2361 -0.7855
  831MPD2    H712282   4.579   0.878  16.243 -1.7742  0.3349 -0.6035
  832MPD2     C12283   2.484   1.899  17.251 -0.1776  0.2182 -0.1955
  832MPD2    C112284   2.492   1.996  17.153  0.2424  0.4655  1.3033
  832MPD2    C212285   2.381   2.022  17.080 -0.1021 -0.3521 -0.4068
  832MPD2    C312286   2.260   1.958  17.107  0.6305 -0.2545  0.0481
  832MPD2    C412287   2.254   1.868  17.205  0.1120 -0.4056  1.1068
  832MPD2    C512288   2.365   1.829  17.269 -0.1903  0.1965 -0.1917
  832MPD2     H12289   2.378   2.104  17.010 -1.5728  1.1222  1.4106
  832MPD2    H112290   2.161   1.817  17.229 -1.2991  2.4571  1.7050
  832MPD2    H212291   2.572   1.876  17.309 -0.3314 -3.0176 -1.2744
  832MPD2    H312292   2.354   1.748  17.341 -0.6957 -0.4368 -0.9833
  832MPD2     N12293   2.138   2.006  17.052  0.1360  0.7366  0.2685
  832MPD2    H512294   2.052   1.953  17.057  0.2773  0.3992 -0.8947
  832MPD2    N112295   2.614   2.068  17.144 -0.2491 -0.0463 -0.2978
  832MPD2    H712296   2.682   2.050  17.218 -0.2922  0.5948 -0.1013
  833MPD2     C12297   0.641   3.679  12.443 -0.4144  0.3862 -0.4141
  833MPD2    C112298   0.558   3.734  12.354  0.2959  0.4327 -0.4424
  833MPD2    C212299   0.597   3.725  12.227 -0.1757 -0.4211  0.8815
  833MPD2    C312300   0.703   3.648  12.178  0.0641  0.1126  0.0566
  833MPD2    C412301   0.784   3.587  12.270 -0.3730 -0.1809 -0.5163
  833MPD2    C512302   0.752   3.606  12.403  0.1436 -0.2675  0.0182
  833MPD2     H12303   0.537   3.766  12.147  0.4330  0.0332  0.6615
  833MPD2    H112304   0.868   3.526  12.240  0.0021 -0.8227  1.8125
  833MPD2    H212305   0.627   3.701  12.548  0.8467  0.5061 -0.2816
  833MPD2    H312306   0.815   3.559  12.478 -0.0213  0.8036  0.8403
  833MPD2     N12307   0.729   3.620  12.046  0.2206  0.4309 -0.4763
  833MPD2    H512308   0.806   3.559  12.017 -0.5991  0.0454 -1.8236
  833MPD2    N112309   0.433   3.791  12.390 -0.6965  0.1705 -0.2006
  833MPD2    H712310   0.388   3.768  12.478  1.6263 -2.8207  0.2055
  834MPD2     C12311   0.453   3.010  11.279  0.3337  0.4783 -0.6990
  834MPD2    C112312   0.506   3.122  11.214 -0.1571 -0.7777  1.1047
  834MPD2    C212313   0.542   3.234  11.288 -0.2730  0.8265 -0.3872
  834MPD2    C312314   0.540   3.238  11.423 -0.4114  0.0345 -1.1415
  834MPD2    C412315   0.499   3.125  11.494  0.0852  0.6787 -0.3336
  834MPD2    C512316   0.450   3.017  11.418 -0.2009 -0.4624 -0.5802
  834MPD2     H12317   0.574   3.327  11.241  0.1421  0.7569 -0.2409
  834MPD2    H112318   0.476   3.128  11.600 -0.7252 -0.7493 -0.4702
  834MPD2    H212319   0.424   2.914  11.237  3.1305 -0.0414 -1.4465
  834MPD2    H312320   0.407   2.930  11.467 -1.7611  0.6345 -0.0069
  834MPD2     N12321   0.565   3.358  11.495 -0.3297 -0.0890 -0.3210
  834MPD2    H512322   0.576   3.441  11.437 -1.2977 -0.3387 -0.8723
  834MPD2    N112323   0.518   3.125  11.067 -0.1323 -0.5413 -0.3659
  834MPD2    H712324   0.477   3.042  11.024  0.5207 -0.7621 -0.5685
  835MPD2     C12325   0.616   1.355  11.097  0.8387 -0.5455  0.1628
  835MPD2    C112326   0.579   1.488  11.083 -0.1972  0.1001 -0.1545
  835MPD2    C212327   0.640   1.574  11.174  0.4610  0.4677 -0.4452
  835MPD2    C312328   0.724   1.537  11.273 -0.2996 -0.5592 -0.0815
  835MPD2    C412329   0.762   1.408  11.281  0.8481  0.0448 -0.1276
  835MPD2    C512330   0.703   1.315  11.205 -0.5078 -0.5406  0.1171
  835MPD2     H12331   0.612   1.679  11.168 -0.5595  0.1916 -0.4727
  835MPD2    H112332   0.834   1.373  11.355  0.6266 -2.7269 -1.2393
  835MPD2    H212333   0.570   1.278  11.037 -1.2144  0.5704  0.2868
  835MPD2    H312334   0.733   1.211  11.199 -1.3737 -0.7973  0.1672
  835MPD2     N12335   0.781   1.622  11.371 -0.1535 -0.4112  0.3872
  835MPD2    H512336   0.826   1.578  11.451  0.1080  0.2486  0.5999
  835MPD2    N112337   0.475   1.534  11.003  0.0783 -0.2161  0.1060
  835MPD2    H712338   0.426   1.618  11.030 -0.2453  0.2395 -1.9475
  836MPD2     C12339   0.227   1.863  11.567  0.0500 -0.3751  0.2051
  836MPD2    C112340   0.312   1.918  11.666  0.0694 -0.3572 -0.0566
  836MPD2    C212341   0.250   1.959  11.789  0.3482  0.3576 -0.5390
  836MPD2    C312342   0.113   1.965  11.804  0.6429  0.4266  0.1675
  836MPD2    C412343   0.033   1.925  11.694  0.1506  0.0985 -0.2429
  836MPD2    C512344   0.096   1.858  11.586  0.2361  0.6276  0.4016
  836MPD2     H12345   0.317   1.992  11.867  1.2910 -1.3045 -0.6447
  836MPD2    H112346   4.664   1.934  11.693  0.1362 -0.1820 -0.8584
  836MPD2    H212347   0.266   1.805  11.484 -2.5780 -0.6409 -0.8674
  836MPD2    H312348   0.032   1.823  11.505 -1.6627  2.5021  1.1049
  836MPD2     N12349   0.049   2.019  11.908 -0.4731  0.6331 -0.0559
  836MPD2    H512350   4.693   2.046  11.887 -0.2264  0.3064 -1.6089
  836MPD2    N112351   0.452   1.914  11.648  0.5732  0.6336 -0.7620
  836MPD2    H712352   0.485   1.892  11.554  1.0732  1.2467 -0.7341
  837MPD2     C12353   3.382   1.023   9.949  0.5197  0.3830  0.2596
  837MPD2    C112354   3.275   1.072   9.877 -0.2420  0.0590  0.3842
  837MPD2    C212355   3.289   1.196   9.816  0.2067 -0.5605  0.0692
  837MPD2    C312356   3.381   1.289   9.860  0.4713  0.6862  0.0700
  837MPD2    C412357   3.483   1.242   9.938  0.4934  0.3781 -0.0652
  837MPD2    C512358   3.475   1.111   9.984 -0.4969  0.4792  0.1029
  837MPD2     H12359   3.211   1.237   9.753  0.5058 -0.3040 -0.1346
  837MPD2    H112360   3.541   1.311   9.999  0.6708 -0.2204  0.4488
  837MPD2    H212361   3.374   0.928  10.001 -1.4991  0.5090  0.1896
  837MPD2    H312362   3.553   1.070  10.046  0.4606  1.2515 -0.6000
  837MPD2     N12363   3.366   1.423   9.826  0.8472  0.2680 -0.6654
  837MPD2    H512364   3.284   1.444   9.770  0.0978  1.4257  0.8897
  837MPD2    N112365   3.154   1.003   9.854 -0.2708  0.4386 -0.2378
  837MPD2    H712366   3.091   1.048   9.789  1.6045  1.9918 -0.9384
  838MPD2     C12367   1.323   4.297  11.690  0.5327  0.6739  0.2669
  838MPD2    C112368   1.400   4.184  11.693 -0.6223  0.4662 -0.1954
  838MPD2    C212369   1.344   4.064  11.734 -0.1020  0.4368  0.2301
  838MPD2    C312370   1.213   4.052  11.773  0.2426 -0.4405  0.6163
  838MPD2    C412371   1.137   4.171  11.776  0.4560  0.3310  0.0535
  838MPD2    C512372   1.190   4.291  11.732 -0.2907 -0.1091  0.2479
  838MPD2     H12373   1.402   3.973  11.733 -2.3207 -0.9691 -0.3420
  838MPD2    H112374   1.034   4.170  11.809  1.5089 -3.0291  3.2415
  838MPD2    H212375   1.359   4.392  11.653 -0.3595 -0.1001 -2.5931
  838MPD2    H312376   1.123   4.374  11.712 -1.0192 -0.6027  0.6572
  838MPD2     N12377   1.169   3.930  11.821 -0.5334 -0.2552  0.1556
  838MPD2    H512378   1.240   3.868  11.856  0.8935  0.7957 -0.9021
  838MPD2    N112379   1.532   4.183  11.630  0.6124  0.5858 -0.6541
  838MPD2    H712380   1.572   4.091  11.616  1.4014  0.5675  1.7505
  839MPD2     C12381   1.979   3.611  11.925  1.2581  1.2736 -0.1033
  839MPD2    C112382   1.955   3.601  11.785  0.1598 -0.2103  0.7816
  839MPD2    C212383   1.953   3.718  11.708 -0.2897 -0.1787  0.2442
  839MPD2    C312384   1.963   3.848  11.764  0.9371  0.5319 -0.0459
  839MPD2    C412385   1.976   3.856  11.900 -0.6557  0.7201 -0.0951
  839MPD2    C512386   1.983   3.742  11.982  0.4855  0.6478  0.5698
  839MPD2     H12387   1.934   3.710  11.602 -1.2925  2.7046  0.2193
  839MPD2    H112388   2.000   3.952  11.943  0.4426  0.8429 -0.9884
  839MPD2    H212389   2.007   3.530  11.991 -0.6040  0.7805  0.0840
  839MPD2    H312390   1.994   3.754  12.089 -0.6053  0.6070  0.6924
  839MPD2     N12391   1.956   3.967  11.689 -0.3386 -0.7264 -0.1478
  839MPD2    H512392   1.964   4.055  11.739 -3.0181 -0.9829  0.7205
  839MPD2    N112393   1.923   3.481  11.721 -0.6608 -0.1744  0.3425
  839MPD2    H712394   1.922   3.490  11.620 -3.3222 -0.1239  0.3596
  840MPD2     C12395   1.859   1.203  10.166  0.0073 -0.0668 -0.0953
  840MPD2    C112396   1.835   1.199  10.302 -0.4847  0.1298 -0.0711
  840MPD2    C212397   1.909   1.277  10.387 -0.0970 -0.2370  0.4283
  840MPD2    C312398   1.993   1.372  10.339 -0.0801  0.2271 -0.1364
  840MPD2    C412399   1.996   1.395  10.205 -0.4853  0.0131 -0.1350
  840MPD2    C512400   1.937   1.307  10.117  0.6222 -0.4658 -0.2805
  840MPD2     H12401   1.913   1.266  10.494  0.9265  1.2330  0.5447
  840MPD2    H112402   2.064   1.468  10.164 -1.0271 -0.6733 -2.3027
  840MPD2    H212403   1.806   1.145  10.092  1.7568 -0.4206 -1.0635
  840MPD2    H312404   1.951   1.321  10.010 -0.7197  1.4322 -0.2089
  840MPD2     N12405   2.077   1.454  10.415  0.1767  0.1560  0.2244
  840MPD2    H512406   2.133   1.521  10.362 -0.4274 -0.6251 -1.3891
  840MPD2    N112407   1.732   1.110  10.350 -0.3131 -0.0901  0.6928
  840MPD2    H712408   1.690   1.064  10.270  0.2735  1.0157 -0.2548
  841MPD2     C12409   1.166   1.271  14.347  0.4582  0.3883 -0.1784
  841MPD2    C112410   1.175   1.195  14.467 -0.2500  0.0884 -0.1825
  841MPD2    C212411   1.283   1.229  14.538 -0.6725 -0.1666  0.5186
  841MPD2    C312412   1.385   1.314  14.498  0.7257  0.1053  0.3528
  841MPD2    C412413   1.381   1.372  14.377 -0.1385 -0.1077  0.2874
  841MPD2    C512414   1.270   1.348  14.302  0.2196  0.3418 -0.3874
  841MPD2     H12415   1.283   1.184  14.637 -3.5929  0.8413  0.9841
  841MPD2    H112416   1.455   1.434  14.329  1.5097 -1.9206  0.4544
  841MPD2    H212417   1.071   1.260  14.295  0.4547 -0.4650  0.0137
  841MPD2    H312418   1.264   1.409  14.213 -0.2099  1.4022  0.3668
  841MPD2     N12419   1.505   1.338  14.574 -0.1766  0.0837 -0.1601
  841MPD2    H512420   1.574   1.406  14.545 -0.9586  1.2982  0.7903
  841MPD2    N112421   1.075   1.100  14.499 -0.0096  0.7140 -0.0195
  841MPD2    H712422   0.992   1.088  14.442  0.7558 -0.2664 -0.9501
  842MPD2     C12423   0.938   1.667  16.751  0.3782 -0.6284  0.0965
  842MPD2    C112424   1.039   1.765  16.730  0.3909  0.7758 -0.1105
  842MPD2    C212425   1.132   1.780  16.830  0.1977 -0.3974  0.4338
  842MPD2    C312426   1.127   1.708  16.951 -0.7326 -0.0043 -0.2437
  842MPD2    C412427   1.039   1.604  16.962  0.5800 -0.2751  0.3609
  842MPD2    C512428   0.946   1.590  16.866  0.1750 -0.7929 -0.1581
  842MPD2     H12429   1.193   1.869  16.817 -0.1388  0.2266  3.0860
  842MPD2    H112430   1.046   1.540  17.050 -0.7699 -1.6945 -0.5847
  842MPD2    H212431   0.851   1.660  16.686 -0.1867  1.5432  0.5828
  842MPD2    H312432   0.879   1.508  16.886  0.1431 -1.0406 -1.3080
  842MPD2     N12433   1.221   1.731  17.054  0.4030  0.3611  0.6112
  842MPD2    H512434   1.201   1.672  17.134 -2.0598 -1.4685 -1.3649
  842MPD2    N112435   1.024   1.854  16.615 -0.6729 -0.0246  0.0491
  842MPD2    H712436   0.940   1.853  16.558 -0.6526  2.0907 -0.0072
  843MPD2     C12437   3.549   2.936  17.325 -0.3543 -0.5879 -0.3634
  843MPD2    C112438   3.558   2.854  17.431  0.1560  0.5015 -1.1209
  843MPD2    C212439   3.632   2.899  17.541  0.3538 -0.0226  0.6116
  843MPD2    C312440   3.679   3.032  17.546 -0.1398  0.7973  0.1465
  843MPD2    C412441   3.667   3.108  17.431 -0.1765 -0.2785  0.0825
  843MPD2    C512442   3.599   3.062  17.323 -0.0376 -0.2227  0.2022
  843MPD2     H12443   3.647   2.826  17.619 -0.2952  0.2792  1.0182
  843MPD2    H112444   3.702   3.210  17.426  2.2917 -1.1621 -0.8520
  843MPD2    H212445   3.506   2.904  17.231 -1.1090 -1.3143  0.2326
  843MPD2    H312446   3.590   3.122  17.233 -1.1224  1.3514  1.3504
  843MPD2     N12447   3.745   3.077  17.664 -0.0540 -0.1701 -0.4777
  843MPD2    H512448   3.798   3.163  17.653 -1.6423  1.1365  2.2099
  843MPD2    N112449   3.498   2.731  17.430  0.5586 -0.3728  0.4461
  843MPD2    H712450   3.478   2.686  17.342  4.4708  0.9786 -1.1223
  844MPD2     C12451   1.965   1.275  16.566 -0.1872 -0.8733 -0.1554
  844MPD2    C112452   2.026   1.363  16.480 -0.1455  0.2021 -0.2894
  844MPD2    C212453   2.090   1.472  16.533 -0.8905 -0.4160  0.9546
  844MPD2    C312454   2.081   1.502  16.664  0.8772  0.5540  0.1823
  844MPD2    C412455   2.018   1.417  16.751 -0.4710  0.0046 -0.1831
  844MPD2    C512456   1.963   1.302  16.698  0.0183 -0.0984  0.5197
  844MPD2     H12457   2.141   1.545  16.470 -1.9777  1.7746  2.6095
  844MPD2    H112458   2.017   1.438  16.857 -0.8258 -2.7108  0.3453
  844MPD2    H212459   1.922   1.181  16.533  0.8691 -1.0643 -0.9656
  844MPD2    H312460   1.928   1.228  16.770 -1.3832  1.0381  1.0175
  844MPD2     N12461   2.152   1.610  16.709 -0.1507  0.5326 -0.6995
  844MPD2    H512462   2.183   1.678  16.640 -2.0350  1.8990 -0.2042
  844MPD2    N112463   2.045   1.342  16.341 -0.0559  0.4798 -0.1588
  844MPD2    H712464   2.110   1.406  16.297  0.7958 -1.3068 -1.4765
  845MPD2     C12465   2.323   2.544  16.645  0.4480 -0.2422 -0.3637
  845MPD2    C112466   2.409   2.507  16.746  0.1473  0.1685  0.3607
  845MPD2    C212467   2.445   2.372  16.764 -0.5158 -0.2094  0.2187
  845MPD2    C312468   2.373   2.282  16.685  0.2092 -0.0235 -0.2675
  845MPD2    C412469   2.289   2.317  16.587  0.3261 -0.0714 -0.0984
  845MPD2    C512470   2.270   2.448  16.563 -0.2025  0.5623 -0.3708
  845MPD2     H12471   2.505   2.337  16.848  0.1768  1.0611  0.2493
  845MPD2    H112472   2.228   2.253  16.525 -0.0900  1.4708 -1.2768
  845MPD2    H212473   2.290   2.647  16.637 -0.3644 -0.2731  2.7963
  845MPD2    H312474   2.209   2.478  16.478  0.4682  0.6253 -0.8321
  845MPD2     N12475   2.399   2.152  16.712 -0.0036  0.6021 -0.2839
  845MPD2    H512476   2.468   2.132  16.784 -0.8731 -0.8055  0.1572
  845MPD2    N112477   2.466   2.609  16.836 -0.4299 -0.0538  0.2035
  845MPD2    H712478   2.437   2.705  16.818 -2.8738 -0.3984  2.3365
  846MPD2     C12479   4.208   2.961  13.812  0.3728 -0.2867 -0.1206
  846MPD2    C112480   4.109   3.062  13.827  0.0111 -0.3069  0.1586
  846MPD2    C212481   4.080   3.095  13.960 -0.1236 -0.2538  0.0445
  846MPD2    C312482   4.137   3.035  14.069 -0.6927  0.3894  0.2780
  846MPD2    C412483   4.235   2.942  14.054 -0.4318  0.1629 -0.2031
  846MPD2    C512484   4.267   2.901  13.927  0.6616  0.0882  0.9640
  846MPD2     H12485   4.008   3.175  13.972 -0.6325 -0.6795 -0.1473
  846MPD2    H112486   4.280   2.883  14.132  1.7914 -0.8939 -2.2980
  846MPD2    H212487   4.255   2.937  13.718  1.1288 -1.9059  0.6739
  846MPD2    H312488   4.348   2.832  13.907 -0.8891 -1.3199 -0.3880
  846MPD2     N12489   4.086   3.061  14.202 -0.0659  0.1500 -0.0618
  846MPD2    H512490   4.007   3.124  14.213  0.0707  0.2556  0.3309
  846MPD2    N112491   4.045   3.119  13.721 -0.7317 -0.0495 -0.4486
  846MPD2    H712492   4.014   3.215  13.734 -0.4239  0.2278 -1.7501
  847MPD2     C12493   4.537   0.327  14.726 -0.1521  0.5793 -0.3088
  847MPD2    C112494   4.633   0.235  14.678  0.5848 -0.3286 -0.0944
  847MPD2    C212495   4.654   0.121  14.754  0.3817  0.1422 -0.8756
  847MPD2    C312496   4.591   0.098  14.872  0.1782 -0.8945 -0.0675
  847MPD2    C412497   4.488   0.180  14.904 -0.1491 -0.3220  1.3237
  847MPD2    C512498   4.459   0.290  14.829  0.3186 -0.0292 -0.5594
  847MPD2     H12499   4.721   0.048  14.712  1.1280  1.5004 -2.0667
  847MPD2    H112500   4.435   0.167  14.998 -2.0773 -1.0195  0.1439
  847MPD2    H212501   4.522   0.417  14.668 -0.2248  1.0248  0.4133
  847MPD2    H312502   4.380   0.357  14.862 -0.1318 -0.0676 -1.5607
  847MPD2     N12503   4.645   4.731  14.952  0.2421 -0.1117  0.5988
  847MPD2    H512504   4.732   4.692  14.920  0.4644 -0.3442  1.4873
  847MPD2    N112505   4.706   0.255  14.566 -0.0457 -0.5582  0.2014
  847MPD2    H712506   0.032   0.180  14.546  0.7034 -0.4350  2.1017
  848MPD2     C12507   1.900   2.182  16.257 -0.2984 -0.2842  0.6223
  848MPD2    C112508   1.927   2.266  16.365 -0.2534 -0.0554  0.1768
  848MPD2    C212509   1.959   2.399  16.342 -0.5370  0.2621 -0.8580
  848MPD2    C312510   1.952   2.457  16.215  1.0522  0.4986 -0.1353
  848MPD2    C412511   1.924   2.372  16.109  0.0554 -0.1104 -0.8878
  848MPD2    C512512   1.892   2.237  16.127  0.3315  0.9883 -0.6720
  848MPD2     H12513   1.955   2.458  16.433 -0.7520  1.0248 -1.3583
  848MPD2    H112514   1.922   2.414  16.009 -0.6994  1.1761 -0.3256
  848MPD2    H212515   1.882   2.076  16.272  0.5153 -0.3197  1.3277
  848MPD2    H312516   1.858   2.177  16.043  0.7036  1.0373 -0.8597
  848MPD2     N12517   1.952   2.596  16.200  0.4236  0.1813  0.2148
  848MPD2    H512518   1.935   2.625  16.104  0.0418  1.0796  0.5527
  848MPD2    N112519   1.928   2.212  16.504  0.1893  0.4197  0.3381
  848MPD2    H712520   1.970   2.266  16.579  0.0725 -0.5306  1.0901
  849MPD2     C12521   1.525   2.213  13.920  0.1129  0.0693 -0.2111
  849MPD2    C112522   1.623   2.124  13.949 -0.3005 -0.7592 -0.9791
  849MPD2    C212523   1.614   2.036  14.051 -0.4576 -0.1574 -0.0099
  849MPD2    C312524   1.505   2.039  14.135  0.1043 -0.1852 -0.1119
  849MPD2    C412525   1.396   2.120  14.104 -0.3800  0.0819 -0.1900
  849MPD2    C512526   1.411   2.207  13.999 -0.3533  0.7430  0.0760
  849MPD2     H12527   1.681   1.951  14.064  0.3157  0.4503 -0.0665
  849MPD2    H112528   1.309   2.130  14.167  0.1535 -3.3244  1.0909
  849MPD2    H212529   1.528   2.292  13.845 -1.3246  0.3897  0.0636
  849MPD2    H312530   1.328   2.276  13.987 -1.8679 -1.2488 -0.8924
  849MPD2     N12531   1.513   1.965  14.252  0.0496  0.5771  0.2990
  849MPD2    H512532   1.587   1.897  14.265  1.6463  2.1330 -0.6097
  849MPD2    N112533   1.746   2.128  13.872 -0.2152  0.0401  0.6544
  849MPD2    H712534   1.745   2.166  13.778 -1.8058  1.2157  1.1311
  850MPD2     C12535   4.440   0.468  15.162  0.4300 -0.4055 -1.1210
  850MPD2    C112536   4.479   0.340  15.193  0.8909  0.3633  0.2051
  850MPD2    C212537   4.617   0.304  15.183  0.2261 -1.1174  0.0607
  850MPD2    C312538   4.710   0.393  15.141  0.7431  0.0899  0.2398
  850MPD2    C412539   4.674   0.528  15.115 -0.3834 -0.7622  0.1950
  850MPD2    C512540   4.540   0.556  15.124  0.2668  0.7909  0.7194
  850MPD2     H12541   4.651   0.207  15.217 -1.3040 -1.7390 -0.1591
  850MPD2    H112542   0.010   0.600  15.087 -1.0728  0.0809  0.5146
  850MPD2    H212543   4.336   0.496  15.163  0.6830  0.4757  0.2023
  850MPD2    H312544   4.509   0.658  15.103  1.3217  0.5391 -2.0157
  850MPD2     N12545   0.106   0.374  15.151  0.0317 -0.0415  0.6832
  850MPD2    H512546   0.170   0.452  15.148  1.0538 -0.9604 -1.5903
  850MPD2    N112547   4.388   0.240  15.242  0.3890 -0.0338 -0.3604
  850MPD2    H712548   4.422   0.144  15.243  0.4702  0.0002  0.3856
  851MPD2     C12549   4.645   4.516  15.583 -0.6042  0.0912 -0.1912
  851MPD2    C112550   4.552   4.489  15.480  0.2251 -0.4729  0.0899
  851MPD2    C212551   4.586   4.399  15.376  0.4640  0.0256  0.6947
  851MPD2    C312552   4.707   4.332  15.376  0.7200 -0.4840 -0.5010
  851MPD2    C412553   0.053   4.361  15.483 -0.2147 -0.4825  0.2979
  851MPD2    C512554   0.024   4.450  15.586 -1.4880  0.1710  0.0376
  851MPD2     H12555   4.516   4.374  15.297  4.1605  0.0489 -2.5748
  851MPD2    H112556   0.151   4.314  15.481 -0.4956 -0.9974 -1.0648
  851MPD2    H212557   4.616   4.583  15.663  1.8400  0.9895 -0.0678
  851MPD2    H312558   0.093   4.471  15.666 -1.4974 -1.0256  0.3699
  851MPD2     N12559   0.003   4.247  15.267  0.2124 -0.0973  0.3332
  851MPD2    H512560   4.677   4.264  15.191  1.3385  1.9788 -0.1565
  851MPD2    N112561   4.433   4.564  15.482  0.1850  0.5783  0.3518
  851MPD2    H712562   4.422   4.640  15.548  0.0818  2.3545 -1.6905
  852MPD2     C12563   4.691   2.589   9.963  0.4844  0.3604  0.2997
  852MPD2    C112564   4.681   2.687  10.061  0.2197 -0.8035  0.4757
  852MPD2    C212565   0.016   2.802  10.036 -0.4559 -0.4944  0.1264
  852MPD2    C312566   0.108   2.813   9.935 -0.3164 -0.2360 -1.1049
  852MPD2    C412567   0.118   2.708   9.845  0.6428 -0.3219  0.2217
  852MPD2    C512568   0.038   2.600   9.859  1.1150 -0.7380 -0.3885
  852MPD2     H12569   0.004   2.889  10.099 -1.5066 -0.6225  0.1055
  852MPD2    H112570   0.202   2.709   9.777  0.2862  0.8654 -0.2020
  852MPD2    H212571   4.626   2.502   9.970 -1.1410  1.4437 -1.5042
  852MPD2    H312572   0.046   2.517   9.789 -0.7394 -0.6417 -0.6985
  852MPD2     N12573   0.191   2.925   9.937  0.1061 -0.4323 -0.1625
  852MPD2    H512574   0.166   2.999  10.003  1.0287 -0.8868  0.7044
  852MPD2    N112575   4.592   2.688  10.167 -0.2834 -0.2737 -0.2418
  852MPD2    H712576   4.574   2.774  10.217  1.4198  0.0418 -0.2022
  853MPD2     C12577   1.202   2.376  12.481 -0.0914 -0.2575  0.3757
  853MPD2    C112578   1.233   2.507  12.459 -0.6642  0.0860  0.0659
  853MPD2    C212579   1.262   2.553  12.332 -0.5579  0.0509 -0.7693
  853MPD2    C312580   1.262   2.463  12.224  0.8977  0.2674 -0.7393
  853MPD2    C412581   1.234   2.329  12.243  0.6033 -0.7207  0.2972
  853MPD2    C512582   1.202   2.289  12.373 -0.4495  0.0872  0.7414
  853MPD2     H12583   1.286   2.657  12.314  2.8049 -1.1037 -2.9243
  853MPD2    H112584   1.221   2.262  12.159 -0.8134 -1.9264  1.4900
  853MPD2    H212585   1.174   2.335  12.577 -0.4043 -1.3545 -0.1901
  853MPD2    H312586   1.168   2.186  12.382 -0.9294  0.1279 -0.6453
  853MPD2     N12587   1.283   2.500  12.092  0.2794  0.5638 -0.2209
  853MPD2    H512588   1.306   2.431  12.021 -1.6124  0.8194 -1.0656
  853MPD2    N112589   1.238   2.587  12.582  0.7713 -0.2467  0.0226
  853MPD2    H712590   1.215   2.532  12.664 -1.2181  2.3710  1.2090
  854MPD2     C12591   2.883   2.512  12.987  0.6324  0.1519 -0.9049
  854MPD2    C112592   3.003   2.554  12.939  0.7713 -0.5367  0.0782
  854MPD2    C212593   3.117   2.516  12.999  0.8347 -0.0836 -0.1112
  854MPD2    C312594   3.124   2.434  13.111  0.3418 -0.6895  0.4759
  854MPD2    C412595   2.995   2.413  13.168 -0.2435  0.2646  0.7506
  854MPD2    C512596   2.878   2.458  13.113  0.4143  0.7453  0.2182
  854MPD2     H12597   3.209   2.530  12.945  1.3132  1.4752  1.1129
  854MPD2    H112598   2.987   2.359  13.262 -0.9444 -0.4819  0.2578
  854MPD2    H212599   2.792   2.540  12.935 -0.3537  0.0420  0.7573
  854MPD2    H312600   2.784   2.419  13.150  0.7309  0.3671  0.6198
  854MPD2     N12601   3.245   2.387  13.178  0.2344 -0.2050 -0.0150
  854MPD2    H512602   3.245   2.345  13.270 -0.5516 -0.9915 -0.3745
  854MPD2    N112603   3.024   2.618  12.818  0.3027 -0.1638  1.3540
  854MPD2    H712604   3.121   2.631  12.790 -0.3370  0.1971 -0.6951
  855MPD2     C12605   3.362   2.242  13.999  0.9430 -0.0264  0.5470
  855MPD2    C112606   3.445   2.143  13.946 -0.1596  0.2720 -0.6277
  855MPD2    C212607   3.474   2.148  13.814  0.2839  0.4732 -0.2197
  855MPD2    C312608   3.414   2.245  13.737  1.1226  0.1799 -0.0499
  855MPD2    C412609   3.331   2.337  13.785  0.3467  0.1703 -0.1450
  855MPD2    C512610   3.299   2.334  13.920 -0.4020 -0.4419 -0.0365
  855MPD2     H12611   3.538   2.074  13.767  0.7749  0.9900 -0.3733
  855MPD2    H112612   3.301   2.419  13.721  1.6459 -1.1794 -2.4622
  855MPD2    H212613   3.328   2.225  14.100 -1.0174 -1.6500 -0.3975
  855MPD2    H312614   3.224   2.394  13.969 -1.4468 -1.1535 -0.7831
  855MPD2     N12615   3.442   2.259  13.598 -0.7121 -0.4017  0.3304
  855MPD2    H512616   3.381   2.324  13.548 -0.0812 -0.1159 -0.0717
  855MPD2    N112617   3.504   2.038  14.024  0.4862 -0.1428 -0.2213
  855MPD2    H712618   3.549   1.964  13.969 -0.7161  0.1142 -1.5532
  856MPD2     C12619   0.121   3.125  13.772 -0.1887 -0.2667  0.1545
  856MPD2    C112620   0.183   3.215  13.862 -0.5683 -0.3100 -0.3194
  856MPD2    C212621   0.136   3.345  13.870  0.0522  0.3248  0.1719
  856MPD2    C312622   0.036   3.388  13.787 -0.6131  0.3655  0.4220
  856MPD2    C412623   4.710   3.300  13.706 -0.0190  0.4881 -0.2654
  856MPD2    C512624   0.015   3.170  13.702  0.5447  0.3444 -0.1769
  856MPD2     H12625   0.178   3.414  13.942  0.8131 -0.9323  0.9170
  856MPD2    H112626   4.626   3.328  13.645  0.8217  3.0457 -0.2513
  856MPD2    H212627   0.146   3.019  13.772  2.3163  0.3312 -0.4613
  856MPD2    H312628   4.705   3.100  13.635 -2.4070  0.4204  1.9114
  856MPD2     N12629   4.728   3.523  13.792  0.0970  0.4387  0.2297
  856MPD2    H512630   4.642   3.554  13.749  1.3943 -1.5435 -3.7476
  856MPD2    N112631   0.291   3.176  13.946  0.4557  0.5804  0.3403
  856MPD2    H712632   0.324   3.249  14.007  1.4579  0.3146  0.1187
  857MPD2     C12633   1.778   1.293  12.531 -0.1477  0.0655  0.9210
  857MPD2    C112634   1.895   1.248  12.601  0.4265 -0.3679  0.2383
  857MPD2    C212635   1.957   1.336  12.684  0.1822  0.7527 -0.2500
  857MPD2    C312636   1.896   1.458  12.717 -0.0256 -0.2373 -0.0512
  857MPD2    C412637   1.772   1.493  12.670  0.2773 -0.0855 -0.6494
  857MPD2    C512638   1.720   1.412  12.569  0.0685  0.4484 -0.1328
  857MPD2     H12639   2.050   1.305  12.731  1.3459  2.1908 -1.6200
  857MPD2    H112640   1.736   1.593  12.693  0.0021  0.2029 -2.3628
  857MPD2    H212641   1.736   1.225  12.457 -0.2167  1.7150 -0.5421
  857MPD2    H312642   1.629   1.447  12.521  0.2482 -0.2002 -0.9428
  857MPD2     N12643   1.973   1.540  12.803 -0.6040 -0.2076 -0.1968
  857MPD2    H512644   2.060   1.498  12.835  1.2975  3.2904 -0.7406
  857MPD2    N112645   1.965   1.134  12.553 -0.6665  0.4563 -0.4959
  857MPD2    H712646   2.058   1.130  12.594 -0.6984  3.2987 -0.1982
  858MPD2     C12647   2.997   0.029  16.279 -0.4064 -0.6777 -0.2870
  858MPD2    C112648   2.964   4.638  16.304  0.4085 -0.0402 -0.1626
  858MPD2    C212649   2.891   4.618  16.422  0.5922  0.0983  0.4716
  858MPD2    C312650   2.852   4.720  16.511 -0.5860 -0.1298 -0.1457
  858MPD2    C412651   2.871   0.108  16.462  0.5645 -0.4536 -0.0578
  858MPD2    C512652   2.953   0.136  16.351 -0.0472 -0.2417 -0.4867
  858MPD2     H12653   2.864   4.516  16.448  0.8752  0.4095  1.9755
  858MPD2    H112654   2.849   0.199  16.517 -1.5488 -0.8334 -0.2911
  858MPD2    H212655   3.069   0.048  16.201  0.4911 -0.0335  0.6965
  858MPD2    H312656   2.977   0.239  16.331 -0.5599 -0.3580 -1.7431
  858MPD2     N12657   2.783   4.703  16.637 -0.9897 -0.2660  0.4652
  858MPD2    H512658   2.733   0.045  16.670 -0.2692  1.2044 -2.0311
  858MPD2    N112659   2.992   4.528  16.212  0.0348  0.1303 -0.3262
  858MPD2    H712660   2.945   4.440  16.229  0.8444  0.0393  1.5049
  859MPD2     C12661   1.018   1.984  15.499 -0.0763 -0.3440  0.4715
  859MPD2    C112662   1.143   1.948  15.463 -0.2596  0.1949 -0.8323
  859MPD2    C212663   1.187   1.824  15.502  0.1316 -0.4708 -0.3348
  859MPD2    C312664   1.108   1.730  15.561 -1.1113  0.5403  0.2470
  859MPD2    C412665   0.981   1.767  15.596  0.1791 -0.4243 -0.6363
  859MPD2    C512666   0.935   1.897  15.563 -0.4810  0.4073 -0.3903
  859MPD2     H12667   1.290   1.797  15.482  1.1347  1.7914  1.6950
  859MPD2    H112668   0.908   1.701  15.643  1.4224 -1.1094  0.3281
  859MPD2    H212669   0.992   2.087  15.479  2.3467 -0.1791 -1.7683
  859MPD2    H312670   0.831   1.919  15.586 -0.2761  1.5342 -0.5240
  859MPD2     N12671   1.154   1.603  15.603  0.0295 -0.0740  0.1918
  859MPD2    H512672   1.082   1.557  15.657 -0.2852  0.3782  0.1583
  859MPD2    N112673   1.224   2.048  15.409  0.2226 -1.0211 -0.1555
  859MPD2    H712674   1.181   2.139  15.395 -0.0249 -1.1850 -0.4711
  860MPD2     C12675   4.227   2.121  11.567 -0.0466 -0.1896  0.1863
  860MPD2    C112676   4.215   2.244  11.627  0.1052  0.0438 -0.1429
  860MPD2    C212677   4.127   2.246  11.732  0.7623 -0.5005  0.7338
  860MPD2    C312678   4.084   2.134  11.789 -0.1086 -0.2509  0.3725
  860MPD2    C412679   4.096   2.011  11.724 -0.0948  0.1129  0.6974
  860MPD2    C512680   4.161   2.010  11.607 -0.8609  0.0858  0.1994
  860MPD2     H12681   4.099   2.341  11.775 -1.9957 -0.8623 -0.2054
  860MPD2    H112682   4.048   1.920  11.759  1.8861 -1.7227 -1.3818
  860MPD2    H212683   4.293   2.099  11.484 -0.2923  3.2363 -0.8849
  860MPD2    H312684   4.191   1.917  11.559 -1.1095  1.1513 -1.9779
  860MPD2     N12685   4.012   2.151  11.907 -0.9057  0.7057  0.4132
  860MPD2    H512686   4.024   2.237  11.960  1.6386  0.5842  0.0285
  860MPD2    N112687   4.301   2.355  11.601  0.5769  0.0149  0.3998
  860MPD2    H712688   4.294   2.434  11.664  3.5190  0.9373 -0.4100
  861MPD2     C12689   2.909   0.585  10.994 -0.4272 -0.2959 -0.1292
  861MPD2    C112690   2.829   0.650  11.086  0.7983  0.5984  0.2518
  861MPD2    C212691   2.730   0.736  11.047 -0.4936 -0.1114  0.5078
  861MPD2    C312692   2.705   0.760  10.912 -0.3961 -0.0278 -0.1500
  861MPD2    C412693   2.793   0.701  10.815  0.2057  0.6928 -0.4284
  861MPD2    C512694   2.898   0.621  10.862  0.0013 -0.2215 -0.0665
  861MPD2     H12695   2.666   0.781  11.121  1.9310 -0.9355  3.1071
  861MPD2    H112696   2.783   0.723  10.709 -0.2639  0.9379 -0.3331
  861MPD2    H212697   2.994   0.524  11.020 -0.5722 -0.3607  0.1927
  861MPD2    H312698   2.972   0.582  10.792 -2.1217 -0.4725 -2.1703
  861MPD2     N12699   2.591   0.841  10.872  0.0350 -0.2620 -0.4519
  861MPD2    H512700   2.577   0.857  10.773 -4.1415 -0.9258 -0.0006
  861MPD2    N112701   2.853   0.634  11.228 -1.1521 -0.6876 -0.4553
  861MPD2    H712702   2.779   0.666  11.289 -0.1038 -1.1055  1.0369
  862MPD2     C12703   2.166   1.044  10.362  0.0053 -0.6004 -0.5551
  862MPD2    C112704   2.197   0.979  10.479  0.1075  0.5324  0.3993
  862MPD2    C212705   2.144   0.849  10.508 -0.3585 -0.2715 -0.2377
  862MPD2    C312706   2.077   0.778  10.412 -0.4467  0.1620 -1.0597
  862MPD2    C412707   2.065   0.843  10.284 -0.4086  1.2808  0.0758
  862MPD2    C512708   2.097   0.975  10.270 -0.3953  0.1887  0.3867
  862MPD2     H12709   2.172   0.801  10.601 -0.6566  0.1839  0.0846
  862MPD2    H112710   2.012   0.794  10.203 -0.5141  3.7784 -1.3781
  862MPD2    H212711   2.196   1.146  10.343 -0.3424 -0.1200  1.4075
  862MPD2    H312712   2.076   1.013  10.171 -1.7222  0.2950  0.7070
  862MPD2     N12713   2.054   0.645  10.439 -0.4874 -0.4262  0.3407
  862MPD2    H512714   2.071   0.616  10.534  2.0263 -0.5360 -0.1302
  862MPD2    N112715   2.275   1.028  10.581  0.5387  0.0555  0.6899
  862MPD2    H712716   2.295   0.965  10.658  2.4530 -1.6850 -1.2183
  863MPD2     C12717   0.846   3.701  16.225  0.6770 -0.9735  0.3815
  863MPD2    C112718   0.799   3.672  16.346 -0.2222 -0.3406  0.4858
  863MPD2    C212719   0.890   3.624  16.441 -0.5382  0.2510  0.6395
  863MPD2    C312720   1.028   3.613  16.412  0.3246 -0.2934 -0.6459
  863MPD2    C412721   1.068   3.657  16.289 -0.4597 -0.4592 -0.1644
  863MPD2    C512722   0.973   3.687  16.192  0.1480  0.9192 -0.8672
  863MPD2     H12723   0.852   3.590  16.536 -1.9419 -0.3782 -0.1487
  863MPD2    H112724   1.172   3.650  16.258 -1.0927 -2.7662 -1.7914
  863MPD2    H212725   0.778   3.724  16.143 -2.4696 -1.2748  2.8947
  863MPD2    H312726   1.003   3.717  16.092  0.1287 -2.3728 -1.8600
  863MPD2     N12727   1.126   3.561  16.501  0.3564 -0.0505 -0.3077
  863MPD2    H512728   1.223   3.574  16.472  0.8407 -1.3528  0.7591
  863MPD2    N112729   0.663   3.692  16.370  0.1224  0.2021  0.7324
  863MPD2    H712730   0.622   3.749  16.296 -0.1353  2.7101  2.8291
  864MPD2     C12731   1.786   0.309  16.927 -0.3839  0.5798  0.4451
  864MPD2    C112732   1.816   0.207  16.831  0.2877  1.1081  0.1680
  864MPD2    C212733   1.915   0.227  16.743  0.5520  0.0285 -0.2006
  864MPD2    C312734   1.990   0.345  16.748 -1.1494  0.1682  0.2718
  864MPD2    C412735   1.964   0.440  16.841  0.0301 -0.8541  0.0784
  864MPD2    C512736   1.865   0.423  16.928 -0.0099 -0.0653  0.4459
  864MPD2     H12737   1.943   0.151  16.671  0.0566 -1.5479  1.2801
  864MPD2    H112738   2.014   0.536  16.848 -0.9686 -0.3220 -0.0554
  864MPD2    H212739   1.706   0.301  16.999 -0.7452 -1.1316 -0.1566
  864MPD2    H312740   1.847   0.497  17.005  1.2399  1.1494 -0.4284
  864MPD2     N12741   2.081   0.364  16.639 -0.2389  0.2643 -1.0411
  864MPD2    H512742   2.101   0.292  16.572  1.4535 -0.9949  0.8189
  864MPD2    N112743   1.738   0.089  16.844 -0.4644 -0.9614 -0.3061
  864MPD2    H712744   1.681   0.080  16.927  0.2715 -1.6467  0.1257
  865MPD2     C12745   1.812   0.405  15.751 -0.0578  0.0825  0.0430
  865MPD2    C112746   1.828   0.288  15.824 -0.3814 -1.0448  1.0059
  865MPD2    C212747   1.902   0.286  15.942  0.0863  0.1515  1.2332
  865MPD2    C312748   1.969   0.403  15.972  0.4843  0.3201  0.4904
  865MPD2    C412749   1.956   0.516  15.894  0.4238 -0.0544 -0.1260
  865MPD2    C512750   1.877   0.516  15.786  0.0132  0.0664  0.6228
  865MPD2     H12751   1.922   0.195  15.997  0.9938 -1.3197 -1.5021
  865MPD2    H112752   2.009   0.607  15.920 -0.7436 -0.5475  4.0420
  865MPD2    H212753   1.755   0.407  15.659  1.5765 -1.0914 -0.9981
  865MPD2    H312754   1.869   0.604  15.723 -1.4069 -0.5638 -0.0841
  865MPD2     N12755   2.057   0.403  16.085  0.4016  0.1383 -0.8751
  865MPD2    H512756   2.080   0.310  16.117  0.6186  0.3547 -0.4087
  865MPD2    N112757   1.755   0.173  15.778  0.0918  0.4175 -0.0606
  865MPD2    H712758   1.711   0.172  15.686 -0.5123 -1.2137  0.2486
  866MPD2     C12759   3.332   0.925  11.779 -0.6594  1.1570  0.4344
  866MPD2    C112760   3.291   0.835  11.688  0.4486 -0.8696  0.4953
  866MPD2    C212761   3.187   0.875  11.614 -0.1933  1.4465 -0.3030
  866MPD2    C312762   3.122   0.989  11.645  0.0239  0.0980 -0.3587
  866MPD2    C412763   3.157   1.073  11.743  0.3857 -0.0562  0.3845
  866MPD2    C512764   3.267   1.043  11.810 -0.3974 -0.6719  0.2011
  866MPD2     H12765   3.141   0.809  11.541 -1.8757  1.4984  0.7167
  866MPD2    H112766   3.102   1.165  11.758 -2.1517 -1.4029 -0.6692
  866MPD2    H212767   3.407   0.886  11.846 -0.3428 -1.2974 -1.3196
  866MPD2    H312768   3.290   1.088  11.906  1.3883 -1.0387 -0.0645
  866MPD2     N12769   3.004   1.022  11.574 -0.2420 -0.0422  0.0577
  866MPD2    H512770   2.948   1.099  11.609  1.6050  0.7167  1.3652
  866MPD2    N112771   3.371   0.720  11.675 -0.4243 -0.6286  0.5110
  866MPD2    H712772   3.433   0.696  11.752  0.0521 -0.4208  0.1908
  867MPD2     C12773   0.340   0.163  16.422  0.0974  0.0498 -0.5866
  867MPD2    C112774   0.389   0.074  16.514 -0.0547 -0.1560 -0.5481
  867MPD2    C212775   0.361   0.103  16.650  1.2783 -0.9912 -0.1373
  867MPD2    C312776   0.306   0.222  16.696  0.4974  0.1440  0.0872
  867MPD2    C412777   0.261   0.312  16.602 -0.6756 -0.1884 -0.2400
  867MPD2    C512778   0.280   0.277  16.470 -0.8530 -0.1148 -0.4211
  867MPD2     H12779   0.402   0.027  16.716  1.9205 -1.0791 -0.6375
  867MPD2    H112780   0.223   0.408  16.635  0.1236  0.3916 -0.9890
  867MPD2    H212781   0.359   0.165  16.315 -0.7199 -0.3277 -0.7426
  867MPD2    H312782   0.260   0.356  16.399 -1.9182 -0.3823 -0.4315
  867MPD2     N12783   0.274   0.243  16.835  0.0844 -0.4620 -0.6792
  867MPD2    H512784   0.260   0.339  16.863  3.2258 -0.0121 -0.7256
  867MPD2    N112785   0.466   4.704  16.471 -0.2292  0.2859  0.1760
  867MPD2    H712786   0.480   4.703  16.370 -0.8159  0.4889  0.0900
  868MPD2     C12787   2.134   3.914  13.193 -0.0118  0.1254 -0.7196
  868MPD2    C112788   2.132   3.911  13.336  0.3457  0.3941  0.4152
  868MPD2    C212789   2.010   3.899  13.400 -0.0961 -0.6935 -0.1469
  868MPD2    C312790   1.899   3.884  13.333  0.3004 -0.5681 -0.6714
  868MPD2    C412791   1.891   3.893  13.193 -0.0878 -0.0455 -0.2189
  868MPD2    C512792   2.013   3.912  13.125 -0.1658  0.1830  0.6668
  868MPD2     H12793   2.005   3.882  13.507  3.0814 -0.3737  0.0591
  868MPD2    H112794   1.807   3.881  13.124  0.8594  1.1304 -1.5675
  868MPD2    H212795   2.231   3.930  13.146 -0.1401  0.5663 -0.8371
  868MPD2    H312796   2.014   3.925  13.018 -1.3441 -1.6528  0.4332
  868MPD2     N12797   1.792   3.859  13.419  0.7804 -0.2845 -0.3338
  868MPD2    H512798   1.818   3.874  13.516  1.4114  1.5799 -0.7838
  868MPD2    N112799   2.257   3.911  13.402  0.4898  0.0136  0.0218
  868MPD2    H712800   2.336   3.913  13.337  1.8587 -1.5119  1.6234
  869MPD2     C12801   2.564   1.358   0.193  1.0425  0.1419  0.1916
  869MPD2    C112802   2.603   1.336   0.324  0.4362 -0.7428  0.2077
  869MPD2    C212803   2.658   1.446   0.389  0.2631 -0.0788  1.2091
  869MPD2    C312804   2.698   1.561   0.322  0.7264  0.2418  0.3740
  869MPD2    C412805   2.672   1.571   0.187  0.2636  0.1173  0.3697
  869MPD2    C512806   2.602   1.471   0.124  0.4470  0.7290 -0.0442
  869MPD2     H12807   2.690   1.435   0.492  0.4006 -0.3581  1.1354
  869MPD2    H112808   2.720   1.644   0.123 -1.9984  0.3729 -1.0229
  869MPD2    H212809   2.522   1.280   0.130 -1.0298  1.4365 -0.0147
  869MPD2    H312810   2.584   1.485   0.018  1.0014 -2.5880 -0.5549
  869MPD2     N12811   2.776   1.665   0.374 -0.4803 -0.4806  0.2963
  869MPD2    H512812   2.799   1.731   0.301  1.8311  0.5436  1.9728
  869MPD2    N112813   2.582   1.211   0.387  0.3003 -0.2649 -0.6821
  869MPD2    H712814   2.551   1.137   0.325  3.4071 -2.8815  0.8924
  870MPD2     C12815   3.457   0.615   1.358 -0.1440 -0.0070 -0.1102
  870MPD2    C112816   3.325   0.613   1.329  0.6164  0.1094 -0.6139
  870MPD2    C212817   3.285   0.697   1.227  0.6066 -0.7483 -0.3074
  870MPD2    C312818   3.380   0.763   1.145 -0.8782  0.0405  0.6832
  870MPD2    C412819   3.516   0.747   1.170  0.9673  0.3058  0.2759
  870MPD2    C512820   3.551   0.669   1.275  0.3759  0.2760 -0.2066
  870MPD2     H12821   3.180   0.699   1.200  0.8739  0.7409 -1.2828
  870MPD2    H112822   3.593   0.798   1.112  0.1514  2.1684  0.8326
  870MPD2    H212823   3.484   0.574   1.455  1.5992  3.7026  0.9699
  870MPD2    H312824   3.655   0.654   1.299  0.4426 -1.2689 -1.4477
  870MPD2     N12825   3.326   0.818   1.025 -0.3570 -0.2467  0.0121
  870MPD2    H512826   3.226   0.813   1.005 -0.2652 -1.2666 -0.1770
  870MPD2    N112827   3.232   0.533   1.404 -0.3293 -0.7262  0.0445
  870MPD2    H712828   3.277   0.477   1.476  1.7276  1.2122  0.2778
  871MPD2     C12829   4.367   4.686  16.366  0.5890  0.1873 -0.1367
  871MPD2    C112830   4.294   4.607  16.455  0.2888  0.1826  0.2732
  871MPD2    C212831   4.289   4.469  16.436 -0.4020 -0.7010 -0.6737
  871MPD2    C312832   4.355   4.410  16.328 -0.0505 -0.2289  0.5985
  871MPD2    C412833   4.438   4.489  16.244  0.3962  0.8239  0.0731
  871MPD2    C512834   4.435   4.624  16.261  0.3043 -0.3704 -0.9715
  871MPD2     H12835   4.216   4.413  16.493  2.0088 -2.6776  0.4831
  871MPD2    H112836   4.485   4.447  16.156  1.2298  2.7528 -0.3899
  871MPD2    H212837   4.365   0.055  16.376 -0.8940  0.1564 -0.0422
  871MPD2    H312838   4.492   4.687  16.194  0.0861  0.0463 -0.7691
  871MPD2     N12839   4.344   4.268  16.304  0.1157  0.0025 -0.1204
  871MPD2    H512840   4.279   4.228  16.370  2.7340 -1.7928  1.3427
  871MPD2    N112841   4.235   4.672  16.567  0.2535 -0.0210  0.5089
  871MPD2    H712842   4.268   0.027  16.580  0.2811 -0.1573  1.4068
  872MPD2     C12843   0.265   2.393  14.370  0.2924  0.2343  0.3704
  872MPD2    C112844   0.238   2.476  14.262 -0.0368 -0.2175 -0.0100
  872MPD2    C212845   0.104   2.515  14.232 -0.2254  0.3525 -0.0409
  872MPD2    C312846   4.737   2.483  14.321 -0.7908 -0.1483  0.2501
  872MPD2    C412847   0.034   2.402  14.431  0.7896  0.2044  0.5614
  872MPD2    C512848   0.161   2.356  14.454 -0.4264  0.1496  0.5245
  872MPD2     H12849   0.080   2.577  14.147  1.3607  1.1287  0.0789
  872MPD2    H112850   4.696   2.374  14.502 -0.9639 -0.3569 -1.5866
  872MPD2    H212851   0.367   2.387  14.407  0.5985  1.1802 -0.3163
  872MPD2    H312852   0.189   2.297  14.541  0.2203  1.3885  1.1498
  872MPD2     N12853   4.601   2.514  14.301  0.6315 -0.5052 -0.0466
  872MPD2    H512854   4.538   2.463  14.362  2.3181 -2.4950  0.0327
  872MPD2    N112855   0.336   2.513  14.166  0.1508 -0.0702 -0.3089
  872MPD2    H712856   0.310   2.593  14.110  1.6657  0.0883 -0.7778
  873MPD2     C12857   1.329   2.647   0.731  0.4829  0.5404  0.5938
  873MPD2    C112858   1.447   2.634   0.798  0.5363  0.4055 -0.4082
  873MPD2    C212859   1.521   2.519   0.771 -0.1643  0.1826 -0.3549
  873MPD2    C312860   1.476   2.427   0.681 -0.4911 -0.1223  0.1960
  873MPD2    C412861   1.352   2.438   0.629  0.2270  0.1117 -0.1309
  873MPD2    C512862   1.286   2.554   0.648 -0.4172 -0.0081  0.5345
  873MPD2     H12863   1.615   2.504   0.823 -0.5616 -1.2457 -0.0307
  873MPD2    H112864   1.325   2.367   0.552  1.2874 -0.8047  0.3463
  873MPD2    H212865   1.275   2.741   0.727  0.6304  0.4655 -3.1294
  873MPD2    H312866   1.192   2.571   0.596 -0.5376 -0.4203  0.6204
  873MPD2     N12867   1.552   2.308   0.653 -0.2792  0.3421 -0.4121
  873MPD2    H512868   1.502   2.223   0.628 -1.0444  1.3245 -2.2003
  873MPD2    N112869   1.491   2.743   0.875 -0.7633 -0.2741  0.1361
  873MPD2    H712870   1.439   2.829   0.861 -0.6413  0.1335  2.2104
  874MPD2     C12871   1.116   2.735  16.395 -0.0881  0.0739 -0.1236
  874MPD2    C112872   1.200   2.629  16.383 -0.2252 -0.0214 -0.2242
  874MPD2    C212873   1.335   2.651  16.354 -0.2334 -0.5031 -0.5332
  874MPD2    C312874   1.380   2.784  16.340 -0.0342 -0.4019 -0.3482
  874MPD2    C412875   1.293   2.888  16.337 -0.4814  0.1585 -0.2134
  874MPD2    C512876   1.162   2.864  16.378 -0.4058 -0.1937 -0.4688
  874MPD2     H12877   1.404   2.567  16.353  2.3506  1.6259  0.1628
  874MPD2    H112878   1.325   2.989  16.315  2.6437 -0.6102  0.7924
  874MPD2    H212879   1.009   2.738  16.414 -0.4181 -2.5821 -1.5684
  874MPD2    H312880   1.083   2.938  16.379 -0.8854 -0.7051 -0.3477
  874MPD2     N12881   1.518   2.813  16.321 -0.3378  0.0760  0.1636
  874MPD2    H512882   1.581   2.734  16.307 -1.1939 -0.1715 -2.3041
  874MPD2    N112883   1.136   2.500  16.400  0.0260 -0.0069  0.0469
  874MPD2    H712884   1.037   2.517  16.416  0.0032 -2.1626  2.0841
  875MPD2     C12885   2.943   1.193  14.219  0.1001  0.2017 -0.2419
  875MPD2    C112886   2.806   1.192  14.254 -0.7937 -0.1662 -0.2528
  875MPD2    C212887   2.770   1.224  14.385  0.0563  0.0903 -0.5760
  875MPD2    C312888   2.866   1.259  14.480 -0.0925  0.1796  0.0051
  875MPD2    C412889   2.997   1.284  14.431 -0.1988 -0.0009 -0.1105
  875MPD2    C512890   3.036   1.237  14.306 -0.0054  0.1109  0.0786
  875MPD2     H12891   2.667   1.206  14.415 -0.1675  0.5093 -1.0945
  875MPD2    H112892   3.076   1.298  14.504 -0.9956  0.7533  0.6120
  875MPD2    H212893   2.983   1.156  14.125  0.6662  2.8428 -1.0375
  875MPD2    H312894   3.142   1.249  14.285 -0.5077  3.8396 -0.4497
  875MPD2     N12895   2.831   1.264  14.619 -0.2937 -0.2003 -0.0876
  875MPD2    H512896   2.906   1.308  14.673 -1.2829 -1.4350  2.3137
  875MPD2    N112897   2.706   1.164  14.166  0.3634 -0.1504  0.1770
  875MPD2    H712898   2.619   1.206  14.197  1.2566  1.3142  0.7203
  876MPD2     C12899   1.374   1.928  15.777  0.1011 -0.0513 -0.0371
  876MPD2    C112900   1.511   1.916  15.794  0.0818 -0.5689  0.2828
  876MPD2    C212901   1.550   1.794  15.839 -0.3369  0.0402 -0.9495
  876MPD2    C312902   1.462   1.691  15.880 -0.5859 -0.2908  0.3964
  876MPD2    C412903   1.328   1.710  15.867 -0.2481  0.2276  0.4229
  876MPD2    C512904   1.291   1.825  15.801 -0.2546  0.1840  0.1763
  876MPD2     H12905   1.658   1.781  15.845 -0.1938  0.1108 -3.5546
  876MPD2    H112906   1.247   1.644  15.896 -0.5746  0.3972 -0.1037
  876MPD2    H212907   1.333   2.025  15.752  1.7046  0.6903  0.2116
  876MPD2    H312908   1.186   1.843  15.787 -0.6409 -1.7713  0.5169
  876MPD2     N12909   1.517   1.564  15.917  0.3446  0.0164 -0.2138
  876MPD2    H512910   1.618   1.555  15.910  0.2636 -1.6232  0.8307
  876MPD2    N112911   1.588   2.031  15.775 -0.3527 -0.6373 -0.8388
  876MPD2    H712912   1.534   2.110  15.741  0.8758  0.4970 -0.1674
  877MPD2     C12913   1.539   2.636  15.407 -0.0461  0.1068 -0.2358
  877MPD2    C112914   1.671   2.597  15.410 -0.7751 -0.2597  0.1380
  877MPD2    C212915   1.749   2.617  15.300  0.3309  0.7210  0.8820
  877MPD2    C312916   1.703   2.684  15.185  0.2345  0.2817  0.4242
  877MPD2    C412917   1.569   2.725  15.189 -0.7586 -0.1484 -0.1603
  877MPD2    C512918   1.489   2.694  15.297 -0.4474 -1.1905  0.8694
  877MPD2     H12919   1.847   2.572  15.311 -0.9338 -2.6322 -1.1937
  877MPD2    H112920   1.533   2.792  15.112  1.9158  0.4912 -0.8679
  877MPD2    H212921   1.478   2.621  15.495 -0.0922  0.7474 -0.1630
  877MPD2    H312922   1.389   2.734  15.284  0.8395  2.5133  2.3669
  877MPD2     N12923   1.776   2.701  15.066  0.4053 -0.0606 -0.6750
  877MPD2    H512924   1.724   2.720  14.982 -0.6080 -1.5316 -0.3664
  877MPD2    N112925   1.729   2.538  15.519  0.0813  0.0268  0.6316
  877MPD2    H712926   1.828   2.518  15.507  0.0814  0.4715 -0.1387
  878MPD2     C12927   1.773   1.944  13.060 -0.4500 -0.8806  0.3335
  878MPD2    C112928   1.829   2.064  13.095  0.1121 -0.0201 -0.2679
  878MPD2    C212929   1.883   2.080  13.224  0.2289  0.2247 -0.6023
  878MPD2    C312930   1.880   1.970  13.311  0.4225 -0.3069  0.7721
  878MPD2    C412931   1.852   1.838  13.259  0.2860  0.1152  1.2574
  878MPD2    C512932   1.779   1.834  13.141 -1.0304 -0.3409  0.0173
  878MPD2     H12933   1.933   2.170  13.261  1.6417 -0.5675 -0.5836
  878MPD2    H112934   1.867   1.747  13.316  1.3311  0.5839  1.7409
  878MPD2    H212935   1.721   1.930  12.966  0.8409  0.3956 -0.5789
  878MPD2    H312936   1.753   1.735  13.105  1.1296 -0.5846 -0.8850
  878MPD2     N12937   1.911   1.989  13.445  0.1028 -0.7185 -0.3637
  878MPD2    H512938   1.933   2.083  13.476  1.2454 -1.1508  0.1461
  878MPD2    N112939   1.823   2.169  13.003 -0.2495  0.8020  0.4407
  878MPD2    H712940   1.774   2.144  12.918 -1.6824  1.1154  1.1779
  879MPD2     C12941   2.212   3.081  17.409 -0.1907 -0.1819  0.3352
  879MPD2    C112942   2.096   3.045  17.470  0.4711  0.2988 -0.4180
  879MPD2    C212943   1.988   3.000  17.399  0.0467  0.4268  0.1370
  879MPD2    C312944   1.991   2.996  17.260  0.5244 -0.6673  0.2147
  879MPD2    C412945   2.093   3.052  17.196 -0.4560  0.6967 -0.2203
  879MPD2    C512946   2.211   3.076  17.270  0.1564  0.1798  0.4961
  879MPD2     H12947   1.898   2.966  17.448 -0.1989 -0.6437 -1.0625
  879MPD2    H112948   2.090   3.065  17.088 -0.5215 -0.3082 -0.3372
  879MPD2    H212949   2.300   3.125  17.456 -1.0405  1.0096  0.8011
  879MPD2    H312950   2.293   3.107  17.206  0.5562 -0.3187  0.7627
  879MPD2     N12951   1.882   2.956  17.179 -0.5902  0.4271  0.2583
  879MPD2    H512952   1.890   2.962  17.078 -0.2163 -2.6082  0.1210
  879MPD2    N112953   2.106   3.027  17.609  0.0055  0.7396 -0.0377
  879MPD2    H712954   2.202   3.042  17.640  0.0435 -1.1562  0.7385
  880MPD2     C12955   2.906   4.582  17.531  0.4037 -0.6391 -0.7480
  880MPD2    C112956   2.893   4.626  17.661  0.2934  0.4087  0.0111
  880MPD2    C212957   2.946   4.544   0.003 -0.0263 -0.2333  0.6408
  880MPD2    C312958   2.994   4.420  17.728 -0.0313  0.8565  0.5418
  880MPD2    C412959   3.002   4.384  17.599  0.4519  0.1026  0.9335
  880MPD2    C512960   2.958   4.457  17.498  0.6968  0.6970  0.8656
  880MPD2     H12961   2.949   4.577   0.106  1.0596 -0.5101  0.6964
  880MPD2    H112962   3.061   4.297  17.571 -0.1419  0.3267 -1.0048
  880MPD2    H212963   2.869   4.645  17.451  0.3919  1.7965  1.1852
  880MPD2    H312964   2.967   4.424  17.395 -0.4620 -1.6289  1.5115
  880MPD2     N12965   3.052   4.349   0.082 -0.2471  0.3296 -0.1869
  880MPD2    H512966   3.046   4.404   0.167  1.3027 -0.9490  0.7437
  880MPD2    N112967   2.843   0.020  17.682  0.1923  0.0241 -0.3270
  880MPD2    H712968   2.800   0.067  17.603 -0.2488  0.3593  0.1167
  881MPD2     C12969   3.074   0.912  17.338 -0.4564  0.1737  0.0927
  881MPD2    C112970   3.103   0.782  17.309  0.2993 -0.0123  0.0545
  881MPD2    C212971   3.048   0.684  17.393 -0.0130  0.2231 -0.0661
  881MPD2    C312972   2.951   0.717  17.488 -0.1661 -0.0080 -0.7010
  881MPD2    C412973   2.913   0.850  17.501  0.0397 -0.9466 -0.4083
  881MPD2    C512974   2.970   0.945  17.426 -0.7984 -0.0727  0.2671
  881MPD2     H12975   3.058   0.578  17.377 -1.2190 -0.0538  1.0068
  881MPD2    H112976   2.830   0.872  17.568 -1.8628 -1.0602 -2.7190
  881MPD2    H212977   3.114   0.998  17.285 -0.4615 -1.0123 -1.8517
  881MPD2    H312978   2.944   1.046  17.456 -1.3114  0.5634 -2.3215
  881MPD2     N12979   2.880   0.620  17.560 -0.7148 -0.3619 -0.2789
  881MPD2    H512980   2.797   0.637  17.615  0.5382  0.0471  1.5140
  881MPD2    N112981   3.203   0.752  17.217  0.2056  0.2369  0.1078
  881MPD2    H712982   3.232   0.834  17.164  0.1851  0.0530 -0.1884
  882MPD2     C12983   1.865   2.433  14.333  0.0222  0.3179 -0.0758
  882MPD2    C112984   1.822   2.484  14.455  0.3195 -0.2072 -0.1633
  882MPD2    C212985   1.687   2.474  14.492 -0.4919  0.3318  0.1728
  882MPD2    C312986   1.598   2.401  14.412 -0.1255 -0.4557  0.2202
  882MPD2    C412987   1.650   2.345  14.297 -0.2706 -0.1555 -0.5828
  882MPD2    C512988   1.777   2.363  14.254 -0.1740 -0.5859 -0.5301
  882MPD2     H12989   1.660   2.516  14.588  0.0039 -1.9185  1.2936
  882MPD2    H112990   1.591   2.281  14.232 -1.0456 -0.8121  0.7683
  882MPD2    H212991   1.964   2.449  14.291 -0.1516  2.0541  0.1639
  882MPD2    H312992   1.807   2.325  14.158 -0.1353 -0.3105 -0.6287
  882MPD2     N12993   1.469   2.375  14.451 -0.1557  0.5566  0.3758
  882MPD2    H512994   1.418   2.312  14.390  0.6904  1.2051 -0.9763
  882MPD2    N112995   1.908   2.571  14.527  0.3201  0.3403 -0.1596
  882MPD2    H712996   1.999   2.527  14.530 -0.0554 -0.3471  1.1206
  883MPD2     C12997   3.351   2.432  16.150 -0.6528  0.4261 -0.0086
  883MPD2    C112998   3.407   2.534  16.076 -0.2582 -0.0108 -0.2860
  883MPD2    C212999   3.528   2.587  16.114  0.3234  0.5944  0.0920
  883MPD2    C313000   3.596   2.537  16.224  0.7702  0.6403 -0.2836
  883MPD2    C413001   3.532   2.445  16.308 -0.7771  0.4085 -0.2869
  883MPD2    C513002   3.410   2.396  16.263  0.2098  1.1540 -0.8476
  883MPD2     H13003   3.574   2.659  16.048 -0.7847  1.6297  0.4344
  883MPD2    H113004   3.567   2.410  16.404  1.6991 -0.7002 -1.5820
  883MPD2    H213005   3.255   2.387  16.125 -1.1479  1.4583  0.0629
  883MPD2    H313006   3.357   2.330  16.331  2.7315  0.3923  0.3775
  883MPD2     N13007   3.719   2.603  16.261 -0.1431  0.0864  0.3154
  883MPD2    H513008   3.747   2.669  16.190 -3.9664  0.7223 -0.5612
  883MPD2    N113009   3.354   2.595  15.964  0.1286  0.0501 -0.3245
  883MPD2    H713010   3.419   2.656  15.914  3.1739 -0.8927  2.4756
  884MPD2     C13011   0.888   3.035  15.238 -0.0143 -0.0808 -0.4207
  884MPD2    C113012   0.932   3.140  15.159 -0.7387  0.6120  0.3056
  884MPD2    C213013   0.849   3.249  15.119 -0.4950 -0.1940  0.1470
  884MPD2    C313014   0.719   3.251  15.165  0.1540  0.2852 -0.0228
  884MPD2    C413015   0.682   3.160  15.258  0.0409 -0.4127  0.2191
  884MPD2    C513016   0.763   3.052  15.292 -1.0877  0.4136 -0.0162
  884MPD2     H13017   0.880   3.328  15.051  0.9940 -2.2217 -1.5273
  884MPD2    H113018   0.580   3.158  15.296  0.0941 -0.6861  0.3450
  884MPD2    H213019   0.956   2.957  15.270  0.3703  1.0205  1.4655
  884MPD2    H313020   0.720   2.982  15.363 -0.2541 -0.1754 -0.0972
  884MPD2     N13021   0.644   3.360  15.113 -0.3588  0.3161  0.8397
  884MPD2    H513022   0.686   3.407  15.033  1.0950 -0.7517  0.9634
  884MPD2    N113023   1.067   3.136  15.102 -0.6272  0.2664 -0.5167
  884MPD2    H713024   1.099   3.215  15.048 -0.1351  0.4974  0.1088
  885MPD2     C13025   3.150   3.498   0.062 -0.2904 -0.3596 -0.7271
  885MPD2    C113026   3.248   3.396   0.038  0.1821  0.0559  0.5888
  885MPD2    C213027   3.279   3.367  17.663 -0.1374 -0.6743  0.9725
  885MPD2    C313028   3.229   3.441  17.560  0.6416 -0.4623 -0.1969
  885MPD2    C413029   3.139   3.540  17.586 -0.2525 -0.2343  0.3016
  885MPD2    C513030   3.096   3.565  17.710 -0.2620 -0.8592 -0.3690
  885MPD2     H13031   3.350   3.289  17.640  0.6166  0.2063  0.2975
  885MPD2    H113032   3.082   3.593  17.510 -1.1633 -0.8677  0.5427
  885MPD2    H213033   3.117   3.510   0.165  0.5244 -1.9149 -0.2862
  885MPD2    H313034   3.026   3.647  17.726 -2.2808 -2.1721 -2.4597
  885MPD2     N13035   3.257   3.399  17.424 -0.8138 -0.3455 -0.9396
  885MPD2    H513036   3.323   3.322  17.422 -1.6769 -1.1810  1.8189
  885MPD2    N113037   3.286   3.318   0.153 -0.2584  0.1957 -0.5273
  885MPD2    H713038   3.233   3.332   0.239  0.8676  2.2882 -0.1882
  886MPD2     C13039   0.346   1.958  15.309  0.0839  0.4640 -0.2545
  886MPD2    C113040   0.417   2.016  15.415 -1.0013  0.0754 -0.3185
  886MPD2    C213041   0.448   2.151  15.406 -0.1929 -0.0324 -0.0003
  886MPD2    C313042   0.415   2.223  15.294 -0.3812 -0.4710  0.6882
  886MPD2    C413043   0.359   2.162  15.187  0.8878  0.0330  0.1872
  886MPD2    C513044   0.333   2.033  15.196  0.1528  0.3464 -0.1438
  886MPD2     H13045   0.485   2.202  15.494 -0.0172  3.5414 -2.1738
  886MPD2    H113046   0.330   2.211  15.094 -1.1051 -0.7283  0.3878
  886MPD2    H213047   0.322   1.852  15.300  1.4606  0.0276  1.3301
  886MPD2    H313048   0.276   1.994  15.113 -0.5716 -0.6798  0.8381
  886MPD2     N13049   0.433   2.367  15.276 -0.1618  0.6664  0.1987
  886MPD2    H513050   0.409   2.402  15.183 -0.1751 -1.0243 -0.4292
  886MPD2    N113051   0.458   1.946  15.534 -0.1412  0.3865  0.6834
  886MPD2    H713052   0.487   2.011  15.606  1.3167  0.1569  0.3020
  887MPD2     C13053   1.051   1.813  16.118  0.6341 -0.5640  0.2755
  887MPD2    C113054   0.985   1.891  16.021  0.0040 -0.1597 -0.6713
  887MPD2    C213055   1.030   2.020  15.983 -0.4734 -0.0219 -1.1498
  887MPD2    C313056   1.143   2.069  16.049 -0.4100 -0.5941 -0.4682
  887MPD2    C413057   1.210   1.992  16.145 -0.4763  0.7167 -0.0982
  887MPD2    C513058   1.165   1.867  16.173  0.2059 -0.5858  0.2529
  887MPD2     H13059   0.984   2.075  15.902 -1.0100  0.5488 -0.4545
  887MPD2    H113060   1.301   2.027  16.194 -0.3573 -0.4842  0.5498
  887MPD2    H213061   1.018   1.711  16.132  1.2320 -1.0534 -1.7885
  887MPD2    H313062   1.216   1.810  16.249  0.4058 -0.4785  0.1990
  887MPD2     N13063   1.176   2.198  16.008  0.2100 -0.6875 -1.2273
  887MPD2    H513064   1.100   2.248  15.964 -0.7207 -0.5674  0.5326
  887MPD2    N113065   0.871   1.838  15.967 -0.8758  0.1965  0.9067
  887MPD2    H713066   0.855   1.739  15.983  1.3112 -0.5037 -1.1703
  888MPD2     C13067   2.731   2.040  14.732 -0.3089  0.0858  0.4807
  888MPD2    C113068   2.710   2.065  14.861  0.5558 -0.2045  0.0742
  888MPD2    C213069   2.751   2.185  14.912  0.0564  0.8909  0.1995
  888MPD2    C313070   2.830   2.271  14.838  0.1361  0.0879 -0.2972
  888MPD2    C413071   2.866   2.237  14.712  0.0789 -0.5114  0.2654
  888MPD2    C513072   2.808   2.125  14.655  0.6017  0.8063  0.2646
  888MPD2     H13073   2.716   2.216  15.010  0.3445 -0.6800  0.7884
  888MPD2    H113074   2.923   2.297  14.642  2.1147 -0.7400  1.7462
  888MPD2    H213075   2.704   1.946  14.683 -1.5148  0.1136  1.0974
  888MPD2    H313076   2.828   2.100  14.551  2.7144  0.5544  0.7368
  888MPD2     N13077   2.865   2.397  14.901  0.6457  0.3610  0.4495
  888MPD2    H513078   2.856   2.403  15.002  1.3181  0.5795  0.5007
  888MPD2    N113079   2.643   1.980  14.946  0.0361 -0.2011 -0.1770
  888MPD2    H713080   2.649   1.997  15.046  0.0756 -0.3240 -0.1587
  889MPD2     C13081   2.102   2.249  12.705 -0.1062 -0.3998  0.4124
  889MPD2    C113082   2.166   2.214  12.817  0.3487  0.2470  0.5208
  889MPD2    C213083   2.219   2.314  12.894 -0.0885  0.4180 -0.9780
  889MPD2    C313084   2.195   2.446  12.871  0.2425  0.9732  0.3520
  889MPD2    C413085   2.119   2.482  12.759 -0.1583  0.0096  0.3925
  889MPD2    C513086   2.069   2.383  12.679  0.0891 -0.4079 -0.1472
  889MPD2     H13087   2.260   2.284  12.990 -3.2997 -0.9067 -0.0304
  889MPD2    H113088   2.115   2.582  12.718 -2.2470 -0.3558 -0.2584
  889MPD2    H213089   2.040   2.172  12.659  0.0305  0.4435 -1.1908
  889MPD2    H313090   2.017   2.398  12.585  0.0089 -1.2527 -0.2382
  889MPD2     N13091   2.244   2.546  12.959  0.2090 -0.7574 -0.4957
  889MPD2    H513092   2.302   2.518  13.037  0.0447 -0.3182 -0.2158
  889MPD2    N113093   2.167   2.076  12.850  0.8046 -0.1648  0.5308
  889MPD2    H713094   2.128   2.010  12.783 -0.6406  0.6452  0.5699
  890MPD2     C13095   1.667   3.336  14.627  0.0281  0.3419 -0.0567
  890MPD2    C113096   1.741   3.412  14.714 -0.8511 -0.0339 -1.2489
  890MPD2    C213097   1.814   3.353  14.817 -0.0293 -1.3038 -0.2366
  890MPD2    C313098   1.786   3.224  14.851 -0.3002  1.0932  0.9392
  890MPD2    C413099   1.709   3.143  14.765  0.3312 -0.2238  0.6168
  890MPD2    C513100   1.658   3.200  14.652 -0.1151  0.2782  0.8397
  890MPD2     H13101   1.882   3.408  14.881 -0.5963  0.4693 -1.1641
  890MPD2    H113102   1.690   3.037  14.775  1.2333 -0.2444  1.9938
  890MPD2    H213103   1.612   3.379  14.544  2.1152  1.8213 -0.6610
  890MPD2    H313104   1.609   3.146  14.572  0.4407  3.0797 -1.3875
  890MPD2     N13105   1.844   3.178  14.971 -0.1886  0.9986 -0.3340
  890MPD2    H513106   1.921   3.234  15.007  0.3590 -0.3098  0.5561
  890MPD2    N113107   1.760   3.556  14.688  0.5972  0.0051 -0.1388
  890MPD2    H713108   1.698   3.588  14.615 -2.1687 -1.6577  1.4817
  891MPD2     C13109   4.511   1.969  16.629  0.5575 -0.4046  0.0963
  891MPD2    C113110   4.403   1.900  16.692  0.2780  0.0647  0.5946
  891MPD2    C213111   4.433   1.820  16.800  0.0210 -0.2719 -0.0218
  891MPD2    C313112   4.562   1.797  16.841  0.1036 -0.8782 -0.3187
  891MPD2    C413113   4.666   1.842  16.762  0.3450 -0.2971 -0.1105
  891MPD2    C513114   4.636   1.933  16.665  0.1943  0.1019 -0.5558
  891MPD2     H13115   4.356   1.777  16.863 -1.2191 -1.4422 -2.3376
  891MPD2    H113116   0.031   1.818  16.779  0.3440 -1.3145 -1.4492
  891MPD2    H213117   4.507   2.047  16.554 -1.4014  2.0376  2.7477
  891MPD2    H313118   4.711   1.978  16.602  1.0092  0.8984  0.9783
  891MPD2     N13119   4.577   1.719  16.959 -0.3614  0.5827 -0.5907
  891MPD2    H513120   4.490   1.708  17.010  1.2906  1.3951  2.3773
  891MPD2    N113121   4.272   1.916  16.635  0.4418  0.0524  0.2246
  891MPD2    H713122   4.263   1.965  16.547  2.5140 -1.6288 -0.9296
  892MPD2     C13123   0.947   3.095  14.465 -0.7119 -0.4340 -0.0367
  892MPD2    C113124   0.855   3.005  14.515 -0.0224  0.0509 -0.0391
  892MPD2    C213125   0.892   2.879  14.556 -1.2623  0.2302  0.6892
  892MPD2    C313126   1.021   2.837  14.522 -0.5060  0.2462 -0.0334
  892MPD2    C413127   1.109   2.930  14.470 -0.4203 -0.3214 -0.6221
  892MPD2    C513128   1.071   3.055  14.437  0.1594 -0.4425 -0.1228
  892MPD2     H13129   0.828   2.805  14.603 -0.9789 -0.1366  0.5011
  892MPD2    H113130   1.211   2.897  14.453  0.3525  0.4835  2.4801
  892MPD2    H213131   0.920   3.194  14.431 -0.6492  0.1230  1.5590
  892MPD2    H313132   1.139   3.129  14.396 -1.3033  1.5370  1.0528
  892MPD2     N13133   1.078   2.705  14.538 -0.4974 -0.2949 -0.0269
  892MPD2    H513134   1.169   2.684  14.498 -1.0939 -0.4887 -1.2979
  892MPD2    N113135   0.722   3.033  14.551 -0.5218  0.3615 -0.0966
  892MPD2    H713136   0.673   2.962  14.605  1.8668 -2.7631 -2.0116
  893MPD2     C13137   2.725   0.430   1.848  0.4448  0.3890  0.8284
  893MPD2    C113138   2.853   0.464   1.809  0.4685  0.1917  0.5450
  893MPD2    C213139   2.950   0.361   1.801 -0.2886 -0.2557 -0.1469
  893MPD2    C313140   2.918   0.229   1.818  0.3817  0.3637  0.7598
  893MPD2    C413141   2.785   0.200   1.849  0.1736 -0.4844 -0.1734
  893MPD2    C513142   2.695   0.298   1.863 -0.0186 -0.1268 -0.3352
  893MPD2     H13143   3.052   0.380   1.769 -0.2602  1.2870  0.8577
  893MPD2    H113144   2.756   0.096   1.856 -0.3012 -0.4138 -1.0931
  893MPD2    H213145   2.649   0.507   1.856 -1.8599 -1.6036 -1.5027
  893MPD2    H313146   2.603   0.259   1.904 -0.5162  1.8865  0.4344
  893MPD2     N13147   3.010   0.119   1.813 -0.1946  0.2310  0.1749
  893MPD2    H513148   2.953   0.035   1.817 -1.4578  0.9472 -2.4146
  893MPD2    N113149   2.877   0.595   1.765  0.2375  0.3925  0.0726
  893MPD2    H713150   2.802   0.662   1.752 -1.0166 -1.0958 -0.3075
  894MPD2     C13151   0.053   2.698   0.964 -0.4211 -0.1495 -0.3352
  894MPD2    C113152   4.730   2.797   1.033  0.2891 -0.3858  0.4066
  894MPD2    C213153   0.021   2.935   1.007 -0.3473  0.9473  0.3417
  894MPD2    C313154   0.104   2.965   0.902 -0.3859  0.8285  0.0712
  894MPD2    C413155   0.163   2.861   0.829  0.0284  0.4350  0.3653
  894MPD2    C513156   0.141   2.729   0.872  0.2843  0.1090  0.1016
  894MPD2     H13157   4.716   3.013   1.068 -2.7250 -0.6537  0.6902
  894MPD2    H113158   0.239   2.875   0.753 -1.0007 -0.8389 -0.8931
  894MPD2    H213159   0.042   2.592   0.986 -0.6044  0.1758  1.1123
  894MPD2    H313160   0.195   2.643   0.833  2.1235  1.6480 -0.7834
  894MPD2     N13161   0.152   3.101   0.878 -0.0294 -0.5606 -0.1541
  894MPD2    H513162   0.122   3.174   0.943  2.4581  1.6080 -1.4484
  894MPD2    N113163   4.631   2.771   1.129  0.1544  0.8122 -0.8673
  894MPD2    H713164   4.593   2.850   1.180 -0.1004  0.6189 -0.7594
  895MPD2     C13165   0.237   2.247  12.693 -0.4180 -0.5447 -0.1024
  895MPD2    C113166   0.237   2.344  12.786  0.6181  0.1354 -0.3437
  895MPD2    C213167   0.112   2.397  12.825  0.0387  1.1543 -0.2361
  895MPD2    C313168   4.733   2.354  12.761 -0.0222  0.2431  0.0496
  895MPD2    C413169   0.006   2.265  12.658 -0.0871 -1.0753  0.5389
  895MPD2    C513170   0.128   2.212  12.626  0.0677  0.3775 -0.4963
  895MPD2     H13171   0.123   2.481  12.892 -0.4177 -0.1641  1.5201
  895MPD2    H113172   4.664   2.231  12.595  0.7907 -1.4352 -0.3930
  895MPD2    H213173   0.326   2.198  12.655 -1.0226 -1.2594 -0.5993
  895MPD2    H313174   0.131   2.144  12.542 -1.7504 -1.3454  0.8404
  895MPD2     N13175   4.603   2.402  12.795 -0.3349  0.5667 -0.2600
  895MPD2    H513176   4.524   2.373  12.739  0.4949 -1.6219 -0.2928
  895MPD2    N113177   0.349   2.391  12.848 -0.1707 -0.2479  0.0278
  895MPD2    H713178   0.326   2.461  12.917  2.3086  0.5516  0.0621
  896MPD2     C13179   1.635   4.695   1.208 -0.1845 -0.0257  0.0306
  896MPD2    C113180   1.678   4.605   1.112 -0.4793 -0.2769 -0.0954
  896MPD2    C213181   1.594   4.498   1.084 -0.6298  0.3595  0.0247
  896MPD2    C313182   1.466   4.488   1.140  1.4220 -0.0571  0.1888
  896MPD2    C413183   1.431   4.582   1.232  0.1957  0.8844  0.0814
  896MPD2    C513184   1.516   4.682   1.277 -0.4976 -0.4478 -0.2657
  896MPD2     H13185   1.621   4.423   1.011  0.3891  0.9493 -0.2082
  896MPD2    H113186   1.337   4.573   1.284  0.5772  0.5961  0.7351
  896MPD2    H213187   1.702   0.038   1.230  0.7022 -1.5844  3.0738
  896MPD2    H313188   1.468   0.006   1.351  2.2462  1.0767  0.2460
  896MPD2     N13189   1.383   4.393   1.094  1.0034 -0.8141  0.1097
  896MPD2    H513190   1.421   4.332   1.022 -0.4980  0.6106 -1.8828
  896MPD2    N113191   1.805   4.632   1.058  0.1361 -0.7856 -0.2455
  896MPD2    H713192   1.865   4.706   1.093 -1.1545  0.2850 -0.3157
  897MPD2     C13193   3.766   1.529  10.713 -0.3821 -0.1891 -0.2241
  897MPD2    C113194   3.676   1.558  10.610 -0.1719 -0.2579 -0.3121
  897MPD2    C213195   3.553   1.491  10.607 -0.1574 -0.3264 -0.3428
  897MPD2    C313196   3.524   1.397  10.704 -0.4028 -0.3474  0.3868
  897MPD2    C413197   3.617   1.368  10.799 -0.6619 -0.5041 -0.5289
  897MPD2    C513198   3.739   1.430  10.808  0.0195  0.0996 -0.6188
  897MPD2     H13199   3.479   1.520  10.533 -1.3243 -1.7248  0.2841
  897MPD2    H113200   3.590   1.307  10.884  1.4581 -3.8716 -2.2287
  897MPD2    H213201   3.857   1.587  10.727 -0.2571  0.0551 -2.0156
  897MPD2    H313202   3.809   1.404  10.887  0.6281 -0.5669 -1.3686
  897MPD2     N13203   3.395   1.343  10.703  0.4004 -1.0187  0.1265
  897MPD2    H513204   3.323   1.383  10.643 -0.9491  0.3635  2.6829
  897MPD2    N113205   3.705   1.662  10.513  0.3613  0.4756  0.4632
  897MPD2    H713206   3.791   1.713  10.528 -0.5537  2.2544 -0.3647
  898MPD2     C13207   0.278   1.693   0.440 -0.1134 -0.5323  0.2605
  898MPD2    C113208   0.216   1.658   0.318 -0.2071 -0.8796  0.0636
  898MPD2    C213209   0.212   1.749   0.220  0.1284  0.3618 -0.4035
  898MPD2    C313210   0.258   1.879   0.241 -0.0941  0.0807 -0.0506
  898MPD2    C413211   0.310   1.912   0.367 -0.3358  0.3379 -0.3787
  898MPD2    C513212   0.314   1.818   0.462  0.4812  0.5063 -0.4007
  898MPD2     H13213   0.172   1.730   0.121  0.9796  1.9743 -1.0576
  898MPD2    H113214   0.339   2.015   0.384 -0.3923  0.5186 -1.3782
  898MPD2    H213215   0.284   1.624   0.523 -1.4801 -0.0410  0.7747
  898MPD2    H313216   0.347   1.845   0.562  1.4254  0.8599 -0.8112
  898MPD2     N13217   0.227   1.969   0.136  0.4008  0.0065  0.5552
  898MPD2    H513218   0.167   1.928   0.066  1.6565  0.4230 -0.7755
  898MPD2    N113219   0.185   1.525   0.276  0.5171  0.0463  0.2222
  898MPD2    H713220   0.149   1.527   0.181  1.1608  2.3000  0.0225
  899MPD2     C13221   1.652   3.321  17.241 -0.3490 -0.6873 -0.0324
  899MPD2    C113222   1.524   3.307  17.200 -0.2761 -0.4656  0.4988
  899MPD2    C213223   1.458   3.192  17.239 -0.7049 -0.2322  0.0203
  899MPD2    C313224   1.500   3.111  17.341 -0.5872  0.1492 -0.3047
  899MPD2    C413225   1.625   3.141  17.391 -0.5485  0.0606  0.0865
  899MPD2    C513226   1.696   3.244  17.343 -0.2413 -0.0902  0.5816
  899MPD2     H13227   1.364   3.170  17.189 -0.5593 -1.2421  0.2104
  899MPD2    H113228   1.663   3.081  17.473 -1.8663 -1.4713 -0.4310
  899MPD2    H213229   1.725   3.391  17.202 -1.2545 -0.5471 -1.4796
  899MPD2    H313230   1.797   3.262  17.378 -0.3299  1.5693 -0.0104
  899MPD2     N13231   1.416   3.005  17.383  0.1753  0.3425 -0.0485
  899MPD2    H513232   1.326   3.002  17.336  0.4709  0.4212 -0.6178
  899MPD2    N113233   1.494   3.377  17.084 -0.4155  0.5266  0.4023
  899MPD2    H713234   1.543   3.465  17.075 -2.8297  1.4015 -4.3260
  900MPD2     C13235   0.956   0.074  12.178 -0.1560 -0.0922 -0.9972
  900MPD2    C113236   0.907   4.725  12.268 -0.0055 -0.2286  0.0502
  900MPD2    C213237   0.793   0.030  12.334 -0.1340 -0.0284  0.2866
  900MPD2    C313238   0.724   0.143  12.297 -0.1529  0.8052  0.9574
  900MPD2    C413239   0.771   0.221  12.192 -0.8829 -0.6401 -0.6453
  900MPD2    C513240   0.890   0.186  12.135  0.2102  0.8538 -0.4425
  900MPD2     H13241   0.757   4.719  12.422  0.9107 -0.2565  0.5887
  900MPD2    H113242   0.717   0.309  12.157 -0.7114  0.1842  1.1387
  900MPD2    H213243   1.050   0.065  12.124 -0.4426  0.7277 -1.6422
  900MPD2    H313244   0.929   0.248  12.056  0.4882  0.5324 -0.5577
  900MPD2     N13245   0.611   0.186  12.363 -0.7366  0.3639 -0.1340
  900MPD2    H513246   0.587   0.141  12.451 -1.7087 -1.5554 -1.3639
  900MPD2    N113247   0.980   4.608  12.311  0.4441  0.2865  0.2074
  900MPD2    H713248   1.072   4.607  12.268  0.1523  1.4918 -0.4365
  901MPD2     C13249   1.405   4.020  13.145  0.2617  1.1661  0.1856
  901MPD2    C113250   1.428   3.976  13.016 -0.0753  0.2466  0.8047
  901MPD2    C213251   1.372   4.042  12.906 -0.0229  0.6848 -0.3206
  901MPD2    C313252   1.280   4.146  12.918  0.0166  0.4907  0.2791
  901MPD2    C413253   1.259   4.194  13.048  0.2311 -0.3635  0.8549
  901MPD2    C513254   1.316   4.125  13.155  1.1442 -0.1578  0.6678
  901MPD2     H13255   1.395   4.014  12.803 -1.2432 -0.2564 -0.3317
  901MPD2    H113256   1.195   4.277  13.074 -0.1689  0.1339 -1.7847
  901MPD2    H213257   1.450   3.979  13.234 -0.6396 -2.3084 -0.9200
  901MPD2    H313258   1.287   4.168  13.250 -0.4096  0.0017  0.1257
  901MPD2     N13259   1.235   4.210  12.799  0.3562  0.2100 -0.6328
  901MPD2    H513260   1.279   4.180  12.713 -1.1296 -0.9654 -0.9698
  901MPD2    N113261   1.521   3.867  13.006  0.3928 -0.5679 -0.7815
  901MPD2    H713262   1.565   3.828  13.089  0.0919 -0.6464 -0.6580
  902MPD2     C13263   0.845   2.995  12.496 -0.5164  0.1348 -0.6785
  902MPD2    C113264   0.807   3.022  12.367 -0.4717  0.3274 -1.0298
  902MPD2    C213265   0.848   2.939  12.263 -0.1827 -0.6005 -0.1986
  902MPD2    C313266   0.924   2.828  12.284 -0.6952 -0.2614 -0.1754
  902MPD2    C413267   0.946   2.787  12.408 -0.6414 -0.4545 -0.8022
  902MPD2    C513268   0.920   2.876  12.515 -0.5150 -0.6701  0.2007
  902MPD2     H13269   0.800   2.948  12.166  0.3667  0.4565 -0.3700
  902MPD2    H113270   0.990   2.691  12.430  0.4203 -0.0524 -1.1809
  902MPD2    H213271   0.819   3.057  12.581 -1.0334  1.9131 -2.1512
  902MPD2    H313272   0.951   2.852  12.616 -0.9446  3.5089  1.3554
  902MPD2     N13273   0.930   2.727  12.180 -0.2739  0.1782  0.3503
  902MPD2    H513274   0.928   2.634  12.220  1.2756  0.1806  0.4420
  902MPD2    N113275   0.713   3.123  12.343 -0.1769 -0.1650 -0.0244
  902MPD2    H713276   0.669   3.152  12.430 -1.1588  1.3155 -0.9943
  903MPD2     C13277   0.573   2.627  11.353 -0.7458  0.0878  0.0806
  903MPD2    C113278   0.535   2.631  11.480 -0.5941  0.4144  0.1564
  903MPD2    C213279   0.398   2.640  11.503 -0.0584  0.3427 -1.0691
  903MPD2    C313280   0.304   2.612  11.405 -0.0316  0.1433 -0.1527
  903MPD2    C413281   0.347   2.602  11.273 -0.4119 -0.1169 -0.2752
  903MPD2    C513282   0.481   2.616  11.252  0.2695 -0.3412  0.1265
  903MPD2     H13283   0.358   2.645  11.604  0.4012  1.1225 -0.9279
  903MPD2    H113284   0.279   2.598  11.189 -0.0043  0.8134 -0.6440
  903MPD2    H213285   0.679   2.615  11.332 -0.7807 -2.0013  1.1380
  903MPD2    H313286   0.522   2.607  11.152 -3.1353 -1.6648 -1.1441
  903MPD2     N13287   0.169   2.622  11.451  0.4493 -0.1627  0.4840
  903MPD2    H513288   0.162   2.633  11.552  2.7497  0.3803  0.5793
  903MPD2    N113289   0.632   2.635  11.587  0.2607 -0.1296 -0.5330
  903MPD2    H713290   0.728   2.618  11.559 -0.7598 -1.8459 -2.9319
  904MPD2     C13291   0.461   2.218  13.784 -0.6429  0.0603  0.1274
  904MPD2    C113292   0.403   2.206  13.909 -0.0454  0.7255  1.0444
  904MPD2    C213293   0.492   2.149  13.998  0.2278  0.7270 -0.5480
  904MPD2    C313294   0.618   2.109  13.974 -0.3602  0.0071  0.8674
  904MPD2    C413295   0.662   2.112  13.839 -0.0576 -0.4610 -0.8678
  904MPD2    C513296   0.580   2.168  13.743 -0.1203  0.0090  0.0354
  904MPD2     H13297   0.444   2.129  14.093  0.2943 -0.2789 -0.7229
  904MPD2    H113298   0.762   2.086  13.804  0.6750 -1.1548  1.7542
  904MPD2    H213299   0.408   2.263  13.701  2.6091  1.1341 -1.3691
  904MPD2    H313300   0.601   2.179  13.637 -3.1438  0.5054 -0.4892
  904MPD2     N13301   0.704   2.054  14.075 -0.3189 -0.1289 -0.2239
  904MPD2    H513302   0.668   2.071  14.168  0.0811  0.8368 -0.2449
  904MPD2    N113303   0.271   2.242  13.956 -0.5285 -0.0419 -0.1313
  904MPD2    H713304   0.245   2.207  14.048  2.5414 -1.9786 -0.0145
  905MPD2     C13305   4.527   2.825  13.643 -0.1029  0.1661 -0.1150
  905MPD2    C113306   4.503   2.686  13.645  0.3098  0.3038 -0.2230
  905MPD2    C213307   4.435   2.615  13.541 -0.3264  0.1048 -0.4548
  905MPD2    C313308   4.399   2.686  13.428 -0.2413  0.1528  0.2132
  905MPD2    C413309   4.437   2.818  13.417 -0.0033  0.1116  0.0149
  905MPD2    C513310   4.499   2.892  13.524 -0.7204 -0.0322  0.1906
  905MPD2     H13311   4.395   2.515  13.552  1.3081 -0.4850  0.2045
  905MPD2    H113312   4.416   2.865  13.321  2.9128  1.4177  0.0179
  905MPD2    H213313   4.572   2.875  13.727 -0.5854 -0.1673  0.3428
  905MPD2    H313314   4.522   2.995  13.503  0.9003 -0.0872  1.6646
  905MPD2     N13315   4.363   2.623  13.303  0.2704 -0.4887 -0.5346
  905MPD2    H513316   4.354   2.682  13.221 -2.6800  2.3774  1.7941
  905MPD2    N113317   4.534   2.626  13.768  0.4891  0.0377 -0.0877
  905MPD2    H713318   4.579   2.684  13.838  0.7634 -0.5652  0.2373
  906MPD2     C13319   2.200   1.803  11.182 -0.2539 -0.4079  0.7393
  906MPD2    C113320   2.145   1.703  11.115 -0.0570  0.0501 -0.4450
  906MPD2    C213321   2.067   1.614  11.184  0.2012 -0.2995  0.1952
  906MPD2    C313322   2.047   1.619  11.322 -0.5038  0.9487 -0.1851
  906MPD2    C413323   2.111   1.715  11.391 -0.2347  0.2206 -0.7062
  906MPD2    C513324   2.186   1.811  11.319  0.5252  0.2386  0.3015
  906MPD2     H13325   2.011   1.545  11.121 -0.9283 -0.7319  1.6854
  906MPD2    H113326   2.092   1.730  11.497  2.4972  1.0740 -0.3281
  906MPD2    H213327   2.263   1.880  11.139 -1.3810  0.2109  0.1894
  906MPD2    H313328   2.229   1.901  11.362 -0.6440 -0.1403  2.2407
  906MPD2     N13329   1.944   1.539  11.380  0.4854  0.0994  0.6785
  906MPD2    H513330   1.937   1.539  11.482  1.6577 -3.3115  0.7225
  906MPD2    N113331   2.162   1.681  10.978  0.5982 -0.4482  0.4351
  906MPD2    H713332   2.124   1.597  10.936  1.7984 -0.3015 -0.9478
  907MPD2     C13333   1.333   0.767  15.847 -0.9738  0.1769 -0.1054
  907MPD2    C113334   1.300   0.629  15.833 -0.7125  1.0033 -0.1831
  907MPD2    C213335   1.376   0.541  15.899 -0.0141 -0.5929  0.5504
  907MPD2    C313336   1.482   0.578  15.978  0.0277  1.0600  0.0716
  907MPD2    C413337   1.512   0.711  15.998  0.2279  0.1079  0.2777
  907MPD2    C513338   1.436   0.799  15.927 -0.4731 -0.4594  0.2771
  907MPD2     H13339   1.348   0.437  15.898  0.9034 -0.8216 -2.1434
  907MPD2    H113340   1.584   0.757  16.064  0.6626  0.1036 -0.1900
  907MPD2    H213341   1.283   0.850  15.799  0.4285  0.4803 -1.0389
  907MPD2    H313342   1.436   0.907  15.928  0.7151 -0.4467 -1.1834
  907MPD2     N13343   1.531   0.483  16.066  0.3640  0.6868  0.4200
  907MPD2    H513344   1.495   0.389  16.053  0.9881  0.3323  1.2368
  907MPD2    N113345   1.187   0.590  15.753  0.0486  0.0730 -0.1404
  907MPD2    H713346   1.162   0.492  15.754  0.2464  0.0053 -2.8168
  908MPD2     C13347   3.857   1.486   9.511 -0.1649 -0.5702 -0.0128
  908MPD2    C113348   3.773   1.424   9.601 -0.9366  0.6312  0.5248
  908MPD2    C213349   3.742   1.485   9.720 -0.2139 -0.5096 -0.0284
  908MPD2    C313350   3.801   1.600   9.761 -0.1932  0.0506 -1.0888
  908MPD2    C413351   3.895   1.657   9.677 -0.0057  0.3989  0.3032
  908MPD2    C513352   3.920   1.599   9.557  0.6365 -0.0648  0.1562
  908MPD2     H13353   3.674   1.449   9.796 -1.3709 -0.8306 -1.2317
  908MPD2    H113354   3.950   1.745   9.709  1.0815  0.4765 -1.7827
  908MPD2    H213355   3.891   1.453   9.413  0.8994 -0.0882  0.1972
  908MPD2    H313356   3.999   1.635   9.492  0.1203  0.3320 -0.2585
  908MPD2     N13357   3.765   1.655   9.884 -0.8928  0.3801  0.2516
  908MPD2    H513358   3.695   1.609   9.941  0.4423 -0.4039  1.2505
  908MPD2    N113359   3.693   1.306   9.566  0.1852 -0.1569  0.0321
  908MPD2    H713360   3.623   1.280   9.634 -0.1463  1.1366  0.1711
  909MPD2     C13361   3.959   4.157  11.572 -0.1101  0.7167 -0.7119
  909MPD2    C113362   3.952   4.291  11.550  0.2293 -1.3004  0.1241
  909MPD2    C213363   3.875   4.366  11.632 -0.7818 -0.4690 -0.2468
  909MPD2    C313364   3.818   4.315  11.748  0.1217 -0.0550  0.0001
  909MPD2    C413365   3.806   4.180  11.767  0.0941  0.4288 -0.2399
  909MPD2    C513366   3.888   4.109  11.681  0.4774 -0.0450  1.0155
  909MPD2     H13367   3.847   4.469  11.611 -2.2923 -0.8051  0.0954
  909MPD2    H113368   3.732   4.133  11.830  0.8622 -2.4782 -1.4927
  909MPD2    H213369   4.008   4.083  11.510 -0.6938 -0.8099  0.6467
  909MPD2    H313370   3.881   4.001  11.687 -1.0443  0.1119  1.8702
  909MPD2     N13371   3.751   4.414  11.827 -0.1167 -0.2396 -0.5133
  909MPD2    H513372   3.761   4.510  11.796 -0.8657 -0.6564 -2.0610
  909MPD2    N113373   4.017   4.349  11.436 -0.1314 -0.4979 -0.1465
  909MPD2    H713374   4.018   4.450  11.435  2.7634 -0.5083 -0.1981
  910MPD2     C13375   4.733   1.433  16.596 -0.3524 -0.3606  0.7652
  910MPD2    C113376   0.059   1.335  16.530  0.1854  0.0137  0.0682
  910MPD2    C213377   0.060   1.336  16.389  1.0421  0.1716  0.2714
  910MPD2    C313378   4.724   1.437  16.324 -0.3228  0.3451 -0.2166
  910MPD2    C413379   4.654   1.527  16.401  0.1954  0.1392  0.3934
  910MPD2    C513380   4.658   1.531  16.538  0.2443 -0.0616  0.4321
  910MPD2     H13381   0.112   1.256  16.338  1.6636  1.0887 -0.5244
  910MPD2    H113382   4.603   1.602  16.341 -1.4229 -1.5722 -0.3685
  910MPD2    H213383   4.728   1.433  16.704  3.4108  3.0801  0.9424
  910MPD2    H313384   4.608   1.598  16.607  2.1907  1.6377  0.1736
  910MPD2     N13385   4.705   1.438  16.187  0.3694  0.0972  0.4105
  910MPD2    H513386   4.627   1.491  16.149  0.1501 -1.6057 -1.5368
  910MPD2    N113387   0.132   1.235  16.598  0.3489  0.2834  0.3147
  910MPD2    H713388   0.175   1.168  16.535  1.0045  0.6168  0.4056
  911MPD2     C13389   2.747   1.690  16.064  0.5630  0.2073 -0.0744
  911MPD2    C113390   2.772   1.726  16.190 -0.2398 -0.1636 -0.1586
  911MPD2    C213391   2.714   1.845  16.236 -0.2766 -0.0460  0.3475
  911MPD2    C313392   2.632   1.920  16.151 -0.0579 -0.5028 -0.0361
  911MPD2    C413393   2.626   1.887  16.020 -0.1847  0.2395 -0.4730
  911MPD2    C513394   2.680   1.767  15.972  0.6777 -1.5339 -0.3192
  911MPD2     H13395   2.733   1.875  16.339  2.8989  2.3887 -0.9310
  911MPD2    H113396   2.567   1.940  15.946 -0.4944 -0.3051 -0.6203
  911MPD2    H213397   2.793   1.599  16.027 -1.2656 -0.7840  0.0860
  911MPD2    H313398   2.665   1.745  15.867  1.8648  0.5603 -0.9321
  911MPD2     N13399   2.568   2.042  16.192 -0.1085 -0.6642  0.0546
  911MPD2    H513400   2.510   2.088  16.122  2.4829 -0.6818 -2.0966
  911MPD2    N113401   2.857   1.635  16.256 -0.3739 -0.8167 -0.4352
  911MPD2    H713402   2.900   1.559  16.205 -0.8318 -0.6083 -1.1287
  912MPD2     C13403   2.282   1.959  15.789  0.3353 -0.0811 -0.5954
  912MPD2    C113404   2.245   1.946  15.919 -0.6888  0.1333 -1.0224
  912MPD2    C213405   2.235   1.817  15.967  0.2055 -0.2533  0.2433
  912MPD2    C313406   2.244   1.704  15.892 -0.0127  0.2121  0.0094
  912MPD2    C413407   2.286   1.717  15.760 -0.1335 -0.1625  0.0547
  912MPD2    C513408   2.308   1.843  15.719 -0.8048  0.8339 -0.6088
  912MPD2     H13409   2.208   1.804  16.071 -1.7237 -0.1238 -0.2384
  912MPD2    H113410   2.299   1.634  15.692  0.7754 -0.9962  1.2577
  912MPD2    H213411   2.301   2.050  15.732  2.1538  0.0541  0.2359
  912MPD2    H313412   2.341   1.856  15.617 -0.8920  1.3511 -0.5669
  912MPD2     N13413   2.216   1.576  15.953  0.3306  0.2467  0.0095
  912MPD2    H513414   2.186   1.581  16.050 -0.5398 -1.2989 -0.1977
  912MPD2    N113415   2.246   2.059  15.999 -0.0489 -0.0794 -0.2382
  912MPD2    H713416   2.265   2.144  15.947 -0.6563  0.1103 -0.1496
  913MPD2     C13417   3.891   3.884  10.763 -0.2636 -0.0578  0.0132
  913MPD2    C113418   3.753   3.881  10.766 -0.3856  0.2142  0.2427
  913MPD2    C213419   3.680   3.947  10.664  0.2594  0.5577  0.1667
  913MPD2    C313420   3.752   4.006  10.556 -0.4134  0.0706 -0.1196
  913MPD2    C413421   3.890   4.015  10.562 -0.1296  0.5667 -1.0386
  913MPD2    C513422   3.958   3.948  10.665 -0.5346 -0.1597  0.1446
  913MPD2     H13423   3.573   3.936  10.653  0.1776  0.5359  0.9964
  913MPD2    H113424   3.939   4.066  10.480  0.2010 -2.2713 -2.6478
  913MPD2    H213425   3.952   3.826  10.832  0.4803 -1.3760 -1.7222
  913MPD2    H313426   4.065   3.968  10.666 -0.6602  0.5440 -0.3688
  913MPD2     N13427   3.696   4.074  10.446 -0.3515 -0.3689  0.2776
  913MPD2    H513428   3.760   4.109  10.375  0.5532 -1.8158  0.3901
  913MPD2    N113429   3.689   3.815  10.878  0.2597 -0.1603  0.1332
  913MPD2    H713430   3.749   3.781  10.953  0.4902 -0.1941 -0.0657
  914MPD2     C13431   1.527   3.595  12.140  1.1893  0.6066 -0.5824
  914MPD2    C113432   1.464   3.679  12.235  0.1761 -0.5693  0.7269
  914MPD2    C213433   1.533   3.699  12.357  0.1279  0.2468 -0.3231
  914MPD2    C313434   1.641   3.618  12.394 -0.0570 -0.2548 -0.1823
  914MPD2    C413435   1.680   3.515  12.314  0.0126  0.4145  0.1343
  914MPD2    C513436   1.629   3.519  12.184 -0.2478  0.1030 -0.1562
  914MPD2     H13437   1.492   3.762  12.434 -1.7327  0.5518 -1.5516
  914MPD2    H113438   1.750   3.437  12.343  0.6970  1.2330  0.6561
  914MPD2    H213439   1.485   3.583  12.041 -0.6027 -1.4257  0.4285
  914MPD2    H313440   1.665   3.438  12.122  3.7279  1.9584 -0.3087
  914MPD2     N13441   1.675   3.633  12.528  0.1689  0.3995  0.3561
  914MPD2    H513442   1.624   3.701  12.582  0.0599 -0.1862  0.9934
  914MPD2    N113443   1.345   3.742  12.191 -0.0346  0.5656  0.4371
  914MPD2    H713444   1.309   3.710  12.101 -1.3170  1.1622  0.7401
  915MPD2     C13445   4.251   3.143  15.722 -0.1454  0.3324  0.6246
  915MPD2    C113446   4.193   3.255  15.664  0.7791 -0.0419  0.3558
  915MPD2    C213447   4.112   3.347  15.730 -0.2738  0.4881  0.5804
  915MPD2    C313448   4.090   3.322  15.866 -0.3846 -0.2524 -0.4552
  915MPD2    C413449   4.137   3.200  15.926 -0.1692 -0.4857  0.4871
  915MPD2    C513450   4.217   3.114  15.854 -0.6962  0.4382 -0.3163
  915MPD2     H13451   4.069   3.436  15.685  0.0769 -0.1896 -1.1037
  915MPD2    H113452   4.128   3.166  16.029 -1.1051  1.8790  1.2097
  915MPD2    H213453   4.318   3.078  15.666 -1.3007 -2.4891  2.5041
  915MPD2    H313454   4.272   3.028  15.892 -1.6426 -0.6067 -1.2974
  915MPD2     N13455   4.016   3.423  15.940 -0.0418 -0.1080  0.5628
  915MPD2    H513456   3.977   3.500  15.887  1.9477  0.6937  0.2507
  915MPD2    N113457   4.228   3.274  15.529 -0.3516  0.0052 -0.5587
  915MPD2    H713458   4.293   3.204  15.495 -0.1085 -1.2292  2.4385
  916MPD2     C13459   1.978   1.528  15.693  0.6454  0.3767  0.8578
  916MPD2    C113460   1.974   1.396  15.730  0.1133  0.3411 -0.5573
  916MPD2    C213461   2.045   1.306  15.654 -0.8201  0.6154  0.0743
  916MPD2    C313462   2.129   1.349  15.551  0.0792  0.3825 -0.1757
  916MPD2    C413463   2.139   1.480  15.522  0.2951  0.7890 -0.2147
  916MPD2    C513464   2.057   1.568  15.586  0.3786 -0.0200 -0.1378
  916MPD2     H13465   2.052   1.200  15.678  0.5292  0.8380  0.6334
  916MPD2    H113466   2.212   1.516  15.450  2.3082 -1.7277  0.5524
  916MPD2    H213467   1.923   1.609  15.741  0.1694  0.3567  0.3609
  916MPD2    H313468   2.072   1.674  15.566  1.6362 -0.1733 -0.0490
  916MPD2     N13469   2.197   1.247  15.482  0.0567  0.3349  0.2822
  916MPD2    H513470   2.169   1.151  15.499 -1.5074  0.5398 -1.1362
  916MPD2    N113471   1.890   1.355  15.838  0.3032  0.1464  0.0786
  916MPD2    H713472   1.838   1.426  15.889 -1.5640 -2.1481  1.3380
  917MPD2     C13473   2.334   4.051  11.340  0.5378  0.3634 -0.0026
  917MPD2    C113474   2.330   4.113  11.463  0.5291  0.0651 -0.4294
  917MPD2    C213475   2.333   4.255  11.467  0.4159  0.6121 -0.0263
  917MPD2    C313476   2.356   4.324  11.352 -0.0530 -1.0197  0.1630
  917MPD2    C413477   2.363   4.263  11.232  0.1467  0.3861 -0.3045
  917MPD2    C513478   2.350   4.127  11.225 -0.2328  0.2557  0.5917
  917MPD2     H13479   2.354   4.302  11.562  1.2930 -1.4159  0.7851
  917MPD2    H113480   2.372   4.327  11.145 -0.0478 -0.1445 -0.7138
  917MPD2    H213481   2.340   3.943  11.342 -2.3385  0.2027  0.4319
  917MPD2    H313482   2.340   4.069  11.134  1.6999  0.5900  0.1584
  917MPD2     N13483   2.391   4.457  11.353 -0.1633 -0.1925 -0.7587
  917MPD2    H513484   2.423   4.486  11.261 -0.8587  0.6611 -0.7378
  917MPD2    N113485   2.326   4.031  11.580  0.5361 -0.4355  0.1593
  917MPD2    H713486   2.322   3.931  11.563 -1.4706  0.1490 -2.9238
  918MPD2     C13487   2.356   4.261  12.562  0.4114  0.1333 -0.3375
  918MPD2    C113488   2.455   4.196  12.490 -0.2034  0.7716 -0.3860
  918MPD2    C213489   2.424   4.134  12.370 -0.1936 -0.0481 -0.0311
  918MPD2    C313490   2.301   4.151  12.312  0.2554  0.2551  0.3329
  918MPD2    C413491   2.212   4.227  12.377 -0.1184  0.5104 -0.2243
  918MPD2    C513492   2.243   4.287  12.493  0.0418  0.2198  0.0115
  918MPD2     H13493   2.487   4.065  12.315 -0.9247  0.2082 -1.2173
  918MPD2    H113494   2.110   4.242  12.344 -0.0587 -0.2368 -0.7230
  918MPD2    H213495   2.366   4.304  12.661  2.8824  0.5622 -0.7697
  918MPD2    H313496   2.177   4.352  12.550  0.7264 -1.1281  2.3659
  918MPD2     N13497   2.261   4.087  12.194  0.5906  0.0607 -0.5652
  918MPD2    H513498   2.171   4.098  12.147 -0.4460 -0.4997  1.2757
  918MPD2    N113499   2.584   4.190  12.546  0.2486 -0.0111  0.0045
  918MPD2    H713500   2.654   4.128  12.506 -0.2279 -0.3059 -0.3757
  919MPD2     C13501   3.453   3.049  11.969  0.4203  0.0804 -0.4829
  919MPD2    C113502   3.332   2.983  11.951 -0.4435  0.3676 -0.2447
  919MPD2    C213503   3.228   3.065  11.909 -0.2173 -0.1494  0.3744
  919MPD2    C313504   3.238   3.195  11.861 -0.0131 -0.4056 -0.0381
  919MPD2    C413505   3.358   3.262  11.892 -0.3946 -0.5336 -0.1335
  919MPD2    C513506   3.459   3.184  11.956 -0.1959  0.0602  0.3783
  919MPD2     H13507   3.135   3.017  11.883 -0.1319 -1.7393  3.0208
  919MPD2    H113508   3.374   3.367  11.869 -2.5146 -0.5692 -1.7863
  919MPD2    H213509   3.547   3.015  12.012 -0.0071  0.7105  0.9387
  919MPD2    H313510   3.554   3.232  11.981  1.6441 -3.5102  0.1959
  919MPD2     N13511   3.140   3.259  11.778 -0.4145 -0.0087  0.4333
  919MPD2    H513512   3.162   3.351  11.743 -1.9719  0.1901 -0.0512
  919MPD2    N113513   3.317   2.845  11.975 -0.6068  0.4644 -0.2615
  919MPD2    H713514   3.222   2.808  11.972 -0.9310  1.2999 -0.1749
  920MPD2     C13515   3.109   3.893  11.095  0.7820  0.0893 -0.9694
  920MPD2    C113516   3.013   3.795  11.064  0.1851  0.2182 -0.3842
  920MPD2    C213517   2.953   3.727  11.167 -0.8154 -0.1067  0.0561
  920MPD2    C313518   2.989   3.741  11.295  0.2045 -0.4366  0.4592
  920MPD2    C413519   3.081   3.844  11.329 -0.8640  0.0040 -0.6234
  920MPD2    C513520   3.145   3.915  11.227 -0.4396  0.5906 -0.3549
  920MPD2     H13521   2.879   3.652  11.143 -0.0621 -0.7505 -0.2121
  920MPD2    H113522   3.106   3.856  11.434 -2.8936  0.4618 -0.1914
  920MPD2    H213523   3.149   3.944  11.009  2.4601 -0.5982 -0.6020
  920MPD2    H313524   3.228   3.983  11.245 -0.2847 -0.5165  3.1434
  920MPD2     N13525   2.932   3.649  11.385  0.3370 -0.2218 -0.4372
  920MPD2    H513526   2.867   3.583  11.344 -0.5062  1.1910 -1.3847
  920MPD2    N113527   2.979   3.752  10.931 -0.0423 -0.1833 -0.1159
  920MPD2    H713528   2.915   3.674  10.914  2.2546 -2.1007  0.0339
  921MPD2     C13529   3.509   1.877  16.943  0.3036  0.0571 -0.1336
  921MPD2    C113530   3.525   1.830  16.816  0.3171  0.5817  0.8113
  921MPD2    C213531   3.436   1.741  16.766  0.2215 -0.2599 -0.5305
  921MPD2    C313532   3.323   1.704  16.832  0.0301 -0.0729  0.7912
  921MPD2    C413533   3.307   1.758  16.961  1.1003 -0.3932  0.1001
  921MPD2    C513534   3.396   1.837  17.017 -0.1455  1.1958  0.1809
  921MPD2     H13535   3.450   1.720  16.660 -0.2249 -1.3433 -0.3734
  921MPD2    H113536   3.213   1.736  17.009  0.8367 -1.1844 -0.7702
  921MPD2    H213537   3.577   1.949  16.987  0.5194  1.4429 -2.7800
  921MPD2    H313538   3.381   1.880  17.115 -0.5499  1.0334  0.1896
  921MPD2     N13539   3.227   1.623  16.780 -0.0953  0.7659  0.1668
  921MPD2    H513540   3.140   1.607  16.829 -0.5824  0.6085 -0.7610
  921MPD2    N113541   3.645   1.881  16.751 -0.0211 -0.6915 -0.5078
  921MPD2    H713542   3.699   1.955  16.795  0.3254 -0.0410 -2.0299
  922MPD2     C13543   4.073   4.183  17.287  0.3178  0.2660  0.6006
  922MPD2    C113544   3.941   4.210  17.329  0.3966 -0.0193  0.3681
  922MPD2    C213545   3.841   4.127  17.290  0.5141  0.4644 -0.5029
  922MPD2    C313546   3.868   4.014  17.218 -0.5332 -0.5560 -0.5172
  922MPD2    C413547   3.997   3.984  17.183 -0.7366  1.1230  0.4860
  922MPD2    C513548   4.098   4.072  17.212 -0.0738  0.3456  0.0693
  922MPD2     H13549   3.743   4.152  17.328 -0.6866  1.3158 -4.1555
  922MPD2    H113550   4.028   3.893  17.134  0.8138  2.4942 -1.0837
  922MPD2    H213551   4.153   4.246  17.323 -0.8011  0.2489  3.1295
  922MPD2    H313552   4.198   4.053  17.173 -0.2407  1.7083 -1.0058
  922MPD2     N13553   3.749   3.949  17.169  0.2587  0.0967 -0.8877
  922MPD2    H513554   3.663   3.996  17.194 -0.5331 -1.4709 -0.6966
  922MPD2    N113555   3.910   4.317  17.422  0.0694  0.3894 -0.3357
  922MPD2    H713556   3.824   4.321  17.475  0.5046 -0.7133  0.4374
  923MPD2     C13557   1.901   1.379   9.027  0.2351  0.2214  0.1528
  923MPD2    C113558   1.880   1.479   9.126 -0.6523 -0.4074  0.8916
  923MPD2    C213559   1.977   1.508   9.219  0.2765  0.2666 -0.0575
  923MPD2    C313560   2.092   1.433   9.211 -0.6654  0.4493 -0.2425
  923MPD2    C413561   2.119   1.342   9.111 -0.3945  0.3235 -0.0676
  923MPD2    C513562   2.021   1.317   9.020 -0.8148  0.5583 -0.1620
  923MPD2     H13563   1.964   1.584   9.296 -0.3038 -0.1973  0.3088
  923MPD2    H113564   2.212   1.285   9.107 -0.0691  0.8406  0.0792
  923MPD2    H213565   1.825   1.345   8.957  0.3877 -1.6551  0.8860
  923MPD2    H313566   2.036   1.237   8.948 -0.0626  1.4741 -1.0345
  923MPD2     N13567   2.202   1.462   9.297  0.2717 -0.1267  0.1692
  923MPD2    H513568   2.289   1.415   9.275 -1.2274 -2.6868 -0.2730
  923MPD2    N113569   1.751   1.544   9.124 -0.2794  0.3395 -0.2630
  923MPD2    H713570   1.681   1.490   9.073  0.5163 -0.2316 -0.7432
  924MPD2     C13571   1.211   4.487  16.462 -0.0243 -0.1649 -1.1714
  924MPD2    C113572   1.241   4.594  16.538 -0.7877  0.5023  0.6783
  924MPD2    C213573   1.354   4.670  16.515 -0.6990  0.4251  0.2239
  924MPD2    C313574   1.442   4.641  16.409  0.0903 -0.2351 -0.0773
  924MPD2    C413575   1.409   4.536  16.322  0.5933 -0.1294 -0.0472
  924MPD2    C513576   1.299   4.461  16.358  0.3393 -0.6333  0.2156
  924MPD2     H13577   1.362   0.020  16.576  1.7441 -0.1575  0.7601
  924MPD2    H113578   1.459   4.526  16.226 -2.2731 -0.4645 -1.5173
  924MPD2    H213579   1.121   4.427  16.464 -1.7714  2.5523  1.1433
  924MPD2    H313580   1.279   4.376  16.294  1.1242  0.8095 -1.9365
  924MPD2     N13581   1.548   4.737  16.390 -0.0698 -0.0021  0.7158
  924MPD2    H513582   1.568   0.066  16.462 -0.7100  3.2307 -2.1422
  924MPD2    N113583   1.149   4.641  16.636 -0.3611  0.1332  0.1645
  924MPD2    H713584   1.173   4.729  16.682  0.4579  0.1138 -0.2289
  925MPD2     C13585   4.570   2.703  14.987 -0.5641 -0.1234 -0.3144
  925MPD2    C113586   4.454   2.749  14.929 -0.3988  0.0821  0.2477
  925MPD2    C213587   4.362   2.794  15.020 -0.1688 -1.2943 -0.5876
  925MPD2    C313588   4.378   2.787  15.156 -1.1714  0.0784 -0.6080
  925MPD2    C413589   4.495   2.748  15.213 -0.0445 -0.4719 -0.0370
  925MPD2    C513590   4.591   2.705  15.125 -0.2754 -0.3939  0.2157
  925MPD2     H13591   4.267   2.829  14.980  1.0678  0.6694 -1.8282
  925MPD2    H113592   4.518   2.749  15.318  1.1030 -0.8085 -0.2868
  925MPD2    H213593   4.644   2.649  14.930 -1.8281 -1.0368 -1.1058
  925MPD2    H313594   4.683   2.659  15.161  0.3441 -0.5370 -1.5326
  925MPD2     N13595   4.261   2.815  15.233 -0.1280  0.1297 -0.1648
  925MPD2    H513596   4.172   2.828  15.186 -1.2003  0.0280  1.8643
  925MPD2    N113597   4.419   2.748  14.787 -0.1392 -0.4796  0.3715
  925MPD2    H713598   4.332   2.796  14.766 -0.7242 -0.6850  2.2710
  926MPD2     C13599   3.555   0.951  13.047  0.8240 -0.6334 -0.0295
  926MPD2    C113600   3.563   1.054  13.138 -0.7547 -0.3101 -0.6994
  926MPD2    C213601   3.616   1.171  13.097 -0.3203 -0.6545  0.1698
  926MPD2    C313602   3.661   1.187  12.973  0.0874  0.0118 -0.3316
  926MPD2    C413603   3.654   1.088  12.884  0.0464 -0.4707  0.7393
  926MPD2    C513604   3.586   0.977  12.919  0.6178  0.5039  0.5907
  926MPD2     H13605   3.639   1.243  13.174  0.0149 -1.8772  1.2123
  926MPD2    H113606   3.683   1.111  12.782 -1.2763  1.7301  0.8550
  926MPD2    H213607   3.520   0.851  13.067  2.4731 -0.9085  1.5184
  926MPD2    H313608   3.578   0.905  12.839  2.1300  0.7987  0.1828
  926MPD2     N13609   3.740   1.300  12.937  0.9808 -0.2099 -0.3033
  926MPD2    H513610   3.780   1.305  12.844 -1.7459 -2.6209 -1.5839
  926MPD2    N113611   3.534   1.035  13.274  0.3305 -0.2476  0.6098
  926MPD2    H713612   3.548   1.114  13.337  1.0113  0.2888 -0.2147
  927MPD2     C13613   2.921   2.958  17.282  0.2215  0.4051 -0.2177
  927MPD2    C113614   2.901   3.099  17.280 -0.2576 -0.1477  0.1319
  927MPD2    C213615   2.881   3.155  17.159 -0.1767  0.9125 -0.6068
  927MPD2    C313616   2.907   3.083  17.040  0.0434 -0.3517  0.1851
  927MPD2    C413617   2.926   2.947  17.045 -0.3679 -0.1184 -0.4066
  927MPD2    C513618   2.934   2.880  17.166  0.4360  0.0889 -0.0066
  927MPD2     H13619   2.852   3.258  17.142  0.6004  1.1165 -0.6980
  927MPD2    H113620   2.943   2.882  16.960 -0.3959 -0.8558  0.1526
  927MPD2    H213621   2.954   2.908  17.372 -1.4830  2.7317  1.7034
  927MPD2    H313622   2.956   2.775  17.174  2.0890  0.4072 -0.4430
  927MPD2     N13623   2.903   3.154  16.918  0.1133 -0.2420 -0.4689
  927MPD2    H513624   2.899   3.255  16.932  1.9624  0.0080 -1.7750
  927MPD2    N113625   2.885   3.170  17.403  0.1860  0.6734  0.7797
  927MPD2    H713626   2.905   3.123  17.491  0.7809 -0.6965 -0.0845
  928MPD2     C13627   0.870   1.612   0.939 -0.4254 -0.4617 -0.5598
  928MPD2    C113628   0.985   1.682   0.977 -0.7704  0.6527 -0.4863
  928MPD2    C213629   1.111   1.628   0.950  0.2352  0.3343  0.4925
  928MPD2    C313630   1.126   1.512   0.876 -0.6427  0.3279 -0.3570
  928MPD2    C413631   1.008   1.452   0.833  0.0118 -0.0787  0.1465
  928MPD2    C513632   0.881   1.493   0.875 -0.2325 -0.1657  0.8607
  928MPD2     H13633   1.200   1.682   0.980 -0.9188  2.2332  0.4758
  928MPD2    H113634   1.013   1.352   0.792 -0.3692 -0.2685  0.5625
  928MPD2    H213635   0.772   1.656   0.944 -0.1948  0.0000 -0.1502
  928MPD2    H313636   0.789   1.447   0.841 -0.3668  1.4988 -1.0195
  928MPD2     N13637   1.249   1.458   0.833  0.3035 -0.3879 -0.5684
  928MPD2    H513638   1.248   1.395   0.752 -0.3155 -0.8236 -0.2241
  928MPD2    N113639   0.969   1.798   1.055 -0.5420  0.3003  0.6659
  928MPD2    H713640   0.874   1.832   1.068 -0.5566  0.6114 -0.2452
  929MPD2     C13641   1.652   1.425  10.914  0.0005  0.1022 -0.3218
  929MPD2    C113642   1.556   1.394  10.818  1.0424 -0.2343 -0.1694
  929MPD2    C213643   1.585   1.423  10.686 -0.2497 -0.4670  0.4316
  929MPD2    C313644   1.701   1.498  10.650  0.4100  0.2772 -0.0824
  929MPD2    C413645   1.779   1.543  10.751  0.0043 -0.4936  0.2662
  929MPD2    C513646   1.754   1.514  10.888  0.1887  0.7878 -0.1740
  929MPD2     H13647   1.515   1.381  10.615 -2.2410  2.9444  0.3743
  929MPD2    H113648   1.866   1.604  10.732 -0.9687  1.1956  1.2568
  929MPD2    H213649   1.640   1.388  11.015  0.1070 -1.1295 -0.7626
  929MPD2    H313650   1.825   1.554  10.960  1.1322 -1.3983  0.1051
  929MPD2     N13651   1.729   1.533  10.519 -0.2795 -0.4213  0.3261
  929MPD2    H513652   1.810   1.591  10.504 -1.6491  1.7623  1.4055
  929MPD2    N113653   1.438   1.327  10.864 -0.8586  0.2260  0.0817
  929MPD2    H713654   1.424   1.325  10.965 -0.1953 -0.9592  0.1517
  930MPD2     C13655   3.384   4.256  14.351 -0.2331  0.1517 -0.1981
  930MPD2    C113656   3.307   4.306  14.254  0.2899  0.3994  0.0495
  930MPD2    C213657   3.190   4.225  14.230 -0.8733  0.2376 -0.6538
  930MPD2    C313658   3.168   4.103  14.309  0.4211  0.3199  0.6065
  930MPD2    C413659   3.269   4.063  14.394 -0.2796  0.3103 -0.1539
  930MPD2    C513660   3.377   4.137  14.416  0.2413 -0.4598  0.5374
  930MPD2     H13661   3.113   4.247  14.156 -3.1582  2.1185  2.3065
  930MPD2    H113662   3.262   3.979  14.462 -1.0562  0.3180 -0.2188
  930MPD2    H213663   3.474   4.312  14.374  0.6770 -0.7038 -1.7377
  930MPD2    H313664   3.440   4.110  14.500 -0.8890  0.6413  1.7325
  930MPD2     N13665   3.052   4.021  14.291 -0.1332  0.0736  0.7466
  930MPD2    H513666   3.048   3.934  14.343  0.1590  0.8334  2.0641
  930MPD2    N113667   3.363   4.400  14.162 -0.3079  0.5678  0.2426
  930MPD2    H713668   3.448   4.446  14.192 -1.1231  0.8990  2.0887
  931MPD2     C13669   3.126   2.992   0.172  0.3146  0.5943  0.2000
  931MPD2    C113670   3.019   3.074   0.212  0.0398 -0.0784  0.2266
  931MPD2    C213671   2.971   3.055   0.341  0.0575 -0.2096 -0.4248
  931MPD2    C313672   3.027   2.959   0.424  0.9089  0.9684 -0.5442
  931MPD2    C413673   3.118   2.874   0.372  0.4643 -0.2920  0.2374
  931MPD2    C513674   3.162   2.883   0.244  0.2273 -0.8864 -0.8851
  931MPD2     H13675   2.884   3.112   0.373  2.3160  1.8648  1.9988
  931MPD2    H113676   3.144   2.784   0.426 -0.0394 -0.9021 -0.5288
  931MPD2    H213677   3.174   3.013   0.078  0.6362  0.6610  0.3783
  931MPD2    H313678   3.232   2.816   0.196  0.4480 -0.2480 -1.4631
  931MPD2     N13679   2.971   2.924   0.551 -0.1647 -0.6198 -0.1953
  931MPD2    H513680   3.007   2.835   0.584  1.6428 -0.6078 -2.1656
  931MPD2    N113681   2.962   3.163   0.115  0.0862  0.1142 -0.0500
  931MPD2    H713682   2.991   3.150   0.018 -0.7409 -2.0916 -0.0107
  932MPD2     C13683   0.197   2.743  10.597 -0.9695 -0.2259 -0.6217
  932MPD2    C113684   0.297   2.759  10.690  0.0231  0.4644 -0.7385
  932MPD2    C213685   0.342   2.650  10.753 -0.4682 -0.0032 -0.0679
  932MPD2    C313686   0.276   2.528  10.739  0.1061 -0.5891 -0.3030
  932MPD2    C413687   0.171   2.512  10.650  0.1018 -0.8905  0.2859
  932MPD2    C513688   0.136   2.623  10.575  0.0641 -0.1497 -0.5202
  932MPD2     H13689   0.423   2.655  10.825  1.1013  3.9686 -2.1067
  932MPD2    H113690   0.110   2.423  10.638 -1.4657  0.3766 -1.1515
  932MPD2    H213691   0.138   2.831  10.572 -2.7876 -1.1279  0.5416
  932MPD2    H313692   0.055   2.617  10.504  1.8317  1.4164 -2.6601
  932MPD2     N13693   0.331   2.412  10.810  0.5204 -0.1874 -0.5657
  932MPD2    H513694   0.281   2.325  10.795  0.7127 -0.5495  0.8804
  932MPD2    N113695   0.354   2.883  10.720 -0.3159 -0.2751  0.1302
  932MPD2    H713696   0.429   2.886  10.788 -1.2980  1.1665  1.1432
  933MPD2     C13697   0.460   2.337   1.452  0.1247 -0.2657 -0.3927
  933MPD2    C113698   0.513   2.205   1.439 -0.9085 -0.1826 -0.3488
  933MPD2    C213699   0.424   2.103   1.463 -0.2827  0.1237 -0.3473
  933MPD2    C313700   0.300   2.117   1.510  0.1441  0.1906  0.0706
  933MPD2    C413701   0.258   2.246   1.539 -0.9330  0.3623 -0.5389
  933MPD2    C513702   0.337   2.355   1.511  0.2157 -0.4859 -0.8369
  933MPD2     H13703   0.457   2.002   1.442 -1.5118 -0.2200 -0.6829
  933MPD2    H113704   0.161   2.262   1.585 -0.5027  1.3475  0.0290
  933MPD2    H213705   0.513   2.427   1.421  1.2710 -0.9159 -0.3273
  933MPD2    H313706   0.296   2.453   1.530  1.3467 -0.0524 -0.6284
  933MPD2     N13707   0.237   1.991   1.538  0.5468 -0.1686 -0.0525
  933MPD2    H513708   0.277   1.904   1.503  0.2060 -0.8678  1.2765
  933MPD2    N113709   0.647   2.189   1.403 -0.0824  0.0707 -0.2347
  933MPD2    H713710   0.703   2.271   1.384 -0.5753  0.2951 -0.7315
  934MPD2     C13711   1.344   4.284   1.558  0.1154 -0.0629 -0.4190
  934MPD2    C113712   1.445   4.268   1.467 -0.7847  0.2500 -0.4034
  934MPD2    C213713   1.429   4.163   1.373  0.2608 -0.5299  0.5124
  934MPD2    C313714   1.314   4.090   1.365 -0.1614  0.1897  0.0971
  934MPD2    C413715   1.212   4.126   1.450 -0.0179  0.0982  0.6968
  934MPD2    C513716   1.227   4.218   1.548  0.4576 -0.1641 -0.2492
  934MPD2     H13717   1.515   4.143   1.310 -0.0160 -2.0048  0.5926
  934MPD2    H113718   1.115   4.079   1.459  0.4104 -0.9257 -0.0368
  934MPD2    H213719   1.344   4.359   1.637 -1.7876  0.1443 -0.6205
  934MPD2    H313720   1.146   4.237   1.617  0.1622 -0.0862 -0.6160
  934MPD2     N13721   1.293   3.980   1.277  0.2079 -0.2172 -0.2590
  934MPD2    H513722   1.196   3.950   1.272 -0.3194  1.4275 -0.1978
  934MPD2    N113723   1.560   4.343   1.471 -0.3952 -0.0308 -0.4743
  934MPD2    H713724   1.633   4.328   1.402  0.3856  2.4958 -0.1908
  935MPD2     C13725   1.963   3.295   0.920 -0.5265 -0.5776 -0.1535
  935MPD2    C113726   1.840   3.247   0.874  0.5013 -0.2249  0.0018
  935MPD2    C213727   1.724   3.329   0.895  0.5124  0.3896 -0.3014
  935MPD2    C313728   1.732   3.451   0.967  0.5931 -0.5889 -0.6002
  935MPD2    C413729   1.858   3.495   1.008 -0.6074 -0.6447  0.3427
  935MPD2    C513730   1.973   3.421   0.991 -0.4528  0.5161 -0.0656
  935MPD2     H13731   1.633   3.283   0.860  2.3051 -0.7985 -3.3902
  935MPD2    H113732   1.868   3.586   1.067  1.0245  0.5016 -1.7188
  935MPD2    H213733   2.056   3.242   0.905 -0.7229 -1.0083  0.1687
  935MPD2    H313734   2.070   3.444   1.033  0.1156  0.0398 -1.1052
  935MPD2     N13735   1.623   3.540   0.998 -0.3843  0.0901  0.2633
  935MPD2    H513736   1.649   3.627   1.044  2.4805 -0.6156 -0.0081
  935MPD2    N113737   1.836   3.134   0.791 -0.2126 -0.0087 -0.1970
  935MPD2    H713738   1.923   3.094   0.758 -0.4947  0.5392 -1.6024
  936MPD2     C13739   0.605   1.201  11.982 -0.8465  0.4454 -0.2548
  936MPD2    C113740   0.522   1.197  12.093  0.3292  0.0683 -0.2511
  936MPD2    C213741   0.516   1.303  12.184 -0.3639  0.0222 -0.7968
  936MPD2    C313742   0.603   1.409  12.165 -0.2485  0.5569  0.7066
  936MPD2    C413743   0.687   1.415  12.053  0.1915  0.5192 -0.0115
  936MPD2    C513744   0.684   1.311  11.963 -0.0286 -0.4084  0.9499
  936MPD2     H13745   0.452   1.296  12.271 -1.9762 -2.1647 -2.1647
  936MPD2    H113746   0.758   1.492  12.027 -2.3327  2.3699 -1.4182
  936MPD2    H213747   0.613   1.125  11.906  3.4873 -0.1894  0.8120
  936MPD2    H313748   0.748   1.316  11.877  0.4327 -0.1257  1.3092
  936MPD2     N13749   0.637   1.496  12.267  0.5507 -0.5624 -0.6697
  936MPD2    H513750   0.728   1.539  12.270  0.6699 -1.0297  2.0018
  936MPD2    N113751   0.445   1.088  12.130 -0.4125 -0.5289  0.0842
  936MPD2    H713752   0.385   1.098  12.212  2.7526  1.6158  2.1412
  937MPD2     C13753   3.676   2.133  11.714 -0.0281 -0.1049 -0.2165
  937MPD2    C113754   3.677   2.272  11.697 -0.2129  0.6111  0.3210
  937MPD2    C213755   3.740   2.320  11.581 -0.1459  0.0288 -0.1982
  937MPD2    C313756   3.816   2.235  11.504 -0.0479  0.4383 -0.3346
  937MPD2    C413757   3.816   2.099  11.519 -0.7327 -0.6967  0.0592
  937MPD2    C513758   3.745   2.053  11.629  1.0192 -0.0863 -0.4468
  937MPD2     H13759   3.739   2.426  11.557  1.1816  0.3348  1.0918
  937MPD2    H113760   3.869   2.025  11.460  0.1632  2.4297 -3.1208
  937MPD2    H213761   3.614   2.084  11.788  0.6879  0.8640  1.0167
  937MPD2    H313762   3.759   1.947  11.645 -0.4579 -0.4476 -1.5602
  937MPD2     N13763   3.905   2.306  11.415  0.0067 -0.5186  0.1627
  937MPD2    H513764   3.911   2.407  11.416 -2.7544 -0.3498 -1.3829
  937MPD2    N113765   3.585   2.355  11.761 -0.0901 -0.6540  0.3114
  937MPD2    H713766   3.598   2.455  11.757  0.0377 -0.6028  1.9407
  938MPD2     C13767   0.560   2.985   0.433 -0.4090  0.4490  0.0768
  938MPD2    C113768   0.580   3.107   0.496 -0.7518  0.1005  0.1579
  938MPD2    C213769   0.577   3.111   0.634 -1.0095 -0.3744  0.3715
  938MPD2    C313770   0.535   3.004   0.705  0.0742  0.7024  0.1421
  938MPD2    C413771   0.502   2.891   0.637 -0.6017  0.0885 -0.3455
  938MPD2    C513772   0.520   2.879   0.505  0.9502 -0.3656 -0.0863
  938MPD2     H13773   0.596   3.203   0.689 -0.5102  0.3464 -1.0026
  938MPD2    H113774   0.487   2.795   0.685 -0.7395  0.7195  0.8616
  938MPD2    H213775   0.560   2.972   0.325 -2.1282  1.3503 -0.0345
  938MPD2    H313776   0.496   2.786   0.454 -0.3630 -0.9617  1.5697
  938MPD2     N13777   0.543   2.997   0.844 -0.3161 -0.4730 -0.2638
  938MPD2    H513778   0.525   2.912   0.896  2.7638 -2.3652 -2.3134
  938MPD2    N113779   0.610   3.235   0.429 -0.2041 -0.2928 -0.3106
  938MPD2    H713780   0.601   3.320   0.484  0.7254 -0.1893 -0.3059
  939MPD2     C13781   1.347   4.244   0.485  0.2221 -0.5176 -0.4033
  939MPD2    C113782   1.400   4.373   0.474 -0.3878 -0.3022 -0.7711
  939MPD2    C213783   1.479   4.404   0.364 -0.1345 -0.1777 -0.1204
  939MPD2    C313784   1.516   4.309   0.272  0.0589 -0.3932  0.2767
  939MPD2    C413785   1.456   4.187   0.281  0.9373  0.5283 -0.2241
  939MPD2    C513786   1.378   4.152   0.385  0.5641 -0.1664 -0.2124
  939MPD2     H13787   1.517   4.503   0.345  3.1419 -1.7056 -1.6902
  939MPD2    H113788   1.475   4.111   0.206  0.4773 -0.0070  0.2040
  939MPD2    H213789   1.288   4.211   0.569 -0.1318 -2.6552 -1.4896
  939MPD2    H313790   1.338   4.051   0.390  0.1697 -0.0870 -1.8778
  939MPD2     N13791   1.603   4.348   0.166  0.4550 -0.2833 -0.1789
  939MPD2    H513792   1.623   4.447   0.171  1.1873 -0.4750  0.7644
  939MPD2    N113793   1.392   4.460   0.576 -0.1416  0.1732  0.2316
  939MPD2    H713794   1.442   4.546   0.561  2.5115 -1.1457  1.4579
  940MPD2     C13795   0.508   0.693  13.369 -0.0910 -0.7964  0.1318
  940MPD2    C113796   0.538   0.795  13.450  0.2888 -0.6820  0.5844
  940MPD2    C213797   0.620   0.899  13.416 -0.0762  0.0952  0.2149
  940MPD2    C313798   0.682   0.890  13.286  0.1595  0.4609  0.8804
  940MPD2    C413799   0.658   0.782  13.203  0.1136  0.3669  0.4087
  940MPD2    C513800   0.572   0.689  13.249  0.0911 -0.6336 -0.9738
  940MPD2     H13801   0.642   0.981  13.484 -2.7656 -0.4454  1.7618
  940MPD2    H113802   0.698   0.770  13.103 -1.0096  0.1444 -0.0094
  940MPD2    H213803   0.433   0.614  13.377  0.8884 -1.8692 -1.3765
  940MPD2    H313804   0.556   0.606  13.181 -0.5762 -3.0121  2.1315
  940MPD2     N13805   0.769   0.985  13.228 -0.3901  0.2406 -0.5514
  940MPD2    H513806   0.801   0.969  13.134  1.0389  0.7327 -0.1460
  940MPD2    N113807   0.488   0.798  13.589 -0.2197  0.1083  0.5461
  940MPD2    H713808   0.522   0.876  13.645  0.0804  1.1862 -1.1418
  941MPD2     C13809   0.249   0.039   9.370 -0.2011 -0.1567 -0.3846
  941MPD2    C113810   0.353   0.040   9.466  0.0392  0.4085 -0.7782
  941MPD2    C213811   0.398   4.656   9.517 -0.5582  0.4133 -0.1749
  941MPD2    C313812   0.352   4.537   9.480  0.0087 -0.0935  0.7219
  941MPD2    C413813   0.253   4.544   9.384  0.2706 -0.3144 -0.3275
  941MPD2    C513814   0.205   4.659   9.330  0.1062  0.3596  0.5451
  941MPD2     H13815   0.474   4.674   9.592 -1.7987 -0.8008  1.3865
  941MPD2    H113816   0.206   4.453   9.347 -1.7408 -0.2262  2.0338
  941MPD2    H213817   0.211   0.134   9.333  1.0047 -0.2606 -1.9282
  941MPD2    H313818   0.129   4.659   9.252  1.1774 -0.1772 -0.4918
  941MPD2     N13819   0.388   4.416   9.534 -0.0864 -0.6240 -0.0754
  941MPD2    H513820   0.325   4.339   9.516  0.1135 -0.7614 -0.1832
  941MPD2    N113821   0.410   0.161   9.510 -0.2658  0.4014 -0.3353
  941MPD2    H713822   0.462   0.147   9.597 -2.2880  5.1633  1.6242
  942MPD2     C13823   4.203   1.361  10.346 -0.0704  0.5777 -0.2767
  942MPD2    C113824   4.318   1.436  10.363  0.5982  0.1449 -0.8176
  942MPD2    C213825   4.405   1.443  10.248 -0.5650  0.2705 -0.0060
  942MPD2    C313826   4.375   1.367  10.130  0.0310  0.5449  0.1797
  942MPD2    C413827   4.264   1.287  10.122  0.0477 -0.3911 -0.6955
  942MPD2    C513828   4.190   1.279  10.240 -0.2227  0.2564 -0.0780
  942MPD2     H13829   4.498   1.498  10.250 -0.2105 -0.3127 -0.7414
  942MPD2    H113830   4.227   1.228  10.039 -1.9808  1.2586 -0.9597
  942MPD2    H213831   4.127   1.349  10.422  1.0717 -0.3166  0.7238
  942MPD2    H313832   4.103   1.216  10.224  0.1817  0.1294 -1.7456
  942MPD2     N13833   4.465   1.360  10.018 -0.0400 -0.1743  0.4922
  942MPD2    H513834   4.449   1.284   9.953 -1.5773 -0.9476  1.7751
  942MPD2    N113835   4.352   1.501  10.486 -0.3158 -0.1863 -0.0220
  942MPD2    H713836   4.442   1.546  10.489 -0.5921  0.4114 -0.7546
  943MPD2     C13837   4.116   0.813  10.013 -0.0745 -0.4631 -0.3534
  943MPD2    C113838   4.095   0.681  10.034 -0.2986  0.3041 -0.2314
  943MPD2    C213839   4.061   0.643  10.165  0.1236  0.4575 -0.4330
  943MPD2    C313840   4.049   0.739  10.267 -0.6613  0.8754  0.2415
  943MPD2    C413841   4.075   0.873  10.239 -0.8249  0.0398  0.1961
  943MPD2    C513842   4.111   0.910  10.112 -1.1947 -0.1384  0.0034
  943MPD2     H13843   4.050   0.538  10.189 -2.6037  0.7747 -0.2948
  943MPD2    H113844   4.074   0.952  10.313 -0.8408  0.0373  0.1985
  943MPD2    H213845   4.145   0.847   9.914 -2.4326  0.5730 -0.6895
  943MPD2    H313846   4.124   1.014  10.082  0.3692 -0.1454  0.6451
  943MPD2     N13847   4.018   0.708  10.401 -0.0581 -0.3723  0.1496
  943MPD2    H513848   4.008   0.789  10.461  2.0590  1.7067 -2.2942
  943MPD2    N113849   4.115   0.600   9.916  0.0787  0.7376 -0.0471
  943MPD2    H713850   4.153   0.641   9.831 -1.3709 -1.5410 -1.8241
  944MPD2     C13851   3.716   4.077  11.195  0.1650  0.0662  0.4002
  944MPD2    C113852   3.588   4.108  11.164 -0.0230 -0.2672 -0.0486
  944MPD2    C213853   3.495   4.127  11.264  0.4761 -0.1294  0.2809
  944MPD2    C313854   3.531   4.092  11.392  0.4617 -0.3217  0.4000
  944MPD2    C413855   3.659   4.050  11.427 -0.7999  1.0957  0.0913
  944MPD2    C513856   3.753   4.054  11.331  0.4938 -0.0685 -0.4500
  944MPD2     H13857   3.401   4.177  11.249  1.4466  1.1500 -1.5280
  944MPD2    H113858   3.692   4.026  11.527  0.2050  0.7494 -0.3143
  944MPD2    H213859   3.795   4.071  11.121  0.0574 -0.2175  0.3102
  944MPD2    H313860   3.854   4.025  11.357 -0.1813 -0.3675  1.8570
  944MPD2     N13861   3.428   4.110  11.485  0.4396  0.1763 -0.4244
  944MPD2    H513862   3.352   4.166  11.449 -0.4524 -0.7714  0.0072
  944MPD2    N113863   3.558   4.148  11.034  0.4916 -0.4643  0.0504
  944MPD2    H713864   3.637   4.155  10.971  0.4105 -0.6070 -0.0657
    1TMC1    C113865   2.582   4.657  14.558  0.5234  0.3649  0.0667
    1TMC1    C213866   2.548   4.527  14.562 -0.1716 -0.0920 -0.4247
    1TMC1    C313867   2.574   4.453  14.445 -0.2989 -0.0359  0.3683
    1TMC1    C413868   2.618   4.719  14.438 -0.5648  0.6730 -0.6712
    1TMC1    C513869   2.643   4.648  14.323  0.4413 -0.6644  0.0544
    1TMC1    C613870   2.630   4.515  14.330  0.3934 -0.3400 -0.0500
    1TMC1     C13871   2.523   0.001  14.667  0.2145  0.2194 -0.2621
    1TMC1     O13872   2.485   4.678  14.767  0.2713  0.4114 -0.1012
    1TMC1     H13873   2.516   4.486  14.656 -2.7945  1.7643 -0.5119
    1TMC1    H113874   2.654   0.082  14.440  0.7407  0.2256 -1.9589
    1TMC1    H213875   2.673   4.454  14.251 -0.4305 -0.5364 -0.3440
    1TMC1    C713876   2.626   4.715  14.201  0.5976  0.3812  0.0535
    1TMC1    C813877   2.568   4.308  14.444 -0.3688 -0.0278 -0.8024
    1TMC1    O113878   2.663   0.094  14.187  0.3353 -0.0410  0.5008
    1TMC1    O213879   2.602   4.230  14.355 -0.0332  0.1239 -0.3594
    1TMC1    O313880   2.505   4.668  14.163  0.0023  0.4206 -0.2252
    1TMC1    H313881   2.484   4.574  14.182 -0.2269  0.8448  1.6477
    1TMC1    O513882   2.454   4.283  14.520  0.5467  0.2146  0.0843
    1TMC1    H513883   2.411   4.362  14.560  0.3948 -0.1692  0.6849
    2MPD2     C13884   2.223   0.402  14.807 -0.4087 -0.8620 -0.3317
    2MPD2    C113885   2.304   0.436  14.701 -0.9177  0.1664  0.0480
    2MPD2    C213886   2.395   0.342  14.649  0.3306 -0.4368  0.1953
    2MPD2    C313887   2.399   0.216  14.687 -0.9891  0.1055  0.2848
    2MPD2    C413888   2.315   0.179  14.789 -0.3655  0.0934 -0.0038
    2MPD2    C513889   2.225   0.270  14.841 -0.1047 -0.8230 -1.1774
    2MPD2     H13890   2.452   0.361  14.559 -1.3543  1.4440 -0.5019
    2MPD2    H113891   2.309   0.079  14.829  1.1252  0.1422  0.3593
    2MPD2    H213892   2.149   0.471  14.849 -1.7279 -1.0106 -2.4294
    2MPD2    H313893   2.150   0.243  14.915  1.3816 -1.1237  0.2228
    2MPD2     N13894   2.492   0.125  14.625  0.0085  0.4679  0.1169
    2MPD2    H513895   2.538   0.168  14.547 -1.1053  0.7053 -0.4123
    2MPD2    N113896   2.287   0.561  14.640 -0.5234  0.5252 -0.1899
    2MPD2    H713897   2.209   0.611  14.681 -0.9589 -0.0876 -0.2718
    3TMC2    C113898   2.299   0.725  14.468 -0.1717  0.1401 -0.2118
    3TMC2    C213899   2.347   0.768  14.347  0.5155  0.0278 -0.8764
    3TMC2    C313900   2.290   0.876  14.281 -0.4649  0.5898  0.4033
    3TMC2    C413901   2.188   0.784  14.520 -0.4644 -0.5761 -0.0498
    3TMC2    C513902   2.129   0.895  14.454  0.2560 -0.0909  0.4606
    3TMC2    C613903   2.176   0.935  14.330 -0.9869 -0.1892  0.2749
    3TMC2     C13904   2.363   0.612  14.539  1.2555 -0.7186  1.2226
    3TMC2     O13905   2.460   0.562  14.481  0.1225  0.0723  0.3343
    3TMC2     H13906   2.436   0.724  14.305  0.8840  0.0975 -0.1676
    3TMC2    H113907   2.149   0.765  14.619 -0.5144  0.5872  0.1505
    3TMC2    H213908   2.152   1.032  14.288  0.6033  0.4665  0.8875
    3TMC2    C713909   1.989   0.917  14.481  0.8275 -0.1115 -0.4606
    3TMC2    C813910   2.361   0.952  14.179 -0.3316  0.0527 -0.1798
    3TMC2    O113911   1.942   0.847  14.572  0.1438  0.0343 -0.7047
    3TMC2    O213912   2.368   1.073  14.183 -0.2531  0.3092 -0.3918
    3TMC2    O513913   2.408   0.872  14.086 -0.7323 -0.2211 -0.4108
    3TMC2    H513914   2.380   0.778  14.086  1.4627 -0.8526 -0.6473
    4TMC2    C113915   1.370   1.390  13.830 -0.2349 -0.2564  0.1100
    4TMC2    C213916   1.432   1.414  13.709 -0.2101  0.6243  0.1704
    4TMC2    C313917   1.564   1.397  13.705  0.4334 -0.4654 -0.6466
    4TMC2    C413918   1.436   1.340  13.941 -0.2178  0.1608  0.2993
    4TMC2    C513919   1.570   1.309  13.922 -0.6564 -0.1270 -0.4446
    4TMC2    C613920   1.640   1.348  13.809  0.2430  0.4377 -0.1843
    4TMC2     C13921   1.222   1.406  13.842 -0.0665  0.0793 -0.3496
    4TMC2     O13922   1.156   1.365  13.935  0.4862  0.7189 -0.2247
    4TMC2     H13923   1.372   1.434  13.621 -1.0398 -0.2704  0.5381
    4TMC2    H113924   1.376   1.317  14.029 -0.6117 -0.6410 -0.1770
    4TMC2    H213925   1.744   1.328  13.785  0.2217 -0.8138  0.7410
    4TMC2    C713926   1.647   1.246  14.026  0.1775  0.2938 -0.3970
    4TMC2    C813927   1.621   1.432  13.579 -0.4546  0.4213  0.4109
    4TMC2    O113928   1.766   1.244  14.011  0.7666 -0.0594 -0.0569
    4TMC2    O213929   1.564   1.524  13.521  0.3987  0.5909  0.2684
    4TMC2    O513930   1.641   1.309  13.520  0.3864  0.2161  0.2593
    4TMC2    H513931   1.663   1.231  13.576 -2.8931  0.4830  1.9414
    5MPD2     C13932   0.823   1.528  13.525 -0.1784  0.4588 -0.6519
    5MPD2    C113933   0.941   1.598  13.495 -0.0726 -1.0155 -0.4800
    5MPD2    C213934   1.049   1.593  13.579 -0.7212  0.3684  0.3387
    5MPD2    C313935   1.054   1.513  13.688 -0.0009  0.2472 -1.0446
    5MPD2    C413936   0.938   1.441  13.722 -0.6654  0.5794  0.0034
    5MPD2    C513937   0.826   1.452  13.641  0.1375 -0.3935 -0.1681
    5MPD2     H13938   1.136   1.652  13.553 -0.3611 -0.6238 -0.7321
    5MPD2    H113939   0.932   1.361  13.795  2.7199 -0.2125 -0.5741
    5MPD2    H213940   0.733   1.540  13.465  0.4081  1.0316 -1.4060
    5MPD2    H313941   0.736   1.401  13.673 -1.0307  0.8703 -1.4800
    5MPD2     N13942   1.184   1.503  13.749 -0.1372 -0.6214 -0.1513
    5MPD2    H513943   1.258   1.562  13.712  0.6737 -0.7717  1.2407
    5MPD2    N113944   0.930   1.676  13.379 -0.0489  0.1925  0.2682
    5MPD2    H713945   0.846   1.666  13.323  0.0886 -0.1039  0.1182
    6MPD1     C13946   4.627   2.660  12.555  0.0428 -0.4821  0.0281
    6MPD1    C113947   4.614   2.579  12.442 -0.2145 -0.5436 -0.1013
    6MPD1    C213948   4.732   2.514  12.404 -0.2869  0.1060  0.0335
    6MPD1    C313949   0.112   2.524  12.461  0.3358 -0.0797  0.7839
    6MPD1    C413950   0.131   2.605  12.568  0.3285  0.3337  0.3806
    6MPD1    C513951   0.016   2.672  12.613  0.0809 -0.1131  0.5787
    6MPD1     H13952   4.722   2.450  12.317 -3.1897  0.7438 -0.1013
    6MPD1    H113953   0.228   2.610  12.618  0.5262 -3.4258  0.3293
    6MPD1    H213954   4.539   2.700  12.603 -0.1794 -1.1057  0.1483
    6MPD1    H313955   0.032   2.727  12.704 -2.1303  0.2889  0.7344
    6MPD1     N13956   0.229   2.456  12.411 -0.6186  0.3994 -0.0593
    6MPD1    H513957   0.322   2.474  12.448 -0.1479 -1.1263 -0.5130
    6MPD1    N113958   4.491   2.535  12.392 -0.4631  0.3151 -0.3545
    6MPD1    H613959   4.516   2.513  12.296  0.1041  1.5958 -0.5051
    6MPD1    H713960   4.418   2.605  12.397 -1.0363 -0.3559  0.7029
    7MPD2     C13961   0.437   1.747  12.660  0.1665 -0.8133  0.5393
    7MPD2    C113962   0.550   1.819  12.621 -0.5139  0.1736 -0.0631
    7MPD2    C213963   0.668   1.813  12.691 -0.3275 -0.2677 -0.4406
    7MPD2    C313964   0.682   1.715  12.790  0.9070  0.3996 -0.0742
    7MPD2    C413965   0.572   1.632  12.818 -0.2614  0.2294  0.1808
    7MPD2    C513966   0.450   1.643  12.750  0.4289  0.2885 -0.4600
    7MPD2     H13967   0.747   1.886  12.676 -0.0982 -0.4275  0.0013
    7MPD2    H113968   0.579   1.558  12.897  0.6985  0.5869  0.4248
    7MPD2    H213969   0.344   1.769  12.609  0.8575  1.8118  0.4293
    7MPD2    H313970   0.371   1.572  12.773  0.0196  0.8060 -0.2468
    7MPD2     N13971   0.790   1.712  12.882 -0.1374 -0.0340 -0.2046
    7MPD2    H513972   0.795   1.638  12.951 -1.0660  0.1698  0.0753
    7MPD2    N113973   0.533   1.926  12.528 -0.3031 -0.1395  0.4104
    7MPD2    H713974   0.619   1.973  12.503  1.0193 -3.1216 -0.6282
    8TMC3    C113975   0.991   1.778  12.978 -0.7256  0.3367 -0.4641
    8TMC3    C213976   0.946   1.751  13.109  0.3545 -0.4113  0.1633
    8TMC3    C313977   0.986   1.832  13.213  0.2094 -0.2202  0.3550
    8TMC3    C413978   1.077   1.889  12.957  0.3135  0.4890 -0.2357
    8TMC3    C513979   1.094   1.977  13.057 -0.0336  0.4407  0.2713
    8TMC3    C613980   1.059   1.941  13.184  0.1348 -0.2208 -0.8532
    8TMC3     C13981   0.907   1.775  12.862 -0.5451 -0.4340  0.2888
    8TMC3     O13982   0.933   1.858  12.775  0.0328  0.3345  0.5755
    8TMC3     H13983   0.894   1.657  13.126 -0.7133  0.2944  0.7399
    8TMC3    H113984   1.123   1.917  12.863 -1.1945  0.3238 -1.0244
    8TMC3    H213985   1.075   2.016  13.261 -0.9532 -0.4154 -0.4311
    8TMC3    C713986   1.073   2.119  13.020  0.2415  0.1162  0.4058
    8TMC3    C813987   1.022   1.766  13.337  0.0746 -0.0737 -0.0347
    8TMC3    O113988   1.094   2.203  13.106  0.5345  0.0366  0.2751
    8TMC3    O213989   1.120   1.809  13.395 -0.6129  0.1782  0.4594
    9TMC3    C113990   0.355   2.280  12.325 -0.2243 -0.3288  0.0110
    9TMC3    C213991   0.468   2.349  12.369 -0.4700 -0.0057 -0.9204
    9TMC3    C313992   0.587   2.277  12.395 -1.0192 -0.5583 -0.1916
    9TMC3    C413993   0.341   2.142  12.336  0.1859 -0.2301 -0.6330
    9TMC3    C513994   0.455   2.082  12.379  0.7005  0.0188 -0.4998
    9TMC3    C613995   0.580   2.139  12.397 -0.0484 -0.0466  0.7074
    9TMC3     C13996   0.226   2.353  12.319 -0.2717 -0.2084  0.3500
    9TMC3     O13997   0.135   2.301  12.253 -0.3742 -0.1474 -0.4780
    9TMC3     H13998   0.468   2.454  12.342  0.0926 -0.6966 -3.6097
    9TMC3    H113999   0.252   2.092  12.300 -1.7506  1.3590  2.0037
    9TMC3    H214000   0.665   2.072  12.403 -0.8312 -1.1235 -0.2139
    9TMC3    C714001   0.427   1.957  12.453 -0.3881 -0.9634  0.1267
    9TMC3    C814002   0.698   2.350  12.452 -0.1505  0.0634 -0.2354
    9TMC3    O114003   0.316   1.908  12.449 -0.5864 -0.3854 -0.1832
    9TMC3    O214004   0.700   2.472  12.447  0.3626  0.8165  0.1513
   10MPD2     C14005   1.007   2.360  12.850  0.8091 -0.0435 -0.2726
   10MPD2    C114006   0.973   2.229  12.819 -1.1154  0.2137  0.3751
   10MPD2    C214007   0.913   2.199  12.698  0.3104 -0.3940  0.0245
   10MPD2    C314008   0.863   2.305  12.626  0.9792 -0.3216  0.0474
   10MPD2    C414009   0.897   2.433  12.657  0.8511  0.7521  0.1966
   10MPD2    C514010   0.966   2.458  12.767 -0.7471 -0.1524  0.1696
   10MPD2     H14011   0.884   2.099  12.669  0.1941 -0.5291  0.6076
   10MPD2    H114012   0.864   2.517  12.597 -0.7876  1.5117  2.1617
   10MPD2    H214013   1.051   2.394  12.944  0.2319  1.4743 -0.5539
   10MPD2    H314014   0.975   2.562  12.795 -2.4652  0.2661 -0.8474
   10MPD2     N14015   0.774   2.262  12.526  0.6767  0.1305  0.1993
   10MPD2    H514016   0.759   2.162  12.517 -1.0916  0.5366 -1.3525
   10MPD2    N114017   1.005   2.119  12.900  0.7019 -0.2007 -0.4004
   10MPD2    H714018   0.977   2.032  12.856  2.5995 -0.4580 -1.0792
   11MPD2     C14019   1.702   0.955  14.459 -0.9878 -0.0787  0.1767
   11MPD2    C114020   1.794   1.009  14.371 -0.0383 -0.4123  0.1062
   11MPD2    C214021   1.756   1.086  14.260 -0.9615 -0.2586 -0.3504
   11MPD2    C314022   1.621   1.110  14.240  0.4143  0.4443  0.2914
   11MPD2    C414023   1.534   1.062  14.334  0.2512 -0.5936  0.2023
   11MPD2    C514024   1.573   0.985  14.439  0.5265  0.5553 -0.1213
   11MPD2     H14025   1.834   1.134  14.203 -3.1711  0.2404 -2.9639
   11MPD2    H114026   1.427   1.066  14.318  0.4232  0.2250 -0.7219
   11MPD2    H214027   1.717   0.885  14.541  0.8581  1.6011  1.2747
   11MPD2    H314028   1.501   0.936  14.503  0.2850  2.2015  0.8637
   11MPD2     N14029   1.573   1.174  14.121  0.3563 -0.0656  0.4957
   11MPD2    H514030   1.473   1.177  14.102  1.0202  3.3307 -2.5158
   11MPD2    N114031   1.931   0.992  14.385  0.8306 -0.7799 -0.1727
   11MPD2    H714032   1.994   1.029  14.314 -0.7920  1.8904 -0.2050
    1MPD1     C14033   4.382   1.999  17.361  0.1361 -0.1353 -0.3460
    1MPD1    C114034   4.277   2.072  17.313  0.1575 -0.4341 -0.9890
    1MPD1    C214035   4.313   2.183  17.246 -0.3700  0.1139 -0.2767
    1MPD1    C314036   4.442   2.232  17.243  0.1978 -0.5239  0.4515
    1MPD1    C414037   4.542   2.162  17.309 -0.7724 -0.2979 -0.0789
    1MPD1    C514038   4.509   2.043  17.366  0.6242 -0.1005  0.1426
    1MPD1     H14039   4.233   2.230  17.190  0.1589  0.6637 -0.5851
    1MPD1    H114040   4.641   2.206  17.314 -0.4575 -0.8278 -1.6179
    1MPD1    H214041   4.355   1.902  17.404 -0.0113  0.0157 -0.0968
    1MPD1    H314042   4.582   1.977  17.412  2.2686  0.5463 -1.5540
    1MPD1     N14043   4.487   2.341  17.164  0.1342  0.3618  0.5192
    1MPD1    H514044   4.580   2.321  17.129  0.9469 -0.5420  3.1927
    1MPD1    N114045   4.153   2.007  17.291  0.5753  0.2534 -0.4891
    1MPD1    H614046   4.076   2.071  17.273  0.3518 -0.3511 -1.6665
    1MPD1    H714047   4.129   1.949  17.371  0.8266  1.2248  0.2893
    2MPD1     C14048   4.371   3.026  16.329  0.0745 -0.9785 -0.1232
    2MPD1    C114049   4.481   2.946  16.322  0.5472  0.7495  0.3105
    2MPD1    C214050   4.497   2.873  16.435  0.0717 -0.2730  0.6735
    2MPD1    C314051   4.406   2.863  16.538 -0.4281 -0.1605 -0.1549
    2MPD1    C414052   4.285   2.926  16.530  0.2544  1.0474  0.7264
    2MPD1    C514053   4.270   3.018  16.420  0.4332 -0.1022  0.2682
    2MPD1     H14054   4.598   2.836  16.449  0.0192 -0.8434 -0.4152
    2MPD1    H114055   4.203   2.925  16.601  0.1735 -3.0036  0.6225
    2MPD1    H214056   4.348   3.096  16.249  0.2131  0.2051  0.8757
    2MPD1    H314057   4.176   3.072  16.414  0.4711 -0.2397 -1.4882
    2MPD1     N14058   4.447   2.793  16.652 -0.2711 -0.1706 -0.0459
    2MPD1    H514059   4.541   2.757  16.660 -0.0014  0.5794  0.1401
    2MPD1    N114060   4.593   2.974  16.241 -0.7819 -0.4717  0.4901
    2MPD1    H614061   4.663   2.900  16.241 -0.2403  0.0174 -1.4941
    2MPD1    H714062   4.564   2.974  16.143 -1.0547  0.4571  0.5702
    3TMC3    C114063   4.449   2.698  16.864  0.0649 -0.4669 -0.6408
    3TMC3    C214064   4.583   2.725  16.868  0.4840 -0.6244  0.6407
    3TMC3    C314065   4.663   2.640  16.938 -0.6897 -0.1518 -0.5713
    3TMC3    C414066   4.392   2.603  16.939 -0.0873  0.0888  0.0844
    3TMC3    C514067   4.471   2.542  17.026 -0.0655  0.4491 -0.4812
    3TMC3    C614068   4.607   2.551  17.021 -0.0885 -0.9698  0.8605
    3TMC3     C14069   4.364   2.764  16.764 -0.5169 -0.3632 -0.5012
    3TMC3     O14070   4.247   2.772  16.789  0.0288 -0.2149  0.0846
    3TMC3     H14071   4.615   2.819  16.823  1.4537 -0.5614  1.4874
    3TMC3    H114072   4.287   2.575  16.936 -0.2437  0.7059 -0.2030
    3TMC3    H214073   4.665   2.510  17.103  2.1758  3.1767  1.3252
    3TMC3    C714074   4.406   2.439  17.105  0.2127  0.0408 -0.3379
    3TMC3    C814075   0.061   2.647  16.902 -0.3806  0.5353  0.6231
    3TMC3    O114076   4.283   2.450  17.129  0.4307 -0.2707 -0.0893
    3TMC3    O214077   0.087   2.728  16.817  0.6282  0.7452  0.4937
    4MPD1     C14078   0.547   2.576  17.022  0.0676 -0.1164 -0.1143
    4MPD1    C114079   0.489   2.461  17.061 -0.1583 -0.7518  0.2654
    4MPD1    C214080   0.347   2.464  17.043 -0.2252  0.7033  0.3244
    4MPD1    C314081   0.278   2.568  16.981  0.1520 -0.0947  0.0664
    4MPD1    C414082   0.346   2.678  16.941  0.1034  0.3047 -0.3961
    4MPD1    C514083   0.481   2.682  16.971 -1.0775 -0.6029  0.0708
    4MPD1     H14084   0.281   2.382  17.066  0.5425  0.0399  0.1495
    4MPD1    H114085   0.299   2.765  16.897  0.8110 -0.7016 -3.1915
    4MPD1    H214086   0.651   2.587  17.051 -0.2217 -1.0387  1.2606
    4MPD1    H314087   0.533   2.776  16.956 -2.7907  0.6756  2.0813
    4MPD1     N14088   0.139   2.563  16.980 -0.3057  0.2642  0.5812
    4MPD1    H514089   0.088   2.495  17.035 -0.4484 -0.4135 -0.3812
    4MPD1    N114090   0.570   2.371  17.130  0.4821  0.1516  0.1918
    4MPD1    H614091   0.550   2.271  17.121  1.5845  0.1715 -2.6309
    4MPD1    H714092   0.670   2.384  17.121  0.1952  3.5336  2.2039
    1TCq1    O114093   0.795   2.598  11.091 -0.6184  0.4571 -0.1709
    1TCq1    C114094   0.791   2.588  10.958  0.3943  0.1740 -0.3228
    1TCq1    O214095   0.764   2.689  10.894 -0.0890  0.0849  0.3680
    1TCq1    C214096   0.907   2.504  10.924  0.2821 -0.1745  1.2498
    1TCq1    C314097   0.909   2.387  10.987 -0.3777  0.0504  0.3176
    1TCq1    C414098   1.008   2.301  10.952  0.1586  0.6793  0.6671
    1TCq1    C514099   1.113   2.352  10.872 -0.1601  0.2330 -0.0776
    1TCq1    C614100   1.116   2.482  10.832 -0.2795  0.9497  0.0065
    1TCq1    C714101   1.009   2.565  10.861  0.0362  0.0399  0.5947
    1TCq1    C814102   1.217   2.533  10.742  0.6823 -0.3171  0.8266
    1TCq1    O414103   1.210   2.650  10.703  0.2899  0.2181 -0.3438
    1TCq1    C914104   0.983   2.158  10.931 -0.5337 -0.8457  0.0466
    1TCq1    O514105   0.876   2.112  10.985  0.0061  0.0858  0.1445
    1TCq1    O614106   1.053   2.100  10.850 -0.2306 -0.0352  0.0164
    1TCq1    H114107   0.861   2.535  11.126 -2.5600 -2.2579 -1.4477
    1TCq1    H214108   0.814   2.338  11.009  0.7378 -1.9031  0.8161
    1TCq1    H314109   1.191   2.287  10.834 -0.1942  0.6016 -0.7663
    1TCq1    H414110   1.006   2.664  10.816 -0.5474  0.8477  2.4243
    2MPD1     C14111   1.644   2.500  10.458  0.4767 -0.6386 -0.1942
    2MPD1    C114112   1.598   2.379  10.484  0.4282  0.1158 -0.6076
    2MPD1    C214113   1.498   2.363  10.572  0.2220  0.4721  0.2305
    2MPD1    C314114   1.430   2.472  10.626  0.1388 -0.1761  0.7263
    2MPD1    C414115   1.483   2.598  10.598 -0.3472  0.2451  0.5602
    2MPD1    C514116   1.597   2.612  10.517  0.3139  0.2253 -0.3941
    2MPD1     H14117   1.452   2.268  10.599 -1.7099  1.5358  0.6749
    2MPD1    H114118   1.444   2.694  10.630  2.6895  1.8530 -0.4954
    2MPD1    H214119   1.717   2.524  10.382  0.4334  0.6111  0.1558
    2MPD1    H314120   1.645   2.704  10.485 -0.2891 -0.5338 -3.4894
    2MPD1     N14121   1.324   2.449  10.716  0.9072 -0.0013  0.4201
    2MPD1    H514122   1.314   2.356  10.755  1.9826  0.0841  0.8989
    2MPD1    N114123   1.661   2.271  10.430 -0.1054 -0.4010  0.1129
    2MPD1    H614124   1.738   2.240  10.488 -1.2358 -1.8777  0.8435
    2MPD1    H714125   1.699   2.289  10.338 -1.6967  0.7952 -0.3306
    1TMC1    C114126   0.626   4.300   0.533  0.0794 -0.8453  0.0445
    1TMC1    C214127   0.682   4.350   0.412 -0.5980 -0.1634 -0.0374
    1TMC1    C314128   0.659   4.482   0.379 -0.5602 -0.1517 -0.1259
    1TMC1    C414129   0.532   4.361   0.610 -0.3787  0.1355  0.2548
    1TMC1    C514130   0.512   4.490   0.561  0.2227 -0.0760 -0.0251
    1TMC1    C614131   0.567   4.546   0.447 -0.4312  0.5058  0.5400
    1TMC1     C14132   0.689   4.173   0.567  0.3833 -0.2659  0.2712
    1TMC1     O14133   0.769   4.128   0.489 -0.1042 -0.4411  0.2686
    1TMC1     H14134   0.766   4.296   0.370 -1.1161 -1.2860  0.3521
    1TMC1    H114135   0.489   4.337   0.706 -1.4265 -0.6937 -0.4337
    1TMC1    H214136   0.551   4.650   0.419 -4.1900  0.2468  1.6927
    1TMC1    C714137   0.442   4.576   0.659 -0.4576 -0.1240 -0.6521
    1TMC1    C814138   0.694   4.509   0.246 -0.7085  0.2529  0.0234
    1TMC1    O114139   0.463   4.585   0.779  0.0463 -0.0374 -0.2203
    1TMC1    O214140   0.732   4.429   0.162  0.1029 -0.1037 -0.2441
    1TMC1    O314141   0.365   4.664   0.595  0.3589 -0.0303 -0.1730
    1TMC1    H314142   0.359   4.639   0.500 -4.2875  0.1394  0.0686
    1TMC1    O514143   0.676   4.642   0.219 -0.1428  0.2657 -0.0433
    1TMC1    H514144   0.639   4.698   0.290 -1.6594 -0.3809 -0.3198
    2MPD1     C14145   0.787   3.799   0.890 -0.2062  0.1713  0.1119
    2MPD1    C114146   0.738   3.905   0.966 -0.8312 -0.2095  0.4940
    2MPD1    C214147   0.710   4.021   0.899  0.3473 -0.4067  0.0371
    2MPD1    C314148   0.720   4.033   0.760 -0.0706  0.4715 -0.1141
    2MPD1    C414149   0.764   3.922   0.689  0.3428 -0.1202  0.3495
    2MPD1    C514150   0.806   3.811   0.755  0.4270 -0.0539 -0.1721
    2MPD1     H14151   0.657   4.094   0.958  1.2382  1.5245 -1.5753
    2MPD1    H114152   0.785   3.918   0.583 -1.6647 -2.7519  0.0666
    2MPD1    H214153   0.801   3.699   0.929  0.2272  0.1003 -0.2291
    2MPD1    H314154   0.836   3.727   0.693  1.8455 -0.2078  0.7505
    2MPD1     N14155   0.666   4.144   0.697  0.1010  0.4986 -0.6345
    2MPD1    H514156   0.620   4.208   0.761  0.6684 -1.3801  1.6578
    2MPD1    N114157   0.726   3.887   1.107 -0.4707 -0.3589  0.1923
    2MPD1    H614158   0.777   3.809   1.149 -0.8035 -0.3121  0.6904
    2MPD1    H714159   0.765   3.966   1.159 -1.9440  2.1176 -2.5124
    1MPD1     C14160   2.651   2.576  11.487  0.3323 -0.4848  0.7818
    1MPD1    C114161   2.780   2.532  11.484 -0.3036  0.3766  0.3938
    1MPD1    C214162   2.884   2.623  11.467  0.0326  0.5151 -0.9907
    1MPD1    C314163   2.856   2.757  11.452  0.0433  0.0225  0.1902
    1MPD1    C414164   2.732   2.802  11.482 -0.2660 -0.4409 -0.2383
    1MPD1    C514165   2.631   2.709  11.494  0.8993 -0.4484 -0.8549
    1MPD1     H14166   2.986   2.591  11.448 -0.5493 -2.1185  0.3368
    1MPD1    H114167   2.694   2.903  11.475 -0.8085 -0.7147 -1.1995
    1MPD1    H214168   2.570   2.505  11.479 -1.3972  1.6167 -0.5620
    1MPD1    H314169   2.529   2.743  11.501  1.0284 -0.1196 -0.5930
    1MPD1     N14170   2.963   2.851  11.419  0.0742  0.0270  0.0549
    1MPD1    H514171   3.057   2.813  11.424 -0.9308 -2.0276  3.7502
    1MPD1    N114172   2.814   2.400  11.481 -0.1048  0.1829  0.2118
    1MPD1    H614173   2.912   2.387  11.505 -0.2477  0.1152  0.7529
    1MPD1    H714174   2.759   2.335  11.536  2.1754 -2.3401 -0.4823
    2MPD1     C14175   3.041   2.492  11.760  0.0691  0.2875 -0.0445
    2MPD1    C114176   3.125   2.592  11.697  0.0732  0.6515  0.0272
    2MPD1    C214177   3.220   2.550  11.608 -0.1603 -0.9033  0.5652
    2MPD1    C314178   3.238   2.422  11.569  0.0002 -0.2871 -0.0477
    2MPD1    C414179   3.149   2.328  11.619  0.4443  1.0795 -0.3608
    2MPD1    C514180   3.054   2.362  11.711 -0.1651 -0.8647 -0.3422
    2MPD1     H14181   3.278   2.627  11.559 -1.1763 -0.3246  0.2660
    2MPD1    H114182   3.157   2.226  11.583  0.6264  1.1772 -0.6008
    2MPD1    H214183   2.977   2.513  11.845  0.1808  2.3884 -0.4600
    2MPD1    H314184   2.999   2.277  11.750 -1.6231  0.4919  0.5512
    2MPD1     N14185   3.338   2.376  11.485 -0.5768 -0.5501 -0.6662
    2MPD1    H514186   3.334   2.278  11.459  0.6599 -0.5001 -1.0046
    2MPD1    N114187   3.127   2.725  11.747  0.2432  0.3621  1.4391
    2MPD1    H614188   3.168   2.787  11.679 -1.8631  0.5997  0.3789
    2MPD1    H714189   3.036   2.759  11.779 -0.4360 -0.1030 -0.0123
    3MPD1     C14190   3.774   1.560  11.152  0.0527 -0.2385  0.1438
    3MPD1    C114191   3.876   1.653  11.135 -0.3309  0.0024 -0.8143
    3MPD1    C214192   3.843   1.788  11.150 -0.6320 -0.2719 -0.0627
    3MPD1    C314193   3.720   1.831  11.191 -0.9921 -0.2295 -0.6214
    3MPD1    C414194   3.622   1.736  11.208  0.1362 -0.5516 -0.5175
    3MPD1    C514195   3.649   1.605  11.182 -0.2290 -0.5744  0.3825
    3MPD1     H14196   3.921   1.858  11.121 -0.0135 -1.3088 -0.9215
    3MPD1    H114197   3.517   1.750  11.233  0.1157  0.2545 -1.0660
    3MPD1    H214198   3.790   1.455  11.128  2.7204  0.4121 -0.9920
    3MPD1    H314199   3.569   1.532  11.175 -0.6316  0.0415 -1.6481
    3MPD1     N14200   3.699   1.970  11.204 -0.1375 -0.3596 -1.2523
    3MPD1    H514201   3.769   2.035  11.169 -0.0004 -0.9497 -2.0727
    3MPD1    N114202   4.001   1.610  11.088 -0.2422 -0.1851  0.3342
    3MPD1    H614203   4.032   1.530  11.142  1.4762 -0.1024 -0.5195
    3MPD1    H714204   4.073   1.680  11.106  1.5104 -2.2817  1.4751
    4MPD2     C14205   3.464   3.326  10.933  0.6129 -0.4246 -0.4652
    4MPD2    C114206   3.493   3.326  11.065 -0.4117  0.0147  0.7669
    4MPD2    C214207   3.623   3.354  11.111  1.3818  0.6870 -0.0589
    4MPD2    C314208   3.719   3.378  11.027  0.5211 -0.1634 -0.6266
    4MPD2    C414209   3.690   3.378  10.890 -0.5660 -0.4107  0.2939
    4MPD2    C514210   3.561   3.360  10.839  0.2790  0.5778  0.0118
    4MPD2     H14211   3.636   3.343  11.219 -1.7538  2.1050  0.4674
    4MPD2    H114212   3.765   3.399  10.814 -0.8335  1.5681  0.5739
    4MPD2    H214213   3.369   3.282  10.903  1.1864 -1.3590 -0.9208
    4MPD2    H314214   3.540   3.363  10.733 -0.3250 -0.0643  0.1173
    4MPD2     N14215   3.850   3.383  11.077 -0.1055  0.0570  0.1546
    4MPD2    H514216   3.860   3.374  11.178 -0.2121 -0.5571  0.1050
    4MPD2    N114217   3.410   3.262  11.162 -0.5687  0.6574  0.3276
    4MPD2    H714218   3.439   3.282  11.258 -0.5466  0.6581  0.3208
    5TMC3    C114219   3.256   3.131  11.268 -0.2090 -0.4498  1.0064
    5TMC3    C214220   3.124   3.110  11.279  0.5744  0.3600 -0.1263
    5TMC3    C314221   3.084   3.047  11.393 -0.1932 -0.0621  0.0275
    5TMC3    C414222   3.352   3.086  11.359  0.1150 -0.1172  0.1608
    5TMC3    C514223   3.302   3.019  11.467 -0.1034 -0.6724  0.2272
    5TMC3    C614224   3.167   2.991  11.488 -0.3386 -0.1243 -0.0343
    5TMC3     C14225   3.295   3.191  11.140  0.1844 -0.2957 -0.1965
    5TMC3     O14226   3.239   3.153  11.036 -0.1628 -0.2289  0.3065
    5TMC3     H14227   3.050   3.134  11.204  2.3251  0.9800 -1.6567
    5TMC3    H114228   3.453   3.074  11.323 -0.6357 -2.5255 -1.1236
    5TMC3    H214229   3.138   2.944  11.581 -2.4535 -0.3555 -0.8250
    5TMC3    C714230   3.396   2.992  11.571 -0.8220  0.6119 -0.2838
    5TMC3    C814231   2.952   2.982  11.391  0.3046  0.5091 -0.0325
    5TMC3    O114232   3.385   2.891  11.638 -0.1197 -0.2078  0.6604
    5TMC3    O214233   2.856   3.046  11.354 -0.1542  0.2745 -0.0421
    6TMC3    C114234   3.511   2.379  11.319  0.4125  0.4630 -0.6747
    6TMC3    C214235   3.510   2.237  11.323  0.1095  1.0990  0.6228
    6TMC3    C314236   3.593   2.168  11.236  1.1662  0.9302 -0.3443
    6TMC3    C414237   3.596   2.441  11.227  0.1221  0.2692  0.2310
    6TMC3    C514238   3.657   2.364  11.127  0.6805 -0.2818 -0.0086
    6TMC3    C614239   3.644   2.229  11.127 -0.5826  0.5921  0.0810
    6TMC3     C14240   3.432   2.455  11.418  0.1906  0.5963  0.0262
    6TMC3     O14241   3.462   2.571  11.437 -1.0358 -0.3807 -0.3206
    6TMC3     H14242   3.477   2.185  11.412 -1.3829 -1.4332 -1.4028
    6TMC3    H114243   3.603   2.549  11.224 -2.7371  0.4266 -0.5932
    6TMC3    H214244   3.684   2.175  11.042 -1.0105  0.0223  0.2407
    6TMC3    C714245   3.746   2.427  11.029  0.1774  0.2084  0.5243
    6TMC3    C814246   3.582   2.028  11.252 -0.2645 -0.0965 -0.2828
    6TMC3    O114247   3.764   2.361  10.926 -0.6289  0.6472 -0.0149
    6TMC3    O214248   3.479   1.976  11.288  0.2313 -0.0615 -0.5180
    7MPD2     C14249   3.891   3.033  11.686 -0.0459  0.3786  0.2686
    7MPD2    C114250   3.857   3.123  11.587  0.5455  0.8054  0.5055
    7MPD2    C214251   3.724   3.144  11.551  0.5027 -0.4418 -0.3821
    7MPD2    C314252   3.628   3.074  11.610 -0.0898 -0.6544  0.3108
    7MPD2    C414253   3.660   2.978  11.704  0.0837  0.3508 -0.4206
    7MPD2    C514254   3.793   2.956  11.742  0.0844 -0.2332  0.2478
    7MPD2     H14255   3.695   3.210  11.471 -0.9827 -0.7310 -0.0767
    7MPD2    H114256   3.588   2.934  11.772  1.4207  2.2930  2.2904
    7MPD2    H214257   3.994   3.012  11.710 -0.4984 -0.5881  1.3624
    7MPD2    H314258   3.820   2.901  11.831  0.5415  0.1696  0.3600
    7MPD2     N14259   3.497   3.088  11.555 -0.8243 -0.4651  0.0267
    7MPD2    H514260   3.481   3.172  11.500  0.1084 -1.3035 -1.5194
    7MPD2    N114261   3.969   3.176  11.512 -0.6314 -0.4503 -0.3827
    7MPD2    H714262   4.057   3.128  11.522 -0.4123  0.2340  0.9101
    8TMC3    C114263   4.084   3.273  11.329 -0.4683  0.0310 -0.8251
    8TMC3    C214264   4.125   3.144  11.312  0.1948  0.7666 -0.0161
    8TMC3    C314265   4.141   3.101  11.183 -0.6360  0.6743 -0.0565
    8TMC3    C414266   4.059   3.361  11.229  0.0492 -0.3505 -0.4882
    8TMC3    C514267   4.068   3.313  11.105  0.6725  0.7440  0.7445
    8TMC3    C614268   4.119   3.189  11.079 -0.6029 -0.0787  0.2791
    8TMC3     C14269   3.959   3.269  11.411  0.0451  0.5196  0.2124
    8TMC3     O14270   3.863   3.334  11.361 -0.0748  0.7020 -0.2269
    8TMC3     H14271   4.147   3.067  11.385 -1.6598  0.6063  0.3618
    8TMC3    H114272   4.015   3.457  11.254 -1.3309 -1.0691 -0.1196
    8TMC3    H214273   4.123   3.161  10.975 -0.2068  1.2860 -0.0672
    8TMC3    C714274   3.971   3.366  11.007  0.3334 -0.0952  0.5573
    8TMC3    C814275   4.092   2.970  11.167 -0.4789  0.7148  0.7126
    8TMC3    O114276   3.995   3.337  10.891  0.1163 -0.0370 -0.2158
    8TMC3    O214277   4.001   2.952  11.248  0.4808  0.0533  0.3018
    9MPD2     C14278   4.083   2.766  10.852 -0.4295 -0.7801  0.1191
    9MPD2    C114279   4.059   2.798  10.980  0.0796 -0.2518  0.7200
    9MPD2    C214280   3.958   2.733  11.048 -0.3221  0.2818  0.3781
    9MPD2    C314281   3.879   2.633  10.991  0.3488  0.6716 -0.3630
    9MPD2    C414282   3.905   2.607  10.856 -0.2051  0.5492  0.5971
    9MPD2    C514283   4.017   2.661  10.791  0.7849 -0.1345  0.4161
    9MPD2     H14284   3.936   2.760  11.151 -0.2025  2.7016 -0.2307
    9MPD2    H114285   3.851   2.535  10.795 -1.1860  1.3244  0.5404
    9MPD2    H214286   4.148   2.828  10.791  0.1038 -1.2153  0.2440
    9MPD2    H314287   4.032   2.648  10.684 -0.0417 -0.2360  0.3121
    9MPD2     N14288   3.792   2.552  11.068 -0.3550 -0.2739  0.1611
    9MPD2    H514289   3.772   2.587  11.161 -1.6828  2.1686 -1.0246
    9MPD2    N114290   4.121   2.912  11.041  0.5909  0.3341 -0.1273
    9MPD2    H714291   4.195   2.959  10.990  0.4929  0.9881  0.3302
    1MPD1     C14292   1.784   1.754  16.347 -0.0144 -0.2727  0.4161
    1MPD1    C114293   1.684   1.707  16.272  0.0408 -0.0054  0.4278
    1MPD1    C214294   1.602   1.602  16.323  0.1466  0.0381 -0.8308
    1MPD1    C314295   1.639   1.547  16.440  0.5996  0.2367 -0.1167
    1MPD1    C414296   1.738   1.596  16.518 -0.1501 -0.3765  0.3430
    1MPD1    C514297   1.813   1.703  16.472  0.2330  0.6914  0.1978
    1MPD1     H14298   1.508   1.576  16.276 -0.1304  3.1043 -1.9738
    1MPD1    H114299   1.755   1.558  16.618  1.2387  2.3096  1.1290
    1MPD1    H214300   1.833   1.839  16.301 -1.4863 -0.4682 -1.5186
    1MPD1    H314301   1.886   1.755  16.533  1.5015 -0.8867  0.0395
    1MPD1     N14302   1.556   1.457  16.509 -0.5647  0.5053 -1.2193
    1MPD1    H514303   1.583   1.429  16.603 -0.1405  2.2763 -0.8188
    1MPD1    N114304   1.648   1.783  16.155 -0.8034  0.5554  0.1368
    1MPD1    H614305   1.577   1.735  16.101 -0.2607 -1.5984  1.3352
    1MPD1    H714306   1.727   1.813  16.098  0.3336  0.0079  1.4157
    2TMC2    C114307   1.419   1.155  16.738  0.0762 -0.4238 -0.2709
    2TMC2    C214308   1.288   1.143  16.755 -0.0866  0.6671  1.1676
    2TMC2    C314309   1.205   1.228  16.691  0.6488  0.5024 -0.8561
    2TMC2    C414310   1.476   1.246  16.652  0.4073  0.9104  0.4797
    2TMC2    C514311   1.388   1.304  16.563  0.2314  0.1596  0.2906
    2TMC2    C614312   1.252   1.299  16.587 -0.0752  0.7437 -0.3636
    2TMC2     C14313   1.497   1.062  16.811  0.3952  0.0534  0.3962
    2TMC2     O14314   1.462   1.015  16.921 -0.1741 -0.3654  0.0242
    2TMC2     H14315   1.239   1.058  16.802 -0.2792  1.6323  2.7311
    2TMC2    H114316   1.581   1.243  16.627 -0.1180  0.4298 -1.7194
    2TMC2    H214317   1.179   1.338  16.517  2.9202 -1.8824 -4.9661
    2TMC2    C714318   1.440   1.396  16.462  0.5222 -0.1548 -0.0015
    2TMC2    C814319   1.068   1.242  16.729  0.2643  0.6289 -0.1891
    2TMC2    O114320   1.383   1.397  16.353 -0.4585 -0.0500 -0.1446
    2TMC2    O214321   0.986   1.320  16.680  0.0258 -0.7897 -0.5388
    2TMC2    O514322   1.081   1.248  16.859  0.1619  0.6323  0.5533
    2TMC2    H514323   1.158   1.194  16.887 -0.3791 -0.7100 -0.5299
    3MPD1     C14324   1.934   0.810  16.869  0.7526  0.2368 -0.3078
    3MPD1    C114325   1.940   0.870  16.749  0.2714 -0.2184  0.7698
    3MPD1    C214326   1.825   0.937  16.704  0.0550 -0.0128  0.2629
    3MPD1    C314327   1.715   0.953  16.789 -0.1839  0.1315 -0.5056
    3MPD1    C414328   1.712   0.900  16.913  0.8486 -1.2090  0.0603
    3MPD1    C514329   1.821   0.821  16.947 -0.0797 -0.7589  0.1192
    3MPD1     H14330   1.821   0.977  16.603 -2.6316  0.0545  0.4029
    3MPD1    H114331   1.635   0.918  16.988  0.4965  0.7802 -0.7824
    3MPD1    H214332   2.019   0.759  16.913  1.0904  0.4097 -0.7604
    3MPD1    H314333   1.813   0.764  17.039  0.2166  0.1163  0.6870
    3MPD1     N14334   1.607   1.029  16.738 -0.1970  0.0312 -0.3035
    3MPD1    H514335   1.612   1.061  16.642  1.9487  0.0826 -0.1643
    3MPD1    N114336   2.059   0.861  16.676  0.3985  0.5300  0.0117
    3MPD1    H614337   2.047   0.894  16.581 -1.6706  0.8942  0.4004
    3MPD1    H714338   2.111   0.773  16.675  2.0032  1.4728 -0.6506
    1TMC1    C114339   1.299   0.503  13.450 -0.1555  0.5123  0.1919
    1TMC1    C214340   1.220   0.440  13.540  0.8275  0.3094 -0.3466
    1TMC1    C314341   1.128   0.353  13.480 -0.1169  0.1360  0.5762
    1TMC1    C414342   1.277   0.504  13.315  0.5956  0.7798  0.0527
    1TMC1    C514343   1.177   0.427  13.262  0.4228 -1.3997 -0.7654
    1TMC1    C614344   1.112   0.341  13.348  0.3883  0.6611 -0.2682
    1TMC1     C14345   1.432   0.548  13.495  0.2421  0.5918 -1.2104
    1TMC1     O14346   1.455   0.498  13.608  0.6174 -0.3951 -0.0881
    1TMC1     H14347   1.243   0.437  13.646 -2.5036  2.3656  0.4239
    1TMC1    H114348   1.327   0.576  13.251  1.1828 -0.5133 -0.9469
    1TMC1    H214349   1.027   0.285  13.312  1.9364 -0.2332 -2.5843
    1TMC1    C714350   1.123   0.471  13.137  0.0099  0.1771  0.2700
    1TMC1    C814351   1.057   0.256  13.566  0.0202  0.3235  0.0920
    1TMC1    O114352   1.147   0.589  13.106  0.0116  0.1795 -0.1050
    1TMC1    O214353   1.000   0.157  13.531 -0.2748 -0.2085 -0.3535
    1TMC1    O314354   1.138   0.371  13.049 -1.0008 -0.2283 -0.3995
    1TMC1    H314355   1.133   0.282  13.090  0.7562 -0.7613 -1.3265
    1TMC1    O514356   1.043   0.331  13.678 -0.2033 -0.7308 -0.0744
    1TMC1    H514357   0.968   0.293  13.728  0.9227 -3.0021 -0.1133
    2MPD2     C14358   1.659   0.797  13.362  0.7231  1.1679  0.5343
    2MPD2    C114359   1.618   0.689  13.437 -0.4270 -0.0705 -0.2308
    2MPD2    C214360   1.705   0.643  13.537 -0.0197  0.0244 -0.4703
    2MPD2    C314361   1.830   0.695  13.549 -0.1655 -0.1947 -0.2101
    2MPD2    C414362   1.872   0.804  13.474 -0.7982 -0.0172  0.3141
    2MPD2    C514363   1.784   0.854  13.382  0.2746  0.1318 -0.0707
    2MPD2     H14364   1.673   0.560  13.600  2.1349  0.5672  1.3407
    2MPD2    H114365   1.970   0.848  13.486 -1.4721  0.8413  2.5567
    2MPD2    H214366   1.597   0.834  13.281  1.6686  1.8957  0.1574
    2MPD2    H314367   1.819   0.937  13.321  0.2754 -0.9574 -1.5492
    2MPD2     N14368   1.909   0.636  13.649 -0.0926  0.9885  0.0807
    2MPD2    H514369   1.877   0.551  13.693 -1.1338  1.2808 -0.1122
    2MPD2    N114370   1.493   0.634  13.412  0.2366  0.5514  0.0020
    2MPD2    H714371   1.446   0.669  13.329 -0.4111  0.8296  0.4917
    3TCq1    O114372   2.147   0.131  13.853  0.1109  0.2636  0.8968
    3TCq1    C114373   2.123   0.204  13.748  0.0100 -0.4406 -0.1792
    3TCq1    O214374   2.054   0.169  13.653  0.1468 -0.6308  0.0522
    3TCq1    C214375   2.149   0.344  13.780  0.0777 -0.0526 -0.1775
    3TCq1    C314376   2.260   0.377  13.852 -0.0593 -0.3613 -0.6340
    3TCq1    C414377   2.269   0.498  13.895 -0.2963  0.8904 -0.0017
    3TCq1    C514378   2.187   0.601  13.864  0.7604  0.0455 -0.0598
    3TCq1    C614379   2.081   0.572  13.779  0.2234  0.0647 -0.7607
    3TCq1    C714380   2.069   0.442  13.736  0.6803  1.1702  0.1529
    3TCq1    C814381   2.030   0.676  13.694 -0.0891 -0.2279  0.1072
    3TCq1    O414382   2.091   0.783  13.680  0.5239  0.3324  0.8626
    3TCq1    C914383   2.373   0.524  13.983 -0.6922  0.9118 -0.9443
    3TCq1    O514384   2.483   0.462  13.977  0.2098  0.4879 -0.3187
    3TCq1    O614385   2.351   0.614  14.063  0.2623  0.2333  0.9479
    3TCq1    H114386   2.198   0.174  13.924  1.5150  0.7235 -0.3983
    3TCq1    H214387   2.337   0.307  13.881  1.1399  0.4013 -2.0242
    3TCq1    H314388   2.196   0.702  13.902 -1.3650  0.2292 -0.0008
    3TCq1    H414389   1.982   0.408  13.682  1.8770  1.7769 -2.1708
    1MPD2     C14390   0.017   1.316  14.909  0.3291 -0.5772  0.2143
    1MPD2    C114391   4.690   1.221  14.983 -0.4869 -0.6548  0.2237
    1MPD2    C214392   0.021   1.145  15.076  0.4787  0.2227  0.1478
    1MPD2    C314393   0.157   1.152  15.087 -0.1771  0.4923  0.0340
    1MPD2    C414394   0.226   1.236  15.007  1.0882 -0.3960 -0.4073
    1MPD2    C514395   0.158   1.310  14.918  0.0303  0.2814 -0.0194
    1MPD2     H14396   4.697   1.076  15.132 -0.1505 -1.5411 -2.7094
    1MPD2    H114397   0.333   1.253  14.996  0.8031  2.3779  1.0292
    1MPD2    H214398   4.712   1.382  14.836  1.9179  0.5024  0.2200
    1MPD2    H314399   0.213   1.378  14.855 -0.5280 -0.2190 -1.0396
    1MPD2     N14400   0.233   1.070  15.175 -0.0104  0.1780 -0.1279
    1MPD2    H514401   0.335   1.071  15.177  0.0454 -1.1027 -2.2142
    1MPD2    N114402   4.551   1.220  14.964  0.0715 -0.1313  0.0754
    1MPD2    H714403   4.504   1.294  14.913  1.2418 -0.2687 -1.2086
    2TMC3    C114404   4.330   1.134  15.000 -0.7813 -0.3929 -0.7831
    2TMC3    C214405   4.263   1.018  15.031  0.4722 -0.1541 -0.7451
    2TMC3    C314406   4.163   1.022  15.125  0.6777  0.0550  0.7305
    2TMC3    C414407   4.288   1.258  15.049 -0.9290 -0.0222 -0.5961
    2TMC3    C514408   4.188   1.260  15.149 -0.6467  0.3506 -0.6021
    2TMC3    C614409   4.131   1.141  15.189 -0.3788 -0.2074  0.0647
    2TMC3     C14410   4.470   1.113  15.013 -0.1052 -0.3972 -0.6546
    2TMC3     O14411   4.494   1.007  15.066  0.4272 -0.0116 -0.2216
    2TMC3     H14412   4.300   0.922  14.995  3.7253  0.3650  1.2699
    2TMC3    H114413   4.328   1.346  15.001  0.5205 -0.8466 -0.8787
    2TMC3    H214414   4.059   1.141  15.270 -0.0569 -1.1711  0.3502
    2TMC3    C714415   4.119   1.383  15.188  0.7804 -0.2419  0.9903
    2TMC3    C814416   4.186   0.926  15.233 -0.7902 -0.8264 -0.5293
    2TMC3    O114417   4.023   1.378  15.270 -0.5391  0.3081  0.1107
    2TMC3    O214418   4.091   0.891  15.299 -0.5983  0.8007 -0.1627
    3TCq1    O114419   4.198   2.373  14.576 -0.2200 -0.2009  0.5081
    3TCq1    C114420   4.335   2.357  14.587 -0.1827  0.1217 -0.4504
    3TCq1    O214421   4.418   2.397  14.503 -0.5360  0.0153  0.2676
    3TCq1    C214422   4.364   2.293  14.710 -0.0721 -0.4814  0.0078
    3TCq1    C314423   4.486   2.332  14.760  0.5793 -0.3388 -0.1650
    3TCq1    C414424   4.522   2.265  14.875  0.1503 -0.2397 -0.3292
    3TCq1    C514425   4.436   2.170  14.936 -0.6635  0.0256  0.6617
    3TCq1    C614426   4.323   2.134  14.874  1.3848  0.0708 -0.2664
    3TCq1    C714427   4.282   2.200  14.770  0.0841  0.5485 -0.2405
    3TCq1    C814428   4.228   2.063  14.959  0.4097  0.6176 -0.5092
    3TCq1    O414429   4.119   2.117  14.967  0.1495  0.3334 -0.5056
    3TCq1    C914430   4.642   2.300  14.944 -0.5194 -0.3487 -0.8598
    3TCq1    O514431   4.664   2.247  15.052 -0.0845 -0.0088  0.2607
    3TCq1    O614432   4.727   2.354  14.871 -0.2294 -0.0488 -0.2079
    3TCq1    H114433   4.141   2.358  14.654 -0.2143 -0.4250  0.4681
    3TCq1    H214434   4.552   2.404  14.712  0.6493  1.1840  2.2034
    3TCq1    H314435   4.454   2.114  15.027 -0.7204  0.5088  0.9728
    3TCq1    H414436   4.191   2.170  14.718 -0.1743  0.3005  0.3533
    4MPD2     C14437   4.080   1.902  15.150  0.1659 -0.2316 -0.4117
    4MPD2    C114438   4.182   1.858  15.068 -0.0507 -0.5801 -0.0965
    4MPD2    C214439   4.220   1.727  15.080 -0.4388 -0.0580 -0.3367
    4MPD2    C314440   4.148   1.626  15.153  0.2355 -0.6008  0.5480
    4MPD2    C414441   4.042   1.671  15.227  0.9227  0.4836  0.6713
    4MPD2    C514442   4.013   1.811  15.229  0.3943  0.0469 -0.4795
    4MPD2     H14443   4.315   1.699  15.035 -0.7029  0.4112 -1.1849
    4MPD2    H114444   3.993   1.611  15.303  1.3405 -1.1404 -0.3328
    4MPD2    H214445   4.049   2.005  15.162  2.1596  0.3104  0.0719
    4MPD2    H314446   3.934   1.848  15.292 -0.6442 -2.6420 -0.1847
    4MPD2     N14447   4.188   1.493  15.144  0.0659  0.7341  1.1360
    4MPD2    H514448   4.267   1.470  15.084 -1.4924  0.0731 -0.6840
    4MPD2    N114449   4.273   1.945  15.005  0.1580  0.1121  0.3898
    4MPD2    H714450   4.361   1.905  14.975 -1.1105 -2.8687  0.5997
    5TMC2    C114451   0.200   0.680  15.441  0.0585 -0.6889 -0.5317
    5TMC2    C214452   0.282   0.725  15.540 -0.7654  0.6760 -0.3916
    5TMC2    C314453   0.357   0.835  15.518 -0.0718 -0.4423 -0.1152
    5TMC2    C414454   0.198   0.744  15.317 -0.2326 -0.3371  0.0829
    5TMC2    C514455   0.268   0.862  15.301 -0.2029  0.0334 -0.5852
    5TMC2    C614456   0.347   0.908  15.405  1.2687  0.1837 -0.1490
    5TMC2     C14457   0.071   0.629  15.477  0.0592 -0.4002 -0.8339
    5TMC2     O14458   0.067   0.555  15.576  0.3503 -0.5647 -0.6088
    5TMC2     H14459   0.293   0.681  15.638 -0.5928 -0.5030 -0.9436
    5TMC2    H114460   0.151   0.701  15.229  1.1737 -1.2824 -0.2052
    5TMC2    H214461   0.395   1.005  15.403  0.0984  0.7384 -0.9898
    5TMC2    C714462   0.179   0.964  15.246  0.2544 -0.4736 -0.7294
    5TMC2    C814463   0.488   0.837  15.580  0.0173 -0.4249  0.6701
    5TMC2    O114464   0.070   0.913  15.253 -0.4633 -0.8217 -0.2730
    5TMC2    O214465   0.557   0.937  15.565 -0.2919 -0.2370 -0.5546
    5TMC2    O514466   0.528   0.712  15.555 -0.0235 -0.2982 -0.1612
    5TMC2    H514467   0.461   0.642  15.570  1.4333 -1.5640  0.5003
    6MPD2     C14468   4.306   0.705  15.403 -0.7077 -0.7097  0.2038
    6MPD2    C114469   4.379   0.801  15.338 -0.4994 -0.9519  0.3861
    6MPD2    C214470   4.517   0.793  15.337 -0.2751  0.2216 -0.0071
    6MPD2    C314471   4.580   0.696  15.408 -0.8273  0.7228 -0.1832
    6MPD2    C414472   4.508   0.601  15.478 -0.4224  0.8082 -0.1779
    6MPD2    C514473   4.372   0.612  15.478  0.2904  0.1334  1.0568
    6MPD2     H14474   4.583   0.854  15.276 -1.0267  2.2473  1.2032
    6MPD2    H114475   4.553   0.514  15.525 -2.6641 -0.8546 -1.1038
    6MPD2    H214476   4.198   0.709  15.395 -0.6733  0.4579  0.3287
    6MPD2    H314477   4.316   0.537  15.532  0.7319 -1.6338 -0.9355
    6MPD2     N14478   4.718   0.708  15.411 -0.1980 -0.5747 -0.2954
    6MPD2    H514479   0.011   0.788  15.356 -0.8313 -0.7175 -0.8735
    6MPD2    N114480   4.321   0.897  15.256 -0.3338 -0.2620 -0.1823
    6MPD2    H714481   4.384   0.955  15.201 -0.2305 -2.0106 -1.9135
  945NH4     N114482   1.691   3.436   2.893 -0.4102  0.0944 -0.4087
  945NH4     H214483   1.638   3.507   2.839 -0.6243  0.7013  0.5975
  945NH4     H314484   1.673   3.462   2.992  1.8588  0.3893 -0.0728
  945NH4     H414485   1.792   3.450   2.872 -0.6768  0.1771 -1.6266
  945NH4     H514486   1.651   3.345   2.863  0.9194 -1.4762  2.6221
  946SOD     NA14487   1.233   2.063  10.438 -0.0247 -0.5858 -0.0567
  947SOD     NA14488   2.977   3.298   9.418  0.0416  0.2363  0.2268
  948SOD     NA14489   1.883   3.857  13.911  0.1089  0.4364  0.3954
  949SOD     NA14490   0.233   3.123  17.021 -0.1397 -0.0843  0.3089
  950SOD     NA14491   1.804   3.641   7.681 -0.0824  0.1421 -0.2120
  951SOD     NA14492   3.831   0.201  17.314 -0.5243  0.2008  0.3541
  952SOD     NA14493   0.487   0.818  11.757  0.0097  0.3718  0.2386
  953SOL     OW14494   0.569   3.062   3.079  0.6995 -0.2695 -0.3421
  953SOL    HW114495   0.648   3.110   3.057 -1.1996  2.8357 -0.3792
  953SOL    HW214496   0.553   3.026   2.991  0.1807  2.6392 -1.4353
  954SOL     OW14497   0.572   1.078   6.487  0.3775  0.3971 -0.0185
  954SOL    HW114498   0.589   1.036   6.571 -1.0153  2.7130  1.4383
  954SOL    HW214499   0.522   1.008   6.444  1.4241 -0.1202 -0.3829
  955SOL     OW14500   3.020   1.209  15.526  0.5284 -1.1960  0.6069
  955SOL    HW114501   2.968   1.212  15.607  0.3367  2.5620  0.3041
  955SOL    HW214502   3.027   1.303  15.510 -0.0513 -1.4504 -1.1068
  956SOL     OW14503   4.443   0.419   0.178  0.8211  0.3700  0.0263
  956SOL    HW114504   4.527   0.393   0.215  0.6630 -0.5271 -0.2459
  956SOL    HW214505   4.412   0.345   0.125 -1.0840  0.4037  1.0700
  957SOL     OW14506   3.072   1.890  11.702 -0.0367 -0.6387 -0.1849
  957SOL    HW114507   3.109   1.802  11.693  0.2524 -0.6084  0.6485
  957SOL    HW214508   3.146   1.942  11.672 -0.4038  0.1196  0.2400
  958SOL     OW14509   1.029   1.213   2.055  0.8903  0.2109 -0.2615
  958SOL    HW114510   1.085   1.175   2.122  1.6917 -0.7609 -1.5008
  958SOL    HW214511   1.093   1.266   2.009  2.0679 -0.3269  0.7684
  959SOL     OW14512   2.186   4.196   2.788  0.1158 -0.6907  0.0602
  959SOL    HW114513   2.133   4.186   2.867  1.8900  0.6245  1.4002
  959SOL    HW214514   2.270   4.167   2.821 -1.1421 -2.7974  1.3839
  960SOL     OW14515   0.073   1.381  13.369  0.1355 -0.3532  0.0328
  960SOL    HW114516   0.163   1.358  13.390  0.0150 -0.1658  0.7580
  960SOL    HW214517   0.084   1.476  13.367  1.3633 -0.5234 -1.0183
  961SOL     OW14518   1.402   0.325   5.057  0.3848 -0.0937  0.1517
  961SOL    HW114519   1.420   0.378   4.979 -0.7756 -1.1928 -0.8813
  961SOL    HW214520   1.483   0.343   5.104  0.4804  2.9009 -1.1227
  962SOL     OW14521   1.500   2.878  16.638  0.7719  0.4821 -0.1556
  962SOL    HW114522   1.421   2.830  16.665  1.0107 -1.8034 -3.5771
  962SOL    HW214523   1.469   2.968  16.643  2.3665  1.0215 -0.0178
  963SOL     OW14524   0.464   2.155   4.951  0.0142  0.3205 -0.0639
  963SOL    HW114525   0.522   2.222   4.987  1.9762 -2.7988  2.5056
  963SOL    HW214526   0.478   2.075   5.002  1.7982 -0.0388 -1.0876
  964SOL     OW14527   1.596   0.226   3.436 -0.0073 -0.5739 -0.2730
  964SOL    HW114528   1.642   0.306   3.411 -1.3870 -0.1469 -1.4672
  964SOL    HW214529   1.588   0.236   3.531  4.6967 -1.7823  0.2379
  965SOL     OW14530   0.962   2.603   9.038  0.2554  0.0458 -0.4606
  965SOL    HW114531   0.967   2.530   9.100  0.5881  0.5329  0.0809
  965SOL    HW214532   1.005   2.675   9.083 -0.1899 -0.5983  0.9881
  966SOL     OW14533   0.629   3.010   8.232 -0.3325 -0.6803  0.5490
  966SOL    HW114534   0.546   2.990   8.188 -1.0151  2.6571  0.3510
  966SOL    HW214535   0.613   3.000   8.326 -2.0280 -0.1840  0.3060
  967SOL     OW14536   1.711   4.194   1.979 -0.0248 -0.2452 -0.2267
  967SOL    HW114537   1.798   4.194   2.018  1.0635 -0.2993 -2.6097
  967SOL    HW214538   1.657   4.141   2.038  1.2575 -1.2538  0.0429
  968SOL     OW14539   0.252   1.473  17.706 -0.3334 -0.1432  0.3028
  968SOL    HW114540   0.327   1.488  17.649 -0.0328 -2.6280  0.0454
  968SOL    HW214541   0.169   1.498  17.666 -1.2899 -1.2746  1.5407
  969SOL     OW14542   4.259   1.700   2.890 -0.5912  0.4393  0.3405
  969SOL    HW114543   4.285   1.610   2.906 -1.2164  0.6181  2.4316
  969SOL    HW214544   4.235   1.718   2.981 -0.3410  1.2165  0.2587
  970SOL     OW14545   1.137   0.468   1.663 -0.1719  0.2761  0.2795
  970SOL    HW114546   1.213   0.509   1.621  0.5571 -1.9748 -0.5751
  970SOL    HW214547   1.129   0.388   1.611 -2.8590  0.5776  0.2342
  971SOL     OW14548   0.631   1.931   1.672 -0.1730  0.5555  0.9306
  971SOL    HW114549   0.586   1.851   1.701  0.6503  0.4967  2.0446
  971SOL    HW214550   0.623   1.935   1.577 -0.1601 -1.2707  0.8443
  972SOL     OW14551   0.737   3.410  12.740 -0.3945  0.0597  0.9212
  972SOL    HW114552   0.806   3.474  12.723 -0.2509  0.1189  1.7363
  972SOL    HW214553   0.786   3.340  12.783  0.1784  0.2610  0.6004
  973SOL     OW14554   2.877   1.389   1.498  0.3856 -0.0338 -0.4501
  973SOL    HW114555   2.831   1.324   1.551  0.8337 -0.9746 -1.2088
  973SOL    HW214556   2.822   1.467   1.507  0.4567  0.0927 -1.0987
  974SOL     OW14557   2.744   3.809  16.546 -0.2383 -0.4062  0.6019
  974SOL    HW114558   2.746   3.789  16.640  1.2119 -0.3886  0.5760
  974SOL    HW214559   2.813   3.875  16.548  1.6759 -2.3340 -1.4517
  975SOL     OW14560   2.114   3.781  17.108 -0.2184 -0.1574 -0.2578
  975SOL    HW114561   2.032   3.793  17.157  0.1645 -0.5187  0.4733
  975SOL    HW214562   2.092   3.801  17.017 -0.7986  5.2703  1.0507
  976SOL     OW14563   0.537   0.530   9.017 -0.5817 -0.1294 -0.0131
  976SOL    HW114564   0.499   0.569   8.939  1.9216 -1.9486 -2.1350
  976SOL    HW214565   0.631   0.540   9.001 -0.6111 -2.4809 -1.5205
  977SOL     OW14566   4.670   4.136   1.065 -0.0554  0.3973  0.0696
  977SOL    HW114567   4.725   4.119   0.988  1.4819  1.1723  0.9883
  977SOL    HW214568   4.736   4.141   1.134  0.8042  2.7280 -0.9056
  978SOL     OW14569   0.561   1.326   1.874  0.5744 -0.4905  0.5028
  978SOL    HW114570   0.590   1.235   1.877 -0.7378 -0.8566  1.8797
  978SOL    HW214571   0.541   1.327   1.780  1.1568  0.9308  0.3927
  979SOL     OW14572   4.717   3.230   3.494  0.1490 -0.2163  0.3411
  979SOL    HW114573   4.633   3.276   3.487  0.4344 -0.2010 -2.7843
  979SOL    HW214574   0.041   3.271   3.436  0.1928  0.2070  0.6856
  980SOL     OW14575   3.916   4.141  13.341  0.4838 -0.2842  0.2322
  980SOL    HW114576   3.851   4.164  13.274  0.5147  2.7582  1.2448
  980SOL    HW214577   3.874   4.146  13.427 -0.7922 -1.5788 -0.3069
  981SOL     OW14578   4.602   1.613   5.114  0.0027  0.1772  0.0237
  981SOL    HW114579   4.604   1.622   5.019 -4.2994  0.2803 -0.0679
  981SOL    HW214580   4.634   1.699   5.142 -1.9865  0.8506  0.1927
  982SOL     OW14581   3.135   0.446  16.006  0.0916  0.2230  0.2598
  982SOL    HW114582   3.181   0.372  16.047 -0.8492 -1.1830 -1.2067
  982SOL    HW214583   3.198   0.480  15.943  0.9275 -1.4770  0.1835
  983SOL     OW14584   3.463   0.190   4.566  0.1580 -0.1834  0.0879
  983SOL    HW114585   3.444   0.278   4.532  1.6860  0.2061  0.2495
  983SOL    HW214586   3.395   0.141   4.519  0.1773 -0.2693  0.1501
  984SOL     OW14587   0.869   0.233   7.631 -0.2410  0.5138 -0.2317
  984SOL    HW114588   0.895   0.175   7.559 -0.9271 -1.5067  1.1357
  984SOL    HW214589   0.777   0.203   7.634 -0.3510  0.7511 -1.0506
  985SOL     OW14590   1.749   2.639  16.915  0.2467 -0.1512 -0.2239
  985SOL    HW114591   1.660   2.616  16.887 -0.7884  1.0710  2.0507
  985SOL    HW214592   1.756   2.701  16.843  1.4119  2.1657  1.8952
  986SOL     OW14593   2.191   1.438   1.468  0.0579 -0.3039 -0.1588
  986SOL    HW114594   2.208   1.490   1.547  0.9880 -1.0556  0.1333
  986SOL    HW214595   2.257   1.369   1.473  0.8548  0.5292  0.8273
  987SOL     OW14596   2.356   3.773   7.431  0.3568  0.2720  0.0051
  987SOL    HW114597   2.291   3.722   7.479  1.5558 -0.8820  0.3863
  987SOL    HW214598   2.440   3.760   7.475  0.5904 -0.2242 -0.5938
  988SOL     OW14599   2.200   0.955  11.804  0.3648 -0.0448  0.4675
  988SOL    HW114600   2.259   0.886  11.834 -0.8275 -1.8167 -1.2902
  988SOL    HW214601   2.139   0.957  11.879  1.2652  0.7732  1.1907
  989SOL     OW14602   1.614   3.467   1.713  0.3721  0.2451 -0.1210
  989SOL    HW114603   1.678   3.528   1.750 -1.3743  1.3911  1.0536
  989SOL    HW214604   1.604   3.508   1.627 -2.3288 -1.6028 -0.6890
  990SOL     OW14605   2.879   2.635  14.386  0.3228  0.1483 -0.1384
  990SOL    HW114606   2.834   2.560  14.348 -0.0779 -0.5413  1.6659
  990SOL    HW214607   2.967   2.631  14.348 -0.0076 -0.0941 -0.8630
  991SOL     OW14608   1.474   3.238   5.664 -0.0767  0.4437  0.1784
  991SOL    HW114609   1.463   3.167   5.602  0.3410 -0.2950  0.9565
  991SOL    HW214610   1.408   3.300   5.633  0.8617  0.8096 -1.1230
  992SOL     OW14611   1.110   2.767  15.389 -0.1526 -0.4926 -0.4405
  992SOL    HW114612   1.145   2.825  15.321 -1.0927  0.5024 -0.0634
  992SOL    HW214613   1.025   2.740  15.352 -0.2576 -1.0599  0.2180
  993SOL     OW14614   1.637   0.950  10.118  0.1412  0.7193 -0.0112
  993SOL    HW114615   1.631   1.023  10.057 -1.2192 -0.5129 -1.3336
  993SOL    HW214616   1.727   0.920  10.103 -0.2496 -0.8053  0.6609
  994SOL     OW14617   3.194   0.290  12.251 -0.0806 -0.0260 -0.2701
  994SOL    HW114618   3.243   0.295  12.169 -0.5669 -1.8402 -0.6801
  994SOL    HW214619   3.106   0.297  12.214  0.2506 -1.0210 -1.2509
  995SOL     OW14620   3.284   2.653   1.241 -0.1507  0.0752  0.1093
  995SOL    HW114621   3.192   2.676   1.230 -0.5522 -1.4510  0.1739
  995SOL    HW214622   3.279   2.577   1.183 -3.2878 -0.3542  0.9197
  996SOL     OW14623   3.844   0.799   3.688 -0.9293 -0.8505 -0.1460
  996SOL    HW114624   3.890   0.882   3.702  2.1193 -2.4681 -0.4511
  996SOL    HW214625   3.752   0.825   3.690 -0.3679  1.0066  2.0275
  997SOL     OW14626   0.617   3.339   9.339  0.0642 -0.2684 -0.0816
  997SOL    HW114627   0.582   3.266   9.389  0.3499 -0.5590 -0.3060
  997SOL    HW214628   0.677   3.387   9.396 -1.2118  0.8836  0.2952
  998SOL     OW14629   4.544   4.590   5.906 -0.6899  0.0735 -0.1297
  998SOL    HW114630   4.597   4.514   5.931  1.0451  1.2883 -0.1070
  998SOL    HW214631   4.468   4.541   5.874 -0.3507 -0.8639  0.5055
  999SOL     OW14632   1.114   3.243  12.390 -0.2094  0.4303 -0.9700
  999SOL    HW114633   1.065   3.162  12.372  0.5651 -0.4598  0.9676
  999SOL    HW214634   1.127   3.230  12.484  1.1255 -0.7787 -1.3219
 1000SOL     OW14635   0.261   0.530   2.940  0.1575 -0.0953  0.0318
 1000SOL    HW114636   0.251   0.471   2.865  0.0095  2.4054 -1.9069
 1000SOL    HW214637   0.282   0.470   3.012 -2.2716  0.4612  1.1891
 1001SOL     OW14638   4.332   2.148   9.322 -0.2519 -0.1745 -0.5100
 1001SOL    HW114639   4.252   2.153   9.270  0.0457 -1.2014 -1.0804
 1001SOL    HW214640   4.310   2.207   9.394  0.6884  0.3872 -0.6811
 1002SOL     OW14641   0.327   0.350   9.852  0.0796  0.0768 -0.2008
 1002SOL    HW114642   0.346   0.330   9.944  1.1104 -0.2926 -0.4943
 1002SOL    HW214643   0.270   0.277   9.829  1.5710 -1.4985  1.1494
 1003SOL     OW14644   1.379   0.211   1.821 -0.8976 -1.1202 -0.3396
 1003SOL    HW114645   1.301   0.265   1.809 -0.9721 -0.7082  2.0266
 1003SOL    HW214646   1.379   0.148   1.749  0.4748 -1.3248 -0.1579
 1004SOL     OW14647   3.798   2.262   7.912 -0.1701  0.3472  0.1831
 1004SOL    HW114648   3.724   2.281   7.971  0.3779 -2.4568  1.7732
 1004SOL    HW214649   3.794   2.168   7.928 -1.4121  0.0713 -1.7501
 1005SOL     OW14650   1.322   4.225   6.633  0.0499 -0.3442 -0.0222
 1005SOL    HW114651   1.375   4.182   6.701  0.9225  1.3496  0.3714
 1005SOL    HW214652   1.237   4.230   6.676 -0.5191 -2.9908 -0.8664
 1006SOL     OW14653   0.760   4.324   8.499  0.2288 -1.4736 -0.8915
 1006SOL    HW114654   0.666   4.338   8.493  0.5128  1.1275  0.9214
 1006SOL    HW214655   0.773   4.298   8.408 -1.2284 -1.2777 -1.1504
 1007SOL     OW14656   4.082   3.394   8.361  0.4897  0.4770  0.2268
 1007SOL    HW114657   4.039   3.337   8.426 -1.8843  1.4791 -0.4744
 1007SOL    HW214658   4.144   3.442   8.417 -0.9078  0.5147  1.7557
 1008SOL     OW14659   3.679   1.378  12.590 -0.1585  0.4007  0.3760
 1008SOL    HW114660   3.750   1.442  12.584 -0.9522  1.3578  1.0669
 1008SOL    HW214661   3.719   1.296  12.561 -0.2962 -0.1861  1.8954
 1009SOL     OW14662   1.509   4.613  14.645  0.4518 -0.2244  0.5428
 1009SOL    HW114663   1.532   4.703  14.621 -0.1708  0.0597  0.9736
 1009SOL    HW214664   1.528   4.566  14.564  0.4448 -0.4235  0.6567
 1010SOL     OW14665   3.293   0.319   6.300 -0.0645 -0.1777 -1.1471
 1010SOL    HW114666   3.297   0.265   6.378 -4.0972 -1.1816 -1.6214
 1010SOL    HW214667   3.374   0.297   6.254 -0.3282  0.3547 -1.8838
 1011SOL     OW14668   3.536   3.664   9.354 -0.1537  0.4659 -0.2304
 1011SOL    HW114669   3.564   3.579   9.318 -0.4588  0.5841 -0.7515
 1011SOL    HW214670   3.504   3.639   9.441  1.2056 -0.5494 -0.0195
 1012SOL     OW14671   4.082   3.104   6.804  0.6936  0.0731 -0.1377
 1012SOL    HW114672   4.000   3.148   6.825  0.3511 -0.9551  0.6691
 1012SOL    HW214673   4.138   3.180   6.787  0.3927 -0.2787 -2.7927
 1013SOL     OW14674   0.240   4.636   2.029  0.0321  0.2867 -0.3794
 1013SOL    HW114675   0.243   4.666   1.938 -1.3192 -1.2892 -0.9374
 1013SOL    HW214676   0.281   4.551   2.018  1.3958  1.0089 -0.8347
 1014SOL     OW14677   2.106   0.748   2.326  0.1397  0.0740 -0.4161
 1014SOL    HW114678   2.052   0.770   2.401  0.0537  0.5522 -0.6217
 1014SOL    HW214679   2.185   0.725   2.374 -0.4744  1.1183  1.0967
 1015SOL     OW14680   4.357   0.806   3.127 -0.3294 -0.3584 -0.5721
 1015SOL    HW114681   4.341   0.743   3.056 -2.1884  0.1667 -0.6266
 1015SOL    HW214682   4.399   0.750   3.193 -0.3100 -0.0033 -0.2828
 1016SOL     OW14683   1.268   2.775   4.999  1.0109 -0.1408  0.1654
 1016SOL    HW114684   1.211   2.852   4.997  1.6052  0.3177  0.9599
 1016SOL    HW214685   1.334   2.817   4.943 -0.8297  0.1669 -1.7938
 1017SOL     OW14686   2.365   1.778   5.845  0.8569 -0.2980 -0.9455
 1017SOL    HW114687   2.325   1.692   5.833 -2.9151  1.1416  1.1860
 1017SOL    HW214688   2.281   1.821   5.863  1.6200  1.4947 -1.7333
 1018SOL     OW14689   0.634   4.694  11.644  0.3380 -0.3690 -0.5771
 1018SOL    HW114690   0.697   0.024  11.624 -0.4533  0.2000 -1.1088
 1018SOL    HW214691   0.684   4.613  11.653  0.9344  0.3189  2.2906
 1019SOL     OW14692   2.510   3.099  13.499 -0.2710  0.0427  0.2180
 1019SOL    HW114693   2.583   3.052  13.459 -0.7332 -1.5789  1.2867
 1019SOL    HW214694   2.544   3.188  13.500 -0.2287  0.0168  0.8590
 1020SOL     OW14695   2.315   4.556   6.666 -0.3237  0.0731  0.0251
 1020SOL    HW114696   2.405   4.536   6.641 -1.1270 -1.9709 -1.1907
 1020SOL    HW214697   2.275   4.473   6.642 -2.1605  0.9314  0.1400
 1021SOL     OW14698   1.919   4.021   4.744 -0.2887 -0.4361  0.4619
 1021SOL    HW114699   1.969   3.978   4.674  0.1396  0.6481  0.0964
 1021SOL    HW214700   1.830   4.008   4.712 -0.5220 -1.4199  1.5199
 1022SOL     OW14701   0.807   4.351  14.950 -0.9784  0.0964  0.6861
 1022SOL    HW114702   0.896   4.386  14.955 -0.4429 -1.2575  0.5349
 1022SOL    HW214703   0.809   4.303  14.868 -1.0108 -1.0067  1.3341
 1023SOL     OW14704   3.465   4.225   1.734  0.4460  0.1683  0.4344
 1023SOL    HW114705   3.469   4.211   1.828  0.9817  1.4020  0.5996
 1023SOL    HW214706   3.371   4.212   1.721  0.2477  1.0904  0.9748
 1024SOL     OW14707   0.324   0.257   4.044  0.3128 -0.2454 -0.5811
 1024SOL    HW114708   0.382   0.216   4.109  0.3790 -1.5113 -1.4364
 1024SOL    HW214709   0.274   0.176   4.036  1.3624 -0.8938 -0.5784
 1025SOL     OW14710   2.539   3.305   8.888  0.0713 -0.2730 -0.0515
 1025SOL    HW114711   2.521   3.215   8.918  1.5281 -0.5107  0.0871
 1025SOL    HW214712   2.450   3.341   8.880  0.7325  1.8667  2.2426
 1026SOL     OW14713   2.563   1.807   7.656 -0.2249  0.0817 -0.4921
 1026SOL    HW114714   2.581   1.745   7.726  0.7677  1.6112  0.6010
 1026SOL    HW214715   2.494   1.758   7.611 -1.1237  0.3439  0.5951
 1027SOL     OW14716   4.098   1.441  13.497 -0.7523 -0.1960  0.2283
 1027SOL    HW114717   4.137   1.398  13.421 -0.8545  3.4380 -1.8652
 1027SOL    HW214718   4.059   1.372  13.551 -0.8013 -2.1277 -2.3178
 1028SOL     OW14719   2.977   4.261   2.111  0.1358 -0.3113 -0.3565
 1028SOL    HW114720   3.030   4.195   2.066 -1.2038  0.2058 -2.7169
 1028SOL    HW214721   2.955   4.217   2.193  3.3230  0.9490  1.1604
 1029SOL     OW14722   0.034   2.523   9.444 -0.3245  0.2527  0.8237
 1029SOL    HW114723   0.129   2.535   9.455 -0.0994 -0.8987  0.2539
 1029SOL    HW214724   0.034   2.427   9.436  0.2369  0.2788  0.4517
 1030SOL     OW14725   1.804   0.895   1.148  0.2186 -0.2820 -0.0076
 1030SOL    HW114726   1.861   0.856   1.082  0.2150  1.2402 -0.9178
 1030SOL    HW214727   1.733   0.937   1.100  0.1565  0.5874  0.8346
 1031SOL     OW14728   3.151   1.548   6.020 -0.5932 -0.6363  0.2689
 1031SOL    HW114729   3.095   1.509   5.953 -0.9747 -1.7790  1.2547
 1031SOL    HW214730   3.224   1.576   5.965 -1.2483  1.9500  0.7179
 1032SOL     OW14731   3.019   3.263  10.195 -0.4801 -0.2107 -0.4397
 1032SOL    HW114732   3.082   3.332  10.175  0.0811 -0.0626  1.8568
 1032SOL    HW214733   3.081   3.191  10.184 -0.0523 -0.0885  1.1277
 1033SOL     OW14734   0.995   1.721   2.925  0.2530  0.8122 -0.2106
 1033SOL    HW114735   0.972   1.628   2.936  0.4346  0.4930 -2.4084
 1033SOL    HW214736   0.936   1.759   2.990  2.2308  0.9581  1.4771
 1034SOL     OW14737   0.222   2.238  13.449 -0.4783  0.0810  0.7752
 1034SOL    HW114738   0.146   2.252  13.504 -1.3399 -1.0406 -0.1267
 1034SOL    HW214739   0.183   2.175  13.389  3.3636 -1.1928 -0.4284
 1035SOL     OW14740   1.173   4.428   8.685 -0.2587  0.0875  0.0336
 1035SOL    HW114741   1.112   4.475   8.629  0.6800  1.2234 -0.0219
 1035SOL    HW214742   1.110   4.371   8.731  2.0741 -3.0366 -0.6205
 1036SOL     OW14743   2.970   2.734  11.071  0.1098  0.5785 -0.1630
 1036SOL    HW114744   3.040   2.729  11.136 -1.2251  1.9787  1.3932
 1036SOL    HW214745   2.900   2.781  11.118 -0.9995  1.0815 -2.3309
 1037SOL     OW14746   1.795   2.080   8.990 -0.0119 -0.2765  0.1948
 1037SOL    HW114747   1.812   1.987   8.972 -0.0414  0.1713 -2.1757
 1037SOL    HW214748   1.773   2.107   8.901 -1.4239 -1.5234  0.1691
 1038SOL     OW14749   3.277   0.244   8.966  0.0995  0.1249 -0.5343
 1038SOL    HW114750   3.266   0.165   8.914 -0.8857  2.0838 -3.3036
 1038SOL    HW214751   3.206   0.241   9.030 -0.4240 -0.5500 -1.1483
 1039SOL     OW14752   1.811   2.327   4.675  0.2963 -0.2041 -0.1368
 1039SOL    HW114753   1.905   2.344   4.690  0.5722 -0.5430 -1.5174
 1039SOL    HW214754   1.790   2.346   4.584  3.0386  2.7125 -0.1709
 1040SOL     OW14755   3.746   3.305   5.742 -0.6088 -0.1185 -0.0480
 1040SOL    HW114756   3.758   3.359   5.663 -2.3732 -1.4300 -1.2125
 1040SOL    HW214757   3.749   3.367   5.815 -1.1986  1.8677 -1.7226
 1041SOL     OW14758   3.854   1.085  10.114  0.5406  0.5791  0.6782
 1041SOL    HW114759   3.831   1.031  10.189  3.4620  0.8665  1.7804
 1041SOL    HW214760   3.878   1.166  10.159  1.0264  1.6780 -1.5610
 1042SOL     OW14761   4.674   2.114   2.891 -0.4072  0.4434  0.4217
 1042SOL    HW114762   4.588   2.072   2.891 -1.3872  2.4580  0.5808
 1042SOL    HW214763   4.676   2.167   2.970 -1.0961 -1.1777  1.5317
 1043SOL     OW14764   1.661   4.639  11.987 -0.3230  0.3850 -0.0083
 1043SOL    HW114765   1.603   4.615  11.914  0.5341 -0.6220 -0.3668
 1043SOL    HW214766   1.616   4.598  12.061  0.4356 -0.8123 -0.1933
 1044SOL     OW14767   4.284   3.137   0.276  0.4307  0.4612 -0.1069
 1044SOL    HW114768   4.283   3.056   0.224  0.1776 -0.1954  0.9150
 1044SOL    HW214769   4.343   3.189   0.222  0.9954 -1.9569 -1.8618
 1045SOL     OW14770   3.063   4.189   5.527  0.0244 -0.3320  0.0560
 1045SOL    HW114771   3.052   4.283   5.513 -0.8705 -0.5580 -0.7861
 1045SOL    HW214772   3.003   4.182   5.601  1.0672  0.6057  0.9915
 1046SOL     OW14773   0.725   1.283   0.629 -0.0575  0.1001  0.2008
 1046SOL    HW114774   0.671   1.281   0.708  2.0204  0.6180  1.6456
 1046SOL    HW214775   0.667   1.270   0.554  1.9600 -2.0409 -0.9951
 1047SOL     OW14776   4.326   1.820  17.129 -0.4122  0.1505  0.1216
 1047SOL    HW114777   4.311   1.870  17.209 -1.4586 -0.4086  0.2826
 1047SOL    HW214778   4.264   1.860  17.067  0.0519  0.2901 -0.2516
 1048SOL     OW14779   2.200   0.151   5.616 -0.1216  0.0757 -0.4028
 1048SOL    HW114780   2.206   0.184   5.526 -2.2789  0.6931 -0.3264
 1048SOL    HW214781   2.277   0.095   5.623 -1.1574 -1.2695  0.2023
 1049SOL     OW14782   0.554   3.911  16.134  0.8676  0.4853  0.1217
 1049SOL    HW114783   0.468   3.948  16.111  0.7638 -0.2801 -0.7313
 1049SOL    HW214784   0.595   3.904  16.048  0.3686 -1.5634  0.0425
 1050SOL     OW14785   3.537   0.195   6.165  0.4196 -0.1911  0.3072
 1050SOL    HW114786   3.602   0.166   6.229  0.0090 -3.1474 -0.5952
 1050SOL    HW214787   3.526   0.115   6.113 -0.3361  0.2745 -0.2403
 1051SOL     OW14788   2.757   2.146  10.958  0.6046  0.8747 -0.3642
 1051SOL    HW114789   2.684   2.169  10.900 -0.8646 -0.3004  1.0298
 1051SOL    HW214790   2.746   2.214  11.025 -2.0405  0.3811 -0.2849
 1052SOL     OW14791   2.877   2.754   7.956  0.1900 -0.6456 -0.2356
 1052SOL    HW114792   2.965   2.760   7.918  0.1269  2.5177  0.1207
 1052SOL    HW214793   2.882   2.669   8.001  0.6457  0.3095  1.5279
 1053SOL     OW14794   1.197   0.457  12.255  0.4384 -0.8599 -0.2470
 1053SOL    HW114795   1.171   0.380  12.307  1.2931  0.1481  1.6810
 1053SOL    HW214796   1.196   0.522  12.325  0.7220 -1.3744  0.2442
 1054SOL     OW14797   3.566   0.479  11.137  0.2342 -0.3838 -0.2718
 1054SOL    HW114798   3.622   0.455  11.063 -1.2883 -0.8561 -1.2630
 1054SOL    HW214799   3.486   0.513  11.097  0.0714 -0.6608 -0.1786
 1055SOL     OW14800   4.703   3.028   3.228  0.0934  0.2730  0.2007
 1055SOL    HW114801   0.033   2.974   3.267 -1.7383 -2.1428  0.0994
 1055SOL    HW214802   0.002   3.113   3.246  0.4023  0.0384  0.6688
 1056SOL     OW14803   4.135   0.169   3.751 -0.4123  0.0756 -0.1618
 1056SOL    HW114804   4.159   0.094   3.805  0.4213 -0.0254 -0.6752
 1056SOL    HW214805   4.184   0.144   3.673 -0.3284 -1.9279  0.5471
 1057SOL     OW14806   1.178   0.145   2.328 -0.1214  0.0095  1.1717
 1057SOL    HW114807   1.243   0.189   2.383 -0.7287  1.2989  0.8644
 1057SOL    HW214808   1.231   0.114   2.254  0.4931  0.4562  1.4223
 1058SOL     OW14809   4.206   1.658   7.380 -0.6785 -0.2428 -0.1790
 1058SOL    HW114810   4.194   1.571   7.418 -0.7986 -0.4478 -0.6897
 1058SOL    HW214811   4.296   1.660   7.347 -1.1302 -2.2215 -1.5338
 1059SOL     OW14812   4.485   3.363  11.504 -0.3339 -0.0248  0.2754
 1059SOL    HW114813   4.563   3.419  11.497  1.5915 -2.5910  1.3018
 1059SOL    HW214814   4.419   3.432  11.500  1.8311  2.1567  2.3535
 1060SOL     OW14815   0.887   4.324   1.457 -0.3806 -0.4397  0.0023
 1060SOL    HW114816   0.897   4.318   1.552 -4.1044  0.0269  0.4053
 1060SOL    HW214817   0.945   4.399   1.442 -0.4354 -0.4694 -0.3677
 1061SOL     OW14818   3.849   4.328  15.349  0.4733 -0.7086 -0.0880
 1061SOL    HW114819   3.796   4.289  15.279 -1.9697  0.0339  1.3418
 1061SOL    HW214820   3.887   4.406  15.307 -1.0702  0.1785  0.1205
 1062SOL     OW14821   0.126   3.956   3.915  0.4253 -0.5170  0.1422
 1062SOL    HW114822   0.069   3.897   3.964  0.7887 -0.2750  0.8633
 1062SOL    HW214823   0.211   3.943   3.958  0.0565 -0.7606  0.8017
 1063SOL     OW14824   3.407   2.322   1.514 -0.1500 -0.2927 -0.3561
 1063SOL    HW114825   3.389   2.267   1.438 -0.6971 -0.4164 -0.1342
 1063SOL    HW214826   3.352   2.399   1.495  1.1653  0.6890 -0.2281
 1064SOL     OW14827   2.293   4.233   2.127 -0.5987  0.2397 -0.4870
 1064SOL    HW114828   2.362   4.295   2.147  0.3303 -1.1272  0.5348
 1064SOL    HW214829   2.340   4.151   2.109 -1.6124 -0.2748 -0.8225
 1065SOL     OW14830   0.797   0.720   1.651  0.5009  0.3668 -0.4799
 1065SOL    HW114831   0.889   0.716   1.625 -0.3221 -2.2455 -2.9976
 1065SOL    HW214832   0.799   0.777   1.728  3.2944 -1.3503  0.7283
 1066SOL     OW14833   0.272   3.268   9.382 -0.3844 -0.1900 -0.8634
 1066SOL    HW114834   0.350   3.227   9.345 -0.2676  0.2778 -1.1358
 1066SOL    HW214835   0.313   3.334   9.438  0.0910 -0.0127 -1.4121
 1067SOL     OW14836   4.271   3.079   8.431  0.2175 -0.1377  0.0180
 1067SOL    HW114837   4.245   3.101   8.521 -1.9345  3.5494 -1.4667
 1067SOL    HW214838   4.338   3.017   8.456  0.2247 -0.6405 -1.2647
 1068SOL     OW14839   4.329   4.223   9.575 -0.1077  0.4672 -0.1761
 1068SOL    HW114840   4.293   4.179   9.498 -1.4094  2.1108 -0.5151
 1068SOL    HW214841   4.260   4.209   9.639  1.4124 -0.3625  1.2685
 1069SOL     OW14842   2.109   4.399   4.273  0.4368 -0.1966  0.2286
 1069SOL    HW114843   2.152   4.316   4.255  0.6178 -0.1707  0.5358
 1069SOL    HW214844   2.182   4.451   4.308 -0.5628  0.5738  1.1586
 1070SOL     OW14845   4.206   0.753   2.807 -0.9231  0.3737  0.3689
 1070SOL    HW114846   4.187   0.841   2.773 -2.9833 -0.8575 -1.7015
 1070SOL    HW214847   4.158   0.705   2.739  0.2673  2.1271 -1.7084
 1071SOL     OW14848   4.358   1.927   2.653  1.0418 -0.4921 -0.5684
 1071SOL    HW114849   4.319   1.849   2.613  0.7993  0.1875 -1.6595
 1071SOL    HW214850   4.421   1.892   2.716  0.1515 -2.7523 -0.8995
 1072SOL     OW14851   3.832   2.813   7.392 -0.6072  0.0978  1.0539
 1072SOL    HW114852   3.885   2.877   7.440  0.3573 -0.8066  1.2012
 1072SOL    HW214853   3.782   2.884   7.351  2.0407  1.8033  0.7560
 1073SOL     OW14854   1.484   2.892  14.878 -0.6156 -0.4039  0.2946
 1073SOL    HW114855   1.484   2.797  14.879  0.9144 -0.3958 -0.1616
 1073SOL    HW214856   1.570   2.904  14.919 -1.1586 -0.1360  1.3848
 1074SOL     OW14857   0.170   1.679   2.255 -0.2934 -0.0868 -0.1730
 1074SOL    HW114858   0.242   1.742   2.264 -0.5172 -0.0108  1.0632
 1074SOL    HW214859   0.103   1.717   2.312 -0.4279 -1.8618  0.8428
 1075SOL     OW14860   1.937   2.201   1.995 -0.5233  0.4706  0.2539
 1075SOL    HW114861   1.886   2.181   1.917 -0.3918 -0.4804  0.4109
 1075SOL    HW214862   1.877   2.267   2.030 -0.4819  0.6868 -0.0892
 1076SOL     OW14863   4.375   2.655   6.912  0.1535 -0.5113  0.2132
 1076SOL    HW114864   4.295   2.659   6.860  0.1921 -1.0653  0.1065
 1076SOL    HW214865   4.389   2.748   6.930 -0.3301 -0.4063  0.0522
 1077SOL     OW14866   0.274   1.446   2.270  0.0334  0.3273 -0.3082
 1077SOL    HW114867   0.334   1.469   2.199  1.8845 -0.7701  0.8940
 1077SOL    HW214868   0.220   1.524   2.265  0.0305  0.3039 -0.6290
 1078SOL     OW14869   1.321   1.051   0.967  0.1896  0.5831  0.4832
 1078SOL    HW114870   1.341   1.141   0.993  2.3924  0.0432  0.6283
 1078SOL    HW214871   1.229   1.044   0.992  0.4491 -1.7417  0.8335
 1079SOL     OW14872   2.962   1.883   2.095  0.2962 -0.0512 -0.0836
 1079SOL    HW114873   2.969   1.971   2.132  0.9926  0.0293 -0.4057
 1079SOL    HW214874   3.011   1.829   2.157 -0.5613 -1.5742 -0.7274
 1080SOL     OW14875   4.372   0.711   8.526  0.0407  0.0094 -0.5832
 1080SOL    HW114876   4.285   0.721   8.563  1.1044 -0.1538  2.0013
 1080SOL    HW214877   4.381   0.786   8.467 -0.3151  1.0392  0.6560
 1081SOL     OW14878   3.009   2.536  13.535 -0.0247  0.1544  0.0802
 1081SOL    HW114879   2.930   2.567  13.491  0.9180  3.0506  0.3838
 1081SOL    HW214880   3.043   2.617  13.575  4.4863 -1.2201 -0.8915
 1082SOL     OW14881   1.245   0.176   3.635 -0.0112 -0.3743  0.0157
 1082SOL    HW114882   1.271   0.142   3.549 -0.3255  0.3520 -0.3638
 1082SOL    HW214883   1.234   0.270   3.621  2.2355 -0.2952 -1.2011
 1083SOL     OW14884   1.994   1.837  10.003 -0.0270 -0.3760 -0.3512
 1083SOL    HW114885   2.082   1.801  10.009 -0.4124 -1.2122  0.2313
 1083SOL    HW214886   1.965   1.797   9.921  1.5670 -3.0142  0.3939
 1084SOL     OW14887   2.768   2.751   1.207  0.4190  0.1530 -0.2799
 1084SOL    HW114888   2.833   2.685   1.184 -1.0409 -0.9972 -1.1207
 1084SOL    HW214889   2.832   2.822   1.199  0.8174 -0.2189 -0.4242
 1085SOL     OW14890   0.074   0.796   6.951  0.3675  0.6696 -0.1019
 1085SOL    HW114891   4.733   0.760   6.915  0.0901 -1.0069  2.2598
 1085SOL    HW214892   0.105   0.734   7.016 -1.8167 -0.4291 -0.1173
 1086SOL     OW14893   2.811   1.282   4.202 -0.1691 -0.2857  0.2554
 1086SOL    HW114894   2.838   1.217   4.138  0.9290  0.8540 -0.4233
 1086SOL    HW214895   2.776   1.351   4.144 -0.3318 -0.6869 -0.1225
 1087SOL     OW14896   3.777   4.434   3.180  0.7177 -0.2708  0.1205
 1087SOL    HW114897   3.724   4.476   3.112  1.6926  1.7645  0.6186
 1087SOL    HW214898   3.864   4.466   3.159 -0.7919  2.2861 -2.2950
 1088SOL     OW14899   0.898   3.522   3.174 -0.1986  0.6677  0.0515
 1088SOL    HW114900   0.941   3.593   3.125 -1.2600  0.3407 -1.3502
 1088SOL    HW214901   0.975   3.466   3.181 -1.4778 -1.2648 -1.3159
 1089SOL     OW14902   4.720   2.977   0.598 -0.3860  0.2367 -0.5331
 1089SOL    HW114903   0.072   2.993   0.625 -0.7721 -0.6952  1.3158
 1089SOL    HW214904   4.700   3.047   0.535 -0.6142 -0.9578 -1.7928
 1090SOL     OW14905   0.469   3.332  13.170  0.0352  0.9020  0.7434
 1090SOL    HW114906   0.485   3.415  13.216  1.6278 -0.1282  2.0525
 1090SOL    HW214907   0.439   3.362  13.084  0.0573  2.5044  1.2876
 1091SOL     OW14908   2.961   3.249   6.811  0.1341 -0.4378  0.2942
 1091SOL    HW114909   2.923   3.286   6.891  1.9541 -0.1450  1.0183
 1091SOL    HW214910   2.934   3.158   6.812 -1.7196  0.1465  3.0536
 1092SOL     OW14911   4.347   0.478  12.497  0.1870 -0.3629 -0.7822
 1092SOL    HW114912   4.340   0.385  12.476 -0.2397 -0.2563 -1.1019
 1092SOL    HW214913   4.353   0.466  12.592 -1.0456  2.7745 -0.3382
 1093SOL     OW14914   0.972   4.568   4.616  0.1526 -0.1642 -0.2442
 1093SOL    HW114915   1.038   4.621   4.571  0.8206  1.0320  2.1592
 1093SOL    HW214916   0.944   4.497   4.558 -2.2043  0.8452 -0.3459
 1094SOL     OW14917   3.863   1.638   1.945 -0.0429 -0.9409  0.2544
 1094SOL    HW114918   3.810   1.590   2.008 -0.1732  0.3453  1.1285
 1094SOL    HW214919   3.840   1.606   1.858  1.3279 -0.3925 -0.3153
 1095SOL     OW14920   2.124   2.791  13.863 -0.2781  0.2645 -0.5218
 1095SOL    HW114921   2.146   2.706  13.901 -1.3613  0.1525 -0.1323
 1095SOL    HW214922   2.052   2.815  13.921 -1.1982 -1.2836 -1.0412
 1096SOL     OW14923   4.695   2.799  12.171 -0.0797 -0.0159 -0.7288
 1096SOL    HW114924   0.014   2.818  12.097  0.1017  1.0426 -0.3056
 1096SOL    HW214925   0.017   2.788  12.244  0.4206 -0.5450 -1.2285
 1097SOL     OW14926   0.098   0.720   0.163  0.0428  0.2026  0.0386
 1097SOL    HW114927   0.052   0.669   0.096  3.6314 -1.5400 -1.0800
 1097SOL    HW214928   0.149   0.786   0.117 -0.1737  0.4146  0.1014
 1098SOL     OW14929   0.445   3.503   6.935  0.3589  0.1878 -0.3705
 1098SOL    HW114930   0.511   3.503   6.866 -1.5498 -2.3539 -2.1782
 1098SOL    HW214931   0.497   3.511   7.015 -0.1127  1.4747 -0.1881
 1099SOL     OW14932   3.288   2.491   7.027  0.1017 -0.1976 -0.0104
 1099SOL    HW114933   3.249   2.463   6.944  1.2367 -0.1751 -0.5522
 1099SOL    HW214934   3.214   2.501   7.086  0.6520 -0.1071  0.6642
 1100SOL     OW14935   2.974   3.905   3.652 -0.2754  0.5627  0.0612
 1100SOL    HW114936   3.026   3.854   3.714 -0.5069  0.1219 -0.1111
 1100SOL    HW214937   2.886   3.881   3.681  0.4075 -0.7566  1.0440
 1101SOL     OW14938   4.029   2.771   1.099  0.6454  0.0641  0.7280
 1101SOL    HW114939   4.074   2.686   1.099 -1.9929 -1.3225 -1.4194
 1101SOL    HW214940   4.027   2.788   1.193 -0.6102 -2.5358  1.1730
 1102SOL     OW14941   3.952   2.875   1.821  0.4432  0.4789 -0.0449
 1102SOL    HW114942   3.889   2.901   1.888  2.7539 -0.2181  2.4202
 1102SOL    HW214943   4.005   2.814   1.872 -3.4651 -2.6027  0.2483
 1103SOL     OW14944   4.565   1.632   4.835  0.1014  0.2549  0.6860
 1103SOL    HW114945   4.542   1.704   4.777 -0.3832  0.6718  1.3882
 1103SOL    HW214946   4.502   1.567   4.802  1.6587 -2.2651  2.6281
 1104SOL     OW14947   2.511   3.594   5.040  0.7737  0.4001  0.5843
 1104SOL    HW114948   2.502   3.592   4.945 -0.7690 -0.2289  0.7493
 1104SOL    HW214949   2.515   3.500   5.061  0.4850  0.0889 -0.7636
 1105SOL     OW14950   4.034   2.916   4.158  0.0446  0.2573  0.0088
 1105SOL    HW114951   4.037   2.848   4.225  3.3201  0.8276  0.3981
 1105SOL    HW214952   4.122   2.954   4.158  0.3815 -0.5321 -1.3554
 1106SOL     OW14953   2.575   3.228   9.189 -0.0813 -0.7126 -0.3911
 1106SOL    HW114954   2.538   3.295   9.133  0.5133 -0.2790 -0.2619
 1106SOL    HW214955   2.523   3.220   9.269  0.9915  2.5355  0.6081
 1107SOL     OW14956   0.179   0.737  14.328  0.3297  0.5020 -0.0973
 1107SOL    HW114957   0.113   0.670  14.308  0.3904  0.4075  0.0190
 1107SOL    HW214958   0.119   0.811  14.327  1.2402  1.2236 -1.3355
 1108SOL     OW14959   0.503   0.527   2.432  0.1231  0.0389  0.1387
 1108SOL    HW114960   0.518   0.472   2.510  1.3437  0.5605  0.2580
 1108SOL    HW214961   0.424   0.483   2.401 -0.1061  0.1909  0.5070
 1109SOL     OW14962   1.498   3.142  14.300 -0.3860 -0.1779 -0.2203
 1109SOL    HW114963   1.447   3.215  14.266 -1.1656 -0.9877 -0.7642
 1109SOL    HW214964   1.445   3.069  14.269 -1.1057  0.1791  0.1602
 1110SOL     OW14965   2.096   1.869   5.870  0.7498 -0.0682 -0.0929
 1110SOL    HW114966   2.006   1.837   5.873  1.1506 -1.1016  1.2644
 1110SOL    HW214967   2.100   1.937   5.937  1.9788  0.4506 -0.6871
 1111SOL     OW14968   2.478   1.366   7.986 -0.2647 -0.3516 -0.1856
 1111SOL    HW114969   2.535   1.340   8.059  1.8079  2.7882 -0.6795
 1111SOL    HW214970   2.521   1.330   7.908  0.9264 -0.4049  0.5018
 1112SOL     OW14971   4.261   1.563   8.121  0.4414  0.0075 -0.1584
 1112SOL    HW114972   4.276   1.657   8.136 -3.4776  0.7967 -1.1953
 1112SOL    HW214973   4.227   1.533   8.205 -1.7318  0.7249 -0.7797
 1113SOL     OW14974   0.225   4.321   4.753 -0.6563  0.3860 -0.2427
 1113SOL    HW114975   0.151   4.263   4.736 -1.6233  1.5639 -0.0093
 1113SOL    HW214976   0.193   4.400   4.710  3.2963  1.3219 -1.5419
 1114SOL     OW14977   4.088   1.051   7.695  0.4870  0.5322  0.4197
 1114SOL    HW114978   4.087   1.071   7.601  0.3706 -0.6160  0.1751
 1114SOL    HW214979   3.999   1.016   7.702  0.7161 -0.1202  0.0805
 1115SOL     OW14980   2.133   2.671   6.860 -0.4517 -0.0496  0.5429
 1115SOL    HW114981   2.194   2.616   6.811 -0.2770 -0.6332  1.4116
 1115SOL    HW214982   2.126   2.751   6.808  0.2223  0.8448  1.8184
 1116SOL     OW14983   1.995   1.187   5.805 -0.2407 -0.0502 -0.5831
 1116SOL    HW114984   2.013   1.093   5.801 -0.8670 -0.0498 -3.1459
 1116SOL    HW214985   1.938   1.202   5.881  1.0934  1.7369  0.0876
 1117SOL     OW14986   1.886   0.385  11.550  0.3695 -0.1513  0.1211
 1117SOL    HW114987   1.906   0.445  11.478 -1.7933  0.5311  0.0697
 1117SOL    HW214988   1.946   0.427  11.610  2.2070 -0.3167 -1.5975
 1118SOL     OW14989   4.657   2.617   6.930 -0.1433  0.3042 -0.0414
 1118SOL    HW114990   4.569   2.651   6.911 -0.0043  1.2396  1.0060
 1118SOL    HW214991   4.712   2.694   6.939  0.7136 -0.1368 -1.5105
 1119SOL     OW14992   1.771   0.778  15.205 -0.3448 -0.4160 -0.1123
 1119SOL    HW114993   1.759   0.851  15.267  0.2667  0.3505 -0.8941
 1119SOL    HW214994   1.686   0.760  15.164  0.6135 -0.9957 -1.8270
 1120SOL     OW14995   2.456   2.873   5.849  0.3281 -0.2425 -0.3912
 1120SOL    HW114996   2.475   2.873   5.755 -1.2717 -1.4976 -0.7168
 1120SOL    HW214997   2.362   2.859   5.849  0.5965 -1.9329 -2.5382
 1121SOL     OW14998   3.187   2.679  17.099 -0.1432 -0.0342  0.5316
 1121SOL    HW114999   3.282   2.665  17.104 -0.1997 -1.4503 -2.0022
 1121SOL    HW215000   3.176   2.774  17.087  1.5947  0.1436  0.2500
 1122SOL     OW15001   1.649   0.422   1.625 -0.6213 -0.1203  0.2024
 1122SOL    HW115002   1.671   0.329   1.637  1.3502  0.4481  1.0311
 1122SOL    HW215003   1.721   0.464   1.578  0.2589  1.4964  3.0256
 1123SOL     OW15004   2.120   4.155  14.487 -0.1102  0.3133 -0.1856
 1123SOL    HW115005   2.156   4.177  14.401  2.1130  0.1353  0.6849
 1123SOL    HW215006   2.194   4.169  14.546 -0.6743 -0.0820  0.6110
 1124SOL     OW15007   4.391   0.939   8.380  0.0053  0.4646 -0.3117
 1124SOL    HW115008   4.379   0.950   8.286 -1.3494 -1.8991 -0.4365
 1124SOL    HW215009   4.340   1.010   8.420  2.2344  2.1923 -0.5795
 1125SOL     OW15010   2.182   3.419   2.461  0.1999  0.0289 -0.0868
 1125SOL    HW115011   2.126   3.343   2.474  0.1805 -0.3118 -2.2218
 1125SOL    HW215012   2.245   3.417   2.533  2.7100  1.6291 -2.2037
 1126SOL     OW15013   4.703   4.545   3.061 -0.3443 -0.0345  0.8758
 1126SOL    HW115014   0.010   4.556   3.144 -1.6015 -3.2928  2.0031
 1126SOL    HW215015   0.037   4.550   2.999 -1.2035  0.2654 -0.1070
 1127SOL     OW15016   2.788   1.031   6.715  0.0090 -0.2165 -0.5082
 1127SOL    HW115017   2.711   1.075   6.750  0.6849  0.8306 -0.3447
 1127SOL    HW215018   2.755   0.956   6.665  0.4165 -0.3824 -0.5285
 1128SOL     OW15019   4.322   2.172   2.550  0.9263 -0.3579  0.3199
 1128SOL    HW115020   4.345   2.084   2.579 -0.7043 -1.3875 -1.5023
 1128SOL    HW215021   4.227   2.167   2.552  0.8294  2.2897  2.2068
 1129SOL     OW15022   3.655   4.158   8.847 -0.4106 -0.2190 -0.0391
 1129SOL    HW115023   3.700   4.137   8.765  2.1109  1.2724  0.9842
 1129SOL    HW215024   3.706   4.233   8.876 -0.8828 -1.5252  4.1388
 1130SOL     OW15025   2.222   2.716  17.248 -0.0337 -0.0963 -0.9434
 1130SOL    HW115026   2.184   2.638  17.290 -0.5282  1.5887  1.7448
 1130SOL    HW215027   2.191   2.780  17.312  1.4199  0.1276 -0.4734
 1131SOL     OW15028   1.300   0.514   7.649 -0.8591 -0.4373  0.8649
 1131SOL    HW115029   1.342   0.595   7.621 -1.0811 -0.4784  0.4119
 1131SOL    HW215030   1.218   0.543   7.688  0.3556  2.8689  0.9378
 1132SOL     OW15031   1.757   4.583  12.911 -0.3925  0.1405 -0.0457
 1132SOL    HW115032   1.759   4.509  12.972  1.1600 -1.4691 -1.9937
 1132SOL    HW215033   1.823   4.556  12.847  0.7239 -0.0950  1.2069
 1133SOL     OW15034   4.667   1.513   6.470 -0.2109  0.2988 -0.0788
 1133SOL    HW115035   4.596   1.574   6.452 -0.0028  1.1522  1.9059
 1133SOL    HW215036   4.654   1.443   6.406 -1.0865 -0.3216  0.7693
 1134SOL     OW15037   0.357   2.093   4.699  0.1981  0.1880 -0.2571
 1134SOL    HW115038   0.270   2.126   4.723  0.1801 -0.3297  0.3570
 1134SOL    HW215039   0.410   2.113   4.776 -0.1882 -0.4125  0.1633
 1135SOL     OW15040   2.065   1.650  16.210 -0.1867  0.0491  0.5311
 1135SOL    HW115041   2.110   1.712  16.267  2.3947 -1.2105 -0.1411
 1135SOL    HW215042   1.995   1.711  16.187  1.2386  1.3905 -0.2564
 1136SOL     OW15043   2.521   3.958   7.616  0.0084  0.4761 -0.0156
 1136SOL    HW115044   2.437   3.968   7.659  0.3582  0.5317  0.6649
 1136SOL    HW215045   2.553   3.875   7.652 -0.0896  0.4760  0.0712
 1137SOL     OW15046   0.489   2.762   3.230 -0.4571 -0.1225 -0.7200
 1137SOL    HW115047   0.518   2.821   3.161 -0.2675 -0.6786 -1.1144
 1137SOL    HW215048   0.394   2.774   3.227 -0.7164 -2.0573 -0.8228
 1138SOL     OW15049   1.569   2.572   4.352  0.5381 -0.4221 -0.3195
 1138SOL    HW115050   1.522   2.655   4.345 -1.1370 -1.1167  2.6441
 1138SOL    HW215051   1.487   2.523   4.355  0.3817 -0.0986  0.7403
 1139SOL     OW15052   2.002   4.444  16.032 -0.1935  0.0257  0.0681
 1139SOL    HW115053   2.097   4.436  16.035 -0.1212  0.7050 -0.3898
 1139SOL    HW215054   1.979   4.352  16.043 -1.6581  0.1523 -1.8888
 1140SOL     OW15055   0.413   2.344  14.738 -0.3413  0.1041 -0.3704
 1140SOL    HW115056   0.333   2.293  14.749 -1.1835  1.8861  1.8526
 1140SOL    HW215057   0.383   2.435  14.734  0.1271  0.2146 -1.5484
 1141SOL     OW15058   1.060   3.663   6.976 -0.4224  0.2008  0.1891
 1141SOL    HW115059   1.050   3.569   6.964 -2.3682  0.2759  1.2247
 1141SOL    HW215060   0.968   3.687   6.962 -0.6856 -0.4227  0.8438
 1142SOL     OW15061   1.462   4.601   2.408  0.2118 -0.0275  0.4527
 1142SOL    HW115062   1.552   4.569   2.399 -0.2337 -0.6248 -1.9304
 1142SOL    HW215063   1.493   4.689   2.429  0.8019 -0.9446  3.4056
 1143SOL     OW15064   2.288   3.438   8.229  0.2978  0.1376 -0.1016
 1143SOL    HW115065   2.273   3.364   8.289 -0.3824  0.7112  0.4273
 1143SOL    HW215066   2.311   3.403   8.143 -0.7261  0.9123 -0.6792
 1144SOL     OW15067   1.815   0.490  14.922 -0.6417 -0.4022 -0.3886
 1144SOL    HW115068   1.838   0.495  15.015 -2.2645  0.1733 -0.0218
 1144SOL    HW215069   1.896   0.523  14.883  0.5633 -2.0084  0.7569
 1145SOL     OW15070   4.158   1.634   0.344  0.3487  0.8359 -0.2116
 1145SOL    HW115071   4.066   1.658   0.352  0.0027 -1.2228  2.3531
 1145SOL    HW215072   4.162   1.584   0.426  1.9495  0.6564 -0.4045
 1146SOL     OW15073   4.092   4.079   6.047 -0.3806 -0.1564  0.2252
 1146SOL    HW115074   4.044   3.998   6.029 -0.4393 -0.2659  0.8632
 1146SOL    HW215075   4.148   4.046   6.118 -0.7168 -0.6115  0.2776
 1147SOL     OW15076   1.284   0.874   0.710 -0.9744 -0.4202 -0.0777
 1147SOL    HW115077   1.277   0.779   0.718  1.0834 -0.5733 -0.0710
 1147SOL    HW215078   1.274   0.904   0.801  0.4700  0.2514 -0.1311
 1148SOL     OW15079   1.428   1.754   7.505 -0.5208  0.0904  0.3450
 1148SOL    HW115080   1.369   1.686   7.538 -0.7723  0.2864  0.2974
 1148SOL    HW215081   1.399   1.825   7.562  2.3211  2.8619 -1.7074
 1149SOL     OW15082   1.859   0.855   4.005 -0.5076 -0.4517 -0.0441
 1149SOL    HW115083   1.908   0.857   3.923 -1.1867  1.1176 -0.4025
 1149SOL    HW215084   1.849   0.949   4.018  1.1193 -0.0017 -2.0789
 1150SOL     OW15085   4.254   2.778   4.008 -0.2045  0.1241 -0.7520
 1150SOL    HW115086   4.329   2.722   4.026 -1.5517 -0.6058  2.6013
 1150SOL    HW215087   4.283   2.817   3.926  1.0014  1.0477  0.1033
 1151SOL     OW15088   0.400   1.204   1.608  0.1797 -0.1839  0.3971
 1151SOL    HW115089   0.328   1.178   1.551  0.1289  0.3256  0.2308
 1151SOL    HW215090   0.369   1.163   1.689 -0.0646  0.9362  0.8838
 1152SOL     OW15091   0.950   3.216  12.859 -0.5125 -0.1827 -0.4154
 1152SOL    HW115092   1.037   3.185  12.833  1.0746  1.8370  2.5431
 1152SOL    HW215093   0.963   3.230  12.953  0.6355  1.1757 -0.7774
 1153SOL     OW15094   1.884   0.831   1.405 -0.1513 -0.3782  0.1843
 1153SOL    HW115095   1.870   0.823   1.311  0.0173 -2.8433  0.3593
 1153SOL    HW215096   1.865   0.924   1.416 -1.3292 -0.6218  0.2180
 1154SOL     OW15097   1.506   1.262   6.046  0.9624  0.0912  0.3843
 1154SOL    HW115098   1.419   1.303   6.051  0.9375 -0.1740  2.0992
 1154SOL    HW215099   1.554   1.342   6.071 -1.2895  1.0198  1.7478
 1155SOL     OW15100   2.615   0.136   9.729 -0.1435  0.0668 -0.1460
 1155SOL    HW115101   2.524   0.144   9.759 -0.2341  0.6719 -0.5702
 1155SOL    HW215102   2.655   0.085   9.800 -1.6244 -1.6155 -0.5281
 1156SOL     OW15103   1.305   3.178  12.141 -0.8898 -0.5772  0.4670
 1156SOL    HW115104   1.390   3.177  12.184  0.1944  3.3746 -1.5897
 1156SOL    HW215105   1.273   3.090  12.161 -1.1189 -0.6506 -0.1900
 1157SOL     OW15106   1.375   3.346  11.098  0.0573  0.2990  0.0324
 1157SOL    HW115107   1.312   3.346  11.026 -1.4405  1.9085  1.3257
 1157SOL    HW215108   1.374   3.441  11.111  0.1073  0.0070  2.2435
 1158SOL     OW15109   0.229   3.348   1.385  0.2051  0.7692 -0.0249
 1158SOL    HW115110   0.270   3.397   1.314  1.8867  0.6902  0.8964
 1158SOL    HW215111   0.260   3.401   1.458  0.0629  1.2876 -0.3470
 1159SOL     OW15112   4.173   4.452  14.645 -0.0253 -0.3166 -0.8191
 1159SOL    HW115113   4.119   4.487  14.716 -0.7583 -2.9658 -0.0877
 1159SOL    HW215114   4.221   4.383  14.692  1.4559  0.1067 -1.6918
 1160SOL     OW15115   4.693   3.966  14.136 -0.1263 -0.0645 -0.7535
 1160SOL    HW115116   4.640   4.040  14.107  0.5016  0.6903  0.0054
 1160SOL    HW215117   4.628   3.904  14.169  2.7349 -2.0582  1.1783
 1161SOL     OW15118   1.306   4.431   9.275 -0.2185  0.0360  0.0822
 1161SOL    HW115119   1.374   4.386   9.325 -0.4935 -1.5719 -0.9825
 1161SOL    HW215120   1.323   4.524   9.289 -0.3836  0.1567 -0.5604
 1162SOL     OW15121   3.263   1.323   3.520  0.1103 -0.1703 -0.1643
 1162SOL    HW115122   3.224   1.386   3.459  0.9142  0.3697 -0.1239
 1162SOL    HW215123   3.260   1.240   3.473 -1.8573  0.8023 -1.7691
 1163SOL     OW15124   2.511   4.443   2.137 -0.2856  0.0094 -0.1979
 1163SOL    HW115125   2.603   4.423   2.156 -0.4291  1.3199  1.7937
 1163SOL    HW215126   2.525   4.536   2.120  1.6444 -0.2718 -0.1559
 1164SOL     OW15127   1.739   3.028   3.794  0.1780  0.6165  0.4949
 1164SOL    HW115128   1.728   3.003   3.885 -1.5876  1.6483  0.5834
 1164SOL    HW215129   1.693   2.961   3.743 -1.0000  1.4644  0.4350
 1165SOL     OW15130   2.821   2.157   8.718  0.7323 -0.5134  0.3221
 1165SOL    HW115131   2.740   2.145   8.769 -0.3477  0.0916 -1.2415
 1165SOL    HW215132   2.836   2.069   8.683 -1.9746 -0.2506 -1.4916
 1166SOL     OW15133   0.169   3.585   6.866  0.4321  0.1849 -0.1930
 1166SOL    HW115134   0.225   3.508   6.862  1.2143  0.7225  0.3991
 1166SOL    HW215135   0.113   3.572   6.789 -0.0005 -1.7139  0.4429
 1167SOL     OW15136   3.475   2.110   5.063  0.1844  0.2401  0.3265
 1167SOL    HW115137   3.466   2.017   5.043 -3.8305  0.7270 -0.1519
 1167SOL    HW215138   3.491   2.101   5.157 -1.7636 -0.0639  0.6315
 1168SOL     OW15139   2.779   1.981   5.151  0.5801 -0.3304 -0.1588
 1168SOL    HW115140   2.717   2.013   5.085  1.8381 -0.5798 -1.4472
 1168SOL    HW215141   2.806   2.064   5.192  3.4829 -2.4159  2.1158
 1169SOL     OW15142   4.024   1.732   8.432  0.4421 -0.4887 -0.2502
 1169SOL    HW115143   4.093   1.763   8.373 -1.7815 -0.0993 -2.6557
 1169SOL    HW215144   3.953   1.698   8.378 -0.4071  1.4566 -0.3329
 1170SOL     OW15145   3.620   3.658   5.066  0.6049 -0.0332  0.2249
 1170SOL    HW115146   3.710   3.626   5.053  0.8290  0.7367 -0.1505
 1170SOL    HW215147   3.592   3.639   4.976  3.0556  2.0164 -0.9641
 1171SOL     OW15148   1.779   4.516   2.585  0.7543  0.2825  0.8912
 1171SOL    HW115149   1.741   4.499   2.499  3.0623 -0.8683  0.1146
 1171SOL    HW215150   1.852   4.577   2.593 -0.6651  1.9828  0.8297
 1172SOL     OW15151   0.083   3.214   6.594 -0.2367 -0.5173 -0.0101
 1172SOL    HW115152   0.138   3.146   6.633 -1.8668 -3.0840 -2.2470
 1172SOL    HW215153   0.069   3.261   6.676  0.7523  0.5758 -0.4722
 1173SOL     OW15154   3.077   4.084   1.927 -0.1977 -0.0135 -0.4756
 1173SOL    HW115155   3.039   4.055   1.844  1.0575  1.0769 -1.4363
 1173SOL    HW215156   3.130   4.156   1.891  0.8437 -0.3404  0.4022
 1174SOL     OW15157   3.291   3.277  13.347  0.3998 -0.1977  0.0784
 1174SOL    HW115158   3.321   3.286  13.438 -2.4162  0.5829  0.9369
 1174SOL    HW215159   3.223   3.214  13.371  1.3194 -1.6673 -1.1761
 1175SOL     OW15160   0.107   3.265   1.160 -0.0821  0.6076  0.2550
 1175SOL    HW115161   0.043   3.331   1.134 -0.2481 -0.1849 -1.3479
 1175SOL    HW215162   0.127   3.285   1.252  2.3813  0.0288 -0.1426
 1176SOL     OW15163   0.183   1.872   7.750  0.2254  0.5256  0.1232
 1176SOL    HW115164   0.114   1.837   7.693  2.5211  0.0253 -2.3441
 1176SOL    HW215165   0.251   1.868   7.682  1.7959 -0.7740  1.7771
 1177SOL     OW15166   1.007   3.551  12.995 -0.1331 -0.0887  0.0170
 1177SOL    HW115167   1.030   3.548  12.902  2.1236 -1.3458  0.6156
 1177SOL    HW215168   1.067   3.622  13.017 -0.2689  0.3517 -1.0183
 1178SOL     OW15169   3.945   0.250   6.297  0.3848 -0.5152  0.5121
 1178SOL    HW115170   3.879   0.317   6.281  0.4585 -0.9456 -1.6331
 1178SOL    HW215171   3.926   0.225   6.388  0.7870  0.1033  0.7670
 1179SOL     OW15172   0.596   0.963   0.936 -0.0378 -0.0069 -0.2437
 1179SOL    HW115173   0.613   1.052   0.965  0.6946 -0.3731  0.4432
 1179SOL    HW215174   0.640   0.918   1.008  0.8536 -1.5120 -1.7129
 1180SOL     OW15175   0.382   4.206  16.875 -0.0802 -0.3623  0.6565
 1180SOL    HW115176   0.445   4.177  16.940 -1.9892 -1.7614  1.8647
 1180SOL    HW215177   0.396   4.301  16.872 -1.3550 -0.1467  1.5304
 1181SOL     OW15178   1.539   0.644   3.195  0.6971 -0.3588 -0.2311
 1181SOL    HW115179   1.476   0.576   3.218 -0.4907  1.3616  1.6243
 1181SOL    HW215180   1.597   0.607   3.129  0.4995 -2.0538  0.5509
 1182SOL     OW15181   3.776   0.476  11.831 -0.0945  0.2713  0.3763
 1182SOL    HW115182   3.708   0.535  11.861  0.3225  1.4101 -0.9466
 1182SOL    HW215183   3.785   0.510  11.742 -1.1878 -1.1263 -0.2720
 1183SOL     OW15184   0.048   3.215   9.212  0.3113 -0.2379  0.0559
 1183SOL    HW115185   0.112   3.233   9.280 -0.5587  1.3306  0.4727
 1183SOL    HW215186   0.028   3.123   9.228 -0.9630  0.1935  0.9462
 1184SOL     OW15187   3.171   1.565   0.530  0.3058  0.3138  0.5351
 1184SOL    HW115188   3.180   1.470   0.530  1.8648  0.4479 -0.1605
 1184SOL    HW215189   3.204   1.586   0.442 -1.4249 -1.2939 -0.4933
 1185SOL     OW15190   4.350   1.537   0.685  0.0610  0.0731  0.2139
 1185SOL    HW115191   4.313   1.463   0.735  1.1692 -1.4647 -1.2341
 1185SOL    HW215192   4.290   1.611   0.693  0.7130  0.4537  1.6061
 1186SOL     OW15193   3.453   3.401  13.035 -0.5026  0.6580 -0.0875
 1186SOL    HW115194   3.513   3.381  12.963  1.1333  0.9401  1.2006
 1186SOL    HW215195   3.441   3.310  13.063  0.6813  0.8823  1.1515
 1187SOL     OW15196   0.354   1.464  16.283 -0.0065 -0.2292  0.1155
 1187SOL    HW115197   0.391   1.395  16.337  2.5020 -0.1666 -1.5152
 1187SOL    HW215198   0.298   1.419  16.220 -0.1324 -0.3476  0.3159
 1188SOL     OW15199   4.661   3.112  15.917 -0.0498 -0.8642 -0.4271
 1188SOL    HW115200   4.584   3.159  15.949  0.6126  0.3583 -0.5933
 1188SOL    HW215201   4.632   3.022  15.931  0.0980 -0.6295  1.4452
 1189SOL     OW15202   4.270   1.200   1.372  1.0422 -0.6770  0.2861
 1189SOL    HW115203   4.184   1.198   1.413  0.9823  0.4091  0.1923
 1189SOL    HW215204   4.327   1.252   1.428 -0.5358 -0.5119  1.7032
 1190SOL     OW15205   3.298   4.370   3.629 -0.2753 -0.7663  0.7170
 1190SOL    HW115206   3.370   4.387   3.689 -0.0342  0.0805  0.1780
 1190SOL    HW215207   3.229   4.380   3.696 -1.5992  1.2740 -0.9426
 1191SOL     OW15208   0.007   0.904   7.617  0.7262  0.2526 -0.0601
 1191SOL    HW115209   0.079   0.967   7.621 -0.5191  1.6232  0.6006
 1191SOL    HW215210   0.051   0.833   7.569 -0.4726  0.7963 -1.9985
 1192SOL     OW15211   1.080   0.797   0.917  0.0524  0.0960  0.6714
 1192SOL    HW115212   1.063   0.887   0.945 -0.0281  0.2833  0.0063
 1192SOL    HW215213   1.054   0.807   0.826  1.4445  0.3300  0.2973
 1193SOL     OW15214   0.504   1.522   8.517 -0.3209 -0.5069 -0.2716
 1193SOL    HW115215   0.493   1.461   8.590 -0.5895 -0.7965 -0.5550
 1193SOL    HW215216   0.599   1.538   8.511 -0.4014 -0.0928 -0.4478
 1194SOL     OW15217   1.349   2.870   8.336 -0.0269  0.7783  0.0877
 1194SOL    HW115218   1.439   2.899   8.317  0.1362  0.1213 -0.1849
 1194SOL    HW215219   1.316   2.946   8.383 -2.2150  1.1913 -2.1265
 1195SOL     OW15220   3.772   0.467  14.178 -0.6078  0.5595 -0.0356
 1195SOL    HW115221   3.727   0.551  14.170 -1.1356  0.4368  1.6447
 1195SOL    HW215222   3.692   0.415  14.189 -0.4376  0.1986 -0.5279
 1196SOL     OW15223   1.621   3.168   2.531 -0.0261 -0.9067  0.0855
 1196SOL    HW115224   1.667   3.252   2.523  0.4728 -1.2838 -1.0823
 1196SOL    HW215225   1.683   3.103   2.498 -0.1309 -0.5572 -0.7957
 1197SOL     OW15226   4.570   2.357   4.269 -0.0958 -0.5131 -0.3162
 1197SOL    HW115227   4.572   2.310   4.353 -0.9941 -1.5954 -0.9046
 1197SOL    HW215228   4.605   2.293   4.207 -1.7107 -0.6890 -1.0583
 1198SOL     OW15229   0.084   3.923   8.252 -0.0761  0.0580 -0.0349
 1198SOL    HW115230   0.087   3.990   8.321 -0.4136 -0.6982  0.7029
 1198SOL    HW215231   0.169   3.885   8.270  0.6841  1.5204 -0.5201
 1199SOL     OW15232   2.399   3.362  10.107  0.5855 -0.3148  0.1564
 1199SOL    HW115233   2.484   3.367  10.150  0.4790 -0.2222  0.3632
 1199SOL    HW215234   2.417   3.302  10.036 -2.1114  0.0222 -0.8097
 1200SOL     OW15235   1.466   3.418   3.379  0.2584  0.3031 -0.6507
 1200SOL    HW115236   1.515   3.439   3.458 -1.0207 -0.5588  0.3596
 1200SOL    HW215237   1.407   3.494   3.382  0.1458  0.1932 -0.0666
 1201SOL     OW15238   0.470   1.543   8.910 -0.1026 -0.0139 -0.7500
 1201SOL    HW115239   0.515   1.463   8.937 -0.3702  1.2552  3.4146
 1201SOL    HW215240   0.419   1.555   8.990  1.0204  2.3308 -0.4055
 1202SOL     OW15241   0.489   3.448   8.233  0.5030 -0.4678 -0.1489
 1202SOL    HW115242   0.474   3.477   8.323 -0.7031  4.0720 -1.7956
 1202SOL    HW215243   0.501   3.533   8.190 -1.0604 -0.5144 -0.6696
 1203SOL     OW15244   0.025   1.927  14.010  0.0880 -0.2858  0.4322
 1203SOL    HW115245   0.094   1.916  13.945  0.0481  1.4650  0.0675
 1203SOL    HW215246   4.688   1.893  13.962 -1.3574  2.2105  0.9168
 1204SOL     OW15247   4.358   0.990   8.870  0.1875 -0.4327  0.0346
 1204SOL    HW115248   4.311   1.067   8.839 -0.0203 -0.5196  0.1315
 1204SOL    HW215249   4.440   1.018   8.829  0.3241  0.0175  0.6233
 1205SOL     OW15250   0.392   0.356   5.802 -0.8692  0.3567  0.0395
 1205SOL    HW115251   0.396   0.264   5.826  0.7716  1.0146  2.2871
 1205SOL    HW215252   0.319   0.378   5.859 -1.9779 -1.9705 -0.4890
 1206SOL     OW15253   3.921   0.977  10.546  0.2468  0.1985  0.1188
 1206SOL    HW115254   3.850   0.989  10.609 -0.6447 -0.1410 -0.8286
 1206SOL    HW215255   3.887   1.030  10.475 -2.2992 -1.7712 -0.1336
 1207SOL     OW15256   2.163   0.698   2.638  0.2006 -0.6099  0.1306
 1207SOL    HW115257   2.213   0.631   2.593 -0.0287 -1.3409  0.9558
 1207SOL    HW215258   2.145   0.654   2.721  0.1313  0.1026  0.4954
 1208SOL     OW15259   0.494   1.501   3.768 -0.4546 -0.1588 -0.1322
 1208SOL    HW115260   0.518   1.476   3.857 -1.5331 -0.3911  0.1006
 1208SOL    HW215261   0.403   1.471   3.764 -0.2552 -0.9571  1.2268
 1209SOL     OW15262   3.527   0.435   8.207 -0.1855 -0.2934 -0.3478
 1209SOL    HW115263   3.532   0.411   8.114 -0.2103 -0.0228 -0.4192
 1209SOL    HW215264   3.464   0.374   8.244  0.8286 -1.7335 -1.0169
 1210SOL     OW15265   0.832   1.010   6.358  0.0129  0.0811  0.1116
 1210SOL    HW115266   0.747   1.054   6.366 -2.1859 -4.2725  0.6027
 1210SOL    HW215267   0.883   1.080   6.316 -0.7193 -0.6522 -2.0067
 1211SOL     OW15268   4.210   0.223   4.119  0.9977 -0.1240  0.1186
 1211SOL    HW115269   4.116   0.227   4.136  1.1926  1.4335  0.7828
 1211SOL    HW215270   4.242   0.199   4.206  0.8511  0.6675  0.3889
 1212SOL     OW15271   1.418   0.400  12.563 -0.2128 -0.4091  0.1224
 1212SOL    HW115272   1.372   0.410  12.646 -3.0088  0.7166 -1.5425
 1212SOL    HW215273   1.509   0.397  12.591 -0.7708 -0.6619  1.9325
 1213SOL     OW15274   3.824   1.310   7.933 -0.1738  0.2687 -0.2197
 1213SOL    HW115275   3.819   1.223   7.973  0.4885  0.4707  0.2895
 1213SOL    HW215276   3.920   1.312   7.924 -0.2388 -1.0529 -1.2555
 1214SOL     OW15277   1.435   0.430   9.166  0.1892 -0.4103 -0.0493
 1214SOL    HW115278   1.381   0.356   9.140 -0.6387  0.0121  0.4629
 1214SOL    HW215279   1.370   0.484   9.210 -0.7049 -0.7873 -0.9218
 1215SOL     OW15280   2.148   0.128  16.911  0.2276 -0.5851 -0.3501
 1215SOL    HW115281   2.081   0.193  16.890  2.6805  1.7673 -0.9099
 1215SOL    HW215282   2.143   0.071  16.835  0.3652 -0.1845 -0.6580
 1216SOL     OW15283   1.009   1.877  10.073  1.2244  0.1401  0.1922
 1216SOL    HW115284   0.998   1.893   9.979  0.1416  1.8911  0.6222
 1216SOL    HW215285   1.018   1.782  10.080  0.8284  0.0607 -0.3635
 1217SOL     OW15286   2.762   2.416  15.194  0.0442  0.5258  0.6269
 1217SOL    HW115287   2.829   2.352  15.218 -1.2692 -1.2346 -0.4396
 1217SOL    HW215288   2.695   2.404  15.261  0.3467  0.6734  0.9611
 1218SOL     OW15289   3.773   3.378   8.568 -0.2102 -0.4605 -0.6162
 1218SOL    HW115290   3.683   3.384   8.537 -0.6011 -2.3685  0.1604
 1218SOL    HW215291   3.815   3.306   8.520  4.8316  1.1718  1.3838
 1219SOL     OW15292   3.539   3.853  14.302 -0.5335  0.0172  0.3489
 1219SOL    HW115293   3.523   3.935  14.254 -0.9729 -0.9458 -1.1696
 1219SOL    HW215294   3.592   3.892  14.371  2.1749  0.0465 -1.7131
 1220SOL     OW15295   0.645   0.798  16.318 -0.5768  0.1673  0.1775
 1220SOL    HW115296   0.721   0.745  16.295 -0.0508  0.7442  0.6026
 1220SOL    HW215297   0.580   0.756  16.262  1.5597 -2.0240 -0.6409
 1221SOL     OW15298   0.029   2.569   7.194  0.3562  0.1185 -0.6935
 1221SOL    HW115299   0.029   2.592   7.101 -0.8556 -1.6015 -1.1191
 1221SOL    HW215300   4.676   2.570   7.218  0.4203  0.4232 -0.4602
 1222SOL     OW15301   1.375   0.605   1.158 -0.0117  0.8218  0.0346
 1222SOL    HW115302   1.383   0.610   1.253 -0.2732 -1.2002  0.1567
 1222SOL    HW215303   1.395   0.697   1.141 -1.4255  0.9790 -0.7957
 1223SOL     OW15304   3.606   1.234   8.701  0.5651 -0.2844 -0.8000
 1223SOL    HW115305   3.651   1.150   8.692  0.1446 -0.4052 -1.7889
 1223SOL    HW215306   3.625   1.243   8.794 -0.8630 -0.6907 -0.4716
 1224SOL     OW15307   1.846   4.493   6.167  0.3200  0.6546  0.1622
 1224SOL    HW115308   1.938   4.517   6.176  0.1917  2.1787 -2.3426
 1224SOL    HW215309   1.828   4.582   6.136  3.9694  1.4503  0.3766
 1225SOL     OW15310   3.968   2.376   3.759 -0.0844  0.5931 -0.0158
 1225SOL    HW115311   3.894   2.338   3.808  0.2162 -0.1597 -0.1375
 1225SOL    HW215312   4.047   2.342   3.802 -0.7093 -0.5903  0.2132
 1226SOL     OW15313   1.800   3.331  16.258  0.5233 -0.5743  0.0379
 1226SOL    HW115314   1.887   3.320  16.221  0.5363 -2.4306  0.6063
 1226SOL    HW215315   1.817   3.311  16.350 -0.2802 -0.9644  0.1054
 1227SOL     OW15316   4.103   1.882   8.217  0.2210  0.4436  0.0231
 1227SOL    HW115317   4.026   1.840   8.178  1.4260 -0.8974 -0.8725
 1227SOL    HW215318   4.069   1.965   8.251 -1.3979 -0.6396  1.0554
 1228SOL     OW15319   2.820   4.424   6.162 -0.3087 -0.1216  0.5086
 1228SOL    HW115320   2.886   4.492   6.149 -0.8930  0.1825 -0.8251
 1228SOL    HW215321   2.747   4.483   6.178 -0.0166  0.5472 -0.6548
 1229SOL     OW15322   0.595   0.419   7.080 -0.1952 -0.2577 -0.3751
 1229SOL    HW115323   0.535   0.378   7.018 -1.2951  0.3062  0.3131
 1229SOL    HW215324   0.573   0.512   7.073 -0.2909 -0.3881 -1.8683
 1230SOL     OW15325   2.513   3.810  12.450 -0.5771 -0.5760 -0.2435
 1230SOL    HW115326   2.494   3.860  12.370  0.7635  1.0102  0.4188
 1230SOL    HW215327   2.443   3.840  12.508  2.5412  2.4899  1.9713
 1231SOL     OW15328   4.194   4.645   8.812  0.6331  0.4291  0.0297
 1231SOL    HW115329   4.148   4.599   8.742  1.4807 -0.0941 -0.1811
 1231SOL    HW215330   4.284   4.629   8.784  0.5190 -1.2323  0.6115
 1232SOL     OW15331   2.236   2.874   4.558  0.1772 -0.4967  0.0294
 1232SOL    HW115332   2.196   2.912   4.479  1.7647  1.8133  0.3506
 1232SOL    HW215333   2.168   2.814   4.589  1.7109 -1.3013  1.8430
 1233SOL     OW15334   0.086   4.421  10.714  0.1491  0.2303 -0.5646
 1233SOL    HW115335   0.091   4.489  10.647  0.6643  0.7111 -0.0312
 1233SOL    HW215336   0.149   4.358  10.677 -0.0495  0.1779 -0.8177
 1234SOL     OW15337   2.033   2.156   7.294 -0.9415 -0.0753  0.0559
 1234SOL    HW115338   2.122   2.162   7.329 -0.7833  1.9615 -0.6896
 1234SOL    HW215339   2.044   2.194   7.207  2.2309  0.6519  0.7475
 1235SOL     OW15340   4.501   4.466   1.843 -0.5914  0.5245 -0.1867
 1235SOL    HW115341   4.486   4.372   1.839 -0.2977  0.4962 -0.6070
 1235SOL    HW215342   4.438   4.496   1.778  0.2606  1.0365 -0.7887
 1236SOL     OW15343   3.707   4.272  15.108 -0.1645  0.0251  0.0745
 1236SOL    HW115344   3.784   4.229  15.070  0.6288  1.3750  0.1634
 1236SOL    HW215345   3.641   4.220  15.062  0.8370 -1.3899  0.2502
 1237SOL     OW15346   0.955   4.066   4.968  0.2218  0.0702 -0.7215
 1237SOL    HW115347   0.975   4.019   4.887  0.9954  0.3232 -0.6762
 1237SOL    HW215348   1.042   4.088   5.001 -0.1578 -0.6215  0.7526
 1238SOL     OW15349   0.128   0.780   2.388  0.2867 -0.1932 -0.3720
 1238SOL    HW115350   0.094   0.704   2.342 -2.0076  0.7001 -0.1443
 1238SOL    HW215351   0.050   0.809   2.435 -0.9528  0.2579 -2.6660
 1239SOL     OW15352   2.862   2.139  13.964 -0.1897 -0.2748 -0.5434
 1239SOL    HW115353   2.955   2.116  13.963 -0.0009  0.4587  0.6601
 1239SOL    HW215354   2.858   2.228  13.929 -0.0766 -0.8083 -1.9398
 1240SOL     OW15355   1.540   2.770   5.558  0.4323  0.0981  0.0244
 1240SOL    HW115356   1.457   2.726   5.539 -0.1218  1.5406 -0.9258
 1240SOL    HW215357   1.516   2.806   5.643 -0.9272 -1.4301  0.2855
 1241SOL     OW15358   3.318   0.885   8.935  0.7083  0.0703  0.0895
 1241SOL    HW115359   3.276   0.808   8.898  0.7019  1.0549 -1.9766
 1241SOL    HW215360   3.410   0.864   8.921  0.9772  3.4561 -3.3886
 1242SOL     OW15361   2.048   1.528  13.730 -0.3196 -0.1192 -0.3573
 1242SOL    HW115362   2.004   1.450  13.695  0.7588 -1.3443  1.0403
 1242SOL    HW215363   2.134   1.490  13.746  1.0751  2.9263 -0.6964
 1243SOL     OW15364   1.703   0.909   2.241 -0.4922  0.6640 -0.3608
 1243SOL    HW115365   1.642   0.861   2.184 -1.9633  1.4159  0.5619
 1243SOL    HW215366   1.658   0.927   2.324  2.3152 -5.2224  2.3829
 1244SOL     OW15367   0.413   2.583   5.596  0.1048 -0.6452  0.1200
 1244SOL    HW115368   0.445   2.560   5.508  0.6368 -0.9527  0.3930
 1244SOL    HW215369   0.488   2.640   5.616 -1.6037  1.5793  0.2034
 1245SOL     OW15370   2.865   1.277   7.895  0.3020 -0.4362 -0.2758
 1245SOL    HW115371   2.797   1.330   7.936 -0.6508 -1.5305 -0.4307
 1245SOL    HW215372   2.938   1.337   7.908 -0.3185  0.2128  0.1632
 1246SOL     OW15373   0.439   1.531   8.242  0.7588  0.3990 -0.2286
 1246SOL    HW115374   0.450   1.440   8.214  2.9745  0.7103 -0.3477
 1246SOL    HW215375   0.465   1.527   8.333  2.6326 -1.6874 -0.8546
 1247SOL     OW15376   1.388   4.073   5.372 -0.3014  0.6633  0.3925
 1247SOL    HW115377   1.385   4.168   5.360  0.0992  0.8180  1.5018
 1247SOL    HW215378   1.299   4.057   5.404 -0.1211  0.2103  0.6746
 1248SOL     OW15379   3.664   0.912  16.336  0.2399  0.1507  0.0602
 1248SOL    HW115380   3.613   0.886  16.413 -0.5636  2.1285  0.2077
 1248SOL    HW215381   3.711   0.994  16.350  0.0685  0.0582  1.1629
 1249SOL     OW15382   2.885   3.398   8.022 -0.5416  0.7068 -0.3839
 1249SOL    HW115383   2.791   3.382   8.008 -0.4263  0.5070 -0.9151
 1249SOL    HW215384   2.880   3.493   8.036  1.3416  0.8885 -0.9772
 1250SOL     OW15385   3.128   4.501  12.280 -0.0896  0.9425  0.0552
 1250SOL    HW115386   3.102   4.435  12.344 -0.6847  1.0555 -0.0669
 1250SOL    HW215387   3.179   4.446  12.221 -1.8524 -1.1627  0.4938
 1251SOL     OW15388   4.607   1.720  14.238 -0.2301  0.2950  0.3394
 1251SOL    HW115389   4.656   1.705  14.319  1.3835  1.6317 -0.3881
 1251SOL    HW215390   4.650   1.798  14.204 -0.5726  0.0372 -0.6732
 1252SOL     OW15391   3.778   0.419   7.827  0.2842 -0.0576  0.5941
 1252SOL    HW115392   3.696   0.381   7.858  0.9472 -1.0841  1.0655
 1252SOL    HW215393   3.815   0.427   7.915  0.1032 -0.5211  0.7099
 1253SOL     OW15394   1.375   0.055   3.865 -0.3157 -0.0890  0.4068
 1253SOL    HW115395   1.360   0.116   3.938 -0.6424 -0.7476  0.8846
 1253SOL    HW215396   1.340   0.111   3.796 -4.2820 -0.8995  1.8007
 1254SOL     OW15397   0.496   0.001   2.520 -0.2505 -0.0467 -0.1354
 1254SOL    HW115398   0.585   0.035   2.522  0.0517 -0.8693  0.7846
 1254SOL    HW215399   0.484   4.728   2.426  1.7745  0.6575 -0.4650
 1255SOL     OW15400   0.656   4.144   2.275 -0.4076  0.1767  0.1023
 1255SOL    HW115401   0.655   4.230   2.317 -1.7718 -0.6277  1.7558
 1255SOL    HW215402   0.729   4.110   2.326 -0.9848 -2.0417 -0.5455
 1256SOL     OW15403   2.090   0.026   6.930 -0.2973  0.6211 -0.3241
 1256SOL    HW115404   2.078   4.674   6.905  0.0362  0.6234 -0.4900
 1256SOL    HW215405   2.132   0.055   6.849 -0.1412  1.0237 -0.0982
 1257SOL     OW15406   1.937   4.370   5.731  0.5069  0.2816  0.3160
 1257SOL    HW115407   1.920   4.324   5.814 -2.8502  0.9680  0.0191
 1257SOL    HW215408   1.954   4.460   5.758  1.6250 -0.0034  0.5492
 1258SOL     OW15409   0.601   1.234   5.129 -0.1076  0.3091 -0.8649
 1258SOL    HW115410   0.520   1.204   5.169  1.4854 -3.2108 -0.2880
 1258SOL    HW215411   0.645   1.244   5.214  0.8955  1.5280 -1.5310
 1259SOL     OW15412   0.159   2.322   8.565  0.5440 -0.5563  0.1503
 1259SOL    HW115413   0.178   2.411   8.536 -1.5058 -0.2675 -0.3252
 1259SOL    HW215414   0.154   2.342   8.658  1.7588  1.7064 -0.2660
 1260SOL     OW15415   1.798   1.984  14.276 -0.4391 -0.0332  0.0119
 1260SOL    HW115416   1.826   2.009  14.188 -0.5970 -0.6347 -0.2072
 1260SOL    HW215417   1.750   2.065  14.294 -2.8827 -1.7263  1.1350
 1261SOL     OW15418   3.403   3.805   8.618  0.4085  0.0469 -0.2153
 1261SOL    HW115419   3.340   3.876   8.625 -1.4022 -1.3617 -2.4175
 1261SOL    HW215420   3.365   3.741   8.558  0.6086 -1.3555  1.1433
 1262SOL     OW15421   0.148   3.086   2.528  0.4072 -0.2517  0.5626
 1262SOL    HW115422   0.194   3.038   2.460 -0.9902 -0.0002 -0.5497
 1262SOL    HW215423   0.110   3.159   2.479  1.5410 -0.2802 -0.3489
 1263SOL     OW15424   3.076   4.605   3.991  0.4827  0.7554  0.2020
 1263SOL    HW115425   3.065   4.580   4.083  0.7645  1.3607  0.3979
 1263SOL    HW215426   2.995   4.652   3.973  0.8506  1.0702 -0.6097
 1264SOL     OW15427   4.446   0.595   6.640 -0.0430 -0.1075  0.6521
 1264SOL    HW115428   4.414   0.516   6.683  2.9821 -1.7558 -0.1546
 1264SOL    HW215429   4.425   0.662   6.706 -1.8282  0.4306 -0.4673
 1265SOL     OW15430   2.590   4.677   8.941 -0.5736  0.0738  0.0584
 1265SOL    HW115431   2.592   0.034   8.942  2.2191  0.0076  0.3505
 1265SOL    HW215432   2.525   4.657   9.008 -0.0732  0.2056  0.5748
 1266SOL     OW15433   3.535   1.219  17.090 -0.2391 -0.2010 -0.3148
 1266SOL    HW115434   3.591   1.172  17.152  0.9642  0.9196 -0.5424
 1266SOL    HW215435   3.453   1.222  17.139  0.0396 -2.5192  0.2600
 1267SOL     OW15436   0.484   4.347   3.935  0.4977 -0.3838 -0.4846
 1267SOL    HW115437   0.549   4.408   3.969  0.6635 -0.1088 -1.3089
 1267SOL    HW215438   0.434   4.339   4.016 -0.1328 -2.8153 -1.0987
 1268SOL     OW15439   4.494   1.343   6.611 -0.2535  0.2170  0.4795
 1268SOL    HW115440   4.564   1.401   6.581 -1.0802  0.0431 -1.8114
 1268SOL    HW215441   4.531   1.255   6.603 -0.5521  0.2355 -1.1533
 1269SOL     OW15442   1.797   1.392   6.345 -0.2387 -0.0313  0.6836
 1269SOL    HW115443   1.852   1.429   6.277  1.1798 -1.4812  1.0583
 1269SOL    HW215444   1.750   1.468   6.378  0.0834  0.0813  0.8838
 1270SOL     OW15445   1.062   3.128   3.508 -0.0946  0.5537  0.0572
 1270SOL    HW115446   1.094   3.213   3.539 -0.5597  0.2580  1.3565
 1270SOL    HW215447   1.009   3.150   3.432 -1.7608  0.3251  1.1611
 1271SOL     OW15448   3.928   2.886   6.129 -0.0729  0.4193 -0.0056
 1271SOL    HW115449   3.957   2.794   6.132  0.1053  0.4778  0.0692
 1271SOL    HW215450   3.854   2.874   6.070 -0.6422  0.5830  0.6756
 1272SOL     OW15451   4.267   1.568   4.888 -0.1452 -0.3780 -0.1424
 1272SOL    HW115452   4.320   1.489   4.897  1.1670  0.4484 -0.6575
 1272SOL    HW215453   4.205   1.533   4.824 -1.3305  0.8263  0.3483
 1273SOL     OW15454   0.787   1.857   4.975  0.5457  0.5064 -0.1230
 1273SOL    HW115455   0.788   1.950   4.999 -2.2414  1.1017 -2.3496
 1273SOL    HW215456   0.806   1.870   4.882  1.1676  0.0469 -0.0594
 1274SOL     OW15457   3.896   4.076   5.017  0.9463  0.7174  0.2685
 1274SOL    HW115458   3.904   4.008   5.084  2.4600 -0.2338 -0.8659
 1274SOL    HW215459   3.805   4.054   4.996  1.2864 -0.6614  0.1813
 1275SOL     OW15460   4.708   1.371   3.237  0.3242 -0.3156  0.1814
 1275SOL    HW115461   4.654   1.449   3.226  0.9322 -0.0011 -0.6503
 1275SOL    HW215462   4.687   1.322   3.157 -2.4724  2.0979 -0.5446
 1276SOL     OW15463   4.214   1.678   7.046  0.0750  0.4771  0.1354
 1276SOL    HW115464   4.220   1.756   7.102  0.0497  0.2675  0.4318
 1276SOL    HW215465   4.142   1.702   6.988  0.4620  0.7855 -0.2221
 1277SOL     OW15466   4.178   0.654   3.648  0.0161 -0.1820  0.1103
 1277SOL    HW115467   4.268   0.643   3.680 -0.1904  1.0580  1.1037
 1277SOL    HW215468   4.179   0.742   3.610 -1.1138 -0.0881  0.3134
 1278SOL     OW15469   2.137   4.598   6.078 -0.1873  0.1684  0.1100
 1278SOL    HW115470   2.117   4.691   6.074 -0.6007  0.1411  1.3801
 1278SOL    HW215471   2.228   4.613   6.101  0.6777  0.1525 -3.4035
 1279SOL     OW15472   3.792   0.293   0.422  0.3310  0.2240 -0.0799
 1279SOL    HW115473   3.869   0.266   0.371  0.1103  0.4124 -0.5113
 1279SOL    HW215474   3.820   0.297   0.513  2.2737 -0.3098 -0.6466
 1280SOL     OW15475   1.304   4.084  12.544  0.0942 -0.2333  0.1015
 1280SOL    HW115476   1.349   4.028  12.481  1.7208  0.9972  0.1678
 1280SOL    HW215477   1.232   4.029  12.576  0.2146 -0.2640  0.3218
 1281SOL     OW15478   1.259   3.617  15.036  0.0724  0.0309  0.6455
 1281SOL    HW115479   1.216   3.652  14.959  0.7817  2.5139  1.3885
 1281SOL    HW215480   1.346   3.600  15.000  0.1746  0.7200  0.5734
 1282SOL     OW15481   0.049   2.212   7.844  0.7999  0.5021 -0.7388
 1282SOL    HW115482   4.700   2.217   7.881  1.8953 -0.6864  2.1003
 1282SOL    HW215483   0.098   2.177   7.919 -1.1778  1.3978  0.9572
 1283SOL     OW15484   3.245   2.848   9.542  1.0149  0.0657 -0.9809
 1283SOL    HW115485   3.327   2.872   9.499  1.8016 -0.8587  0.0002
 1283SOL    HW215486   3.256   2.754   9.528  0.1442 -0.4577  1.7703
 1284SOL     OW15487   1.142   3.955  16.742  0.0972 -0.3312 -0.0944
 1284SOL    HW115488   1.163   4.006  16.663  3.5454 -0.2951  0.8522
 1284SOL    HW215489   1.070   3.907  16.701 -1.5496  1.8764  0.2163
 1285SOL     OW15490   1.041   2.866   5.232  0.2159 -1.1961 -0.1692
 1285SOL    HW115491   0.992   2.785   5.247 -2.8855  0.8454  0.7774
 1285SOL    HW215492   1.017   2.929   5.300  0.8222 -0.8765 -0.2496
 1286SOL     OW15493   1.225   0.295  14.381  0.3705  0.0738  0.3502
 1286SOL    HW115494   1.216   0.366  14.317  1.6829 -0.0366  0.0384
 1286SOL    HW215495   1.138   0.260  14.397  0.7889  0.0486  2.6571
 1287SOL     OW15496   3.684   1.195   2.755 -0.6385 -0.1409 -0.1940
 1287SOL    HW115497   3.645   1.108   2.767  0.7531 -0.5451  1.3544
 1287SOL    HW215498   3.634   1.213   2.675  0.0028 -0.1296 -0.5919
 1288SOL     OW15499   3.954   2.225   3.034  0.2615 -0.4256  0.7642
 1288SOL    HW115500   4.004   2.154   3.075 -0.2631 -1.3001 -0.1195
 1288SOL    HW215501   3.873   2.219   3.085  0.7658  1.6472  1.8021
 1289SOL     OW15502   0.506   1.466   0.512  0.3171  0.2817  0.3822
 1289SOL    HW115503   0.414   1.443   0.519  0.3064 -0.1306 -0.9357
 1289SOL    HW215504   0.504   1.486   0.418  1.3386  1.2778  0.5749
 1290SOL     OW15505   2.457   0.626   5.385  0.6908  0.1150 -0.4725
 1290SOL    HW115506   2.430   0.694   5.446  1.3417 -1.3113  1.4165
 1290SOL    HW215507   2.464   0.554   5.448 -2.6956  0.7611  0.6245
 1291SOL     OW15508   2.445   0.518   6.712 -0.0127 -0.6088 -0.3001
 1291SOL    HW115509   2.366   0.535   6.764  0.6186  0.9583  0.1419
 1291SOL    HW215510   2.481   0.439   6.753  1.9697  0.7459  0.5712
 1292SOL     OW15511   2.338   3.256   7.441 -0.1492 -0.4574  0.1715
 1292SOL    HW115512   2.393   3.333   7.450 -0.3979 -0.4582  1.5988
 1292SOL    HW215513   2.395   3.190   7.481 -0.0047  0.4672  1.4728
 1293SOL     OW15514   0.755   3.034   2.014 -0.1780 -0.0953 -0.1080
 1293SOL    HW115515   0.788   3.074   2.094 -0.0858  2.1100 -1.2304
 1293SOL    HW215516   0.841   3.017   1.977 -0.9962  1.0301 -2.5542
 1294SOL     OW15517   4.083   4.509   8.574  0.0031 -0.3356  0.0582
 1294SOL    HW115518   4.123   4.434   8.530 -1.9309 -0.9865 -0.6057
 1294SOL    HW215519   3.991   4.508   8.548 -0.0719  0.0591  0.3014
 1295SOL     OW15520   1.191   0.870   2.581 -0.2959  0.0051 -0.3984
 1295SOL    HW115521   1.153   0.957   2.567 -0.8084 -0.3651 -1.3480
 1295SOL    HW215522   1.183   0.851   2.487 -2.1597 -0.0633 -0.2297
 1296SOL     OW15523   0.711   3.132   6.572 -0.4405  0.8990 -0.1966
 1296SOL    HW115524   0.780   3.066   6.566 -0.9637  0.2581  0.8333
 1296SOL    HW215525   0.721   3.189   6.496 -1.2537  1.4942  0.1437
 1297SOL     OW15526   1.643   1.501  12.957  0.4773 -0.1699  0.1994
 1297SOL    HW115527   1.555   1.521  12.926  1.4436  2.9495 -0.5692
 1297SOL    HW215528   1.694   1.577  12.928  1.5281 -1.4156 -1.2410
 1298SOL     OW15529   2.226   2.778  16.969 -0.3542 -0.2850 -0.2145
 1298SOL    HW115530   2.210   2.783  17.063  1.1070  1.6200 -0.0624
 1298SOL    HW215531   2.176   2.698  16.948 -0.1607 -0.8565  1.5029
 1299SOL     OW15532   0.522   2.316   9.920  0.2889 -0.2738  0.2384
 1299SOL    HW115533   0.612   2.316   9.951  0.2861  2.3148  0.1865
 1299SOL    HW215534   0.478   2.279   9.997  0.0130 -1.0097 -0.2714
 1300SOL     OW15535   2.133   4.199   8.211 -0.0244 -0.3271 -0.1102
 1300SOL    HW115536   2.198   4.180   8.279 -0.9960 -0.8517  0.6747
 1300SOL    HW215537   2.053   4.157   8.243 -0.4853 -1.3370 -2.5789
 1301SOL     OW15538   1.497   2.768   4.622 -0.0121  0.0565 -0.3554
 1301SOL    HW115539   1.489   2.833   4.552 -2.0823  0.5991  0.3766
 1301SOL    HW215540   1.455   2.809   4.698  0.1994 -1.5778  0.6328
 1302SOL     OW15541   1.316   2.356   6.281  0.3097 -0.1208  0.8460
 1302SOL    HW115542   1.394   2.412   6.283  1.5288 -1.8152  0.1260
 1302SOL    HW215543   1.334   2.307   6.361 -1.2701  0.7366  1.7438
 1303SOL     OW15544   0.409   4.303   4.544  0.2365  0.2766 -0.8093
 1303SOL    HW115545   0.371   4.215   4.545 -1.9299  1.2303 -0.1053
 1303SOL    HW215546   0.366   4.341   4.620  1.8768 -1.1960  0.8640
 1304SOL     OW15547   2.965   1.569  16.869  0.1527 -0.2096  0.2169
 1304SOL    HW115548   2.939   1.486  16.909  0.6735 -1.0335 -1.1813
 1304SOL    HW215549   2.898   1.633  16.896  0.3229 -0.1361  0.4657
 1305SOL     OW15550   4.334   2.860   3.082 -0.4038 -0.0299  0.2255
 1305SOL    HW115551   4.413   2.909   3.061  0.1148  0.0842  2.4533
 1305SOL    HW215552   4.271   2.895   3.019 -0.3001  1.3342  0.8916
 1306SOL     OW15553   0.214   3.689   8.055 -0.6059  0.6827 -0.2579
 1306SOL    HW115554   0.212   3.594   8.059  1.1487  0.6456 -0.2972
 1306SOL    HW215555   0.255   3.708   8.140 -1.0409  0.6993 -0.0528
 1307SOL     OW15556   2.166   2.618   3.103  0.3914 -0.1490 -0.0511
 1307SOL    HW115557   2.073   2.630   3.124  0.6840 -0.1252  1.2305
 1307SOL    HW215558   2.166   2.626   3.008 -1.9727 -0.0316 -0.0513
 1308SOL     OW15559   2.774   3.359   3.169 -0.2653 -0.1400  0.7625
 1308SOL    HW115560   2.686   3.333   3.141  1.6138 -0.9199 -4.3149
 1308SOL    HW215561   2.827   3.308   3.108 -0.3023  0.6839  0.0329
 1309SOL     OW15562   2.644   2.767   3.521  0.2467 -0.2418  0.0162
 1309SOL    HW115563   2.600   2.847   3.548  0.5537 -0.1486  0.2384
 1309SOL    HW215564   2.630   2.773   3.426  1.7771 -0.9210 -0.2677
 1310SOL     OW15565   2.492   3.877   9.416 -0.7347  0.1313  0.4260
 1310SOL    HW115566   2.564   3.924   9.458  0.4876 -0.7186 -0.6878
 1310SOL    HW215567   2.481   3.931   9.337  1.5357 -1.6242 -1.0971
 1311SOL     OW15568   1.315   3.692   6.866  0.1714  0.7797 -0.0140
 1311SOL    HW115569   1.231   3.717   6.905  0.3837 -1.7180  2.0334
 1311SOL    HW215570   1.347   3.632   6.933 -1.4734 -0.2999 -0.1806
 1312SOL     OW15571   2.992   0.603   5.285 -0.2018  0.3091  0.4607
 1312SOL    HW115572   3.008   0.626   5.376 -2.1025 -0.7366  1.0462
 1312SOL    HW215573   2.902   0.635   5.287 -0.2545  0.2706 -1.3048
 1313SOL     OW15574   1.535   0.824   6.321  0.1221  0.5634  0.0632
 1313SOL    HW115575   1.520   0.897   6.261  2.1809  2.4081  1.7486
 1313SOL    HW215576   1.444   0.795   6.331  0.6891 -0.6630  1.6582
 1314SOL     OW15577   2.647   2.105  10.319 -0.4068 -0.0175  0.9765
 1314SOL    HW115578   2.668   2.022  10.276 -2.9333  0.9062 -2.0172
 1314SOL    HW215579   2.736   2.137  10.336  0.0633 -0.5909 -0.3838
 1315SOL     OW15580   2.862   0.152   2.198  1.2231  0.4371  0.4594
 1315SOL    HW115581   2.850   0.236   2.242  0.5337  0.6540 -0.1381
 1315SOL    HW215582   2.797   0.102   2.248  1.2958  0.0238  0.1445
 1316SOL     OW15583   1.912   2.942  16.880 -0.3677 -0.3098  0.2500
 1316SOL    HW115584   1.989   2.889  16.859 -0.4569 -0.1481 -0.5010
 1316SOL    HW215585   1.845   2.906  16.823 -1.2827  3.2043 -0.9357
 1317SOL     OW15586   1.060   1.483  14.589  0.3342 -0.1158  0.1050
 1317SOL    HW115587   1.111   1.421  14.535  0.8725  0.2259  0.2210
 1317SOL    HW215588   1.118   1.554  14.617  0.6644  0.2377 -1.4640
 1318SOL     OW15589   3.575   1.017   3.331  0.0099 -0.6017 -0.5081
 1318SOL    HW115590   3.653   1.066   3.302 -0.4979 -0.4758 -1.6645
 1318SOL    HW215591   3.613   0.931   3.350  0.9738 -0.1908 -0.5299
 1319SOL     OW15592   0.525   0.799   2.604  0.4186  0.1501 -0.1834
 1319SOL    HW115593   0.525   0.714   2.558  0.1436 -0.3686  0.7673
 1319SOL    HW215594   0.484   0.777   2.688  1.8707 -0.8663  0.2511
 1320SOL     OW15595   4.080   0.115   4.730 -0.1951 -0.0186 -0.4540
 1320SOL    HW115596   4.127   0.172   4.792  0.5278 -1.6756  0.5118
 1320SOL    HW215597   4.017   0.066   4.783  1.4874  0.5212  2.0299
 1321SOL     OW15598   1.388   1.476   8.406  0.0728  0.1865 -0.1621
 1321SOL    HW115599   1.292   1.471   8.398 -0.0894  1.1885  1.2225
 1321SOL    HW215600   1.402   1.560   8.362  1.3796  0.5132  0.9101
 1322SOL     OW15601   1.752   2.101   6.862 -0.2945  0.0614 -0.4427
 1322SOL    HW115602   1.740   2.014   6.902  0.3520 -0.0411 -0.4723
 1322SOL    HW215603   1.733   2.087   6.770  0.0135  0.8291 -0.6181
 1323SOL     OW15604   1.434   0.582   2.221  0.1182 -0.4350  0.5513
 1323SOL    HW115605   1.415   0.509   2.162  1.9933 -2.2713  2.2538
 1323SOL    HW215606   1.425   0.529   2.300  0.0752 -0.3825  0.5819
 1324SOL     OW15607   0.889   3.116   2.549  0.0561 -0.5751 -0.1036
 1324SOL    HW115608   0.909   3.028   2.581  1.5125 -0.3796 -0.4617
 1324SOL    HW215609   0.967   3.159   2.586  0.5613 -1.2319 -0.4185
 1325SOL     OW15610   1.544   3.985   6.282 -0.3172  0.1764 -0.4319
 1325SOL    HW115611   1.480   3.973   6.212 -1.4215 -1.8635  0.9033
 1325SOL    HW215612   1.490   4.042   6.336 -0.5109  0.6729 -1.1603
 1326SOL     OW15613   1.902   1.989  12.391  0.5309 -0.0599 -0.6385
 1326SOL    HW115614   1.906   2.017  12.299  0.3733  0.8599 -0.3576
 1326SOL    HW215615   1.810   1.965  12.399  0.3243  1.5182  1.6862
 1327SOL     OW15616   0.576   2.764   3.514  0.5770  0.6849 -0.2183
 1327SOL    HW115617   0.565   2.785   3.421 -0.1129 -0.9041 -0.4906
 1327SOL    HW215618   0.485   2.748   3.537  1.4230 -1.1514  1.8416
 1328SOL     OW15619   2.707   4.706   5.570 -0.4545  0.2276  0.1132
 1328SOL    HW115620   2.769   0.015   5.516  0.2950  0.5016  1.2414
 1328SOL    HW215621   2.703   4.619   5.530  1.4818 -0.7878  2.1498
 1329SOL     OW15622   4.371   4.031   2.891 -0.4672 -0.7503 -0.4937
 1329SOL    HW115623   4.357   4.057   2.800  2.0963  0.5133 -0.5227
 1329SOL    HW215624   4.381   4.119   2.927 -1.3362 -1.6721  2.0073
 1330SOL     OW15625   1.607   2.183  11.908 -0.2108 -0.0445  0.4222
 1330SOL    HW115626   1.701   2.195  11.901 -0.1476 -0.9837 -0.3719
 1330SOL    HW215627   1.567   2.255  11.859  3.4389  1.4578 -0.2812
 1331SOL     OW15628   4.606   4.516  12.058  0.2546 -0.0818 -0.6712
 1331SOL    HW115629   4.619   4.607  12.084 -0.3649 -0.0060 -0.6392
 1331SOL    HW215630   4.520   4.522  12.016  1.8947  1.3552 -3.8165
 1332SOL     OW15631   4.145   1.517   5.194 -0.0219 -0.1253 -0.1521
 1332SOL    HW115632   4.137   1.547   5.104 -0.3894 -0.2538 -0.1643
 1332SOL    HW215633   4.237   1.536   5.214 -0.3495 -1.0923  2.2747
 1333SOL     OW15634   0.194   0.956   4.972 -0.3710 -0.2758 -0.4120
 1333SOL    HW115635   0.109   0.999   4.983  0.2336  0.5902  0.9679
 1333SOL    HW215636   0.172   0.873   4.932 -0.1962 -1.2754  1.5777
 1334SOL     OW15637   0.602   4.326   3.397 -0.4167  0.1800 -0.2091
 1334SOL    HW115638   0.506   4.331   3.401 -0.5287 -2.3262  0.2382
 1334SOL    HW215639   0.612   4.305   3.490  1.3807  0.5462 -0.3214
 1335SOL     OW15640   2.992   0.903  17.006 -0.3583 -0.0178  0.1243
 1335SOL    HW115641   2.916   0.907  17.063 -1.0333 -1.2272 -0.7065
 1335SOL    HW215642   2.973   0.851  16.928 -0.8362 -0.6493  0.6645
 1336SOL     OW15643   3.970   1.451   8.922 -0.5265 -0.1339 -0.4599
 1336SOL    HW115644   3.896   1.391   8.934 -0.0725 -0.6975 -0.4479
 1336SOL    HW215645   3.970   1.508   8.999  5.2092 -1.0466  0.2488
 1337SOL     OW15646   0.010   3.371   5.639  0.0766 -0.3486 -0.1525
 1337SOL    HW115647   0.028   3.465   5.629 -2.9457 -0.1006 -3.4471
 1337SOL    HW215648   0.057   3.337   5.563  1.2512  1.8809 -0.4275
 1338SOL     OW15649   1.805   4.421  11.994 -0.0307  0.1071 -0.3415
 1338SOL    HW115650   1.864   4.429  12.068  0.9631  2.0046 -1.3402
 1338SOL    HW215651   1.787   4.513  11.974  0.8962  0.1737 -0.8571
 1339SOL     OW15652   1.290   3.519   8.592 -0.3504 -0.1885 -0.5579
 1339SOL    HW115653   1.206   3.535   8.636  0.2390  0.3307  0.3673
 1339SOL    HW215654   1.259   3.531   8.502  1.7529  0.2023 -1.2353
 1340SOL     OW15655   0.631   1.563   2.825  0.4377  0.0670 -0.6256
 1340SOL    HW115656   0.660   1.614   2.901 -0.8700  0.1396 -0.1705
 1340SOL    HW215657   0.545   1.531   2.853  0.9378 -0.6829  0.0508
 1341SOL     OW15658   2.321   2.773   5.399 -0.3020 -0.2127  0.0199
 1341SOL    HW115659   2.406   2.751   5.361 -0.4406 -0.4251 -0.1638
 1341SOL    HW215660   2.273   2.692   5.383  1.3984 -1.1452 -0.3177
 1342SOL     OW15661   3.651   2.130  16.232  0.3412 -0.1050  1.2974
 1342SOL    HW115662   3.737   2.166  16.254  0.2578  0.1487  1.2107
 1342SOL    HW215663   3.608   2.134  16.317 -1.3683 -1.2851  0.4903
 1343SOL     OW15664   3.218   3.496  10.174 -0.6494 -0.0218  0.3219
 1343SOL    HW115665   3.263   3.576  10.147  0.6889 -0.2952  1.7147
 1343SOL    HW215666   3.291   3.454  10.221  0.0322  1.6569  0.7793
 1344SOL     OW15667   0.230   3.280  11.275 -0.0021 -0.5499 -0.1577
 1344SOL    HW115668   0.278   3.244  11.349  0.5524 -0.8704 -0.6782
 1344SOL    HW215669   0.241   3.226  11.197 -1.3646 -0.5954 -0.3183
 1345SOL     OW15670   4.137   2.912   3.722 -0.2892  0.2119  0.0771
 1345SOL    HW115671   4.083   2.952   3.654  1.3425 -1.6151 -2.2797
 1345SOL    HW215672   4.092   2.828   3.736  1.9806 -0.9986  0.1660
 1346SOL     OW15673   1.827   3.283   1.760  0.1209  0.3147 -0.3033
 1346SOL    HW115674   1.902   3.263   1.704 -0.6376 -1.4341 -0.6753
 1346SOL    HW215675   1.791   3.365   1.726  0.0023 -0.2505 -1.5108
 1347SOL     OW15676   3.833   3.751   7.117 -0.0613 -0.6243 -0.1771
 1347SOL    HW115677   3.781   3.680   7.155  0.8145 -1.3011 -0.2584
 1347SOL    HW215678   3.843   3.800   7.199  0.0715 -1.0009  0.0309
 1348SOL     OW15679   1.624   4.414  15.037 -0.4913  1.0163 -0.2517
 1348SOL    HW115680   1.553   4.476  15.017 -0.5284  0.2889 -2.4312
 1348SOL    HW215681   1.577   4.331  15.029  0.4243  0.6397 -1.6359
 1349SOL     OW15682   1.346   0.891   5.487  0.4077  0.0775  0.1001
 1349SOL    HW115683   1.336   0.798   5.470  1.3098  0.3920 -2.2595
 1349SOL    HW215684   1.441   0.895   5.504  0.3685  0.0168  0.3266
 1350SOL     OW15685   0.296   2.276   5.362  0.3249 -0.3442 -0.2681
 1350SOL    HW115686   0.296   2.364   5.324 -0.7593  0.2119  1.0298
 1350SOL    HW215687   0.365   2.284   5.428 -0.6658 -2.2738  1.0004
 1351SOL     OW15688   3.001   4.448  13.615 -0.1351  0.0439 -0.4521
 1351SOL    HW115689   2.921   4.496  13.638  1.2258  1.9854  0.2092
 1351SOL    HW215690   3.065   4.518  13.603 -1.7259  1.2280 -2.1363
 1352SOL     OW15691   2.440   2.645   6.979  0.0428 -0.0554 -0.2930
 1352SOL    HW115692   2.456   2.591   7.056 -1.6929 -1.3763 -0.8788
 1352SOL    HW215693   2.375   2.593   6.933  0.8259 -0.7937 -0.5493
 1353SOL     OW15694   1.804   4.306   8.285 -0.3531  0.6424  0.2311
 1353SOL    HW115695   1.715   4.339   8.298 -1.0167 -0.3419 -1.7911
 1353SOL    HW215696   1.859   4.371   8.328  1.1947 -1.8811  2.0925
 1354SOL     OW15697   4.109   4.061   8.067  0.5968 -0.0864  0.6759
 1354SOL    HW115698   4.157   4.135   8.030 -1.0467  1.0406  0.7886
 1354SOL    HW215699   4.138   3.990   8.010  0.6485 -0.9615  1.7784
 1355SOL     OW15700   3.785   3.636   6.819 -0.5337 -0.2360 -0.1520
 1355SOL    HW115701   3.715   3.574   6.795 -1.5167  0.3035  1.3548
 1355SOL    HW215702   3.767   3.651   6.911  1.3416 -0.8582  0.3183
 1356SOL     OW15703   0.504   3.720  17.452 -0.3206  0.5321 -0.0559
 1356SOL    HW115704   0.489   3.781  17.524 -0.4099  0.3178  0.1083
 1356SOL    HW215705   0.547   3.653  17.505  0.1018  0.4681 -0.4872
 1357SOL     OW15706   3.851   2.602   7.642  0.1843  0.2155  0.3095
 1357SOL    HW115707   3.825   2.657   7.568 -1.3474 -0.4736  0.3358
 1357SOL    HW215708   3.828   2.657   7.717  0.1268  0.1626  0.3302
 1358SOL     OW15709   2.077   4.311   3.410 -0.7354 -0.3548 -0.0817
 1358SOL    HW115710   2.126   4.256   3.471  1.4161  2.1672  0.4554
 1358SOL    HW215711   2.036   4.241   3.360 -2.5850  0.1240  0.7588
 1359SOL     OW15712   1.531   0.098  14.243  0.6013  0.7625  0.2529
 1359SOL    HW115713   1.619   0.106  14.208  0.5568 -1.1327 -0.2636
 1359SOL    HW215714   1.499   0.181  14.209 -1.0098  0.0181 -0.0576
 1360SOL     OW15715   1.951   0.279   6.158  0.0138  0.1609 -0.0306
 1360SOL    HW115716   2.039   0.244   6.147  0.9416  2.0504  1.3031
 1360SOL    HW215717   1.930   0.245   6.245  1.5719  3.0042  1.4504
 1361SOL     OW15718   3.586   3.674  15.900  0.0912 -0.2042 -0.1026
 1361SOL    HW115719   3.598   3.766  15.924 -2.8577 -0.4283  2.1764
 1361SOL    HW215720   3.496   3.678  15.868  0.1482 -2.1639 -0.4836
 1362SOL     OW15721   3.311   3.837  10.602  1.1707 -0.2216  0.2162
 1362SOL    HW115722   3.345   3.839  10.691  0.4386 -2.8387  0.5766
 1362SOL    HW215723   3.363   3.902  10.556  1.1104  1.0842  2.0012
 1363SOL     OW15724   2.362   1.717   3.278  0.2045  0.6773  0.2234
 1363SOL    HW115725   2.414   1.703   3.199 -1.1713  0.7228 -0.6735
 1363SOL    HW215726   2.330   1.630   3.302 -0.2524  0.4503 -1.2395
 1364SOL     OW15727   3.956   0.604  11.267 -0.2150  0.3245  0.3867
 1364SOL    HW115728   3.984   0.579  11.355 -0.2594  0.2760  0.3871
 1364SOL    HW215729   3.882   0.657  11.296  1.3392  1.3286  2.4909
 1365SOL     OW15730   1.211   1.642   7.940  0.7066 -0.2784  0.1437
 1365SOL    HW115731   1.268   1.587   7.993  1.5384 -0.0279 -0.4761
 1365SOL    HW215732   1.130   1.616   7.984  0.2779 -2.3869 -1.9361
 1366SOL     OW15733   4.225   4.115   6.508 -0.4788  0.1674 -0.5025
 1366SOL    HW115734   4.273   4.103   6.590 -2.2734  1.3853  0.7273
 1366SOL    HW215735   4.179   4.197   6.525 -2.1642 -0.5692 -1.5632
 1367SOL     OW15736   0.421   2.936  13.259 -0.0976 -0.0129 -0.5099
 1367SOL    HW115737   0.451   2.846  13.265  0.0850  0.2160  1.8345
 1367SOL    HW215738   0.329   2.938  13.288  0.3414  2.4993  0.6900
 1368SOL     OW15739   0.148   0.106   8.137  0.3770  0.1426 -0.3495
 1368SOL    HW115740   0.070   0.055   8.157 -0.5195  1.1827 -1.1966
 1368SOL    HW215741   0.220   0.043   8.129  0.9395  0.6996  0.3554
 1369SOL     OW15742   4.252   4.139  16.686 -0.3166 -0.0150 -0.1073
 1369SOL    HW115743   4.199   4.094  16.753  0.1608  0.7694  0.8041
 1369SOL    HW215744   4.327   4.167  16.738 -1.1359 -1.1456  1.6822
 1370SOL     OW15745   0.787   1.890  13.600 -0.7796  0.7943  0.4939
 1370SOL    HW115746   0.711   1.845  13.639  1.2604 -2.0379  1.2018
 1370SOL    HW215747   0.808   1.833  13.526 -0.4736  1.0349  0.3966
 1371SOL     OW15748   3.855   4.700  15.973 -0.4795  0.1969  0.2471
 1371SOL    HW115749   3.872   0.053  15.992  0.1593  0.2131 -0.4475
 1371SOL    HW215750   3.761   4.699  15.994 -0.3361  0.9191  0.9527
 1372SOL     OW15751   3.938   0.850  11.531 -0.4161 -0.6068  0.8446
 1372SOL    HW115752   4.012   0.792  11.550 -1.3075 -1.5166  1.5317
 1372SOL    HW215753   3.923   0.875  11.622 -1.7059 -1.7839  0.9563
 1373SOL     OW15754   3.270   1.615  11.236  0.4034 -0.2163 -0.0846
 1373SOL    HW115755   3.229   1.685  11.288  1.8690 -0.2032  1.0629
 1373SOL    HW215756   3.206   1.615  11.165 -0.3813  0.6318  0.6035
 1374SOL     OW15757   3.342   3.126   3.949  0.7787 -0.2371 -0.2041
 1374SOL    HW115758   3.268   3.090   3.998  1.3013 -2.6788 -1.2287
 1374SOL    HW215759   3.397   3.052   3.923 -2.1877 -2.3168 -0.6385
 1375SOL     OW15760   2.044   0.240   7.521 -0.5303  0.5115 -0.0488
 1375SOL    HW115761   2.037   0.181   7.596 -0.0327 -0.5378 -0.8360
 1375SOL    HW215762   1.977   0.202   7.465 -0.2339  0.5246 -0.4067
 1376SOL     OW15763   0.759   2.869   3.695 -0.2452 -0.4450  0.6186
 1376SOL    HW115764   0.827   2.859   3.629 -1.8260 -2.5312 -0.7065
 1376SOL    HW215765   0.684   2.843   3.642  0.6844 -1.6463 -0.1092
 1377SOL     OW15766   3.941   0.561   3.785  0.0780  0.2432  0.2466
 1377SOL    HW115767   3.896   0.638   3.751  0.7078  1.2897  1.8153
 1377SOL    HW215768   4.030   0.594   3.775  1.1524 -1.5713  3.7696
 1378SOL     OW15769   1.200   3.439   9.004 -0.2399  0.4434 -0.0864
 1378SOL    HW115770   1.188   3.371   8.938 -1.5886  0.0377  0.5724
 1378SOL    HW215771   1.139   3.408   9.071  0.1352 -0.5259 -0.1910
 1379SOL     OW15772   2.951   4.395   8.517  0.1373  0.1795  0.1589
 1379SOL    HW115773   2.922   4.303   8.517  0.0487  0.1973 -1.9895
 1379SOL    HW215774   2.995   4.401   8.601  1.1767  0.0679 -0.3763
 1380SOL     OW15775   2.079   2.744  15.715 -0.0724  0.5570  0.3292
 1380SOL    HW115776   2.145   2.809  15.738 -0.0857  1.2137 -1.4805
 1380SOL    HW215777   2.079   2.736  15.619  1.0811 -1.8643  0.5454
 1381SOL     OW15778   0.873   1.254   8.106 -0.5512 -0.0803  0.6667
 1381SOL    HW115779   0.842   1.298   8.185 -1.9733 -0.0100  0.0707
 1381SOL    HW215780   0.948   1.212   8.147 -0.5988 -0.6929  0.1255
 1382SOL     OW15781   2.210   1.350  13.460 -0.3676  0.4981 -0.6294
 1382SOL    HW115782   2.117   1.332  13.472  0.0224 -1.5646 -0.6755
 1382SOL    HW215783   2.242   1.370  13.548 -1.2737 -1.5283  0.1620
 1383SOL     OW15784   1.909   4.348   2.984  0.0963 -0.2513 -0.4796
 1383SOL    HW115785   1.962   4.271   3.006 -1.3619 -1.6997 -2.0829
 1383SOL    HW215786   1.886   4.332   2.893  0.5341  0.1610 -0.6653
 1384SOL     OW15787   3.420   1.471   9.478 -0.0250  0.2565 -0.2857
 1384SOL    HW115788   3.477   1.542   9.507  0.4036 -0.2107  0.0186
 1384SOL    HW215789   3.444   1.477   9.385  0.6064 -2.7104 -0.3171
 1385SOL     OW15790   2.834   3.332   5.007  0.9862  0.4941  0.0566
 1385SOL    HW115791   2.878   3.409   5.040  0.1113  1.2232 -0.4775
 1385SOL    HW215792   2.908   3.280   4.975 -0.6308 -1.1879 -0.9620
 1386SOL     OW15793   1.058   2.613   8.196  0.1419  0.0378 -0.2873
 1386SOL    HW115794   1.018   2.670   8.261  0.7253  0.2267 -0.0923
 1386SOL    HW215795   1.062   2.680   8.128  0.9982 -0.1935 -0.4683
 1387SOL     OW15796   1.280   4.300   3.857  0.1338 -0.5974  0.3964
 1387SOL    HW115797   1.333   4.264   3.786 -2.1877 -2.1837 -0.5422
 1387SOL    HW215798   1.343   4.364   3.891 -0.8194 -0.1116  1.2430
 1388SOL     OW15799   3.694   2.222  17.085  0.1970  0.2198  0.2126
 1388SOL    HW115800   3.693   2.185  16.997  4.3754 -1.7588  0.9844
 1388SOL    HW215801   3.698   2.316  17.063 -0.3454  0.4193  0.9727
 1389SOL     OW15802   2.066   3.725   6.654 -0.2747  0.3469  0.4163
 1389SOL    HW115803   2.034   3.735   6.565 -0.6215  0.8348  0.5987
 1389SOL    HW215804   1.987   3.702   6.704 -0.6960 -2.1502 -1.4100
 1390SOL     OW15805   2.330   4.206   5.254 -0.3685  0.0598 -0.2971
 1390SOL    HW115806   2.346   4.192   5.348 -1.1726 -0.8679 -0.2929
 1390SOL    HW215807   2.257   4.268   5.255  0.5328  1.1382 -3.5247
 1391SOL     OW15808   0.832   3.719  14.839  0.0717 -0.1856 -0.1597
 1391SOL    HW115809   0.773   3.748  14.770 -0.5308 -1.0818 -0.0235
 1391SOL    HW215810   0.834   3.796  14.896 -2.5010 -0.2512  0.0084
 1392SOL     OW15811   2.064   0.811   7.426  0.0195 -0.1404  0.1430
 1392SOL    HW115812   2.102   0.747   7.365  3.1066  2.0592 -0.2562
 1392SOL    HW215813   1.973   0.803   7.398 -0.2711  0.2957  0.9769
 1393SOL     OW15814   1.054   3.207   8.642 -0.0659 -1.4754  0.3078
 1393SOL    HW115815   0.988   3.261   8.685  2.0546  0.8145  0.6574
 1393SOL    HW215816   1.016   3.205   8.554 -1.3245  0.6614  0.8256
 1394SOL     OW15817   1.340   4.291   3.412  0.4581  0.6398 -0.4459
 1394SOL    HW115818   1.370   4.380   3.428  0.5843  0.1319  2.1936
 1394SOL    HW215819   1.354   4.259   3.502 -0.3674  3.3529  0.6195
 1395SOL     OW15820   1.352   3.052  14.697  0.2620  0.2899 -0.3570
 1395SOL    HW115821   1.367   3.001  14.617 -3.4158  1.5514 -1.8884
 1395SOL    HW215822   1.400   3.001  14.761  0.2172  0.3925 -0.2419
 1396SOL     OW15823   1.092   3.749   4.929  0.1868  0.1387 -0.3585
 1396SOL    HW115824   1.085   3.838   4.963 -3.2393 -0.4850  0.6060
 1396SOL    HW215825   1.130   3.767   4.843 -0.3199 -1.2900 -0.8949
 1397SOL     OW15826   4.607   2.076  11.485 -0.3706  0.1158 -0.6060
 1397SOL    HW115827   4.645   2.120  11.561  0.2178 -0.1239 -0.7621
 1397SOL    HW215828   4.541   2.143  11.468 -0.7853  0.3821  2.0641
 1398SOL     OW15829   4.184   1.055   3.826 -0.0921  0.2318  0.0164
 1398SOL    HW115830   4.230   1.105   3.759  1.1552 -0.7426  0.1634
 1398SOL    HW215831   4.251   0.995   3.858 -0.5612 -0.7376 -0.8276
 1399SOL     OW15832   3.763   0.778  15.868 -0.1169 -0.2321 -0.1937
 1399SOL    HW115833   3.798   0.851  15.919 -1.5664  0.7634 -0.6246
 1399SOL    HW215834   3.669   0.790  15.879 -0.2735 -1.5123 -0.1514
 1400SOL     OW15835   0.233   2.159   7.613 -0.4748 -0.5741  0.0931
 1400SOL    HW115836   0.159   2.187   7.559 -0.7147 -2.8535 -0.7283
 1400SOL    HW215837   0.184   2.133   7.691 -0.5745 -0.4193  0.0840
 1401SOL     OW15838   2.068   2.578  16.849 -0.0491  0.0507 -0.0447
 1401SOL    HW115839   2.009   2.530  16.790  2.2766 -3.0329  0.1646
 1401SOL    HW215840   2.118   2.507  16.890 -2.6302 -1.7081  0.0834
 1402SOL     OW15841   0.943   0.335   6.219 -0.9382 -0.1604  0.0936
 1402SOL    HW115842   0.907   0.349   6.131 -1.2086  3.4953  0.8018
 1402SOL    HW215843   0.934   0.239   6.219  0.1263 -0.2704  0.7371
 1403SOL     OW15844   3.476   1.610   9.193  0.3185  0.2768 -0.2204
 1403SOL    HW115845   3.512   1.696   9.172  0.9478 -0.4954 -2.2638
 1403SOL    HW215846   3.554   1.554   9.196 -0.7864 -1.3000 -0.7562
 1404SOL     OW15847   2.634   1.602   6.463  0.4938  0.1827  0.2820
 1404SOL    HW115848   2.726   1.622   6.479  0.6440  0.2179 -0.6198
 1404SOL    HW215849   2.621   1.619   6.370  1.7444 -2.3335 -0.3352
 1405SOL     OW15850   3.022   0.206  15.838  0.0031  0.3018 -0.0272
 1405SOL    HW115851   3.047   0.281  15.782  4.1551 -1.9910 -1.2227
 1405SOL    HW215852   2.975   0.248  15.910 -0.7884 -0.6689  0.0182
 1406SOL     OW15853   2.783   1.740   5.252  0.5071  0.1772  0.0095
 1406SOL    HW115854   2.751   1.772   5.336 -2.3346 -0.7769 -0.6946
 1406SOL    HW215855   2.798   1.827   5.215 -0.5738  0.6308  0.6510
 1407SOL     OW15856   0.719   3.103   3.469 -0.2263  0.1251  0.5026
 1407SOL    HW115857   0.795   3.097   3.411 -0.3240  0.4356  0.3416
 1407SOL    HW215858   0.643   3.100   3.411  0.2224  1.3328 -0.1448
 1408SOL     OW15859   1.208   2.302   1.849  0.1558  0.0759  0.5775
 1408SOL    HW115860   1.134   2.347   1.807  0.9011  1.6693  1.0022
 1408SOL    HW215861   1.154   2.231   1.884 -1.5030  0.6347 -0.8350
 1409SOL     OW15862   3.486   2.670  17.114  0.6511  0.1166  0.4671
 1409SOL    HW115863   3.448   2.649  17.029  1.0552  0.8620  0.1064
 1409SOL    HW215864   3.568   2.713  17.091  1.3835  0.7981  4.3003
 1410SOL     OW15865   3.040   0.478   3.201 -0.1116  0.0293 -0.6825
 1410SOL    HW115866   3.002   0.437   3.278  0.2506 -0.3594 -0.7098
 1410SOL    HW215867   3.110   0.416   3.179 -1.7417 -2.3215  0.8126
 1411SOL     OW15868   4.019   0.763   8.044 -0.6449 -0.3632 -0.0597
 1411SOL    HW115869   4.107   0.725   8.043 -1.3508 -1.8897 -2.9111
 1411SOL    HW215870   3.994   0.753   7.953  2.2994  0.5943 -0.9673
 1412SOL     OW15871   2.556   1.522   7.495  0.4912  0.4779 -0.2347
 1412SOL    HW115872   2.472   1.534   7.540  0.2919 -0.5186 -0.3376
 1412SOL    HW215873   2.565   1.427   7.483  1.5949  0.7378 -1.3459
 1413SOL     OW15874   2.054   1.492   2.810 -0.2192  0.4606 -0.5421
 1413SOL    HW115875   2.000   1.550   2.756  1.8332  0.6362 -2.4275
 1413SOL    HW215876   2.047   1.410   2.762  1.4796  0.5785 -1.0129
 1414SOL     OW15877   1.336   1.283   1.101 -0.0701  0.2975 -0.0286
 1414SOL    HW115878   1.337   1.290   1.197  0.7148 -0.7098  0.0405
 1414SOL    HW215879   1.317   1.375   1.083 -2.4573 -0.1314  0.3257
 1415SOL     OW15880   0.629   2.792   7.516  0.0373  0.4095  0.5324
 1415SOL    HW115881   0.702   2.852   7.506  0.2878  0.0907  0.4260
 1415SOL    HW215882   0.674   2.714   7.550 -1.9609 -1.1652 -0.3981
 1416SOL     OW15883   1.092   0.281   1.863 -0.1682  0.7997  0.0616
 1416SOL    HW115884   1.059   0.332   1.789  1.8065  1.9970  0.0063
 1416SOL    HW215885   1.057   0.342   1.927 -0.7019  0.3156  0.2321
 1417SOL     OW15886   3.611   1.896   4.610  0.1519  0.1101  0.1088
 1417SOL    HW115887   3.671   1.833   4.649  0.5074  1.4477  1.7328
 1417SOL    HW215888   3.633   1.966   4.672 -2.1349  0.3490  0.6365
 1418SOL     OW15889   0.904   2.139  13.515 -0.1620 -0.1616  0.3947
 1418SOL    HW115890   0.982   2.125  13.568 -0.1356 -3.1327 -0.3834
 1418SOL    HW215891   0.855   2.056  13.512 -1.2071  0.3951  2.2267
 1419SOL     OW15892   0.139   3.280  15.956  0.0777  0.1609  0.0112
 1419SOL    HW115893   0.067   3.218  15.948  0.5561 -0.0772 -2.3888
 1419SOL    HW215894   0.122   3.334  15.879  0.1111  2.1147  1.3520
 1420SOL     OW15895   2.463   2.049   4.227  0.1083  0.4675  0.6549
 1420SOL    HW115896   2.481   2.099   4.147  0.7716 -1.6114 -0.4768
 1420SOL    HW215897   2.456   2.112   4.299  0.3916  1.1364  0.1037
 1421SOL     OW15898   3.698   0.780   3.411  0.4600 -0.3075 -0.4451
 1421SOL    HW115899   3.715   0.704   3.355 -0.1535 -1.1333  0.4853
 1421SOL    HW215900   3.755   0.753   3.483  2.4952 -1.0170 -2.3284
 1422SOL     OW15901   2.689   2.428   5.634  0.4710  0.4023 -0.4660
 1422SOL    HW115902   2.658   2.502   5.687  0.1162 -1.7195  2.2491
 1422SOL    HW215903   2.605   2.412   5.592 -0.0474  1.0364  0.3385
 1423SOL     OW15904   0.961   0.757   3.533 -0.0518  0.2447  0.1739
 1423SOL    HW115905   0.994   0.675   3.570  0.2010 -1.1174 -3.1182
 1423SOL    HW215906   1.035   0.782   3.479  0.6986 -3.7619 -0.6888
 1424SOL     OW15907   4.688   4.598   9.050 -0.0230  0.1129  0.1353
 1424SOL    HW115908   4.690   4.519   8.996 -0.1389  1.4621 -1.8807
 1424SOL    HW215909   0.027   4.640   9.012  1.5548 -2.2346  0.8161
 1425SOL     OW15910   1.036   3.507  12.748  0.3222  0.2961  0.0438
 1425SOL    HW115911   1.042   3.412  12.762 -1.9188 -0.2056 -2.3080
 1425SOL    HW215912   1.081   3.523  12.665  1.5635  2.3458  1.1278
 1426SOL     OW15913   1.377   0.558  10.870 -0.1376  0.1574 -0.3701
 1426SOL    HW115914   1.380   0.463  10.860 -1.4494  0.0893 -0.1445
 1426SOL    HW215915   1.466   0.589  10.890 -0.8692  3.0180 -1.4658
 1427SOL     OW15916   1.670   0.570   5.603 -0.4692 -0.4285  0.3145
 1427SOL    HW115917   1.600   0.571   5.668 -1.7268  2.6266 -1.0785
 1427SOL    HW215918   1.726   0.499   5.635 -0.6082  0.2950  2.2035
 1428SOL     OW15919   4.631   2.213  10.623  0.2540 -0.6433 -0.1747
 1428SOL    HW115920   4.562   2.191  10.686 -1.3491  1.4222 -1.1820
 1428SOL    HW215921   4.625   2.308  10.640 -0.5370 -1.0807  2.0597
 1429SOL     OW15922   3.883   1.943   2.489  0.0828 -0.4848 -0.5327
 1429SOL    HW115923   3.912   1.929   2.400 -1.0411  3.0112 -1.4513
 1429SOL    HW215924   3.830   1.865   2.502  0.4628 -0.6390  0.0968
 1430SOL     OW15925   3.984   3.503   2.050 -0.1024  0.5070 -0.2850
 1430SOL    HW115926   4.028   3.419   2.041 -1.0155  0.0584 -0.5648
 1430SOL    HW215927   3.978   3.521   1.957  1.7671 -1.1048 -0.7116
 1431SOL     OW15928   2.002   4.321   7.257 -0.6524 -0.1571  0.2116
 1431SOL    HW115929   2.043   4.259   7.318  0.4057 -0.0941 -0.4241
 1431SOL    HW215930   2.055   4.328   7.177 -1.0207 -4.1069 -0.3813
 1432SOL     OW15931   0.128   0.956  16.386 -0.3122  0.4064  0.4479
 1432SOL    HW115932   0.165   0.995  16.307  1.1634  0.3854  1.1179
 1432SOL    HW215933   0.191   0.888  16.410 -0.6775 -0.0230  0.2041
 1433SOL     OW15934   0.538   1.473   5.329 -0.0048  0.0214 -0.1465
 1433SOL    HW115935   0.510   1.485   5.238  0.3181 -0.2580 -0.2800
 1433SOL    HW215936   0.610   1.533   5.348  1.1401 -1.4455  0.1156
 1434SOL     OW15937   2.160   0.969   2.039 -0.2986  0.0320  0.2172
 1434SOL    HW115938   2.188   1.061   2.032  1.6450 -0.6926 -1.3183
 1434SOL    HW215939   2.077   0.989   2.081 -0.4008  0.0595  0.0032
 1435SOL     OW15940   4.404   4.047   1.098 -0.5361  0.0022  0.0409
 1435SOL    HW115941   4.491   4.084   1.116 -1.4897  2.6469 -0.8069
 1435SOL    HW215942   4.426   3.989   1.026  1.7591  0.0335  0.7144
 1436SOL     OW15943   1.231   1.156  17.074  0.4413  0.4720  0.3189
 1436SOL    HW115944   1.263   1.181  17.160  0.2280 -0.2562  0.6091
 1436SOL    HW215945   1.240   1.060  17.076 -0.4555  0.4145  1.3654
 1437SOL     OW15946   3.444   0.265   6.959  0.3190  0.3291 -0.1702
 1437SOL    HW115947   3.348   0.272   6.955  0.1862 -0.4177  1.5889
 1437SOL    HW215948   3.471   0.265   6.867  2.1315  2.0940  0.3654
 1438SOL     OW15949   1.952   1.927  10.925 -0.4076  0.4111  0.4384
 1438SOL    HW115950   2.019   1.865  10.957 -1.7221 -1.7390 -0.9727
 1438SOL    HW215951   1.999   1.993  10.875 -0.2001 -0.0669  0.0029
 1439SOL     OW15952   4.566   1.486   4.497 -0.1185 -0.8933 -0.6319
 1439SOL    HW115953   4.481   1.461   4.461 -1.0690 -0.3480  1.2252
 1439SOL    HW215954   4.614   1.479   4.415 -0.3631  2.6378 -1.0702
 1440SOL     OW15955   1.288   0.461  15.361 -0.2383 -0.0802 -0.1413
 1440SOL    HW115956   1.264   0.553  15.370 -1.6441 -0.7355  2.8778
 1440SOL    HW215957   1.384   0.456  15.365 -0.3546 -0.2114  2.4139
 1441SOL     OW15958   3.756   0.531  15.575  0.3044  0.2265 -0.5547
 1441SOL    HW115959   3.798   0.617  15.567 -1.6724  1.3210  0.9655
 1441SOL    HW215960   3.692   0.546  15.644  0.1731 -0.4168 -0.5383
 1442SOL     OW15961   4.307   0.945   1.288 -0.3430 -0.0575 -0.1857
 1442SOL    HW115962   4.372   0.936   1.358 -2.0613  1.5924  1.6195
 1442SOL    HW215963   4.293   1.039   1.297  0.4580 -0.0430  1.0143
 1443SOL     OW15964   4.715   0.083   9.556 -0.5155  0.3411 -0.3782
 1443SOL    HW115965   4.737   4.729   9.568 -0.2315  0.5156  0.4563
 1443SOL    HW215966   4.629   0.089   9.598 -1.2401 -2.6930 -1.4030
 1444SOL     OW15967   2.401   3.960   4.535 -0.4247  0.3579  0.1181
 1444SOL    HW115968   2.440   4.001   4.458 -0.3195  1.2095  0.6284
 1444SOL    HW215969   2.421   4.018   4.608 -1.3519  2.1721 -1.0519
 1445SOL     OW15970   3.498   3.480   2.297  0.0988 -0.6481  0.1431
 1445SOL    HW115971   3.532   3.478   2.386 -0.0797 -0.9074  0.2057
 1445SOL    HW215972   3.578   3.459   2.249 -0.6335  2.0438 -2.2369
 1446SOL     OW15973   0.191   4.667  12.074 -0.4916 -0.1684 -0.2440
 1446SOL    HW115974   0.149   4.633  11.995  1.1280  0.0757 -1.1989
 1446SOL    HW215975   0.244   4.739  12.040 -1.6786  0.0752 -1.5735
 1447SOL     OW15976   1.590   3.500  11.657  0.5057 -0.2407 -0.2640
 1447SOL    HW115977   1.589   3.487  11.563  0.9429 -3.1842  0.1554
 1447SOL    HW215978   1.510   3.455  11.684 -1.3124  2.7419 -0.6241
 1448SOL     OW15979   0.967   3.177   3.274  0.0402  0.3315  0.1995
 1448SOL    HW115980   0.914   3.135   3.206 -0.9126  0.0781  1.0953
 1448SOL    HW215981   1.039   3.212   3.221 -0.9937  0.4106 -1.1521
 1449SOL     OW15982   4.600   3.801   9.120  0.0706  0.4461 -0.3425
 1449SOL    HW115983   4.601   3.713   9.158 -0.1092  0.2346 -0.8333
 1449SOL    HW215984   4.679   3.836   9.161 -0.1594 -0.3065  0.7438
 1450SOL     OW15985   2.831   1.044  16.181 -0.2019  0.2733 -0.5432
 1450SOL    HW115986   2.796   1.023  16.094  0.3469 -1.3113 -0.3756
 1450SOL    HW215987   2.886   1.120  16.165 -0.6642  0.3614 -1.7437
 1451SOL     OW15988   3.821   0.363  16.381  0.2483  0.3997  0.0074
 1451SOL    HW115989   3.734   0.402  16.372  1.8867  3.6031 -2.1150
 1451SOL    HW215990   3.882   0.437  16.377  1.9277 -1.0017  0.0454
 1452SOL     OW15991   2.740   3.207   5.218 -0.1088 -0.1394 -0.4673
 1452SOL    HW115992   2.804   3.262   5.265  0.2910 -1.6299  0.7235
 1452SOL    HW215993   2.768   3.221   5.127 -0.6231  0.3723 -0.5439
 1453SOL     OW15994   2.872   3.364   9.863 -0.0740 -0.5721  0.2252
 1453SOL    HW115995   2.826   3.301   9.918 -1.9493  0.4645 -0.1491
 1453SOL    HW215996   2.931   3.413   9.921 -0.0305 -1.4694  0.9410
 1454SOL     OW15997   0.791   1.404   1.585  0.1953  0.6050  0.3256
 1454SOL    HW115998   0.870   1.418   1.637  0.4474  1.4837 -0.2940
 1454SOL    HW215999   0.810   1.320   1.544  0.9779  1.0619 -0.2520
 1455SOL     OW16000   3.433   2.135   6.642  0.0657 -0.3185 -0.1616
 1455SOL    HW116001   3.410   2.046   6.671  1.4756 -0.9755 -1.0879
 1455SOL    HW216002   3.412   2.126   6.549  3.1261 -1.5774 -0.7346
 1456SOL     OW16003   2.023   3.172   4.699  0.3125  0.4251  0.5210
 1456SOL    HW116004   1.990   3.105   4.640 -1.2301  0.9917  0.7453
 1456SOL    HW216005   2.075   3.112   4.752 -0.8320  0.3775  1.5820
 1457SOL     OW16006   4.714   2.869   6.338  0.0536 -0.4941  0.3056
 1457SOL    HW116007   4.728   2.859   6.244  1.0410  1.6491  0.2372
 1457SOL    HW216008   4.620   2.887   6.346  0.0299  0.1474 -1.4077
 1458SOL     OW16009   0.643   3.041  11.854 -0.3587  0.0586  0.1562
 1458SOL    HW116010   0.646   3.115  11.793 -1.6036  0.1705  0.2142
 1458SOL    HW216011   0.701   3.067  11.925  0.8741  1.0661 -1.2276
 1459SOL     OW16012   1.817   3.470  16.988 -0.5276 -0.5928 -0.3595
 1459SOL    HW116013   1.853   3.382  16.976  0.2699 -0.2124 -0.8041
 1459SOL    HW216014   1.858   3.485  17.073  0.2957 -0.4007 -0.7851
 1460SOL     OW16015   0.584   0.191   8.765 -0.1548 -0.2975  0.4435
 1460SOL    HW116016   0.502   0.233   8.788  0.7951  0.6936  2.0341
 1460SOL    HW216017   0.648   0.250   8.805 -0.1560  0.0797 -0.1020
 1461SOL     OW16018   0.474   1.877   7.864  0.0300 -0.0107 -0.2182
 1461SOL    HW116019   0.498   1.956   7.912  2.1506 -0.9032  0.1805
 1461SOL    HW216020   0.382   1.861   7.884  0.2150 -0.9927 -0.1668
 1462SOL     OW16021   3.559   0.307   2.263  0.3978  0.2805  0.2128
 1462SOL    HW116022   3.506   0.296   2.342  0.5020  1.3903  0.4405
 1462SOL    HW216023   3.492   0.348   2.208  0.7856  2.2276  1.2006
 1463SOL     OW16024   1.448   4.203   3.661  0.4231  0.8007  0.4811
 1463SOL    HW116025   1.497   4.135   3.706  0.0161  0.8442  0.9873
 1463SOL    HW216026   1.515   4.271   3.660  1.1929  0.0073 -1.4787
 1464SOL     OW16027   3.597   2.616   7.391  0.3371  0.1513  0.0240
 1464SOL    HW116028   3.671   2.676   7.390  1.4168 -1.2043 -0.0860
 1464SOL    HW216029   3.555   2.633   7.306 -0.8318 -0.9109  0.3823
 1465SOL     OW16030   2.829   1.015   5.307  0.1599  0.0888  0.0163
 1465SOL    HW116031   2.785   1.014   5.222  0.2069  1.8852 -0.0371
 1465SOL    HW216032   2.762   1.051   5.366  1.4702  2.8103 -0.1645
 1466SOL     OW16033   3.944   3.538   4.553 -0.7783 -0.2452 -0.3795
 1466SOL    HW116034   3.969   3.514   4.463 -0.4220  2.0167 -0.8641
 1466SOL    HW216035   4.007   3.607   4.571 -1.3050  0.0552  0.3099
 1467SOL     OW16036   1.802   1.095   1.431 -0.0572  0.4145  0.5528
 1467SOL    HW116037   1.716   1.077   1.393 -0.2253  1.5039  0.4132
 1467SOL    HW216038   1.781   1.093   1.524  1.2609 -2.1848  0.8027
 1468SOL     OW16039   0.140   0.815   5.639  0.2915  0.0220 -0.2985
 1468SOL    HW116040   0.213   0.805   5.578  0.0211 -1.0061 -0.4460
 1468SOL    HW216041   0.164   0.882   5.703  0.6261  2.2341 -2.7566
 1469SOL     OW16042   4.461   3.177   2.767  0.4934  0.1203 -0.1841
 1469SOL    HW116043   4.498   3.264   2.778  0.5452  0.0347  0.3614
 1469SOL    HW216044   4.537   3.123   2.743 -1.6239 -2.8150 -0.3455
 1470SOL     OW16045   4.582   3.931   4.497  0.1034 -0.5774  0.8202
 1470SOL    HW116046   4.501   3.881   4.489 -0.6793  1.1379 -1.7845
 1470SOL    HW216047   4.589   3.989   4.422  0.2339 -1.3649  0.2256
 1471SOL     OW16048   3.802   4.412   4.422  0.2772  0.0746 -0.1532
 1471SOL    HW116049   3.717   4.452   4.404 -0.2079 -0.2047  1.5255
 1471SOL    HW216050   3.863   4.482   4.397 -0.7477  2.0545  2.9148
 1472SOL     OW16051   3.534   1.421   2.588 -0.1385  0.1698  0.5259
 1472SOL    HW116052   3.531   1.406   2.493 -1.2159 -0.9782  0.7494
 1472SOL    HW216053   3.439   1.414   2.599  0.0010  0.0625  1.6670
 1473SOL     OW16054   4.156   0.091   2.380 -0.2225  0.2878 -0.3814
 1473SOL    HW116055   4.095   0.165   2.384 -0.6766 -0.1046 -0.0935
 1473SOL    HW216056   4.107   0.028   2.433 -0.1496 -0.0952 -0.7719
 1474SOL     OW16057   1.018   4.247   3.986 -0.5616 -0.1432 -0.6535
 1474SOL    HW116058   1.094   4.303   3.999 -0.1742 -0.7649 -0.2254
 1474SOL    HW216059   1.019   4.203   4.072  0.7521  0.5180 -0.3358
 1475SOL     OW16060   1.117   2.524  11.557  0.1635  0.2347  0.1484
 1475SOL    HW116061   1.108   2.445  11.610  0.2974 -0.2812 -0.6011
 1475SOL    HW216062   1.028   2.544  11.528  0.6531 -0.1509 -1.6245
 1476SOL     OW16063   3.544   0.476   4.645  0.5421 -0.0849 -0.3364
 1476SOL    HW116064   3.571   0.543   4.581  0.0091  0.7031  0.2553
 1476SOL    HW216065   3.630   0.440   4.666  1.7871  1.9634 -1.8685
 1477SOL     OW16066   2.885   3.659   8.088 -0.3607 -0.2407  0.4668
 1477SOL    HW116067   2.946   3.679   8.159 -1.2286  1.2004  0.8052
 1477SOL    HW216068   2.859   3.749   8.068 -1.2873 -0.8208 -0.9153
 1478SOL     OW16069   1.099   3.377  14.964 -0.2437 -0.2465 -0.1023
 1478SOL    HW116070   1.078   3.424  14.883 -1.1123 -0.1438  0.1863
 1478SOL    HW216071   1.139   3.448  15.015 -1.7243 -2.3656  4.0012
 1479SOL     OW16072   3.746   0.416   6.269  0.1224  0.0554 -0.1344
 1479SOL    HW116073   3.704   0.402   6.184 -0.6235 -0.3994  0.3126
 1479SOL    HW216074   3.785   0.501   6.247 -0.1164  0.8142  2.4242
 1480SOL     OW16075   3.990   0.329   2.343  0.2787  0.3112 -0.0155
 1480SOL    HW116076   4.060   0.390   2.319  1.0771 -0.5481  0.1176
 1480SOL    HW216077   3.912   0.382   2.327  0.4358  0.6213  0.2633
 1481SOL     OW16078   2.745   1.346  17.498 -0.0306  0.2925  0.0549
 1481SOL    HW116079   2.723   1.265  17.544 -1.0038 -0.3525 -1.5535
 1481SOL    HW216080   2.809   1.315  17.434 -0.2497 -0.4942  0.2140
 1482SOL     OW16081   3.163   2.038  10.709  0.0699  0.2420  0.6117
 1482SOL    HW116082   3.148   2.037  10.803  0.2663 -2.4020  0.6037
 1482SOL    HW216083   3.258   2.026  10.707 -0.0724 -0.5063 -1.3280
 1483SOL     OW16084   1.151   1.079   5.240  0.3661 -0.4475  0.6091
 1483SOL    HW116085   1.139   1.064   5.333 -0.8902 -0.1079  0.4972
 1483SOL    HW216086   1.084   1.146   5.230  1.2005  0.3095  0.0320
 1484SOL     OW16087   2.383   2.194  11.439  1.3552  0.3429  0.1448
 1484SOL    HW116088   2.466   2.176  11.396  0.3662 -1.7023 -0.9126
 1484SOL    HW216089   2.319   2.193  11.368  0.1688  4.7981  1.1358
 1485SOL     OW16090   3.186   4.260   9.438 -0.0331  0.0890  0.7539
 1485SOL    HW116091   3.183   4.280   9.532 -0.2074  0.7067  0.6217
 1485SOL    HW216092   3.241   4.329   9.402 -1.2531  0.2404 -0.8314
 1486SOL     OW16093   0.101   2.011   7.021 -0.2214  0.6963 -0.1713
 1486SOL    HW116094   0.123   2.102   7.042 -2.1003  1.5921 -2.1111
 1486SOL    HW216095   0.024   1.991   7.073 -0.0764  0.6920  0.0418
 1487SOL     OW16096   4.732   4.115   2.392 -0.2258 -0.2788  0.4998
 1487SOL    HW116097   0.056   4.161   2.447  0.4630 -3.2124  2.1820
 1487SOL    HW216098   4.696   4.054   2.457 -2.3934 -1.8549 -2.2143
 1488SOL     OW16099   1.756   1.058   7.429  0.1581  0.0526  0.2447
 1488SOL    HW116100   1.836   1.041   7.479  0.5162  2.3021  0.4681
 1488SOL    HW216101   1.723   1.131   7.482  0.3567  1.6155 -1.7596
 1489SOL     OW16102   3.529   2.356   9.342  0.0347 -0.3722 -0.2159
 1489SOL    HW116103   3.540   2.261   9.354 -1.5784 -0.3023  1.9178
 1489SOL    HW216104   3.461   2.358   9.274 -0.2686 -0.1344  0.0977
 1490SOL     OW16105   2.185   3.056   4.877 -0.2838  0.1068 -0.5411
 1490SOL    HW116106   2.244   3.128   4.896  1.2281 -0.9860 -1.1147
 1490SOL    HW216107   2.211   2.978   4.926 -2.7790 -0.6620 -0.4265
 1491SOL     OW16108   1.737   1.086   1.687 -0.0728  0.0759  0.0695
 1491SOL    HW116109   1.750   1.178   1.707  2.8820 -0.8087  2.2123
 1491SOL    HW216110   1.649   1.088   1.723 -0.0352  0.1956  0.1552
 1492SOL     OW16111   1.579   0.997   0.214 -0.3066  0.5328 -0.0323
 1492SOL    HW116112   1.578   1.045   0.297 -2.2474  0.2925  0.0871
 1492SOL    HW216113   1.667   0.960   0.214 -0.2137  0.7763 -1.1455
 1493SOL     OW16114   3.676   3.248  10.059 -0.5103  0.4749  0.0678
 1493SOL    HW116115   3.664   3.342  10.075  0.0768  0.2495  1.8575
 1493SOL    HW216116   3.589   3.216  10.038 -1.6366  1.2045  3.5636
 1494SOL     OW16117   2.027   0.163  14.655 -0.2575  0.0567 -0.3896
 1494SOL    HW116118   2.066   0.238  14.610  1.3650 -0.5312  0.0408
 1494SOL    HW216119   2.086   0.096  14.619 -1.1148  0.2669 -2.2167
 1495SOL     OW16120   4.198   1.775   3.603 -0.4486  0.2519  0.4995
 1495SOL    HW116121   4.211   1.869   3.621 -2.4393  1.1743 -2.8104
 1495SOL    HW216122   4.115   1.773   3.554 -0.1031  1.5239 -0.1472
 1496SOL     OW16123   3.247   3.423  16.050  0.0498  0.0501  0.2354
 1496SOL    HW116124   3.329   3.404  16.096  0.2718 -1.9993 -0.9898
 1496SOL    HW216125   3.211   3.485  16.114  0.0590 -1.0649  1.3363
 1497SOL     OW16126   1.512   2.109  16.902  0.4821  0.2866  0.0127
 1497SOL    HW116127   1.445   2.049  16.936 -0.0849  0.8374 -0.1400
 1497SOL    HW216128   1.463   2.148  16.829 -1.9138 -1.7295  0.5110
 1498SOL     OW16129   4.681   0.657  16.958  0.3741 -0.3557  0.1562
 1498SOL    HW116130   4.704   0.609  17.037  0.3229 -0.3217  0.1917
 1498SOL    HW216131   4.587   0.673  16.965  0.7502  1.5014  1.0058
 1499SOL     OW16132   4.122   4.450   9.291 -0.0801 -0.4077 -0.3277
 1499SOL    HW116133   4.094   4.541   9.300 -2.9264 -1.2019 -1.0222
 1499SOL    HW216134   4.214   4.459   9.267 -0.6014  1.3567 -1.6531
 1500SOL     OW16135   2.266   4.030   7.740 -0.0083  0.6936 -0.5325
 1500SOL    HW116136   2.205   4.063   7.806  0.2904  1.7532 -0.7773
 1500SOL    HW216137   2.263   4.105   7.680  2.2225 -0.8166 -2.4971
 1501SOL     OW16138   1.284   4.252   7.098 -0.7132  0.4514 -0.5406
 1501SOL    HW116139   1.342   4.283   7.168  0.1404 -0.2108 -0.9494
 1501SOL    HW216140   1.260   4.164   7.126  2.4190  0.0300  0.8564
 1502SOL     OW16141   3.574   0.075   7.110  0.0443 -0.5803 -0.5284
 1502SOL    HW116142   3.663   0.093   7.080 -0.1791 -0.6608 -1.2268
 1502SOL    HW216143   3.520   0.132   7.055  0.6142 -1.1722 -1.6802
 1503SOL     OW16144   0.354   0.921   6.334  0.0736  0.1004 -0.2804
 1503SOL    HW116145   0.337   0.826   6.334  0.4549  0.0332  1.0087
 1503SOL    HW216146   0.285   0.948   6.273 -2.4663  1.8911  3.4142
 1504SOL     OW16147   2.975   1.204   2.115 -0.1748  0.6315  0.9404
 1504SOL    HW116148   2.951   1.212   2.207 -0.9032 -1.8166  0.9712
 1504SOL    HW216149   2.957   1.288   2.074 -3.1821 -0.8380 -0.7975
 1505SOL     OW16150   1.718   2.370   2.014 -0.3683  0.6085 -0.4047
 1505SOL    HW116151   1.628   2.366   1.980 -0.6350  1.9618  0.1105
 1505SOL    HW216152   1.721   2.461   2.045 -0.2828  0.8733 -1.1922
 1506SOL     OW16153   3.449   3.859   7.163  0.4096 -0.0495  0.0479
 1506SOL    HW116154   3.508   3.889   7.232 -0.3988 -0.5722  0.9763
 1506SOL    HW216155   3.415   3.942   7.129  2.6549 -0.1402 -2.4104
 1507SOL     OW16156   2.928   1.506   4.849 -0.1988 -0.1950  0.2366
 1507SOL    HW116157   2.929   1.428   4.903  2.2252 -0.1363  0.3026
 1507SOL    HW216158   2.982   1.557   4.910 -1.0774  0.1398  0.7223
 1508SOL     OW16159   3.903   3.140   4.054 -0.1707 -0.4285 -0.5679
 1508SOL    HW116160   3.937   3.063   4.100 -0.1349 -0.0886 -0.0261
 1508SOL    HW216161   3.828   3.110   4.003 -1.0458 -0.2010  0.5921
 1509SOL     OW16162   2.202   1.615   6.139  0.7824  0.2498  0.0340
 1509SOL    HW116163   2.293   1.617   6.170  0.8560  1.8705 -0.2933
 1509SOL    HW216164   2.209   1.584   6.048 -0.3036  0.0441  0.0231
 1510SOL     OW16165   2.224   1.423   7.951  0.2057 -1.0468 -0.4924
 1510SOL    HW116166   2.249   1.502   8.000 -1.3986 -0.1118 -1.1733
 1510SOL    HW216167   2.310   1.381   7.950  0.1961 -1.0506 -1.0609
 1511SOL     OW16168   0.554   2.118   8.777 -0.1271  0.6609  0.0244
 1511SOL    HW116169   0.504   2.064   8.837  0.6509 -0.0131  0.0620
 1511SOL    HW216170   0.568   2.049   8.713  1.5896  0.0992  0.9921
 1512SOL     OW16171   4.448   0.023   1.900  0.4575  0.2515  0.1272
 1512SOL    HW116172   4.454   4.674   1.863 -1.1987  0.3090 -0.2623
 1512SOL    HW216173   4.363   0.015   1.942  1.8308 -2.8381  2.3335
 1513SOL     OW16174   0.473   4.043   6.959  0.4075  0.4467 -0.2782
 1513SOL    HW116175   0.497   3.951   6.969 -2.2665 -0.1758  0.2296
 1513SOL    HW216176   0.420   4.063   7.036  2.1350 -0.0035  1.0353
 1514SOL     OW16177   3.775   0.398   1.228 -1.0788  0.1191  0.5665
 1514SOL    HW116178   3.837   0.467   1.251  1.1002 -1.9762  1.0404
 1514SOL    HW216179   3.792   0.407   1.134 -0.7957  0.2391  0.6315
 1515SOL     OW16180   2.856   1.833   7.036  0.1411  0.0519 -0.7249
 1515SOL    HW116181   2.860   1.746   6.994 -2.6763 -0.2908 -0.2371
 1515SOL    HW216182   2.927   1.877   6.989 -0.1514  1.9506  0.6184
 1516SOL     OW16183   3.462   2.288   7.120  0.2239 -0.5351  0.6202
 1516SOL    HW116184   3.420   2.374   7.115 -1.3172 -1.1982  2.2106
 1516SOL    HW216185   3.423   2.248   7.043 -0.4287 -2.3460  1.9080
 1517SOL     OW16186   1.331   3.299   6.723  0.9711  0.4379  0.2881
 1517SOL    HW116187   1.344   3.274   6.815  0.8485  0.3144  0.2716
 1517SOL    HW216188   1.422   3.313   6.696  0.6460 -0.4157 -1.2462
 1518SOL     OW16189   4.690   1.486   5.679  0.0471  0.0859  0.2402
 1518SOL    HW116190   4.613   1.462   5.627  0.8675  0.8112 -1.3007
 1518SOL    HW216191   4.688   1.580   5.665  1.8598 -0.4324 -3.5981
 1519SOL     OW16192   4.046   1.361   6.961 -0.1290  0.6818 -0.1151
 1519SOL    HW116193   3.960   1.354   7.002  0.5312 -0.9884  0.9995
 1519SOL    HW216194   4.021   1.360   6.869  0.5159 -2.5440 -0.2673
 1520SOL     OW16195   0.842   4.471   9.718  0.9315 -0.1910  0.1971
 1520SOL    HW116196   0.750   4.486   9.698  1.0409 -0.8225 -0.7647
 1520SOL    HW216197   0.872   4.459   9.628  1.2082  3.3819 -0.2160
 1521SOL     OW16198   2.636   1.088  16.799  0.6418 -0.0611  0.0257
 1521SOL    HW116199   2.577   1.047  16.862 -0.2721 -1.4137 -1.7032
 1521SOL    HW216200   2.639   1.179  16.826 -2.1171 -0.8518  2.9884
 1522SOL     OW16201   3.114   3.767   3.234  0.2770 -0.1667  0.6047
 1522SOL    HW116202   3.036   3.712   3.241  0.6261 -0.3330  3.1754
 1522SOL    HW216203   3.166   3.748   3.313 -1.5744  2.0620  2.3595
 1523SOL     OW16204   3.724   0.230  11.915  1.4272 -0.5602 -0.2716
 1523SOL    HW116205   3.777   0.227  11.994  0.0891 -0.9593  0.6013
 1523SOL    HW216206   3.766   0.304  11.871 -1.9606  0.8174 -1.1699
 1524SOL     OW16207   4.301   1.069   3.056 -0.4596 -0.4273  0.0320
 1524SOL    HW116208   4.334   1.085   2.967 -1.1090  2.2071  0.2440
 1524SOL    HW216209   4.323   0.978   3.074  0.8155 -0.0661  0.3351
 1525SOL     OW16210   1.174   2.067   6.602  0.0703  0.5119  0.5582
 1525SOL    HW116211   1.207   2.029   6.683 -1.1590 -0.8287  0.4350
 1525SOL    HW216212   1.087   2.104   6.616  0.3078  0.5878  1.7756
 1526SOL     OW16213   1.333   4.244   8.489  0.8645  0.5975  0.5916
 1526SOL    HW116214   1.305   4.307   8.554 -0.2941 -0.7662  1.3986
 1526SOL    HW216215   1.390   4.181   8.533 -0.0569 -0.4824  0.2411
 1527SOL     OW16216   3.531   1.523   7.908 -0.4041 -0.0170 -0.3332
 1527SOL    HW116217   3.508   1.541   7.817 -0.0354  2.6299  0.0977
 1527SOL    HW216218   3.458   1.570   7.949  1.1734  2.7080 -0.6969
 1528SOL     OW16219   2.075   2.882   6.691 -0.4380 -0.0558 -0.1820
 1528SOL    HW116220   2.019   2.831   6.633  1.7309 -1.1221 -1.3220
 1528SOL    HW216221   2.029   2.966   6.683 -0.6180 -0.0697  0.7705
 1529SOL     OW16222   0.738   3.241   3.705  0.2847 -0.1080 -0.2136
 1529SOL    HW116223   0.686   3.198   3.774  0.2405  0.0159 -0.1695
 1529SOL    HW216224   0.744   3.174   3.638 -1.8129  0.1696 -0.6911
 1530SOL     OW16225   2.958   3.783   5.382  0.0086  0.2271 -0.3635
 1530SOL    HW116226   2.994   3.776   5.471  1.0358 -0.4805 -0.8376
 1530SOL    HW216227   2.866   3.780   5.410  0.1060  1.4678  0.1055
 1531SOL     OW16228   0.308   1.141   8.416 -0.0631 -0.0198  0.0454
 1531SOL    HW116229   0.265   1.226   8.407  1.7247  0.6394 -2.3134
 1531SOL    HW216230   0.328   1.147   8.509  0.2860 -0.3586 -0.0082
 1532SOL     OW16231   3.632   4.308   6.857  0.7499  0.4110 -0.2322
 1532SOL    HW116232   3.613   4.257   6.777  0.8529 -1.5164  0.9729
 1532SOL    HW216233   3.679   4.246   6.913 -0.0610 -0.7302 -0.8100
 1533SOL     OW16234   0.638   4.392   8.244 -0.0502  0.0886 -0.0331
 1533SOL    HW116235   0.684   4.469   8.276 -0.2286 -0.3147  1.1615
 1533SOL    HW216236   0.694   4.381   8.166  1.1753  3.0801  0.4357
 1534SOL     OW16237   0.053   2.023  15.018  0.2584  0.0365 -0.5100
 1534SOL    HW116238   0.053   1.992  15.109 -0.2939 -2.0681 -1.2302
 1534SOL    HW216239   0.015   2.111  15.025 -1.2136 -0.8411  2.6183
 1535SOL     OW16240   4.478   3.369   3.492 -0.3803  0.1742  0.0444
 1535SOL    HW116241   4.405   3.340   3.547 -0.9616 -0.1205 -0.8836
 1535SOL    HW216242   4.442   3.452   3.460 -0.4219  0.2928  0.3965
 1536SOL     OW16243   1.093   1.191   8.213 -0.0334 -0.1956 -0.3184
 1536SOL    HW116244   1.116   1.236   8.295  0.0029  1.8461 -1.4413
 1536SOL    HW216245   1.158   1.121   8.204  0.6060  0.3452  0.0005
 1537SOL     OW16246   4.243   1.925   6.125 -0.2058 -0.3038 -0.0459
 1537SOL    HW116247   4.181   1.944   6.195  0.3455  2.5836 -0.3423
 1537SOL    HW216248   4.329   1.943   6.164 -0.3231 -2.2243  1.1194
 1538SOL     OW16249   2.720   1.333   6.506 -0.4462 -0.0951  0.0994
 1538SOL    HW116250   2.659   1.406   6.513  1.3612  1.4446 -0.0842
 1538SOL    HW216251   2.757   1.348   6.593 -0.1265  3.3095 -0.5882
 1539SOL     OW16252   2.218   0.653   5.842 -0.1023  0.0311  0.3240
 1539SOL    HW116253   2.133   0.686   5.811 -0.8425 -2.9546 -0.9148
 1539SOL    HW216254   2.199   0.566   5.807  2.0225 -0.6310  0.8261
 1540SOL     OW16255   2.006   1.462   4.839 -0.2104 -0.5077 -0.2714
 1540SOL    HW116256   1.973   1.424   4.758 -1.9477  2.6411 -1.0738
 1540SOL    HW216257   1.927   1.484   4.889 -0.3363  0.3685 -0.8527
 1541SOL     OW16258   3.895   4.216   1.947  0.4574 -0.5234  0.0254
 1541SOL    HW116259   3.961   4.159   1.907  2.1619  2.3117 -1.2462
 1541SOL    HW216260   3.937   4.232   2.032 -1.3952 -2.4729  1.2875
 1542SOL     OW16261   2.046   0.017   5.225 -0.1146  0.3651 -0.1455
 1542SOL    HW116262   2.002   0.076   5.163  1.6651  0.7352 -1.0412
 1542SOL    HW216263   1.978   0.002   5.291  0.4555  0.0499  0.3634
 1543SOL     OW16264   4.360   4.632   5.647  0.1053 -0.1385  0.4793
 1543SOL    HW116265   4.318   4.548   5.630 -0.7460  0.1238  1.2380
 1543SOL    HW216266   4.333   4.670   5.564  2.2872 -0.6774 -0.4678
 1544SOL     OW16267   0.334   3.956  17.089 -0.3203 -0.6021  0.5964
 1544SOL    HW116268   0.400   4.022  17.110 -0.0329 -0.4297 -0.8435
 1544SOL    HW216269   0.327   3.982  16.997  1.7751 -3.0864 -0.2760
 1545SOL     OW16270   2.269   0.420   6.539 -0.1051  0.4174  0.5722
 1545SOL    HW116271   2.343   0.461   6.584  1.2071 -1.6374  0.2771
 1545SOL    HW216272   2.222   0.500   6.517 -0.1525 -0.2123 -1.5319
 1546SOL     OW16273   3.915   3.263   1.746 -0.1138  0.5280  0.1212
 1546SOL    HW116274   3.969   3.326   1.793  0.9755 -1.7832  1.9631
 1546SOL    HW216275   3.978   3.191   1.742 -1.2598 -0.5557  1.2327
 1547SOL     OW16276   2.572   2.176   7.886 -0.3814  0.8812  0.1314
 1547SOL    HW116277   2.598   2.260   7.924  0.8341 -0.7747  2.9500
 1547SOL    HW216278   2.514   2.150   7.957 -1.1141 -1.2625 -1.2538
 1548SOL     OW16279   2.094   2.241   7.612 -0.1309  0.1879  0.5853
 1548SOL    HW116280   2.040   2.299   7.667  2.2992  1.3601  1.7630
 1548SOL    HW216281   2.028   2.225   7.545 -0.7580  1.0970  0.9830
 1549SOL     OW16282   0.013   1.314   1.886 -0.1145  0.4834 -0.1156
 1549SOL    HW116283   0.011   1.234   1.833  1.0343  1.7457 -2.0600
 1549SOL    HW216284   0.105   1.317   1.914  0.4261  0.8569 -1.8960
 1550SOL     OW16285   0.366   3.942  12.702  0.1916 -0.2765 -0.1169
 1550SOL    HW116286   0.460   3.925  12.712  0.0448  0.1269  1.8917
 1550SOL    HW216287   0.332   3.860  12.737 -0.8926  0.2244  0.0231
 1551SOL     OW16288   3.167   3.352  13.027  0.0880 -0.4291  0.1991
 1551SOL    HW116289   3.175   3.399  13.110  1.3012 -1.6447  0.7628
 1551SOL    HW216290   3.260   3.352  13.003 -0.1638 -2.5640 -0.7549
 1552SOL     OW16291   4.226   3.400   4.118  0.0331  0.2139  0.1682
 1552SOL    HW116292   4.290   3.419   4.186  1.0077  0.3112 -0.7818
 1552SOL    HW216293   4.278   3.422   4.041  0.9714 -0.4095  0.6192
 1553SOL     OW16294   4.422   3.492  12.231  0.3075 -0.0286 -0.5967
 1553SOL    HW116295   4.469   3.534  12.302 -0.7901 -1.4745  0.9666
 1553SOL    HW216296   4.456   3.544  12.158 -1.4938  2.5575  0.4342
 1554SOL     OW16297   4.337   3.593   2.219 -0.2542  0.1379  0.6989
 1554SOL    HW116298   4.320   3.501   2.201 -0.7064  0.4870 -0.6116
 1554SOL    HW216299   4.432   3.585   2.229  0.1119  3.0892 -0.3174
 1555SOL     OW16300   0.027   1.983   2.655 -0.1802  0.0786 -0.0351
 1555SOL    HW116301   4.721   2.041   2.716 -0.0876  1.4807 -1.2921
 1555SOL    HW216302   0.017   1.904   2.708  1.1861 -1.1387 -1.5866
 1556SOL     OW16303   2.838   3.955   6.389  0.2741  0.4619 -0.8529
 1556SOL    HW116304   2.777   3.997   6.328  1.9438  0.1143 -2.7558
 1556SOL    HW216305   2.850   4.035   6.440 -0.0277 -1.7563  2.6464
 1557SOL     OW16306   2.732   2.148   8.134 -0.4666 -0.1035  0.2793
 1557SOL    HW116307   2.767   2.106   8.056 -1.5979  0.1785 -0.3942
 1557SOL    HW216308   2.771   2.091   8.200  0.6678 -1.7880 -1.8882
 1558SOL     OW16309   1.033   0.837   3.113  0.4602  0.2134  0.0440
 1558SOL    HW116310   1.046   0.809   3.022  0.5853  0.7684 -0.1101
 1558SOL    HW216311   0.942   0.866   3.117  0.3756 -0.3103  1.9639
 1559SOL     OW16312   3.339   1.861  10.988  0.0297  0.0972  0.2955
 1559SOL    HW116313   3.354   1.940  11.039  0.9958  1.8984 -2.7756
 1559SOL    HW216314   3.289   1.811  11.053  0.0948 -0.9105 -0.4235
 1560SOL     OW16315   0.938   3.164   7.326 -0.9787 -0.1849 -0.1833
 1560SOL    HW116316   0.853   3.166   7.370 -0.6511 -1.2241  0.4984
 1560SOL    HW216317   0.934   3.083   7.275  1.2576 -0.4641  0.1012
 1561SOL     OW16318   3.611   1.681   9.464 -0.3113 -0.2594  0.4000
 1561SOL    HW116319   3.644   1.751   9.409 -0.6546 -0.5431 -0.1637
 1561SOL    HW216320   3.676   1.662   9.532  0.9683  0.3779 -0.6467
 1562SOL     OW16321   1.002   4.507   9.523 -0.0170 -0.3233  0.3901
 1562SOL    HW116322   1.061   4.495   9.597 -0.2910 -2.7595  0.1927
 1562SOL    HW216323   1.026   4.591   9.484  1.5372 -0.2353  1.5760
 1563SOL     OW16324   2.402   1.706   0.668 -0.2632 -0.1042 -0.0544
 1563SOL    HW116325   2.409   1.611   0.670  1.1448  0.0430  1.3973
 1563SOL    HW216326   2.431   1.728   0.580  0.3282 -0.4371  0.0596
 1564SOL     OW16327   3.247   3.042   0.732  0.0566 -0.3922 -0.6156
 1564SOL    HW116328   3.266   2.948   0.726 -2.2249 -0.9764  1.5068
 1564SOL    HW216329   3.324   3.049   0.789 -1.5876  0.4905  1.4924
 1565SOL     OW16330   1.096   2.155   0.108  0.2351  0.2007  0.4171
 1565SOL    HW116331   1.162   2.111   0.162  0.6319 -0.9071 -0.9797
 1565SOL    HW216332   1.085   2.242   0.148 -2.3086 -0.0811  0.3362
 1566SOL     OW16333   2.509   4.281   4.351  0.1719 -0.2580 -0.4198
 1566SOL    HW116334   2.486   4.354   4.294  1.5874  0.1541 -0.4616
 1566SOL    HW216335   2.534   4.217   4.284  1.1291 -0.9129  0.5480
 1567SOL     OW16336   0.191   2.204   4.152  0.2900 -0.6757 -0.0835
 1567SOL    HW116337   0.189   2.248   4.237  0.1100 -0.1445 -0.3626
 1567SOL    HW216338   0.101   2.202   4.118 -0.0860  0.2323  0.8485
 1568SOL     OW16339   3.771   1.562   8.021  0.1085  0.2383  0.1549
 1568SOL    HW116340   3.686   1.573   7.978 -0.7387 -1.2110  1.5159
 1568SOL    HW216341   3.799   1.479   7.983  1.4927  0.5468  0.5094
 1569SOL     OW16342   1.674   0.446   8.843 -0.0316 -0.1344  0.0905
 1569SOL    HW116343   1.650   0.538   8.840 -0.6755 -0.3018  0.2269
 1569SOL    HW216344   1.591   0.402   8.858 -0.1593  0.1006  0.0683
 1570SOL     OW16345   0.968   4.000   3.261 -0.0755 -0.5849 -0.2582
 1570SOL    HW116346   0.880   4.037   3.263 -0.2817 -1.0479 -0.9386
 1570SOL    HW216347   1.005   4.063   3.323  0.0204  0.1010 -1.0168
 1571SOL     OW16348   4.004   1.297   6.705  0.6996  0.1553  0.9555
 1571SOL    HW116349   4.052   1.248   6.637 -1.1296 -0.7642  0.3398
 1571SOL    HW216350   3.915   1.264   6.692  0.4676  0.7889  0.9425
 1572SOL     OW16351   2.903   0.995   1.899 -1.0430 -0.6124  0.3077
 1572SOL    HW116352   2.872   1.063   1.959 -2.6521 -0.7477 -0.3659
 1572SOL    HW216353   2.892   0.913   1.948  0.6706 -0.4580  0.9417
 1573SOL     OW16354   3.721   3.923  12.967  0.7111  0.1171 -0.1670
 1573SOL    HW116355   3.658   3.995  12.959 -1.6079 -1.4753  3.5613
 1573SOL    HW216356   3.779   3.949  12.896 -2.4527  0.3961 -2.6962
 1574SOL     OW16357   3.399   4.479   9.291 -0.8275  0.0160 -0.2138
 1574SOL    HW116358   3.434   4.438   9.212 -2.8270  0.0172 -1.0910
 1574SOL    HW216359   3.478   4.503   9.339 -0.5091 -2.4263  0.4987
 1575SOL     OW16360   0.327   0.357   7.824  0.2303 -0.3752  0.3369
 1575SOL    HW116361   0.326   0.444   7.784  1.0005 -0.0810  0.9600
 1575SOL    HW216362   0.323   0.380   7.917 -0.9439 -0.2474  0.2610
 1576SOL     OW16363   0.165   1.591   9.059  0.1144 -0.2382  0.3201
 1576SOL    HW116364   0.188   1.644   8.982  1.1570 -0.2966  0.5903
 1576SOL    HW216365   0.122   1.657   9.113  1.3049 -0.3246  1.3824
 1577SOL     OW16366   3.796   0.237  13.361  0.9235 -0.0404  0.5273
 1577SOL    HW116367   3.745   0.299  13.309  0.6900 -1.3508 -0.8024
 1577SOL    HW216368   3.869   0.291  13.392  0.0809  0.0632  2.3248
 1578SOL     OW16369   2.840   4.601   1.677  0.4788  0.1945 -0.3833
 1578SOL    HW116370   2.811   4.628   1.590  0.3476 -0.5135 -0.5587
 1578SOL    HW216371   2.761   4.621   1.728  0.7214  1.4319 -0.5117
 1579SOL     OW16372   4.190   2.563  13.731 -0.0767  0.2070 -0.7598
 1579SOL    HW116373   4.269   2.510  13.737 -0.5256 -0.2711  0.7568
 1579SOL    HW216374   4.156   2.543  13.644 -2.7799 -2.3209  0.8849
 1580SOL     OW16375   1.057   3.332  11.553  0.0814 -0.1266  0.5354
 1580SOL    HW116376   1.124   3.333  11.485 -1.1660  2.0576 -0.6389
 1580SOL    HW216377   0.981   3.312  11.499  0.5457  2.5735 -1.1112
 1581SOL     OW16378   4.442   0.634   3.759 -0.0227  0.0991 -0.4700
 1581SOL    HW116379   4.525   0.592   3.780 -0.6405 -0.7576  0.3118
 1581SOL    HW216380   4.468   0.726   3.760 -0.2528  0.1679 -0.7992
 1582SOL     OW16381   2.013   4.501   6.920 -0.1913 -0.6923 -0.1747
 1582SOL    HW116382   1.955   4.492   6.845  0.2712 -2.2990 -0.3465
 1582SOL    HW216383   2.072   4.426   6.916 -0.8806 -1.2108 -0.5044
 1583SOL     OW16384   2.564   2.066   4.952 -0.1836 -0.2036 -0.0317
 1583SOL    HW116385   2.614   2.062   4.870 -1.1507 -2.5123 -0.5129
 1583SOL    HW216386   2.500   1.998   4.931 -0.4524  0.2171 -0.6100
 1584SOL     OW16387   0.919   1.383   6.873  0.3380  0.2437 -0.5819
 1584SOL    HW116388   0.967   1.386   6.791 -0.7113 -1.9576 -1.2677
 1584SOL    HW216389   0.886   1.473   6.871 -1.2978 -0.3244  0.2507
 1585SOL     OW16390   2.978   4.194   4.419 -0.4013  1.2354 -0.1625
 1585SOL    HW116391   3.036   4.250   4.367  2.5226 -1.2092  0.4011
 1585SOL    HW216392   2.940   4.255   4.483 -2.1784 -0.2455  0.1961
 1586SOL     OW16393   3.109   0.331   5.409 -0.7505  0.1129  0.0355
 1586SOL    HW116394   3.014   0.328   5.420 -1.0864 -0.2584 -3.1162
 1586SOL    HW216395   3.124   0.289   5.324 -0.8102 -0.3213  0.2352
 1587SOL     OW16396   2.579   2.036  13.092 -0.1153  0.3740  0.3282
 1587SOL    HW116397   2.634   2.103  13.050  2.2921 -1.5504  0.4448
 1587SOL    HW216398   2.493   2.079  13.095 -0.2583 -0.0631  2.8415
 1588SOL     OW16399   2.090   2.928   2.910  0.8221 -0.3786  0.3075
 1588SOL    HW116400   2.015   2.872   2.893  1.8214 -1.2478 -1.2970
 1588SOL    HW216401   2.161   2.872   2.879  0.7866  0.0683 -0.5818
 1589SOL     OW16402   2.110   0.870  11.001  0.3323 -0.1285  0.0958
 1589SOL    HW116403   2.072   0.879  10.913  0.1290  1.9064  0.3915
 1589SOL    HW216404   2.105   0.959  11.038  0.1868 -0.0139 -0.1970
 1590SOL     OW16405   3.195   2.891   3.193 -0.7130  0.4315  0.6616
 1590SOL    HW116406   3.115   2.942   3.178 -1.2371 -0.1129  1.5961
 1590SOL    HW216407   3.178   2.815   3.137 -0.2782  0.7730  0.0669
 1591SOL     OW16408   3.826   2.119   4.950 -0.1244 -0.1174 -0.3161
 1591SOL    HW116409   3.807   2.091   5.040 -0.7376 -1.6961 -0.9508
 1591SOL    HW216410   3.907   2.167   4.967 -0.6344  0.3538  0.7665
 1592SOL     OW16411   4.208   0.361  14.032  0.1761 -0.3638 -0.4616
 1592SOL    HW116412   4.242   0.272  14.044  0.7927  0.0520  0.8469
 1592SOL    HW216413   4.149   0.356  14.107  0.9803  0.3688  0.2219
 1593SOL     OW16414   4.300   4.562   1.335 -0.1400  0.0470 -0.3516
 1593SOL    HW116415   4.378   4.607   1.304 -0.0733  0.4823  0.4561
 1593SOL    HW216416   4.234   4.625   1.305 -1.0537 -0.0057  1.5500
 1594SOL     OW16417   3.828   2.013  17.413 -0.0502  0.6857 -0.0730
 1594SOL    HW116418   3.875   2.066  17.349  1.0714  2.2832  2.0646
 1594SOL    HW216419   3.896   2.010  17.480  1.7737 -0.1928 -1.9896
 1595SOL     OW16420   2.591   1.064   4.569 -0.8437 -0.1821  0.5777
 1595SOL    HW116421   2.608   1.134   4.506  0.7387 -1.1115 -0.0465
 1595SOL    HW216422   2.679   1.026   4.566  0.3900  2.7187 -0.6848
 1596SOL     OW16423   2.607   3.583   8.256  0.5543 -0.1019  0.0204
 1596SOL    HW116424   2.639   3.524   8.187 -0.0920 -0.6486  0.1816
 1596SOL    HW216425   2.642   3.541   8.335 -0.2478  0.0681  0.4618
 1597SOL     OW16426   4.240   3.738   6.943 -0.6047  0.0099  0.5954
 1597SOL    HW116427   4.168   3.796   6.970  0.2920  1.2260  0.3887
 1597SOL    HW216428   4.241   3.732   6.847  0.4584  2.3386  0.4676
 1598SOL     OW16429   3.737   0.548   9.081  0.2328  0.0533  0.0219
 1598SOL    HW116430   3.741   0.490   9.005 -0.3414 -0.2536  0.2296
 1598SOL    HW216431   3.775   0.502   9.155 -2.5202  1.0173  2.0257
 1599SOL     OW16432   0.713   3.290  17.584  0.3022 -1.1032 -0.4306
 1599SOL    HW116433   0.663   3.209  17.580 -0.1779 -0.7913 -0.8201
 1599SOL    HW216434   0.796   3.267  17.542  0.8669 -0.4328  0.3086
 1600SOL     OW16435   3.211   2.410  10.317 -0.2970 -0.5589 -0.0823
 1600SOL    HW116436   3.298   2.449  10.331 -0.5931 -0.0290  0.2694
 1600SOL    HW216437   3.180   2.421  10.407 -3.3245  1.3291 -1.3553
 1601SOL     OW16438   4.707   2.092   8.195  0.1700  0.3458 -0.2372
 1601SOL    HW116439   0.039   2.050   8.146  0.6756  0.9301 -0.0128
 1601SOL    HW216440   4.680   2.029   8.261 -0.7883  0.1385 -0.8241
 1602SOL     OW16441   3.473   4.199   0.365  0.1704  0.8296  0.2655
 1602SOL    HW116442   3.564   4.175   0.385 -0.7467 -3.3896 -0.6645
 1602SOL    HW216443   3.474   4.173   0.273 -1.2245  1.0421  0.1888
 1603SOL     OW16444   0.307   4.205  12.425 -0.6278 -0.0265 -0.0893
 1603SOL    HW116445   0.351   4.215  12.341  1.5223  1.7016  1.2406
 1603SOL    HW216446   0.218   4.234  12.401 -0.4982 -0.2603 -0.8517
 1604SOL     OW16447   2.857   3.391   1.544  0.2750 -0.6800 -0.1862
 1604SOL    HW116448   2.819   3.374   1.630  1.4190 -0.1440  0.4166
 1604SOL    HW216449   2.787   3.401   1.480  1.5600 -0.1738 -1.5120
 1605SOL     OW16450   1.443   1.348   8.634  0.5318 -0.0293  0.1197
 1605SOL    HW116451   1.418   1.384   8.549 -1.3807 -2.0179 -0.1536
 1605SOL    HW216452   1.523   1.397   8.651  0.0855  0.1039  1.9132
 1606SOL     OW16453   4.550   4.299   4.939  0.1445 -0.1832 -1.1009
 1606SOL    HW116454   4.488   4.267   5.005  1.0494  0.3658  0.0260
 1606SOL    HW216455   4.529   4.392   4.940 -1.6484 -0.6119 -0.1217
 1607SOL     OW16456   3.464   2.561  10.091  0.5914 -0.0878 -0.0084
 1607SOL    HW116457   3.524   2.513  10.147 -0.5249 -0.7388  0.6292
 1607SOL    HW216458   3.446   2.634  10.150 -0.5053 -0.0329 -0.4017
 1608SOL     OW16459   4.045   1.718   5.580  0.0908 -0.0470  0.0517
 1608SOL    HW116460   4.100   1.709   5.658  2.2517 -0.0450 -1.4775
 1608SOL    HW216461   3.964   1.692   5.624 -0.2607 -0.9545 -1.1419
 1609SOL     OW16462   0.507   2.226   0.377 -0.0420  0.1587 -0.4168
 1609SOL    HW116463   0.546   2.141   0.354 -1.4595 -0.3284 -1.0373
 1609SOL    HW216464   0.432   2.235   0.318 -0.7851  0.4911  0.5785
 1610SOL     OW16465   4.485   2.194  10.844  0.2242 -0.0285 -0.1276
 1610SOL    HW116466   4.498   2.118  10.900 -1.5496  0.3268  0.7611
 1610SOL    HW216467   4.395   2.223  10.859  0.2265 -0.1898  0.2059
 1611SOL     OW16468   3.266   2.987   4.530  0.0866  0.2309 -0.4101
 1611SOL    HW116469   3.252   2.924   4.601  1.4399 -0.3590 -0.6649
 1611SOL    HW216470   3.185   2.967   4.482  0.6728 -0.4629 -1.1230
 1612SOL     OW16471   1.197   0.756   7.140  0.4362  0.3199  0.1065
 1612SOL    HW116472   1.290   0.738   7.156  0.3569 -0.7780 -0.6300
 1612SOL    HW216473   1.193   0.848   7.114 -1.7182  0.5555  1.2961
 1613SOL     OW16474   4.662   1.940  11.235 -0.8395  0.2889  0.4925
 1613SOL    HW116475   4.592   1.912  11.295  1.4711 -0.5086  2.7902
 1613SOL    HW216476   4.696   2.019  11.278 -0.5824  0.6841 -0.4492
 1614SOL     OW16477   4.236   1.166  16.930  0.1130 -0.3370  0.3390
 1614SOL    HW116478   4.179   1.233  16.968  1.3429  2.4279 -2.6477
 1614SOL    HW216479   4.301   1.150  16.998 -0.7338  0.0015  1.2365
 1615SOL     OW16480   3.095   2.869   6.625 -0.3474  0.2142 -0.0138
 1615SOL    HW116481   3.107   2.816   6.704 -0.2204  0.8173  0.3756
 1615SOL    HW216482   3.016   2.921   6.636 -0.5744  0.1517 -1.3420
 1616SOL     OW16483   4.307   1.866   4.916 -0.0640 -0.4692 -1.1100
 1616SOL    HW116484   4.315   1.775   4.888  0.7416 -1.2121  1.5009
 1616SOL    HW216485   4.284   1.851   5.008  1.6721 -1.7898 -0.9042
 1617SOL     OW16486   4.463   1.256   1.588  0.0119  0.1491  0.2291
 1617SOL    HW116487   4.467   1.267   1.683  0.4536 -0.2920  0.2627
 1617SOL    HW216488   4.556   1.267   1.566 -0.5984  1.8574 -1.5173
 1618SOL     OW16489   3.997   3.255   6.512  0.8229  0.1447 -0.1178
 1618SOL    HW116490   4.027   3.173   6.552  0.4186 -0.1405 -0.4004
 1618SOL    HW216491   3.966   3.231   6.425  0.6051  0.3529 -0.0981
 1619SOL     OW16492   0.336   3.689  17.236 -0.1559 -0.0321  0.0955
 1619SOL    HW116493   0.393   3.712  17.309 -1.0414  1.1334  0.4172
 1619SOL    HW216494   0.349   3.767  17.182 -0.4474 -0.4139 -0.5341
 1620SOL     OW16495   2.637   2.683   3.906  0.0497  0.2113  0.5166
 1620SOL    HW116496   2.631   2.778   3.917 -0.8269  0.3433 -1.0289
 1620SOL    HW216497   2.732   2.672   3.911  0.2812  1.5956 -1.0625
 1621SOL     OW16498   1.594   1.774   3.060  0.2790  0.2888  0.3938
 1621SOL    HW116499   1.518   1.774   3.117  0.7524 -2.5066  1.0190
 1621SOL    HW216500   1.558   1.812   2.980 -1.1112  1.3929  1.5582
 1622SOL     OW16501   4.477   3.459  13.134 -0.2661 -0.0890 -0.4054
 1622SOL    HW116502   4.396   3.487  13.092 -0.0646 -0.4825 -1.0682
 1622SOL    HW216503   4.471   3.365  13.115 -0.5396  0.1481 -1.5291
 1623SOL     OW16504   4.018   2.683   3.745 -0.4259 -0.5820 -0.4052
 1623SOL    HW116505   4.036   2.590   3.759  0.9416  0.3044  3.6021
 1623SOL    HW216506   3.990   2.669   3.654  0.9339 -1.9254 -0.6327
 1624SOL     OW16507   0.561   1.131   4.859 -0.2799  0.2140  0.0971
 1624SOL    HW116508   0.590   1.064   4.921  1.5832  0.9658  0.0335
 1624SOL    HW216509   0.545   1.212   4.909  0.0112 -0.9638  2.1087
 1625SOL     OW16510   3.733   1.484   1.740  0.0342 -0.2754 -0.1567
 1625SOL    HW116511   3.670   1.548   1.774 -1.2528 -1.0143 -1.1582
 1625SOL    HW216512   3.725   1.498   1.646 -2.7157 -1.6438 -0.1209
 1626SOL     OW16513   0.738   2.384   3.972 -0.1501 -0.3080  0.0316
 1626SOL    HW116514   0.823   2.428   3.960 -0.1211 -0.6760 -1.1478
 1626SOL    HW216515   0.738   2.379   4.067 -4.3982 -0.5172  0.0282
 1627SOL     OW16516   0.078   4.508   6.736 -0.0942  0.2564  0.1410
 1627SOL    HW116517   0.110   4.418   6.728 -1.1446 -0.2823  1.8679
 1627SOL    HW216518   0.057   4.507   6.829 -0.3352  0.4279  0.0901
 1628SOL     OW16519   0.438   1.538   5.064  1.0423 -0.1422  0.1229
 1628SOL    HW116520   0.353   1.556   5.104  0.5634 -0.6337 -0.6707
 1628SOL    HW216521   0.410   1.491   4.985  2.7110  1.6341 -1.5239
 1629SOL     OW16522   1.133   4.307   1.876  0.3286 -0.6168 -0.2671
 1629SOL    HW116523   1.139   4.372   1.945 -3.4001 -0.8627  0.2586
 1629SOL    HW216524   1.215   4.262   1.899 -0.3734 -1.6526  0.2054
 1630SOL     OW16525   0.167   3.281   1.904  0.1799  0.4552  0.0665
 1630SOL    HW116526   0.132   3.352   1.851 -2.1036  1.1358  2.4966
 1630SOL    HW216527   0.133   3.210   1.850  0.2956  0.5334 -0.1076
 1631SOL     OW16528   1.100   0.181   5.605  0.1702  0.0684  0.1074
 1631SOL    HW116529   1.049   0.258   5.631 -0.1871 -0.0072 -0.3704
 1631SOL    HW216530   1.151   0.218   5.532 -1.5466  0.4728 -0.8925
 1632SOL     OW16531   3.336   2.825  15.207  0.5577 -0.4719 -0.0039
 1632SOL    HW116532   3.296   2.743  15.235 -0.1818 -0.8424 -2.1957
 1632SOL    HW216533   3.373   2.789  15.126 -2.1369 -2.8814 -0.1744
 1633SOL     OW16534   3.510   3.500   3.647  0.0540  0.1958 -0.3582
 1633SOL    HW116535   3.500   3.448   3.726 -1.9941  0.3817 -0.4904
 1633SOL    HW216536   3.480   3.586   3.676  2.4771  0.6966  0.6018
 1634SOL     OW16537   0.085   0.009  12.772  0.4130 -0.8230 -0.4625
 1634SOL    HW116538   0.021   0.043  12.835  0.5199 -0.3925 -0.5879
 1634SOL    HW216539   0.066   4.654  12.773 -0.2225 -0.6979 -1.0079
 1635SOL     OW16540   1.949   0.884   3.289  0.5931 -0.0001 -0.4610
 1635SOL    HW116541   1.975   0.826   3.360 -1.8037 -1.6476 -0.9054
 1635SOL    HW216542   1.971   0.969   3.328 -1.5973 -0.0972  1.0269
 1636SOL     OW16543   1.599   4.181   3.265 -0.3821  0.3947  0.0056
 1636SOL    HW116544   1.513   4.196   3.303 -1.2247 -0.7900 -1.4620
 1636SOL    HW216545   1.639   4.267   3.278 -0.9967  0.7141 -0.2232
 1637SOL     OW16546   2.865   2.508  16.016 -0.4276  0.8079  0.0346
 1637SOL    HW116547   2.779   2.465  16.021  0.4857 -0.9959  0.2818
 1637SOL    HW216548   2.896   2.498  16.106  0.5091  1.4709 -0.2100
 1638SOL     OW16549   1.756   2.799   6.954  0.0420  0.1921  0.4158
 1638SOL    HW116550   1.818   2.866   6.983  0.5845  0.0864 -0.5263
 1638SOL    HW216551   1.808   2.719   6.962 -0.5261 -0.3454 -1.2197
 1639SOL     OW16552   0.330   2.300  10.135 -0.0426  0.4660  0.2814
 1639SOL    HW116553   0.239   2.318  10.113 -0.5475 -0.9344  1.2315
 1639SOL    HW216554   0.334   2.334  10.225  2.1307  0.5026  0.1856
 1640SOL     OW16555   1.140   3.112  16.894  0.4297  0.0343  0.1876
 1640SOL    HW116556   1.222   3.085  16.851  0.9693  2.1261 -0.1129
 1640SOL    HW216557   1.187   3.162  16.961  0.1999  0.0856  0.3091
 1641SOL     OW16558   0.847   4.578   8.968  0.1924  0.3503  0.1503
 1641SOL    HW116559   0.902   4.546   9.039 -0.2614 -1.0615 -0.1404
 1641SOL    HW216560   0.762   4.608   9.002  0.3770 -0.1586  1.0502
 1642SOL     OW16561   1.321   2.357   5.318  0.1709 -0.3409 -0.3601
 1642SOL    HW116562   1.248   2.370   5.378  0.3848 -0.8213  0.0073
 1642SOL    HW216563   1.334   2.444   5.280 -2.4141  0.0905 -0.2904
 1643SOL     OW16564   2.892   1.728   6.101 -0.4795  0.1996  0.0944
 1643SOL    HW116565   2.882   1.658   6.165  1.0463  0.3557  0.5162
 1643SOL    HW216566   2.903   1.682   6.018  0.1777  2.1683 -0.9134
 1644SOL     OW16567   2.161   4.361   6.269 -0.2103  0.3545 -0.0210
 1644SOL    HW116568   2.146   4.441   6.320  1.5485 -0.8056  2.2801
 1644SOL    HW216569   2.192   4.395   6.185  0.1799  0.0156 -0.0166
 1645SOL     OW16570   4.217   1.840   0.125  0.1986  0.7137 -0.1072
 1645SOL    HW116571   4.294   1.792   0.094 -0.8419 -0.1233 -1.4072
 1645SOL    HW216572   4.194   1.781   0.197  1.2341  0.8271  0.3218
 1646SOL     OW16573   0.772   4.203   3.867 -0.0442  0.3221  0.0220
 1646SOL    HW116574   0.715   4.202   3.944 -1.5870  1.0365 -1.0962
 1646SOL    HW216575   0.853   4.203   3.917  0.2406 -1.6720 -0.4379
 1647SOL     OW16576   0.943   4.283   4.805  0.0746 -0.2448 -0.4903
 1647SOL    HW116577   0.950   4.217   4.874 -1.3696 -0.9619 -1.0207
 1647SOL    HW216578   0.894   4.351   4.852  2.4296  1.6848 -0.8098
 1648SOL     OW16579   2.069   0.868   6.145  0.0449 -0.7099  0.1831
 1648SOL    HW116580   2.033   0.896   6.061 -1.5158  0.6162  1.2899
 1648SOL    HW216581   1.989   0.875   6.196  0.1818 -1.6047  0.5208
 1649SOL     OW16582   2.716   3.523  12.510  0.3772 -0.1417 -0.6262
 1649SOL    HW116583   2.746   3.510  12.420 -0.5715 -1.4261 -0.7669
 1649SOL    HW216584   2.795   3.505  12.560 -1.3558 -2.4658  1.2977
 1650SOL     OW16585   1.035   0.023   6.560  0.3114  0.1844  0.0993
 1650SOL    HW116586   1.057   0.114   6.541  0.8319 -0.2619 -1.5098
 1650SOL    HW216587   1.117   4.727   6.594  1.6159  2.5566 -0.6328
 1651SOL     OW16588   3.710   2.754   8.369  1.1296 -0.2693 -0.4062
 1651SOL    HW116589   3.734   2.753   8.462 -2.1239  0.1753  0.4403
 1651SOL    HW216590   3.801   2.772   8.345  1.1772 -2.8922 -2.2356
 1652SOL     OW16591   3.323   3.400   2.015  0.0014 -0.2521 -0.1817
 1652SOL    HW116592   3.303   3.321   1.965  0.0726  0.1425 -0.8357
 1652SOL    HW216593   3.412   3.376   2.042 -0.5610 -1.2363  0.7819
 1653SOL     OW16594   2.968   3.816   5.679 -0.9965  0.0293  0.4534
 1653SOL    HW116595   2.894   3.826   5.739 -1.2964 -0.7831  0.2179
 1653SOL    HW216596   3.005   3.730   5.698 -2.6037 -0.8044 -0.2379
 1654SOL     OW16597   1.608   0.245   1.337 -0.6478  0.3712  0.7173
 1654SOL    HW116598   1.548   0.269   1.409  0.3035  0.7039  1.4018
 1654SOL    HW216599   1.692   0.238   1.382  0.9422  0.7209 -2.2219
 1655SOL     OW16600   3.922   4.635  13.507 -0.2689 -0.0984 -0.3186
 1655SOL    HW116601   3.892   4.635  13.598  1.6943 -2.9031  0.3396
 1655SOL    HW216602   4.006   4.663  13.542  0.2228 -1.4943 -0.3872
 1656SOL     OW16603   0.099   3.759  10.760 -0.0509  0.0401 -0.1492
 1656SOL    HW116604   0.159   3.745  10.687 -2.6836  0.8979 -2.4805
 1656SOL    HW216605   0.053   3.837  10.728 -1.1624  0.4875  2.5387
 1657SOL     OW16606   1.889   2.261  17.224  0.1060 -0.1141  0.0188
 1657SOL    HW116607   1.857   2.351  17.213 -0.0029 -0.0269  1.0486
 1657SOL    HW216608   1.805   2.219  17.244 -1.3625  2.1844 -1.2969
 1658SOL     OW16609   0.437   0.798   6.837  0.2771  0.2982 -0.1987
 1658SOL    HW116610   0.367   0.863   6.828 -0.7707 -0.3840  2.9102
 1658SOL    HW216611   0.499   0.822   6.769  1.7890 -0.0770  1.0560
 1659SOL     OW16612   0.870   4.275  14.666 -0.1543  0.1895 -0.2152
 1659SOL    HW116613   0.825   4.208  14.613  0.2951 -1.5077  1.5587
 1659SOL    HW216614   0.949   4.228  14.692 -0.3264 -1.1354 -2.0107
 1660SOL     OW16615   3.878   0.289   3.780 -0.3308  0.2502  0.1342
 1660SOL    HW116616   3.963   0.255   3.752 -1.2710 -0.8507 -1.4089
 1660SOL    HW216617   3.893   0.382   3.795 -1.3541  0.4060  0.1919
 1661SOL     OW16618   1.828   2.351   2.379 -0.0424  0.2883 -0.1124
 1661SOL    HW116619   1.763   2.406   2.422 -2.2300 -1.4470 -1.1893
 1661SOL    HW216620   1.879   2.316   2.451  0.7894  0.1757 -0.7591
 1662SOL     OW16621   2.483   1.468   1.782  0.0864  0.2184 -0.4520
 1662SOL    HW116622   2.413   1.532   1.780 -0.7800 -0.7003  0.2132
 1662SOL    HW216623   2.494   1.453   1.876  1.1433  0.5533 -0.5187
 1663SOL     OW16624   3.828   0.258  12.169 -0.3166  0.2425  0.0463
 1663SOL    HW116625   3.832   0.353  12.172 -1.8064  0.4236 -2.7393
 1663SOL    HW216626   3.895   0.235  12.232 -0.5904  1.0191  0.6161
 1664SOL     OW16627   3.509   4.078   2.540 -0.0419 -0.4503 -0.3161
 1664SOL    HW116628   3.500   4.012   2.471  1.5983 -0.5911 -0.3997
 1664SOL    HW216629   3.558   4.145   2.493  1.1211  0.5450  2.2655
 1665SOL     OW16630   1.716   2.532   3.820 -0.3384 -0.0905  0.0054
 1665SOL    HW116631   1.625   2.560   3.811  0.5707  3.7070  2.2714
 1665SOL    HW216632   1.697   2.439   3.818  0.6861 -0.2101 -3.7190
 1666SOL     OW16633   0.900   1.805   6.177 -0.1426 -0.0223  0.2111
 1666SOL    HW116634   0.940   1.807   6.090 -1.8686  1.8219 -0.5459
 1666SOL    HW216635   0.814   1.774   6.151 -0.0537 -0.1922  0.1255
 1667SOL     OW16636   3.101   1.251   2.469 -0.2576 -0.0470 -0.2869
 1667SOL    HW116637   3.016   1.272   2.432 -0.4815 -0.8605 -0.2389
 1667SOL    HW216638   3.097   1.155   2.465 -3.3222  0.1925 -2.7513
 1668SOL     OW16639   3.841   4.003   3.022 -0.0033  0.2515  0.4104
 1668SOL    HW116640   3.749   3.977   3.020 -0.3623  1.4344  1.7446
 1668SOL    HW216641   3.826   4.089   2.983 -1.6096  0.5518  1.7208
 1669SOL     OW16642   4.049   3.739   7.982  0.3381  0.4090  0.4228
 1669SOL    HW116643   4.045   3.664   8.041 -0.0533 -0.0419 -0.1824
 1669SOL    HW216644   3.956   3.752   7.967  0.1035 -1.8888 -0.0026
 1670SOL     OW16645   1.529   4.339  13.034 -0.2667  0.1268 -0.5928
 1670SOL    HW116646   1.520   4.425  13.075 -0.5572  0.3882 -1.1923
 1670SOL    HW216647   1.439   4.307  13.037  0.2887 -1.2317  0.9054
 1671SOL     OW16648   4.136   1.732  14.497 -0.1634  0.1057 -0.4777
 1671SOL    HW116649   4.141   1.827  14.487 -0.4408  0.2004  0.2638
 1671SOL    HW216650   4.160   1.725  14.589 -1.2210  0.9106 -0.1417
 1672SOL     OW16651   1.254   4.106   2.185 -0.2800 -0.0432 -0.0020
 1672SOL    HW116652   1.282   4.023   2.222 -0.6564  0.0412  0.4793
 1672SOL    HW216653   1.290   4.096   2.097 -0.0512  0.2258  0.0606
 1673SOL     OW16654   3.147   2.992  15.319 -0.7932  0.3387  0.2678
 1673SOL    HW116655   3.197   2.936  15.259 -2.3786  0.4087 -1.1027
 1673SOL    HW216656   3.062   2.949  15.327 -0.0666 -1.1557  0.0551
 1674SOL     OW16657   0.125   4.444  13.617 -0.2564 -0.3509 -0.6074
 1674SOL    HW116658   0.154   4.434  13.708  1.8719 -2.2227 -1.4942
 1674SOL    HW216659   0.041   4.398  13.620  0.7022 -2.1918 -2.1445
 1675SOL     OW16660   3.056   1.203   5.666  0.4185 -0.4598 -0.4107
 1675SOL    HW116661   3.042   1.123   5.616  0.9191 -0.8830  0.1262
 1675SOL    HW216662   2.974   1.250   5.654  0.4502 -1.2183 -3.7744
 1676SOL     OW16663   3.514   1.993  10.716 -0.3583  0.3122 -0.3230
 1676SOL    HW116664   3.574   1.939  10.767 -0.7207 -1.0292 -1.3210
 1676SOL    HW216665   3.564   2.014  10.638 -0.7306 -1.4505 -1.0283
 1677SOL     OW16666   3.002   2.122   2.337  0.2811  0.1955  0.6714
 1677SOL    HW116667   2.956   2.166   2.408  2.1682  0.3986  1.7747
 1677SOL    HW216668   3.089   2.156   2.359 -0.1129  0.6136  1.6152
 1678SOL     OW16669   3.264   3.862   4.640 -0.0832 -0.1935 -0.0139
 1678SOL    HW116670   3.211   3.827   4.568 -1.1794  0.2952  0.5511
 1678SOL    HW216671   3.231   3.813   4.716 -1.3981  0.4324 -0.1824
 1679SOL     OW16672   1.452   2.627   3.723  0.3246 -0.2437 -0.2910
 1679SOL    HW116673   1.429   2.537   3.744  1.0021 -0.3543 -0.0267
 1679SOL    HW216674   1.361   2.656   3.719 -0.0342 -1.6165 -2.0707
 1680SOL     OW16675   1.307   1.197   5.046 -0.1038  0.9918  0.2943
 1680SOL    HW116676   1.255   1.242   4.980 -0.9590  0.8423  0.8631
 1680SOL    HW216677   1.247   1.137   5.091  0.7639 -1.5640 -1.9842
 1681SOL     OW16678   2.499   3.258   4.435 -0.3524 -0.2569  0.8006
 1681SOL    HW116679   2.483   3.220   4.348  0.1235 -0.5375  0.8349
 1681SOL    HW216680   2.433   3.210   4.484 -1.3237  1.7665  1.4529
 1682SOL     OW16681   3.062   1.764  12.113  0.3915 -0.2117 -0.7189
 1682SOL    HW116682   3.000   1.782  12.043  1.7423 -3.5694 -2.7574
 1682SOL    HW216683   3.139   1.740  12.061  1.6762  1.1398  0.5458
 1683SOL     OW16684   0.790   1.590  16.211 -0.3203  0.4432 -0.1773
 1683SOL    HW116685   0.696   1.576  16.221 -0.0420 -0.8467  0.7217
 1683SOL    HW216686   0.795   1.674  16.255 -1.1915 -0.2585  1.2274
 1684SOL     OW16687   2.157   3.862   8.396  0.2085 -0.4600 -0.1059
 1684SOL    HW116688   2.194   3.944   8.429 -1.5289  1.1743 -2.1949
 1684SOL    HW216689   2.228   3.799   8.384  1.4097  0.7165  0.8858
 1685SOL     OW16690   2.482   3.322   5.169 -0.6009  0.3784 -0.3323
 1685SOL    HW116691   2.571   3.295   5.193 -0.5293 -0.2042 -1.2693
 1685SOL    HW216692   2.429   3.247   5.197  0.6145 -0.6709 -0.8239
 1686SOL     OW16693   4.718   2.113   5.080 -0.4452  0.0661 -0.6061
 1686SOL    HW116694   0.034   2.083   5.153 -0.3905 -0.1773 -0.7477
 1686SOL    HW216695   4.698   2.202   5.108  1.4609 -0.2990  1.9077
 1687SOL     OW16696   2.085   2.975   6.379 -0.2329 -0.2934 -0.2055
 1687SOL    HW116697   2.068   2.910   6.311  1.6812 -0.6651 -0.3272
 1687SOL    HW216698   2.087   3.060   6.336 -0.9420 -0.9499 -1.5212
 1688SOL     OW16699   3.892   4.716   5.930 -0.3703 -0.4285  0.2006
 1688SOL    HW116700   3.869   4.684   6.017  2.8261 -0.2108  1.1427
 1688SOL    HW216701   3.971   4.665   5.912 -0.0972 -0.0896  0.4313
 1689SOL     OW16702   4.640   3.531   0.262 -0.7503  0.0903 -0.2729
 1689SOL    HW116703   4.649   3.551   0.169  1.6540 -2.4627 -0.5666
 1689SOL    HW216704   4.669   3.440   0.268 -1.7034 -0.1336  0.9822
 1690SOL     OW16705   0.899   0.429   0.530  0.9359  0.0567 -0.2480
 1690SOL    HW116706   0.829   0.483   0.566 -0.3113 -0.7347 -1.4574
 1690SOL    HW216707   0.968   0.434   0.596  1.3882  0.9576 -0.7924
 1691SOL     OW16708   4.509   3.445   9.496 -0.0510 -0.3592 -0.3518
 1691SOL    HW116709   4.428   3.422   9.543 -0.0394 -0.4079 -0.3556
 1691SOL    HW216710   4.578   3.393   9.537 -0.9409 -2.6961 -1.7753
 1692SOL     OW16711   1.097   2.385   6.856 -0.2523  0.0305 -0.3919
 1692SOL    HW116712   1.183   2.378   6.815 -1.1452 -1.5685 -2.0060
 1692SOL    HW216713   1.112   2.347   6.942  0.4678  1.0837 -0.0601
 1693SOL     OW16714   2.326   3.135   6.247  0.0997 -0.3389 -0.0359
 1693SOL    HW116715   2.421   3.138   6.242 -0.2026  1.1872 -4.3563
 1693SOL    HW216716   2.292   3.116   6.160  2.4950 -0.0540 -1.0314
 1694SOL     OW16717   0.281   1.868   3.172  0.1177  0.4524 -0.1820
 1694SOL    HW116718   0.376   1.866   3.170  0.0800  0.8053 -1.9105
 1694SOL    HW216719   0.270   1.814   3.094  0.9568 -0.2179  0.1646
 1695SOL     OW16720   4.247   3.310  16.211  0.2873 -0.0113  0.2970
 1695SOL    HW116721   4.252   3.386  16.269  1.4473  1.3103 -1.5357
 1695SOL    HW216722   4.152   3.304  16.205  0.4387 -1.6445 -0.5773
 1696SOL     OW16723   2.046   3.795   9.648  0.1805  0.1130  0.0733
 1696SOL    HW116724   2.109   3.780   9.719  0.4625 -1.3676 -0.4891
 1696SOL    HW216725   2.091   3.867   9.605 -0.2817  0.1919 -0.2768
 1697SOL     OW16726   1.643   3.878  17.100  0.3538 -0.0394  0.3395
 1697SOL    HW116727   1.628   3.969  17.074  2.4987 -0.5124 -2.5903
 1697SOL    HW216728   1.631   3.826  17.020  2.1877  1.1884 -0.7287
 1698SOL     OW16729   4.313   0.936   1.846  0.2460 -0.1671 -0.1731
 1698SOL    HW116730   4.349   0.968   1.929  0.7658  0.2108 -0.5480
 1698SOL    HW216731   4.221   0.916   1.863 -0.0192  0.2826 -1.0681
 1699SOL     OW16732   4.237   3.847   8.542  0.0802 -0.5607 -0.1351
 1699SOL    HW116733   4.216   3.936   8.569 -2.4036 -0.9946 -0.6758
 1699SOL    HW216734   4.213   3.795   8.619 -0.9009  0.3979  0.2015
 1700SOL     OW16735   2.196   4.498   4.889 -0.2237  0.0033  0.0024
 1700SOL    HW116736   2.138   4.574   4.886  0.1799  0.3618  1.4634
 1700SOL    HW216737   2.156   4.445   4.820 -1.0253 -0.8632  1.1303
 1701SOL     OW16738   1.602   3.216   8.400  0.2668 -0.1113 -0.2281
 1701SOL    HW116739   1.600   3.146   8.335 -0.2218 -1.8128  1.6018
 1701SOL    HW216740   1.652   3.282   8.352 -0.3846 -0.6937 -1.6740
 1702SOL     OW16741   3.173   0.224   5.780  0.0796  0.3982 -0.0490
 1702SOL    HW116742   3.252   0.170   5.779 -1.5889 -2.1270  1.3815
 1702SOL    HW216743   3.155   0.232   5.874 -2.8423 -0.4413 -0.5269
 1703SOL     OW16744   0.237   4.300  16.662 -0.8864 -0.3758  0.3517
 1703SOL    HW116745   0.268   4.244  16.734  0.7958  0.4059  0.2561
 1703SOL    HW216746   0.215   4.377  16.714 -0.0214 -0.1834  0.4313
 1704SOL     OW16747   0.330   1.555   2.617  0.1290 -0.0986  0.5452
 1704SOL    HW116748   0.282   1.624   2.569  3.1498  1.9402  0.4616
 1704SOL    HW216749   0.271   1.539   2.691 -0.7393 -0.1522 -0.1531
 1705SOL     OW16750   4.220   3.795   3.791  0.1932  0.4296 -0.3567
 1705SOL    HW116751   4.230   3.705   3.762  2.7359  0.4547  0.4518
 1705SOL    HW216752   4.224   3.834   3.704  0.6936 -1.8505 -1.3532
 1706SOL     OW16753   1.287   3.008   5.237 -0.4763 -0.2278  0.0209
 1706SOL    HW116754   1.351   3.003   5.308 -1.2723  0.1522  0.7644
 1706SOL    HW216755   1.228   2.933   5.243 -0.4538 -0.3414 -1.1493
 1707SOL     OW16756   3.411   3.350   1.214 -0.9240 -0.3590 -0.2777
 1707SOL    HW116757   3.359   3.332   1.135 -1.2910 -1.4376  0.1974
 1707SOL    HW216758   3.416   3.259   1.244  0.5772 -0.4072 -0.7182
 1708SOL     OW16759   0.542   1.578   6.512  0.4739 -0.1545 -0.5076
 1708SOL    HW116760   0.632   1.552   6.535  0.3711 -0.8251 -0.8742
 1708SOL    HW216761   0.496   1.495   6.506 -0.4273  0.1399  2.1308
 1709SOL     OW16762   0.932   4.320   2.690  0.4090  0.3549  0.1056
 1709SOL    HW116763   0.920   4.336   2.596 -1.5310  0.6560  0.4054
 1709SOL    HW216764   1.025   4.328   2.709  0.5833  0.1064 -0.6407
 1710SOL     OW16765   0.249   1.205  12.693 -0.0923  0.8297  0.2186
 1710SOL    HW116766   0.160   1.221  12.660 -0.9238  0.2767  2.1783
 1710SOL    HW216767   0.226   1.192  12.785  0.0205  0.3682  0.1769
 1711SOL     OW16768   0.467   2.537   6.432 -0.2069  0.0176 -0.0971
 1711SOL    HW116769   0.538   2.496   6.480 -0.6551 -1.0294 -0.3230
 1711SOL    HW216770   0.426   2.463   6.387 -1.4923 -0.5100  1.9612
 1712SOL     OW16771   2.538   0.012   8.447 -0.5219  0.1322 -0.5683
 1712SOL    HW116772   2.593   4.673   8.452 -1.0859 -0.2221  0.2405
 1712SOL    HW216773   2.453   4.706   8.449  0.3410 -1.4504  0.0753
 1713SOL     OW16774   0.449   3.751   7.049  0.1311 -0.3349 -0.7110
 1713SOL    HW116775   0.409   3.701   7.120 -0.4156 -0.3399 -1.0257
 1713SOL    HW216776   0.541   3.725   7.059 -0.3315 -1.8965 -0.6006
 1714SOL     OW16777   3.689   1.757   4.013 -0.3230  0.1035 -0.1332
 1714SOL    HW116778   3.723   1.789   4.096 -1.1255  1.7571 -0.4334
 1714SOL    HW216779   3.771   1.735   3.969 -0.2280  0.3013 -0.0496
 1715SOL     OW16780   2.686   0.008   2.327  0.2557  0.5006 -0.4179
 1715SOL    HW116781   2.699   4.661   2.364 -0.3513  0.1024 -1.1213
 1715SOL    HW216782   2.611   0.032   2.382  1.3550  1.5386  0.6345
 1716SOL     OW16783   0.365   0.484   5.555 -0.7028 -0.2231 -0.1005
 1716SOL    HW116784   0.392   0.442   5.636  1.1805 -0.8274 -1.0413
 1716SOL    HW216785   0.436   0.548   5.551 -0.7636 -0.1162  0.5972
 1717SOL     OW16786   2.395   4.619   6.197  0.6337  0.5292 -0.0570
 1717SOL    HW116787   2.486   4.614   6.167  0.1846  0.2435 -1.3726
 1717SOL    HW216788   2.404   4.652   6.287 -0.4042  1.0029 -0.1346
 1718SOL     OW16789   4.600   3.393   6.197  0.1546 -0.3712  0.4346
 1718SOL    HW116790   4.643   3.313   6.227  0.5455 -0.4566 -0.3470
 1718SOL    HW216791   4.624   3.387   6.105 -0.0378  1.5276  0.2523
 1719SOL     OW16792   2.266   2.695  17.671  0.3167  0.4259 -0.1068
 1719SOL    HW116793   2.346   2.644  17.680  2.1393  2.8053 -2.4865
 1719SOL    HW216794   2.215   2.652  17.602 -1.0059 -1.0541  1.7988
 1720SOL     OW16795   3.168   2.366   3.940 -1.2276  0.2612  0.2929
 1720SOL    HW116796   3.167   2.351   3.845 -3.7551 -1.9768  0.6652
 1720SOL    HW216797   3.249   2.418   3.947 -1.4613  0.5621  0.7237
 1721SOL     OW16798   1.637   3.729  11.798  0.1236  0.3310 -0.4883
 1721SOL    HW116799   1.695   3.701  11.870 -2.4250  0.0618  1.4584
 1721SOL    HW216800   1.628   3.647  11.750  1.1009  1.3373 -2.3843
 1722SOL     OW16801   2.574   4.460   2.637 -0.1820 -0.0948  0.0407
 1722SOL    HW116802   2.547   4.465   2.729  1.2540 -0.4712  0.4865
 1722SOL    HW216803   2.488   4.439   2.599 -0.8399  2.5074  0.0678
 1723SOL     OW16804   1.763   2.702   5.411  0.4671 -0.1088  0.0131
 1723SOL    HW116805   1.688   2.737   5.459  0.1354  1.2459 -1.5033
 1723SOL    HW216806   1.750   2.608   5.416 -1.9941  0.2299 -0.2366
 1724SOL     OW16807   2.868   3.516   3.983 -0.6052 -0.0942  0.3590
 1724SOL    HW116808   2.926   3.465   4.039  0.2289  0.2240 -0.2145
 1724SOL    HW216809   2.841   3.581   4.047 -1.0938 -0.0675  0.1328
 1725SOL     OW16810   4.598   1.055  12.447  0.1759  0.3901 -0.1850
 1725SOL    HW116811   4.564   1.124  12.504  1.8080  1.3736 -0.4303
 1725SOL    HW216812   4.689   1.080  12.436  0.4802 -1.5930 -2.0908
 1726SOL     OW16813   0.655   0.546  17.650 -0.0730 -0.2016 -0.4430
 1726SOL    HW116814   0.594   0.540  17.725  1.3378  2.7699  0.9315
 1726SOL    HW216815   0.594   0.580  17.585 -1.1727 -1.3292 -0.0217
 1727SOL     OW16816   3.296   0.665   0.549  0.1327 -0.3153  0.2318
 1727SOL    HW116817   3.375   0.715   0.570 -0.5152  1.0292 -0.5493
 1727SOL    HW216818   3.298   0.673   0.454  1.7572 -4.1913 -0.0387
 1728SOL     OW16819   4.592   1.794  13.252 -0.5466 -0.3277  0.0014
 1728SOL    HW116820   4.504   1.757  13.243 -1.8753  3.0667 -1.2112
 1728SOL    HW216821   4.595   1.858  13.323 -1.9578  0.7650 -0.9258
 1729SOL     OW16822   4.316   1.347   9.592  0.6568 -0.0693 -0.0795
 1729SOL    HW116823   4.332   1.278   9.657 -1.2566  0.2848  0.7690
 1729SOL    HW216824   4.402   1.352   9.550  0.6395  0.0045 -0.1067
 1730SOL     OW16825   0.620   4.039  10.316 -0.6690 -0.4119  0.2134
 1730SOL    HW116826   0.705   4.046  10.361 -1.1710 -1.4854  1.3078
 1730SOL    HW216827   0.647   4.063  10.228 -0.0285  0.7349  0.7134
 1731SOL     OW16828   4.062   2.914   7.939  0.0237 -0.3677 -0.1036
 1731SOL    HW116829   4.034   2.823   7.942 -0.2272 -0.2677  0.7032
 1731SOL    HW216830   4.147   2.901   7.981 -0.3816  1.1893  1.2157
 1732SOL     OW16831   2.046   0.001   3.654 -0.2048 -0.3384  0.4086
 1732SOL    HW116832   1.974   0.010   3.717  0.7078  0.3449  1.3477
 1732SOL    HW216833   2.000   4.691   3.586  1.9053  0.0773 -1.3022
 1733SOL     OW16834   0.932   2.643   0.895  0.1863  0.1194  0.2485
 1733SOL    HW116835   0.911   2.682   0.810 -1.7790  1.8942  1.5359
 1733SOL    HW216836   0.905   2.553   0.877  0.0613 -0.1235  1.6310
 1734SOL     OW16837   1.516   0.935   8.949 -0.3304 -0.3716 -0.4745
 1734SOL    HW116838   1.437   0.953   9.000  1.6724  1.0956  2.0583
 1734SOL    HW216839   1.578   0.915   9.018  1.2371 -0.9048 -2.0312
 1735SOL     OW16840   1.503   2.632   3.375 -0.0563 -0.5924  0.2077
 1735SOL    HW116841   1.423   2.681   3.356  0.7010  0.9808  1.0355
 1735SOL    HW216842   1.481   2.612   3.466  1.2672 -1.4274  0.3306
 1736SOL     OW16843   2.148   0.274   4.483 -0.6648 -0.1443  0.0764
 1736SOL    HW116844   2.148   0.358   4.438  0.8892  1.2200  2.6627
 1736SOL    HW216845   2.110   0.305   4.565 -1.3649 -0.2971 -0.1957
 1737SOL     OW16846   4.697   1.730   5.571  0.8857 -0.2017 -0.3181
 1737SOL    HW116847   4.687   1.821   5.598  0.6366 -1.2933  3.2764
 1737SOL    HW216848   0.040   1.723   5.522  1.4061 -0.4024  0.5885
 1738SOL     OW16849   3.219   0.511   5.608 -0.3724 -0.5060 -0.4258
 1738SOL    HW116850   3.180   0.481   5.690  0.7782  1.3095  0.7702
 1738SOL    HW216851   3.213   0.430   5.557  1.8499 -0.7494 -0.2770
 1739SOL     OW16852   1.509   3.828   7.188  0.1931 -0.1924 -0.2705
 1739SOL    HW116853   1.604   3.820   7.194  0.1295 -2.3195 -2.0760
 1739SOL    HW216854   1.483   3.739   7.214  1.6961 -0.6318 -0.2785
 1740SOL     OW16855   3.020   2.507   2.869  0.0909  0.0836  0.0642
 1740SOL    HW116856   2.998   2.541   2.782  1.7860 -2.2421 -1.3032
 1740SOL    HW216857   2.929   2.509   2.899  0.2543 -0.6099  0.6025
 1741SOL     OW16858   3.390   1.084   3.163 -0.9004  0.5227 -0.3855
 1741SOL    HW116859   3.454   1.047   3.224  0.5237  1.7937 -1.0983
 1741SOL    HW216860   3.438   1.150   3.112 -0.0028  1.4760  1.6740
 1742SOL     OW16861   0.531   1.615  16.156 -0.1041  0.0720 -0.4800
 1742SOL    HW116862   0.502   1.706  16.159  0.3629  0.1798  0.6893
 1742SOL    HW216863   0.457   1.569  16.195  0.0491  0.1702 -0.0653
 1743SOL     OW16864   1.835   0.295   4.562  0.0217  0.5929  0.0073
 1743SOL    HW116865   1.812   0.378   4.605  1.3442  0.6772  0.5564
 1743SOL    HW216866   1.760   0.269   4.508  1.1933 -0.8748 -0.8909
 1744SOL     OW16867   4.205   0.013  17.326  0.3991 -0.1500  0.0832
 1744SOL    HW116868   4.146   4.685  17.291  0.8535 -1.1313  1.1762
 1744SOL    HW216869   4.231   0.047  17.241 -1.3515  1.0371  0.0320
 1745SOL     OW16870   3.359   1.685  10.211  1.2280  0.1478  0.4623
 1745SOL    HW116871   3.342   1.723  10.298 -0.0533  1.5832 -0.4270
 1745SOL    HW216872   3.390   1.600  10.242  2.3776  0.2354 -0.4567
 1746SOL     OW16873   2.424   2.087   8.101  0.5563 -0.7372 -0.1980
 1746SOL    HW116874   2.472   2.029   8.162 -0.3113 -0.2704  0.9303
 1746SOL    HW216875   2.366   2.019   8.065 -0.3998 -0.2515  0.4327
 1747SOL     OW16876   1.943   1.333   7.543 -1.1396  0.3093 -0.0409
 1747SOL    HW116877   1.992   1.273   7.487 -1.0276 -0.2253  0.6188
 1747SOL    HW216878   1.915   1.385   7.469 -0.2475  1.0810  0.1683
 1748SOL     OW16879   1.766   0.141  14.093 -0.5448  0.3922 -0.2282
 1748SOL    HW116880   1.732   0.187  14.016 -2.8184  0.1192  0.6014
 1748SOL    HW216881   1.842   0.102  14.050 -1.2183 -2.5273  1.1651
 1749SOL     OW16882   2.203   1.259   3.858  0.2875  1.2436  0.3236
 1749SOL    HW116883   2.153   1.188   3.898  0.4286  0.2284 -1.2944
 1749SOL    HW216884   2.150   1.336   3.880 -1.5982  0.1556 -0.4139
 1750SOL     OW16885   3.452   1.221   4.838  0.6032 -0.1608 -0.0734
 1750SOL    HW116886   3.399   1.180   4.770 -0.1731  1.0088 -0.1668
 1750SOL    HW216887   3.481   1.296   4.786 -2.3085  1.1921  0.2737
 1751SOL     OW16888   3.819   3.566   1.044  0.5150 -0.1624 -0.2229
 1751SOL    HW116889   3.790   3.500   0.980 -1.9236  0.2087  0.5301
 1751SOL    HW216890   3.761   3.551   1.118 -0.3897  0.5617 -0.7786
 1752SOL     OW16891   4.197   0.162   9.425  1.4359  0.2030  0.2710
 1752SOL    HW116892   4.256   0.224   9.381  0.2359  0.6065 -0.7689
 1752SOL    HW216893   4.257   0.099   9.464 -0.3898 -0.5416  1.8786
 1753SOL     OW16894   0.917   1.250   7.491 -0.0866  0.2264  0.5677
 1753SOL    HW116895   0.857   1.309   7.446 -1.4820 -1.7023 -0.0900
 1753SOL    HW216896   0.915   1.295   7.576  1.3613  1.5601 -0.0955
 1754SOL     OW16897   1.021   1.903   9.786  1.3092 -0.6195  0.1155
 1754SOL    HW116898   0.983   1.859   9.710  2.4507  0.0077 -0.8152
 1754SOL    HW216899   1.024   1.990   9.747 -0.9809 -0.7663 -0.3965
 1755SOL     OW16900   3.905   1.867   1.165 -0.1081 -0.0651  0.1111
 1755SOL    HW116901   3.985   1.816   1.181 -1.6685 -1.9240  1.9966
 1755SOL    HW216902   3.842   1.811   1.120 -0.1665 -0.5245  0.7689
 1756SOL     OW16903   0.540   1.277   8.142  0.3470  0.2557 -0.1650
 1756SOL    HW116904   0.467   1.220   8.119  1.2431 -1.1147  0.3672
 1756SOL    HW216905   0.592   1.224   8.203  1.6416 -1.6841 -2.9180
 1757SOL     OW16906   0.876   2.388   4.783  0.4075  0.2551 -0.0747
 1757SOL    HW116907   0.863   2.325   4.712  0.1525  1.1692 -0.8357
 1757SOL    HW216908   0.911   2.460   4.730  1.1598 -0.3499 -0.4064
 1758SOL     OW16909   2.219   3.763  11.472 -0.0650 -0.1067  0.5032
 1758SOL    HW116910   2.136   3.807  11.455  0.0421 -0.3534 -0.6251
 1758SOL    HW216911   2.210   3.692  11.409  0.0377 -2.6766  3.3823
 1759SOL     OW16912   0.479   3.010   6.399  0.6181  0.0844 -0.1875
 1759SOL    HW116913   0.526   3.085   6.436  0.6729  0.1951 -0.4868
 1759SOL    HW216914   0.395   3.054   6.385  1.1351  1.0235 -0.3084
 1760SOL     OW16915   2.970   3.031   5.753  0.1740  0.0980  0.6042
 1760SOL    HW116916   2.974   3.124   5.776 -0.8686  0.1269  0.6441
 1760SOL    HW216917   3.043   3.001   5.808 -0.6741 -0.0609  1.6345
 1761SOL     OW16918   2.271   1.002   2.399 -0.4057 -0.3193 -0.1500
 1761SOL    HW116919   2.230   0.942   2.336 -0.1102 -1.0692  0.3755
 1761SOL    HW216920   2.361   0.973   2.395 -0.5660 -1.4482  4.5748
 1762SOL     OW16921   2.091   4.395   4.687 -0.0857  0.5317  0.1337
 1762SOL    HW116922   2.109   4.316   4.636 -1.4142 -0.4844  1.2073
 1762SOL    HW216923   2.033   4.436   4.623 -0.5477  0.8056  0.7269
 1763SOL     OW16924   0.674   4.550   6.479 -0.1892  0.2312  0.6181
 1763SOL    HW116925   0.658   4.608   6.554 -1.8120 -0.3972  0.7646
 1763SOL    HW216926   0.752   4.504   6.509  1.0695  1.7426 -0.2920
 1764SOL     OW16927   3.589   3.122   1.686  0.7211 -0.4913 -0.0313
 1764SOL    HW116928   3.629   3.106   1.772  1.2465 -2.0720 -0.5784
 1764SOL    HW216929   3.607   3.216   1.675 -2.6107  0.0859 -0.4321
 1765SOL     OW16930   2.529   0.928   2.412 -0.2605 -0.4151 -0.0935
 1765SOL    HW116931   2.535   0.932   2.508  2.6892 -1.5124 -0.2373
 1765SOL    HW216932   2.569   0.842   2.398  2.6119  1.2342 -1.7368
 1766SOL     OW16933   2.307   0.834  17.721  0.0574  0.0489  0.2073
 1766SOL    HW116934   2.391   0.879  17.706  0.4419 -0.7838 -0.1454
 1766SOL    HW216935   2.326   0.750   0.009 -0.3342 -0.6163 -0.9368
 1767SOL     OW16936   0.618   0.149   1.037  0.7246  0.4432  0.0806
 1767SOL    HW116937   0.649   0.061   1.061  2.5892  0.8875 -0.6415
 1767SOL    HW216938   0.704   0.191   1.035  0.3392  1.2662  0.9279
 1768SOL     OW16939   0.637   1.214   4.606 -0.4232  0.2725  0.5049
 1768SOL    HW116940   0.606   1.305   4.602  0.6159  0.5679 -1.1692
 1768SOL    HW216941   0.597   1.182   4.687  1.5190 -2.9401  0.2107
 1769SOL     OW16942   3.321   0.035   3.115 -0.0331 -0.0840 -0.0143
 1769SOL    HW116943   3.378   4.698   3.125  1.8506  0.9793 -2.8635
 1769SOL    HW216944   3.239   4.726   3.123 -0.7602  0.8299 -1.9093
 1770SOL     OW16945   1.289   2.706  15.642  0.2354  0.2770  0.6025
 1770SOL    HW116946   1.246   2.716  15.557  2.0322 -1.2101 -0.4897
 1770SOL    HW216947   1.254   2.775  15.698 -1.4501  1.1996 -1.5570
 1771SOL     OW16948   2.499   3.273   3.134  0.5767 -0.2654 -0.3411
 1771SOL    HW116949   2.454   3.358   3.132  2.2403  0.6325 -0.0785
 1771SOL    HW216950   2.426   3.221   3.100 -0.6541  0.4258  1.1962
 1772SOL     OW16951   4.667   3.203   7.859 -0.4974 -0.5468  0.3872
 1772SOL    HW116952   4.645   3.296   7.865 -0.9232 -0.5326 -1.5178
 1772SOL    HW216953   4.653   3.179   7.951  1.2860 -1.6781  0.3462
 1773SOL     OW16954   1.274   0.146   0.476 -0.5221  0.1378 -0.1227
 1773SOL    HW116955   1.251   0.213   0.540  1.7108  0.0090  0.8256
 1773SOL    HW216956   1.212   0.179   0.411  0.5343 -0.5859 -1.4934
 1774SOL     OW16957   2.926   1.259  16.907 -0.3730 -0.7167  0.6014
 1774SOL    HW116958   2.956   1.283  16.820  0.5036 -0.0201  1.0960
 1774SOL    HW216959   3.001   1.208  16.937 -0.2517 -0.8016  0.1573
 1775SOL     OW16960   4.454   0.037   1.260  0.1283  0.2223 -0.6160
 1775SOL    HW116961   4.483   0.003   1.175  0.1798 -0.7697 -0.1978
 1775SOL    HW216962   4.447   0.130   1.236 -1.2625  0.1959 -0.2891
 1776SOL     OW16963   2.589   3.030   2.538 -0.4940 -0.6522 -0.1371
 1776SOL    HW116964   2.553   3.053   2.452  0.5319  1.0236 -0.1237
 1776SOL    HW216965   2.632   3.110   2.569 -1.4062  0.2548 -1.2091
 1777SOL     OW16966   3.870   3.979   2.409  0.3034 -0.6495  0.4042
 1777SOL    HW116967   3.860   3.888   2.438 -2.5055  0.0365  1.5704
 1777SOL    HW216968   3.839   4.018   2.491  0.9518  0.4945  0.1119
 1778SOL     OW16969   0.744   1.643   6.840 -0.3156 -0.6205  0.0884
 1778SOL    HW116970   0.729   1.699   6.916 -1.3965 -2.6195  1.3506
 1778SOL    HW216971   0.652   1.630   6.815  0.0212  0.8369 -1.9557
 1779SOL     OW16972   1.185   1.188   0.674 -0.4097 -0.2568 -0.2578
 1779SOL    HW116973   1.126   1.123   0.713 -0.1515  0.6888  1.7117
 1779SOL    HW216974   1.201   1.139   0.593  1.4194 -1.3827  0.7882
 1780SOL     OW16975   1.998   2.684   3.858 -0.6597  0.1135 -0.4464
 1780SOL    HW116976   1.903   2.678   3.870 -0.5156 -0.2458  0.4970
 1780SOL    HW216977   2.020   2.661   3.948 -2.8896 -1.9891 -0.4464
 1781SOL     OW16978   3.062   2.143   6.390 -0.1121 -0.2877  0.1829
 1781SOL    HW116979   3.033   2.087   6.318 -0.8400 -0.0646  0.3034
 1781SOL    HW216980   2.992   2.124   6.452 -1.3449 -0.6912 -1.3415
 1782SOL     OW16981   0.207   1.391   6.777 -0.3655  0.0995  0.3455
 1782SOL    HW116982   0.148   1.327   6.737  1.8768 -0.5199 -2.0492
 1782SOL    HW216983   0.278   1.395   6.712  0.4400  1.2424  1.2993
 1783SOL     OW16984   0.720   2.838   9.614  0.0363 -0.2799 -0.2082
 1783SOL    HW116985   0.743   2.905   9.678 -0.8897 -0.4637  0.3229
 1783SOL    HW216986   0.705   2.760   9.669 -1.4052  0.5558  0.5821
 1784SOL     OW16987   1.868   0.000   6.611 -0.3530 -0.0688 -0.2589
 1784SOL    HW116988   1.901   4.652   6.632  1.1683  0.2258 -1.4486
 1784SOL    HW216989   1.833   0.035   6.693  1.3631 -1.3798  1.0233
 1785SOL     OW16990   2.775   1.525   1.813  0.3218  0.0938 -0.2599
 1785SOL    HW116991   2.783   1.460   1.743  0.0253  1.4117 -1.5349
 1785SOL    HW216992   2.679   1.525   1.814  0.3400  0.9433  1.6067
 1786SOL     OW16993   3.228   4.515   8.300  0.6536  0.3617 -0.3411
 1786SOL    HW116994   3.222   4.604   8.264 -0.1306 -0.2024 -1.5946
 1786SOL    HW216995   3.185   4.462   8.234  4.5344 -1.3586 -1.4769
 1787SOL     OW16996   2.536   0.605   2.511 -0.3288  0.3001  0.6736
 1787SOL    HW116997   2.630   0.620   2.510 -0.6390  2.1737 -1.0293
 1787SOL    HW216998   2.514   0.616   2.604  0.3890  0.8545  0.7822
 1788SOL     OW16999   3.212   2.465   4.500 -0.3325 -0.0007 -0.9771
 1788SOL    HW117000   3.193   2.455   4.406 -1.9697 -1.0392 -0.5382
 1788SOL    HW217001   3.209   2.376   4.533  0.0794  0.7922  1.1821
 1789SOL     OW17002   2.786   2.099   1.433 -0.2178 -0.0725 -0.2645
 1789SOL    HW117003   2.705   2.049   1.418 -1.6391  2.7817 -2.2012
 1789SOL    HW217004   2.811   2.052   1.513 -0.2877  0.9968  0.3860
 1790SOL     OW17005   3.778   2.145   3.429 -0.6989  0.3095 -0.0403
 1790SOL    HW117006   3.831   2.116   3.503 -0.7567 -0.7349 -0.4032
 1790SOL    HW217007   3.827   2.224   3.405 -0.1872 -0.4012 -1.3361
 1791SOL     OW17008   0.908   0.526  11.617  0.5336  0.0064 -0.0933
 1791SOL    HW117009   0.949   0.513  11.702  0.5053  2.0982  0.2545
 1791SOL    HW217010   0.822   0.486  11.630  0.7065 -1.3114 -2.8920
 1792SOL     OW17011   2.244   2.414  13.499 -0.1160 -0.4288  0.3255
 1792SOL    HW117012   2.230   2.346  13.434 -2.5264  0.1217  0.2515
 1792SOL    HW217013   2.332   2.441  13.475 -0.8733  1.4508 -0.3223
 1793SOL     OW17014   0.176   2.183  14.792  0.4947  0.3470 -0.0732
 1793SOL    HW117015   0.143   2.115  14.851 -2.1880  1.4880 -0.2665
 1793SOL    HW217016   0.114   2.256  14.800 -2.8737 -2.5259 -0.1183
 1794SOL     OW17017   1.898   3.323   6.871  0.2198 -0.0395 -0.2379
 1794SOL    HW117018   1.945   3.374   6.937  0.6807  0.0912 -0.6690
 1794SOL    HW217019   1.806   3.341   6.889 -0.1883 -3.0526  0.7438
 1795SOL     OW17020   0.118   1.526   6.206 -0.4056  0.2833 -0.2582
 1795SOL    HW117021   0.074   1.567   6.131 -2.0401 -0.2339  0.4041
 1795SOL    HW217022   0.192   1.584   6.222  0.3908 -1.1660  1.2626
 1796SOL     OW17023   3.411   3.016   3.622  0.0905 -0.3150 -0.3627
 1796SOL    HW117024   3.502   3.044   3.634  0.2739 -0.2061 -1.9883
 1796SOL    HW217025   3.399   2.973   3.707  1.4115  1.0251  0.5058
 1797SOL     OW17026   2.844   3.563   2.841  0.6530 -0.4965  0.0541
 1797SOL    HW117027   2.800   3.640   2.804  0.7349 -1.3504 -1.8027
 1797SOL    HW217028   2.911   3.602   2.897  1.1225 -3.6111  1.6565
 1798SOL     OW17029   1.511   2.220   7.393  0.0190 -0.0233  1.0092
 1798SOL    HW117030   1.582   2.186   7.338 -0.5890 -1.6345  1.2094
 1798SOL    HW217031   1.470   2.283   7.334  1.1751 -1.0622 -0.9130
 1799SOL     OW17032   1.305   4.273  10.563 -0.0257 -0.6220  0.4939
 1799SOL    HW117033   1.321   4.298  10.472  1.0861 -1.3480  0.4969
 1799SOL    HW217034   1.383   4.307  10.608 -0.7872  1.2836  0.4105
 1800SOL     OW17035   4.587   3.521  14.605  0.0217 -0.4215 -0.4968
 1800SOL    HW117036   4.661   3.521  14.665  0.9782 -0.6270 -1.6881
 1800SOL    HW217037   4.594   3.607  14.564 -0.6426  0.7911  1.8733
 1801SOL     OW17038   3.320   1.207   5.572  0.3856  0.3709  0.2736
 1801SOL    HW117039   3.333   1.289   5.525  1.4696 -0.0851 -0.2240
 1801SOL    HW217040   3.225   1.213   5.584  0.0361 -1.7841 -1.4451
 1802SOL     OW17041   2.456   3.876  13.187  0.3539  0.5627 -0.3662
 1802SOL    HW117042   2.509   3.796  13.190  1.3751  1.2867  1.4758
 1802SOL    HW217043   2.498   3.937  13.127  0.1574 -1.1297 -2.2284
 1803SOL     OW17044   0.970   3.886   5.877  0.3226  0.3523  0.2918
 1803SOL    HW117045   0.998   3.942   5.949  0.9497  2.6127 -1.7253
 1803SOL    HW217046   1.048   3.896   5.823  0.4633  0.1625  0.4604
 1804SOL     OW17047   1.402   4.166  15.267 -0.2041 -0.6949  0.4232
 1804SOL    HW117048   1.448   4.151  15.185 -0.7426 -0.8440  0.1484
 1804SOL    HW217049   1.450   4.237  15.311 -1.1659 -0.7887  1.6385
 1805SOL     OW17050   2.615   3.132   6.224 -0.0220  0.3011 -0.1314
 1805SOL    HW117051   2.643   3.215   6.261  0.4860  0.7852 -1.5888
 1805SOL    HW217052   2.677   3.133   6.151 -1.8526  0.3364 -1.6916
 1806SOL     OW17053   1.276   1.825   4.822  0.4880 -0.0476 -0.1616
 1806SOL    HW117054   1.325   1.744   4.806 -1.6595 -1.7460  1.9379
 1806SOL    HW217055   1.311   1.876   4.749  0.9402  1.3194  0.9953
 1807SOL     OW17056   0.411   0.429   4.322  0.8643  0.6015 -0.0064
 1807SOL    HW117057   0.471   0.365   4.282  0.0957 -0.3357  0.3442
 1807SOL    HW217058   0.380   0.484   4.251  1.9754  0.6795 -0.4302
 1808SOL     OW17059   2.123   1.922   1.528  0.3809 -0.0237 -0.5202
 1808SOL    HW117060   2.159   1.980   1.595  0.6010  2.7343 -3.0422
 1808SOL    HW217061   2.038   1.962   1.511 -0.8683 -2.1223  0.8094
 1809SOL     OW17062   4.120   3.381   9.896  0.4314 -0.2720  0.3329
 1809SOL    HW117063   4.121   3.439   9.972  1.8094  0.8196 -0.5140
 1809SOL    HW217064   4.037   3.334   9.900 -0.4160  0.9513 -2.8206
 1810SOL     OW17065   1.226   1.120   3.691 -0.4599  0.0231 -0.1577
 1810SOL    HW117066   1.142   1.163   3.680 -1.6485 -1.7939  2.0234
 1810SOL    HW217067   1.284   1.190   3.659 -0.3767  0.5939  1.2703
 1811SOL     OW17068   1.450   1.960   1.778 -0.0278 -0.4798 -0.0316
 1811SOL    HW117069   1.489   1.952   1.865  0.9789  0.8805 -0.3610
 1811SOL    HW217070   1.367   1.916   1.793  0.8860 -1.2345  2.9634
 1812SOL     OW17071   0.661   0.246  16.037  0.0660 -0.2299 -0.0691
 1812SOL    HW117072   0.715   0.236  16.115 -1.6580  0.8268  1.2659
 1812SOL    HW217073   0.703   0.321  15.995 -1.2251  1.0316  0.9055
 1813SOL     OW17074   1.367   1.350   6.946  0.1530 -0.8100 -0.0424
 1813SOL    HW117075   1.289   1.355   7.001 -0.1108 -1.6180 -0.3482
 1813SOL    HW217076   1.324   1.399   6.876  0.5770  0.3173  0.4773
 1814SOL     OW17077   4.679   2.834   3.970  0.4032 -0.4987 -0.1449
 1814SOL    HW117078   0.034   2.833   3.985  0.3603 -1.3624  0.0976
 1814SOL    HW217079   4.654   2.868   4.056  1.4596 -2.3661  0.9040
 1815SOL     OW17080   3.727   3.033   7.016 -0.1989 -0.5156  0.2261
 1815SOL    HW117081   3.716   2.939   7.000  0.3949 -0.6190  0.4207
 1815SOL    HW217082   3.640   3.069   7.001  1.0060  1.4938 -1.8430
 1816SOL     OW17083   1.423   0.060   4.707 -0.1162 -0.3167 -0.3754
 1816SOL    HW117084   1.469   0.061   4.623 -1.3364  0.4261 -1.0405
 1816SOL    HW217085   1.456   0.136   4.754 -0.9670  0.6824 -1.3632
 1817SOL     OW17086   1.912   3.889  15.269  0.7151  0.1118 -0.0920
 1817SOL    HW117087   1.894   3.829  15.341  0.9923 -2.5327 -2.2076
 1817SOL    HW217088   1.882   3.976  15.294 -0.3806  0.4479 -2.5168
 1818SOL     OW17089   0.291   1.774   8.051 -0.4820  0.3461  0.1657
 1818SOL    HW117090   0.244   1.716   7.991 -0.2340  0.3396 -0.0238
 1818SOL    HW217091   0.300   1.725   8.132 -1.7059 -1.7008 -0.9434
 1819SOL     OW17092   3.949   0.174   4.151 -0.0564  0.5925 -0.3373
 1819SOL    HW117093   3.900   0.150   4.072 -0.3625 -1.8830  0.5903
 1819SOL    HW217094   3.874   0.210   4.198 -0.2123 -0.0467 -0.0989
 1820SOL     OW17095   1.317   0.240   5.776  0.1414  0.2702 -0.2706
 1820SOL    HW117096   1.265   0.227   5.856  0.8654 -0.1799  0.1291
 1820SOL    HW217097   1.267   0.193   5.710 -1.1793 -0.2715  1.1147
 1821SOL     OW17098   1.619   1.176   1.110  0.6001 -0.1611 -0.1487
 1821SOL    HW117099   1.541   1.223   1.138  0.0022 -0.0064 -2.0907
 1821SOL    HW217100   1.642   1.136   1.194 -0.6600 -0.7489 -0.0819
 1822SOL     OW17101   1.810   0.811   1.746 -0.1390 -0.1642  0.7695
 1822SOL    HW117102   1.779   0.901   1.747 -1.0251 -0.4231 -1.8862
 1822SOL    HW217103   1.799   0.784   1.837  1.9299 -1.7132  0.5691
 1823SOL     OW17104   4.060   2.451   7.558 -0.5812  0.3940 -0.4219
 1823SOL    HW117105   3.992   2.508   7.595 -0.3274  0.8286 -0.6384
 1823SOL    HW217106   4.119   2.525   7.553 -0.7616  0.7044  1.7931
 1824SOL     OW17107   2.726   3.217   2.232  0.0022 -0.4563 -0.1645
 1824SOL    HW117108   2.641   3.177   2.253  0.1356  0.5594  2.2902
 1824SOL    HW217109   2.791   3.165   2.280  0.3910 -1.1809 -1.4894
 1825SOL     OW17110   1.948   0.169   9.542 -0.0746  0.6604 -0.2136
 1825SOL    HW117111   1.858   0.198   9.553  0.0039  1.1766 -0.9103
 1825SOL    HW217112   1.946   0.138   9.451  2.4995 -0.7609  0.2321
 1826SOL     OW17113   4.024   0.236   5.223  0.2406 -0.3235  0.2375
 1826SOL    HW117114   3.973   0.317   5.214 -0.2416 -0.7408 -0.7048
 1826SOL    HW217115   4.084   0.265   5.292  0.0829  0.2190  0.1471
 1827SOL     OW17116   2.608   3.551   7.358 -0.3180 -0.2323  0.0804
 1827SOL    HW117117   2.547   3.521   7.290  0.4838 -1.0480 -0.2906
 1827SOL    HW217118   2.649   3.472   7.393  0.6539  0.4084  0.3747
 1828SOL     OW17119   4.308   2.168  13.521 -0.3133  0.4691 -0.5902
 1828SOL    HW117120   4.379   2.113  13.487 -1.3187 -1.0192 -0.2519
 1828SOL    HW217121   4.317   2.244  13.462 -1.7811  2.4357  1.7094
 1829SOL     OW17122   2.079   1.026   9.886 -0.1957 -0.2727  0.0989
 1829SOL    HW117123   2.120   1.110   9.864  1.4173 -0.8230  0.9952
 1829SOL    HW217124   2.153   0.989   9.934  0.0529 -0.0082 -0.0819
 1830SOL     OW17125   0.044   4.562   9.667  0.8269 -0.1907  0.4676
 1830SOL    HW117126   0.109   4.497   9.641  1.1495  0.8169 -1.2824
 1830SOL    HW217127   0.086   4.600   9.744  0.3608 -2.5991  1.9108
 1831SOL     OW17128   0.220   1.744   8.813 -0.2691 -0.3236 -0.2617
 1831SOL    HW117129   0.242   1.672   8.754  0.3443 -0.5098  0.1940
 1831SOL    HW217130   0.157   1.794   8.762  0.1340 -0.8852 -1.3009
 1832SOL     OW17131   3.631   1.894   4.334 -0.6088 -0.3563 -0.1872
 1832SOL    HW117132   3.554   1.838   4.326  0.0407 -1.6192  2.1548
 1832SOL    HW217133   3.632   1.902   4.430  1.6680  0.0697 -0.2507
 1833SOL     OW17134   0.215   0.441   5.086 -0.1443 -0.0112  0.5033
 1833SOL    HW117135   0.293   0.386   5.093 -0.7896 -0.9865 -0.1050
 1833SOL    HW217136   0.236   0.503   5.015 -0.5149 -0.2854  0.1574
 1834SOL     OW17137   4.252   3.907   9.588  0.1571  0.2099  0.0146
 1834SOL    HW117138   4.295   3.847   9.528 -0.5001  1.2570 -1.5032
 1834SOL    HW217139   4.313   3.912   9.662 -1.6087 -0.4248  1.5148
 1835SOL     OW17140   4.528   3.436  15.758 -0.2859  0.3295 -0.2081
 1835SOL    HW117141   4.623   3.437  15.757 -0.2478 -1.6381  1.6422
 1835SOL    HW217142   4.508   3.389  15.839  1.0977  2.4835  1.3856
 1836SOL     OW17143   1.043   2.881   3.609 -0.0292 -0.1909  0.5455
 1836SOL    HW117144   1.006   2.829   3.538 -2.8822  2.4940  0.0447
 1836SOL    HW217145   1.078   2.959   3.568 -3.0012 -0.0929 -1.7892
 1837SOL     OW17146   0.541   4.283   5.983  0.5590  0.0488 -1.1936
 1837SOL    HW117147   0.541   4.379   5.978  1.7652  0.0869 -0.5262
 1837SOL    HW217148   0.579   4.278   6.071 -0.7856  0.7005 -0.5841
 1838SOL     OW17149   1.964   2.592  13.251 -0.6667 -0.3087  0.5928
 1838SOL    HW117150   1.992   2.579  13.341  2.4236 -0.0276 -0.3211
 1838SOL    HW217151   1.915   2.511  13.236 -0.7236 -0.2548  0.4808
 1839SOL     OW17152   3.412   4.133  15.984  0.1886  0.1288 -0.0738
 1839SOL    HW117153   3.422   4.209  15.926 -0.7803  0.0729 -0.3201
 1839SOL    HW217154   3.466   4.072  15.935  0.9656  0.8603 -0.1150
 1840SOL     OW17155   3.639   1.799  17.451  0.4648 -0.5584 -0.7495
 1840SOL    HW117156   3.642   1.842  17.537 -2.5021  2.8270 -2.3250
 1840SOL    HW217157   3.682   1.873  17.408 -0.7796 -0.9677 -2.6843
 1841SOL     OW17158   1.220   1.326   6.511  0.0943 -0.8179 -0.6089
 1841SOL    HW117159   1.262   1.257   6.460 -0.7018 -1.8073  0.0754
 1841SOL    HW217160   1.151   1.286   6.563 -1.9430  3.3903 -0.0191
 1842SOL     OW17161   3.038   0.459   5.038 -0.1045  0.7693  0.3860
 1842SOL    HW117162   2.956   0.410   5.026  0.3751  0.4816 -1.7340
 1842SOL    HW217163   3.017   0.510   5.116 -2.3621 -1.4773  1.2639
 1843SOL     OW17164   0.867   0.669  16.238 -0.1487 -0.2384  0.1439
 1843SOL    HW117165   0.934   0.720  16.192 -0.1245  0.0364  0.4809
 1843SOL    HW217166   0.878   0.580  16.205 -3.3726 -0.2751 -0.7939
 1844SOL     OW17167   3.053   2.530   2.233 -0.8474  0.6841 -0.2297
 1844SOL    HW117168   3.052   2.545   2.139 -3.4689  1.3858 -0.0899
 1844SOL    HW217169   2.968   2.561   2.264 -1.5498 -3.2003  1.8662
 1845SOL     OW17170   1.294   0.365   2.892 -0.0437 -0.8139 -0.3599
 1845SOL    HW117171   1.205   0.395   2.907  0.3287  0.2290 -0.2002
 1845SOL    HW217172   1.301   0.275   2.923  3.1632  0.0369  1.4323
 1846SOL     OW17173   1.177   4.624  13.866 -0.3355  0.3006  0.0905
 1846SOL    HW117174   1.252   4.620  13.924  0.1341 -0.2768 -0.5531
 1846SOL    HW217175   1.131   4.700  13.901 -1.5389  0.0151 -0.8380
 1847SOL     OW17176   4.097   3.461   5.295  0.0087 -0.2723 -0.1266
 1847SOL    HW117177   4.106   3.515   5.373 -0.2408 -1.3442  0.6430
 1847SOL    HW217178   4.123   3.375   5.326  0.2056 -0.3759 -0.5725
 1848SOL     OW17179   1.946   1.315  13.526  0.0431 -0.0639  0.0728
 1848SOL    HW117180   1.914   1.226  13.510 -1.0943  0.4685 -0.5782
 1848SOL    HW217181   1.918   1.358  13.445  2.3220 -1.7777 -1.6207
 1849SOL     OW17182   2.251   3.382   9.154 -0.0832  0.2314  0.1019
 1849SOL    HW117183   2.172   3.433   9.171  0.2416  0.7668  0.0027
 1849SOL    HW217184   2.265   3.345   9.241  1.7159 -1.1985 -0.8129
 1850SOL     OW17185   2.873   3.610   3.250 -0.1744  0.3979 -0.5784
 1850SOL    HW117186   2.855   3.537   3.191 -0.2721  0.0752 -0.1483
 1850SOL    HW217187   2.792   3.661   3.247  0.5416  1.5864  0.1608
 1851SOL     OW17188   0.954   2.360   1.791 -0.0639  0.1548 -0.1327
 1851SOL    HW117189   0.911   2.282   1.757 -2.3100  0.7454  1.3430
 1851SOL    HW217190   0.879   2.419   1.778 -1.4124 -1.2388  1.3058
 1852SOL     OW17191   1.490   0.856  14.008  0.1818 -0.2313  0.0623
 1852SOL    HW117192   1.434   0.933  14.010  1.4236  0.6328  1.4561
 1852SOL    HW217193   1.432   0.789  14.044 -0.4231 -1.0783 -2.4803
 1853SOL     OW17194   1.328   2.085   3.333 -0.3472 -0.6498 -0.0503
 1853SOL    HW117195   1.280   2.167   3.326 -0.1101 -0.5571 -0.5738
 1853SOL    HW217196   1.326   2.074   3.428 -0.6358  0.2147  0.0439
 1854SOL     OW17197   2.974   4.441   9.253  0.1111  0.0120  0.7084
 1854SOL    HW117198   2.910   4.512   9.251  0.8200  0.6680  1.4707
 1854SOL    HW217199   3.032   4.470   9.324  0.9849 -1.6061  0.6508
 1855SOL     OW17200   2.075   3.661   4.136  0.0845  0.4744 -0.1933
 1855SOL    HW117201   2.148   3.618   4.179 -0.0545  0.9937  0.5661
 1855SOL    HW217202   2.004   3.597   4.141  0.2397  0.2435 -0.9682
 1856SOL     OW17203   4.570   0.623   7.504  0.7906 -0.6173  0.0964
 1856SOL    HW117204   4.533   0.541   7.537 -0.8995 -0.7430 -2.1258
 1856SOL    HW217205   4.489   0.673   7.497  0.2677 -1.2673  1.5384
 1857SOL     OW17206   0.243   3.682  15.875 -0.4393  0.2748 -0.1818
 1857SOL    HW117207   0.181   3.756  15.880  0.4010  0.9405  0.4137
 1857SOL    HW217208   0.287   3.711  15.795 -0.8543 -0.5864 -0.7202
 1858SOL     OW17209   3.786   1.662   8.613  0.7270 -0.0439  0.0997
 1858SOL    HW117210   3.866   1.705   8.583  0.0427  0.8169 -0.5145
 1858SOL    HW217211   3.804   1.576   8.576  0.0920 -0.3296  0.4641
 1859SOL     OW17212   3.847   2.079   5.233 -0.0571 -0.0930 -0.1130
 1859SOL    HW117213   3.855   2.034   5.317  0.8456  0.4807  0.1050
 1859SOL    HW217214   3.930   2.127   5.226  0.9387 -2.0844 -1.7700
 1860SOL     OW17215   0.947   3.917  16.546 -0.2992 -0.4112 -0.2936
 1860SOL    HW117216   0.870   3.964  16.514 -0.2087  1.6662  2.5510
 1860SOL    HW217217   1.003   3.936  16.472 -2.0803  0.4577 -1.4178
 1861SOL     OW17218   0.876   2.362  13.201 -0.4267  0.2510 -0.1511
 1861SOL    HW117219   0.947   2.301  13.182  0.5241  1.2723  0.1468
 1861SOL    HW217220   0.878   2.348  13.296  2.4168 -0.3423 -0.3091
 1862SOL     OW17221   0.954   0.634  16.768 -0.4953 -0.3796 -0.3778
 1862SOL    HW117222   0.889   0.619  16.699  0.7320 -0.6831 -1.4741
 1862SOL    HW217223   0.977   0.726  16.759  1.3261 -0.7042  0.9640
 1863SOL     OW17224   4.048   2.152  16.896  0.4182  0.0651  0.7786
 1863SOL    HW117225   4.060   2.074  16.949  0.3941  0.9101  2.0197
 1863SOL    HW217226   4.030   2.220  16.960  0.1302  0.0570  0.7059
 1864SOL     OW17227   1.835   3.115   4.351  0.3283  0.5956  0.0583
 1864SOL    HW117228   1.848   3.210   4.358 -3.4295  1.1903 -0.9871
 1864SOL    HW217229   1.923   3.076   4.351  1.0724  2.2811 -0.8188
 1865SOL     OW17230   4.012   2.688   7.223  0.5698 -0.1309  0.0360
 1865SOL    HW117231   3.975   2.739   7.295  1.0558  3.6988 -2.4398
 1865SOL    HW217232   3.957   2.722   7.153 -0.0723 -0.5934  0.3111
 1866SOL     OW17233   3.811   3.082   9.675 -0.0695  0.8135 -0.3540
 1866SOL    HW117234   3.740   3.018   9.671  0.4573  0.1152  1.4828
 1866SOL    HW217235   3.881   3.024   9.646 -0.1528  0.3288  0.4176
 1867SOL     OW17236   1.376   4.427   2.925 -0.0591  0.5390  0.0537
 1867SOL    HW117237   1.358   4.462   3.012  0.9652  0.4901  0.2906
 1867SOL    HW217238   1.389   4.507   2.873 -0.5257 -0.3719 -1.4309
 1868SOL     OW17239   1.777   3.946   0.378  0.3342 -0.0749  0.1695
 1868SOL    HW117240   1.827   3.952   0.296 -0.5033  2.1056 -0.1627
 1868SOL    HW217241   1.698   3.917   0.333  3.1276  1.0504 -5.5718
 1869SOL     OW17242   4.538   1.342   7.375  0.1380 -0.1205  0.4073
 1869SOL    HW117243   4.557   1.269   7.317 -1.4939 -1.3264  1.3962
 1869SOL    HW217244   4.608   1.407   7.363  0.5783 -0.4524  1.1493
 1870SOL     OW17245   0.773   3.712   5.434 -0.0098 -0.2154  0.0460
 1870SOL    HW117246   0.684   3.713   5.400 -0.2577 -1.5443  0.6746
 1870SOL    HW217247   0.793   3.801   5.404  1.1155 -0.6456 -0.5082
 1871SOL     OW17248   1.118   3.282   2.521  0.8948  0.2526 -0.0485
 1871SOL    HW117249   1.168   3.279   2.439 -2.4857 -2.3310 -2.0168
 1871SOL    HW217250   1.080   3.369   2.508  0.5348 -0.0544 -1.1034
 1872SOL     OW17251   2.103   0.011  12.027  0.1098 -0.3757  0.9181
 1872SOL    HW117252   2.193   4.718  12.034  0.4818  0.4528 -0.1004
 1872SOL    HW217253   2.055   4.694  12.089  0.6522 -1.3826  0.4348
 1873SOL     OW17254   3.544   2.463   7.791  0.1011 -0.3942 -0.1280
 1873SOL    HW117255   3.566   2.429   7.877  1.7310  1.2751  0.0981
 1873SOL    HW217256   3.603   2.412   7.737  2.4334  0.3058  1.7634
 1874SOL     OW17257   3.167   2.074   5.251 -0.1663  0.0282  0.2195
 1874SOL    HW117258   3.192   2.155   5.296  0.9386  1.0158 -2.1557
 1874SOL    HW217259   3.078   2.103   5.230 -0.9755 -2.6287 -0.0408
 1875SOL     OW17260   1.114   4.349   3.635  0.6288  0.4374 -0.1658
 1875SOL    HW117261   1.151   4.319   3.718  0.2749  0.0576 -0.1430
 1875SOL    HW217262   1.033   4.395   3.659 -1.2198 -2.1445 -1.4175
 1876SOL     OW17263   2.326   1.296  16.715  0.2525  0.2322 -0.3852
 1876SOL    HW117264   2.249   1.343  16.683 -0.0505 -1.1439 -1.6624
 1876SOL    HW217265   2.317   1.216  16.664 -0.9547 -0.3467  0.7350
 1877SOL     OW17266   0.920   2.731   4.922 -0.2228 -0.4729 -0.0406
 1877SOL    HW117267   0.958   2.643   4.922 -2.5151 -1.4574 -0.2918
 1877SOL    HW217268   0.948   2.761   5.009 -1.3940  1.2311 -0.2524
 1878SOL     OW17269   1.841   1.354   1.989 -0.4231 -0.1119  0.0822
 1878SOL    HW117270   1.862   1.363   2.081  0.6502 -0.8147 -0.0902
 1878SOL    HW217271   1.779   1.281   1.988 -1.3707  0.6985 -0.4174
 1879SOL     OW17272   1.836   3.406   3.669  0.1753  0.3045  0.2120
 1879SOL    HW117273   1.921   3.420   3.627  0.0934 -0.2695 -0.1480
 1879SOL    HW217274   1.777   3.456   3.612  1.5466  1.0096 -0.5920
 1880SOL     OW17275   1.799   2.796  10.137 -0.0234 -0.1228 -0.1320
 1880SOL    HW117276   1.756   2.842  10.209  1.0856 -0.4437  0.7486
 1880SOL    HW217277   1.737   2.728  10.111 -0.2126  0.2807 -0.7213
 1881SOL     OW17278   3.252   4.649   2.753  0.3170  0.0963 -0.1599
 1881SOL    HW117279   3.294   4.662   2.669  0.6347 -1.0405 -0.1734
 1881SOL    HW217280   3.292   4.570   2.789 -1.0213 -0.3764  0.3130
 1882SOL     OW17281   2.319   3.775   5.942 -0.3507  0.3827 -0.0265
 1882SOL    HW117282   2.263   3.828   5.886 -0.1358  1.0342  0.3637
 1882SOL    HW217283   2.257   3.720   5.990  1.8824 -1.4084  0.8354
 1883SOL     OW17284   3.702   1.058   6.310 -0.0224 -0.1222  0.1489
 1883SOL    HW117285   3.663   1.133   6.353  1.3922 -0.1864  1.5372
 1883SOL    HW217286   3.758   1.104   6.248 -0.3381  1.0689  0.7611
 1884SOL     OW17287   4.208   2.694   7.474  0.2054 -0.6788 -0.2247
 1884SOL    HW117288   4.261   2.763   7.514 -3.5536  2.1038 -0.0471
 1884SOL    HW217289   4.240   2.695   7.384 -1.5627 -1.1599 -0.8682
 1885SOL     OW17290   4.119   1.358   2.456  0.3798  0.0532 -0.3654
 1885SOL    HW117291   4.143   1.442   2.495  2.6269 -1.5151  1.6378
 1885SOL    HW217292   4.201   1.318   2.425  0.3167 -0.2712 -0.1207
 1886SOL     OW17293   3.900   0.250   5.859 -0.7323  0.2148  0.5978
 1886SOL    HW117294   3.898   0.154   5.856 -0.4403  0.2934 -1.7226
 1886SOL    HW217295   3.814   0.274   5.893 -1.5904 -1.8194 -0.1162
 1887SOL     OW17296   2.781   1.157   4.858  0.0042 -0.0084 -0.4147
 1887SOL    HW117297   2.838   1.225   4.892  0.0474 -1.3060  2.0559
 1887SOL    HW217298   2.837   1.080   4.851 -0.3483 -0.1486 -1.7463
 1888SOL     OW17299   0.493   4.306   7.110 -0.0227  0.4344  0.0930
 1888SOL    HW117300   0.434   4.241   7.073 -0.1216  0.4075  0.2986
 1888SOL    HW217301   0.556   4.249   7.153 -0.8649  1.5734  2.8817
 1889SOL     OW17302   1.096   2.892   2.401  0.6747  0.8759  0.4285
 1889SOL    HW117303   1.184   2.925   2.417  0.6843  0.5382  1.0551
 1889SOL    HW217304   1.087   2.891   2.306  0.8060  1.0749  0.4126
 1890SOL     OW17305   0.396   0.838  11.544 -0.3342 -0.3506  0.0891
 1890SOL    HW117306   0.458   0.846  11.472 -0.0232  3.0766  0.7437
 1890SOL    HW217307   0.314   0.829  11.496  0.5126 -2.4479 -0.9627
 1891SOL     OW17308   2.515   2.390   8.850  0.3956  0.3310 -0.1609
 1891SOL    HW117309   2.434   2.376   8.898  1.3120 -0.7832  1.0692
 1891SOL    HW217310   2.564   2.438   8.916 -1.3555  1.1675  0.5248
 1892SOL     OW17311   0.895   2.235   6.070  0.9916  0.2731  0.0034
 1892SOL    HW117312   0.987   2.228   6.095  0.8617 -0.7226  0.1918
 1892SOL    HW217313   0.875   2.325   6.093 -0.2318  0.1534 -0.5693
 1893SOL     OW17314   3.573   2.662   4.948 -0.5197 -0.9235  0.3379
 1893SOL    HW117315   3.553   2.720   4.875  0.1564  0.7502  1.4826
 1893SOL    HW217316   3.510   2.696   5.011  0.3245  0.2079  0.5734
 1894SOL     OW17317   2.359   0.328   7.715 -0.0235  0.1339  0.4949
 1894SOL    HW117318   2.434   0.386   7.701  2.8346 -3.1322  2.2656
 1894SOL    HW217319   2.402   0.256   7.762  2.7614  0.4525 -1.5879
 1895SOL     OW17320   0.854   3.949   4.336 -0.2289  0.0984 -0.3606
 1895SOL    HW117321   0.921   4.014   4.315 -0.9119  1.4328  1.5849
 1895SOL    HW217322   0.825   3.950   4.244  0.4332  1.3252 -0.5617
 1896SOL     OW17323   0.570   1.642  15.289  0.1271  0.0042 -0.5249
 1896SOL    HW117324   0.498   1.625  15.350 -1.0703  2.6031 -1.2026
 1896SOL    HW217325   0.645   1.625  15.346 -0.9227 -1.0595  0.5416
 1897SOL     OW17326   1.397   1.897   3.918 -0.3667 -0.2543  0.2747
 1897SOL    HW117327   1.448   1.836   3.866 -0.0973 -0.3843  0.6949
 1897SOL    HW217328   1.421   1.873   4.007  0.0332  0.0192  0.2388
 1898SOL     OW17329   4.210   0.446  12.140 -0.4520  0.5094 -0.4384
 1898SOL    HW117330   4.183   0.463  12.231 -1.8842  0.2178 -0.8135
 1898SOL    HW217331   4.143   0.486  12.085 -0.7862  0.6539  0.0648
 1899SOL     OW17332   0.079   0.988   3.883  0.0456 -0.0736 -0.1974
 1899SOL    HW117333   0.034   1.069   3.858 -1.6286 -0.9605 -0.0635
 1899SOL    HW217334   0.168   1.005   3.854 -0.8130  0.5824 -2.4648
 1900SOL     OW17335   4.474   3.952   6.972 -0.8798  0.6408 -0.3515
 1900SOL    HW117336   4.545   4.004   6.935  1.2624 -1.2054  1.2337
 1900SOL    HW217337   4.496   3.867   6.935  0.7374  0.1187  1.8611
 1901SOL     OW17338   0.360   4.408   5.154  0.6485 -0.1531 -0.5353
 1901SOL    HW117339   0.296   4.339   5.171  0.1456  0.1666 -1.1298
 1901SOL    HW217340   0.427   4.396   5.221  1.4008  0.1177 -1.2371
 1902SOL     OW17341   4.231   1.466   7.691  0.2282 -0.5491 -0.0854
 1902SOL    HW117342   4.296   1.533   7.713 -1.0045  0.2313  1.2000
 1902SOL    HW217343   4.271   1.430   7.612 -0.7877 -1.6700 -0.0757
 1903SOL     OW17344   2.203   4.485   5.830 -0.1018  0.3703 -0.3522
 1903SOL    HW117345   2.290   4.524   5.841 -0.4257  1.2884 -1.1043
 1903SOL    HW217346   2.157   4.510   5.910  0.2473 -0.2284  0.0368
 1904SOL     OW17347   2.692   2.259  12.714  0.3968  0.3168 -0.2921
 1904SOL    HW117348   2.664   2.326  12.776  1.1794 -1.5269  2.0243
 1904SOL    HW217349   2.630   2.186  12.717  2.2370 -1.1661  1.0236
 1905SOL     OW17350   1.258   0.578   0.905  0.2729  0.6528 -0.3946
 1905SOL    HW117351   1.178   0.630   0.916  0.3155 -0.0112  2.8999
 1905SOL    HW217352   1.289   0.560   0.993  1.2150  0.8441 -0.6878
 1906SOL     OW17353   3.281   0.900  15.121  0.1286  0.0725  0.3828
 1906SOL    HW117354   3.331   0.821  15.142  1.7840  0.3965 -2.3582
 1906SOL    HW217355   3.360   0.952  15.107 -0.4529  0.9335  0.3174
 1907SOL     OW17356   3.803   0.765   5.203  0.3304 -0.2932  0.2140
 1907SOL    HW117357   3.707   0.765   5.210  0.3852  0.0234  1.0004
 1907SOL    HW217358   3.818   0.796   5.114 -1.0566  0.1619  0.1461
 1908SOL     OW17359   3.565   1.249  17.734  0.2659 -0.1318  0.1246
 1908SOL    HW117360   3.550   1.243   0.075 -0.6795  0.2068  0.0024
 1908SOL    HW217361   3.547   1.342  17.720 -1.7669 -0.6496 -0.8247
 1909SOL     OW17362   1.898   0.035   9.814 -0.0411  0.1680  0.1581
 1909SOL    HW117363   1.897   0.073   9.727  3.3022  0.1832  0.1291
 1909SOL    HW217364   1.817   0.063   9.858 -0.1808  0.4302 -0.2747
 1910SOL     OW17365   1.365   0.568   3.594 -0.3531 -0.1089 -0.0604
 1910SOL    HW117366   1.386   0.640   3.655 -0.4726 -0.7416  0.7231
 1910SOL    HW217367   1.439   0.568   3.534  1.2104  0.6517  1.8522
 1911SOL     OW17368   0.482   2.721   3.862 -0.0688 -0.1252 -0.2685
 1911SOL    HW117369   0.439   2.691   3.781  0.1069 -1.8332  0.2691
 1911SOL    HW217370   0.544   2.648   3.864 -0.7828 -0.6929  0.9958
 1912SOL     OW17371   3.688   2.656   0.126  0.0607  0.1114  0.6127
 1912SOL    HW117372   3.762   2.618   0.079 -0.8532  0.1330 -0.8378
 1912SOL    HW217373   3.712   2.749   0.121 -2.8566  0.7580 -1.8531
 1913SOL     OW17374   1.770   2.963   5.910  0.6331 -0.3567 -1.0373
 1913SOL    HW117375   1.741   3.054   5.897 -0.6047 -0.5187  0.6344
 1913SOL    HW217376   1.817   2.936   5.831  3.7436 -1.6927  1.2693
 1914SOL     OW17377   3.811   2.012   3.952  0.3005  1.0964 -0.2576
 1914SOL    HW117378   3.770   1.992   4.036  2.2001  1.6084  0.8067
 1914SOL    HW217379   3.839   1.925   3.923  0.1043  1.5321 -1.7805
 1915SOL     OW17380   2.716   3.817   2.828  0.1860  0.1398 -0.1624
 1915SOL    HW117381   2.663   3.792   2.904  0.5257  2.3405  0.7975
 1915SOL    HW217382   2.651   3.843   2.762  0.0391  1.7926  0.6276
 1916SOL     OW17383   1.537   1.934   5.212  0.2304  0.0045 -0.1627
 1916SOL    HW117384   1.442   1.947   5.210  0.4459  1.6392  0.8155
 1916SOL    HW217385   1.556   1.910   5.121  1.3511  0.2033  0.0131
 1917SOL     OW17386   3.861   1.918   7.146  0.2741  0.0826  0.0672
 1917SOL    HW117387   3.786   1.859   7.143 -1.3022  1.9839  1.9362
 1917SOL    HW217388   3.885   1.904   7.237  0.2715 -1.5644 -0.1813
 1918SOL     OW17389   2.478   2.730   7.695  0.6242 -0.1900 -0.1507
 1918SOL    HW117390   2.534   2.804   7.719  0.5546  0.2626 -1.4377
 1918SOL    HW217391   2.535   2.659   7.725  1.4394  0.5159 -0.0363
 1919SOL     OW17392   3.273   1.643  11.965 -0.0204  0.2646 -0.3354
 1919SOL    HW117393   3.334   1.700  12.011  2.3217 -0.8280 -2.0429
 1919SOL    HW217394   3.290   1.657  11.872  1.3981  0.2084 -0.0912
 1920SOL     OW17395   4.081   2.206  13.395 -0.1511 -0.4276 -0.2247
 1920SOL    HW117396   4.030   2.135  13.432 -0.6155  0.3737  0.6671
 1920SOL    HW217397   4.158   2.206  13.452  0.1205  0.2297 -0.5846
 1921SOL     OW17398   3.367   3.184  13.848  0.5440  0.1651  0.5863
 1921SOL    HW117399   3.301   3.124  13.882  1.7409 -0.3447  2.0411
 1921SOL    HW217400   3.449   3.159  13.891  0.8410  0.3426  0.1300
 1922SOL     OW17401   1.575   2.324  16.244 -0.0943 -0.1036  0.2631
 1922SOL    HW117402   1.510   2.304  16.176  1.3853 -0.5706 -1.0000
 1922SOL    HW217403   1.546   2.272  16.319 -0.4702 -1.2173 -0.6558
 1923SOL     OW17404   2.848   0.189   2.557 -0.1749  0.5360 -0.3560
 1923SOL    HW117405   2.837   0.203   2.463 -0.3268 -1.3338 -0.6194
 1923SOL    HW217406   2.882   0.099   2.559 -0.1469  0.5511 -0.1817
 1924SOL     OW17407   4.655   3.138   8.128  0.1306 -0.0063  0.2965
 1924SOL    HW117408   4.577   3.165   8.176  0.4886 -0.7332  1.2892
 1924SOL    HW217409   4.722   3.176   8.185  1.7882 -2.5533  0.0461
 1925SOL     OW17410   2.381   0.602   8.699  0.1114  0.7752 -0.3768
 1925SOL    HW117411   2.372   0.697   8.692  1.0498  0.7859 -1.6346
 1925SOL    HW217412   2.300   0.564   8.667  1.7334 -1.4312 -1.8565
 1926SOL     OW17413   2.489   0.632   3.620  0.7841 -0.3174  0.2488
 1926SOL    HW117414   2.427   0.705   3.624  0.2447 -0.6804 -1.4240
 1926SOL    HW217415   2.569   0.677   3.646  0.7495 -0.2565  0.2495
 1927SOL     OW17416   0.052   1.771   2.879  0.1673  0.1239 -0.4350
 1927SOL    HW117417   0.055   1.683   2.917 -0.4584 -0.2314 -1.2116
 1927SOL    HW217418   0.147   1.781   2.879  0.1283  0.5127  0.6399
 1928SOL     OW17419   1.719   2.092   5.731  0.4316  0.1227  0.1085
 1928SOL    HW117420   1.640   2.101   5.677  0.6246  1.6073  0.0765
 1928SOL    HW217421   1.755   2.180   5.746 -3.1591  1.2914  1.9331
 1929SOL     OW17422   2.496   0.400   2.906 -0.0296  0.0037  0.8423
 1929SOL    HW117423   2.493   0.345   2.827 -1.4326 -1.3534  1.8220
 1929SOL    HW217424   2.562   0.357   2.960  0.3144 -1.7013 -0.9042
 1930SOL     OW17425   2.040   3.838   5.237 -0.8532 -0.3212  0.1244
 1930SOL    HW117426   1.970   3.809   5.179 -0.4721 -2.1452  0.5664
 1930SOL    HW217427   2.021   3.931   5.227 -2.4215 -0.6655 -0.1211
 1931SOL     OW17428   0.719   0.053  17.288  0.2868  0.3743 -0.1373
 1931SOL    HW117429   0.811   0.068  17.266  0.0956  1.7478  0.0369
 1931SOL    HW217430   0.698   0.084  17.376  2.2764 -1.2085  0.9143
 1932SOL     OW17431   2.756   1.460   7.100 -0.6844 -0.5523  0.1127
 1932SOL    HW117432   2.799   1.501   7.175 -0.9671  0.4142 -0.2607
 1932SOL    HW217433   2.687   1.405   7.136 -0.2597 -0.9683  0.2921
 1933SOL     OW17434   3.696   2.447   2.609  0.0221 -0.0960  0.1637
 1933SOL    HW117435   3.715   2.412   2.696  1.8586 -2.0722 -1.0155
 1933SOL    HW217436   3.659   2.368   2.569 -0.5738 -0.4908  1.4781
 1934SOL     OW17437   0.112   4.505  11.609 -0.3270 -0.6827 -0.3591
 1934SOL    HW117438   0.029   4.484  11.565  1.4400  0.5591 -4.2446
 1934SOL    HW217439   0.160   4.522  11.528 -0.4653  1.3808  0.0010
 1935SOL     OW17440   4.543   4.374   6.430 -0.2906  0.4015  0.0621
 1935SOL    HW117441   4.600   4.342   6.500 -0.0097  0.9237  0.0747
 1935SOL    HW217442   4.506   4.442   6.485 -0.4606  0.6378 -0.3437
 1936SOL     OW17443   3.026   0.559   2.498  0.0013 -0.3669 -0.0670
 1936SOL    HW117444   3.112   0.538   2.461  1.0179  0.4107  1.8635
 1936SOL    HW217445   3.032   0.654   2.504  2.1288 -0.5880  1.2648
 1937SOL     OW17446   4.549   2.715   2.020  0.5023 -0.4170  0.0757
 1937SOL    HW117447   4.632   2.761   2.004 -0.0832  0.6408  0.0877
 1937SOL    HW217448   4.547   2.715   2.115 -1.5682  2.3466  0.0232
 1938SOL     OW17449   1.525   2.878   1.582 -0.6317 -0.7054  0.5124
 1938SOL    HW117450   1.563   2.796   1.614  2.0411 -0.0871 -1.0751
 1938SOL    HW217451   1.582   2.943   1.623  1.0238 -1.3916 -0.7097
 1939SOL     OW17452   1.040   1.516   8.101 -0.4504  0.6266 -0.0609
 1939SOL    HW117453   1.024   1.423   8.082 -1.1673  0.5602  0.8808
 1939SOL    HW217454   0.983   1.537   8.175 -0.6047 -0.0295  0.0073
 1940SOL     OW17455   2.278   4.148   6.380  0.4212  0.1125 -0.1332
 1940SOL    HW117456   2.233   4.219   6.335 -0.5573 -0.2985  0.2061
 1940SOL    HW217457   2.308   4.094   6.307 -0.6038 -0.5428 -0.0706
 1941SOL     OW17458   0.334   2.578   9.520 -0.1461  0.0444 -0.1733
 1941SOL    HW117459   0.398   2.552   9.454  0.1818 -0.8310  0.4826
 1941SOL    HW217460   0.351   2.512   9.587  0.1067 -0.6907 -0.9720
 1942SOL     OW17461   0.827   1.692   1.432 -0.5287 -0.6238  0.1506
 1942SOL    HW117462   0.748   1.714   1.382  0.5101  3.3407  0.2400
 1942SOL    HW217463   0.807   1.607   1.471  1.6684 -0.8911  0.6687
 1943SOL     OW17464   0.479   0.091   2.774  0.0956 -0.1564 -0.1365
 1943SOL    HW117465   0.464   0.019   2.836 -0.5188  0.5449  0.5400
 1943SOL    HW217466   0.475   0.040   2.694 -1.3719 -0.4536  0.1208
 1944SOL     OW17467   1.743   2.011   3.124  0.1439 -0.2783  0.1696
 1944SOL    HW117468   1.769   2.026   3.032  0.6962 -1.4168  0.1517
 1944SOL    HW217469   1.648   2.019   3.118 -0.0354 -1.5502  1.7151
 1945SOL     OW17470   1.519   0.492   9.636  0.4157  0.1330 -0.3365
 1945SOL    HW117471   1.447   0.435   9.611  0.6611  0.2503 -1.3157
 1945SOL    HW217472   1.561   0.436   9.701 -0.8245 -0.4302 -0.0158
 1946SOL     OW17473   1.108   2.151  13.849  0.2884 -0.4320 -0.5155
 1946SOL    HW117474   1.145   2.068  13.818 -0.5418 -0.0353 -2.6063
 1946SOL    HW217475   1.029   2.116  13.889  1.4769 -2.6048 -0.1009
 1947SOL     OW17476   1.794   1.867   7.224  0.0461  0.3834  0.2871
 1947SOL    HW117477   1.880   1.825   7.222  2.9208  6.2510 -0.4757
 1947SOL    HW217478   1.749   1.810   7.162 -0.3163 -0.8599  1.6962
 1948SOL     OW17479   4.306   0.694   8.866 -0.0193  0.0797  0.0022
 1948SOL    HW117480   4.352   0.775   8.847 -1.0313  0.9094  1.0729
 1948SOL    HW217481   4.247   0.727   8.933  1.7998  2.2848  0.5087
 1949SOL     OW17482   1.062   1.182  12.384 -0.7235  0.1490 -0.1828
 1949SOL    HW117483   1.151   1.173  12.351  0.5139  1.2753  2.8749
 1949SOL    HW217484   1.074   1.269  12.423  1.7429 -0.2841  0.0199
 1950SOL     OW17485   2.567   2.317   5.196  0.0210 -0.0770 -0.1052
 1950SOL    HW117486   2.533   2.227   5.195  1.8086 -0.7655  1.1498
 1950SOL    HW217487   2.583   2.339   5.104  0.7067  0.4556  0.1426
 1951SOL     OW17488   3.642   3.320   5.372  0.3651 -0.2911  0.0939
 1951SOL    HW117489   3.622   3.356   5.459 -1.0888 -0.0399 -0.3387
 1951SOL    HW217490   3.578   3.369   5.321  0.8262 -0.2174 -0.4161
 1952SOL     OW17491   1.932   2.653   7.417  0.0397 -0.0469 -0.1897
 1952SOL    HW117492   1.861   2.718   7.422 -0.4343 -0.7314  1.6289
 1952SOL    HW217493   1.879   2.587   7.373  0.2635 -0.8125  0.6950
 1953SOL     OW17494   0.868   1.500   6.580 -0.0321 -0.5682  0.5724
 1953SOL    HW117495   0.850   1.418   6.534  0.5579 -0.2869 -0.1620
 1953SOL    HW217496   0.907   1.551   6.509  1.7856  1.2020  2.8658
 1954SOL     OW17497   2.886   1.016   8.565  0.5222  0.3444 -0.0703
 1954SOL    HW117498   2.941   0.939   8.548  1.1952  0.8039  0.0141
 1954SOL    HW217499   2.951   1.067   8.613 -0.0646  0.2108  0.8694
 1955SOL     OW17500   4.219   1.004   9.094  0.0605  0.0463  0.2139
 1955SOL    HW117501   4.174   0.920   9.092 -0.8483  0.5726 -1.4572
 1955SOL    HW217502   4.277   0.984   9.021 -1.6404 -1.1024 -0.8116
 1956SOL     OW17503   3.024   1.142   9.594  0.1817 -0.3623 -0.3244
 1956SOL    HW117504   3.108   1.122   9.554  0.9262  0.0338  1.0323
 1956SOL    HW217505   2.993   1.200   9.524 -0.8548 -0.8676 -0.2906
 1957SOL     OW17506   0.218   0.349   0.213  0.3453 -0.7980  0.5438
 1957SOL    HW117507   0.310   0.329   0.228  0.7444  1.1228  0.7437
 1957SOL    HW217508   0.196   0.397   0.293 -0.5720 -0.3410  0.0263
 1958SOL     OW17509   0.416   2.755   6.293  0.6763  0.2044 -0.0383
 1958SOL    HW117510   0.393   2.821   6.358  1.2287  0.4442 -0.0914
 1958SOL    HW217511   0.442   2.678   6.343  0.0316  1.3692  2.0959
 1959SOL     OW17512   4.303   1.782   5.193  0.5948 -0.5767  0.3432
 1959SOL    HW117513   4.254   1.828   5.261 -0.7307 -0.1794 -0.9031
 1959SOL    HW217514   4.352   1.707   5.229  0.6109 -1.4006 -1.3921
 1960SOL     OW17515   1.637   1.955   0.930  0.3771  0.1640 -0.6247
 1960SOL    HW117516   1.686   1.880   0.963 -1.1449 -0.7102 -0.3382
 1960SOL    HW217517   1.682   2.024   0.978  0.3801 -1.0115  1.0688
 1961SOL     OW17518   0.088   3.848   4.592  0.1064  0.0911 -0.1485
 1961SOL    HW117519   0.042   3.831   4.674 -0.7968 -1.3523 -0.9460
 1961SOL    HW217520   0.014   3.876   4.539 -0.3920  0.4362  0.7365
 1962SOL     OW17521   3.536   1.270   6.387 -0.3335 -0.1532 -0.3227
 1962SOL    HW117522   3.484   1.280   6.468 -0.1603 -1.6584 -0.0268
 1962SOL    HW217523   3.557   1.362   6.367 -0.6202 -0.0716 -0.2523
 1963SOL     OW17524   2.191   1.318  14.252 -0.1151 -0.0624 -0.3911
 1963SOL    HW117525   2.225   1.242  14.206  0.0337  0.1141 -0.5745
 1963SOL    HW217526   2.123   1.356  14.196  0.7450 -1.2766 -2.2048
 1964SOL     OW17527   2.876   0.514   5.683  0.7236  0.0599  0.2332
 1964SOL    HW117528   2.932   0.478   5.753  0.7413 -0.1300  0.1210
 1964SOL    HW217529   2.861   0.428   5.645 -1.8574  0.4764  0.2973
 1965SOL     OW17530   2.408   1.332   1.002  0.1703  0.4193  0.3735
 1965SOL    HW117531   2.434   1.419   1.031 -1.0418  0.5247  1.1410
 1965SOL    HW217532   2.336   1.300   1.057 -1.0424 -0.3731 -1.6595
 1966SOL     OW17533   4.350   0.898   3.940  0.2345 -0.2253 -0.1543
 1966SOL    HW117534   4.375   0.827   3.999 -0.3154  0.3048  0.7391
 1966SOL    HW217535   4.429   0.905   3.888 -0.7319 -0.9057 -1.6879
 1967SOL     OW17536   3.825   1.471   6.591 -0.0110 -0.4326  0.2955
 1967SOL    HW117537   3.911   1.441   6.622 -1.2524 -3.2669  0.9186
 1967SOL    HW217538   3.833   1.464   6.496 -1.8301 -1.9962  0.2662
 1968SOL     OW17539   3.672   0.576  11.363 -0.8041  0.0908  0.2993
 1968SOL    HW117540   3.649   0.542  11.277 -1.6664  0.3713  0.4235
 1968SOL    HW217541   3.624   0.658  11.363 -1.2481 -0.1641 -1.4219
 1969SOL     OW17542   4.601   1.611   0.938 -0.3661  0.2407 -0.0659
 1969SOL    HW117543   4.600   1.658   0.855  1.7642 -0.5091 -0.4941
 1969SOL    HW217544   4.510   1.605   0.969 -0.4353 -1.2194 -0.5654
 1970SOL     OW17545   1.511   4.173   7.994  0.0833 -0.0062  0.0600
 1970SOL    HW117546   1.471   4.251   7.956 -0.9491 -0.4490  0.2196
 1970SOL    HW217547   1.467   4.181   8.079 -1.6942  1.8066 -1.0347
 1971SOL     OW17548   3.999   4.316  15.572  0.3982  0.5683 -0.2767
 1971SOL    HW117549   3.971   4.237  15.617  0.8149  1.3794  1.4124
 1971SOL    HW217550   3.955   4.309  15.487 -0.2736 -0.4032  0.1491
 1972SOL     OW17551   3.223   1.267   4.435  0.3004 -0.0205  0.3862
 1972SOL    HW117552   3.253   1.355   4.459 -1.1994  0.5825  0.0872
 1972SOL    HW217553   3.263   1.209   4.500 -1.0306 -0.1664  1.0863
 1973SOL     OW17554   1.637   0.561   1.880  0.2456 -0.3502  0.0776
 1973SOL    HW117555   1.655   0.468   1.894  1.4013  0.1836  2.0994
 1973SOL    HW217556   1.652   0.565   1.786  0.2248 -1.2575  0.0319
 1974SOL     OW17557   1.329   2.543   7.999 -0.8454  0.2461 -0.4813
 1974SOL    HW117558   1.264   2.606   7.970  0.2853  1.0713 -1.2227
 1974SOL    HW217559   1.336   2.493   7.918 -0.6585 -3.2627  1.6716
 1975SOL     OW17560   2.874   1.111  16.637 -0.0061 -0.2556 -0.3160
 1975SOL    HW117561   2.814   1.119  16.563 -2.0079 -0.3709  1.2810
 1975SOL    HW217562   2.814   1.098  16.711 -1.1493 -0.8226 -1.3480
 1976SOL     OW17563   2.300   2.038  10.260  0.3221 -0.2970  0.1348
 1976SOL    HW117564   2.314   2.081  10.176 -1.0391 -1.9031 -0.9373
 1976SOL    HW217565   2.332   2.114  10.307  0.8791 -1.6557  1.9517
 1977SOL     OW17566   2.352   4.045  14.651  0.0888  0.5606 -0.3489
 1977SOL    HW117567   2.414   4.106  14.692  1.1196 -1.5756  1.2939
 1977SOL    HW217568   2.317   3.993  14.724 -0.8891  2.1685  0.3421
 1978SOL     OW17569   3.560   0.658   7.819 -0.3256 -0.0794  0.4205
 1978SOL    HW117570   3.631   0.616   7.770 -0.1251  1.2500 -0.4305
 1978SOL    HW217571   3.491   0.596   7.796  1.6542 -2.2721  0.4339
 1979SOL     OW17572   0.530   1.311   2.289  0.1669 -0.0423 -0.3042
 1979SOL    HW117573   0.616   1.354   2.293 -0.7926  1.8273 -0.0128
 1979SOL    HW217574   0.487   1.383   2.244 -0.3630  1.3556  2.4882
 1980SOL     OW17575   4.684   3.572   7.322 -0.0454  0.5206  0.0969
 1980SOL    HW117576   4.628   3.558   7.399  0.7609 -0.2030  0.5431
 1980SOL    HW217577   4.619   3.567   7.252  1.2993 -2.4379 -0.9245
 1981SOL     OW17578   1.162   2.776  14.158  0.0822  0.0710  0.0865
 1981SOL    HW117579   1.217   2.752  14.232  0.4950  0.8095  0.0173
 1981SOL    HW217580   1.086   2.737  14.200 -0.6405 -1.0541 -2.2222
 1982SOL     OW17581   1.940   4.393   2.215  0.6112  0.1999 -0.0406
 1982SOL    HW117582   1.949   4.318   2.156 -1.7298 -0.7680  0.8408
 1982SOL    HW217583   2.020   4.377   2.266 -1.2999 -2.9179  1.9197
 1983SOL     OW17584   1.692   1.539   4.846  0.2039 -0.0318  0.0975
 1983SOL    HW117585   1.715   1.581   4.929  1.0203 -1.0212  0.3655
 1983SOL    HW217586   1.679   1.448   4.874 -0.5235 -0.0337 -0.2432
 1984SOL     OW17587   3.073   1.374  11.489 -0.1553  0.5827 -0.5356
 1984SOL    HW117588   3.125   1.335  11.419  0.8795  1.8155 -0.4500
 1984SOL    HW217589   3.036   1.451  11.446 -1.7984 -1.6003 -3.0083
 1985SOL     OW17590   1.868   3.699   2.180 -0.7745  0.5916  0.4089
 1985SOL    HW117591   1.891   3.627   2.239  0.4061  0.1433 -0.5799
 1985SOL    HW217592   1.829   3.644   2.111 -0.4320 -0.0276  0.7123
 1986SOL     OW17593   2.352   3.606   9.345  0.0626  0.3287 -0.6664
 1986SOL    HW117594   2.343   3.694   9.383  3.2967 -0.3594  1.6868
 1986SOL    HW217595   2.294   3.552   9.399  0.1928 -0.9615 -1.8149
 1987SOL     OW17596   4.617   3.611   5.234 -0.1756  0.1138 -0.3724
 1987SOL    HW117597   4.642   3.646   5.148 -0.5585  0.1289 -0.4777
 1987SOL    HW217598   4.704   3.625   5.272  1.0826  0.8493 -3.5516
 1988SOL     OW17599   1.699   2.302  16.873  0.4824  0.0389 -0.4300
 1988SOL    HW117600   1.644   2.236  16.915 -2.9632  0.1935 -4.6762
 1988SOL    HW217601   1.652   2.309  16.790 -1.5353 -2.0654  0.5552
 1989SOL     OW17602   1.082   3.782   1.605 -1.2213  0.0828  0.4880
 1989SOL    HW117603   1.011   3.719   1.615 -0.5923 -0.3512  2.2228
 1989SOL    HW217604   1.066   3.838   1.681 -2.0973  0.3247  0.1200
 1990SOL     OW17605   2.000   4.667   4.113 -0.1972  0.7547  0.2587
 1990SOL    HW117606   2.094   4.654   4.123 -0.6912 -3.4858 -0.7175
 1990SOL    HW217607   1.999   0.005   4.169  1.9552  2.2529 -1.7623
 1991SOL     OW17608   0.027   4.116  17.408  0.2516  0.7927  0.0075
 1991SOL    HW117609   4.698   4.112  17.341 -0.9564 -0.9087  1.3370
 1991SOL    HW217610   0.053   4.024  17.415  0.4754  0.8815  0.3560
 1992SOL     OW17611   2.150   2.707   3.407 -0.0135  0.3384 -0.0557
 1992SOL    HW117612   2.181   2.778   3.351  0.2356 -0.1258 -0.5130
 1992SOL    HW217613   2.079   2.742   3.461 -1.3345 -0.7554 -1.0596
 1993SOL     OW17614   3.819   4.521   8.478  0.6390 -0.3112 -0.5480
 1993SOL    HW117615   3.799   4.596   8.533  0.3979 -0.1972 -0.7924
 1993SOL    HW217616   3.743   4.464   8.489 -0.2815  0.8225 -1.1894
 1994SOL     OW17617   4.001   3.036   3.532  0.0584 -0.0488 -0.6627
 1994SOL    HW117618   4.032   3.085   3.455  1.0693 -0.0834 -0.2720
 1994SOL    HW217619   3.907   3.053   3.527 -0.2349 -1.4460  0.2834
 1995SOL     OW17620   1.471   2.137   3.090  0.3339 -0.0889  0.4487
 1995SOL    HW117621   1.393   2.131   3.034  0.4597  0.8248  0.1888
 1995SOL    HW217622   1.433   2.089   3.165  0.6581 -0.1612  0.5663
 1996SOL     OW17623   3.110   3.483   5.982  0.3442  0.4394 -0.6363
 1996SOL    HW117624   3.102   3.577   6.000 -0.7138  0.0534  0.8498
 1996SOL    HW217625   3.125   3.452   6.071  0.5052 -0.1060 -0.8575
 1997SOL     OW17626   0.483   1.655   6.794  0.4125  0.7096  0.3572
 1997SOL    HW117627   0.463   1.635   6.702 -2.2913  0.3949  1.0099
 1997SOL    HW217628   0.470   1.750   6.788 -0.9630  0.5555  0.8209
 1998SOL     OW17629   0.489   3.549   4.707  0.4783 -0.1005 -0.5785
 1998SOL    HW117630   0.395   3.544   4.690  0.7247  0.5933 -2.0859
 1998SOL    HW217631   0.513   3.533   4.616 -2.6504 -1.9938 -1.0937
 1999SOL     OW17632   4.589   2.650   6.636  0.5084  0.4108  0.2269
 1999SOL    HW117633   4.685   2.645   6.634  0.6002  1.9637  0.6477
 1999SOL    HW217634   4.579   2.735   6.679  2.4952  1.4778 -1.4483
 2000SOL     OW17635   1.256   0.322   0.810 -0.7097  0.5189  0.4046
 2000SOL    HW117636   1.282   0.409   0.840 -1.2592  0.5798  0.6980
 2000SOL    HW217637   1.245   0.355   0.721  1.6294  4.4159  1.5502
 2001SOL     OW17638   2.541   1.835  14.535  0.3284  0.3009  0.0483
 2001SOL    HW117639   2.563   1.827  14.627 -1.2356 -0.0277  0.3989
 2001SOL    HW217640   2.468   1.773  14.535  0.9706 -0.4441  0.9266
 2002SOL     OW17641   3.412   2.633   0.208 -0.0635 -0.0840 -0.0869
 2002SOL    HW117642   3.461   2.613   0.128 -0.2323  0.3869 -0.3105
 2002SOL    HW217643   3.478   2.675   0.262  0.4380  1.3197 -1.8167
 2003SOL     OW17644   0.995   1.801   9.202  0.5395  0.4870 -0.0119
 2003SOL    HW117645   0.971   1.869   9.139 -1.9153 -1.1292 -0.8156
 2003SOL    HW217646   1.064   1.839   9.256  1.0458 -0.2461 -0.1348
 2004SOL     OW17647   1.302   0.370   8.684  0.3487  0.4000  0.5761
 2004SOL    HW117648   1.215   0.358   8.645  0.4506  2.2898 -0.2241
 2004SOL    HW217649   1.326   0.284   8.720  0.3359  0.3584  0.4855
 2005SOL     OW17650   3.697   0.964   7.585  0.1118 -0.3698 -0.3151
 2005SOL    HW117651   3.609   0.953   7.622  0.4960 -1.8005  0.1703
 2005SOL    HW217652   3.689   0.902   7.512  0.1502 -0.8331  0.0693
 2006SOL     OW17653   2.386   3.446   2.279 -0.0574 -0.0558  0.1014
 2006SOL    HW117654   2.453   3.462   2.346 -1.4754  1.2237  1.2210
 2006SOL    HW217655   2.314   3.436   2.340  1.3063 -0.2878  1.6565
 2007SOL     OW17656   1.359   2.813   5.771 -0.7630 -0.1301 -0.2645
 2007SOL    HW117657   1.315   2.845   5.849 -0.0428 -2.3249  1.0260
 2007SOL    HW217658   1.350   2.718   5.776  0.5411 -0.1577  1.3073
 2008SOL     OW17659   1.387   2.414   7.759  0.8656 -0.5993  0.4400
 2008SOL    HW117660   1.373   2.322   7.738  0.2603 -1.0644  2.8175
 2008SOL    HW217661   1.480   2.434   7.753  1.4766 -3.0429  1.5163
 2009SOL     OW17662   2.281   3.047   2.447  0.1031  0.0709  0.2716
 2009SOL    HW117663   2.208   3.084   2.397  0.2351  1.4305  1.0726
 2009SOL    HW217664   2.230   3.011   2.520 -0.5361  0.2361 -0.0925
 2010SOL     OW17665   0.334   2.229   3.253  0.1821  0.6138  0.3762
 2010SOL    HW117666   0.240   2.213   3.244  0.1210  1.3631 -0.3512
 2010SOL    HW217667   0.374   2.187   3.176  4.0069  3.2804  0.8679
 2011SOL     OW17668   4.009   0.566   9.602 -0.3269 -0.0964 -0.1264
 2011SOL    HW117669   3.935   0.620   9.631 -0.2678 -0.7496  1.2334
 2011SOL    HW217670   4.082   0.626   9.585  0.3947 -1.1354 -0.6408
 2012SOL     OW17671   2.543   3.481   1.622 -0.0461  0.6794  0.4042
 2012SOL    HW117672   2.511   3.540   1.690 -1.6857  0.1046  0.1259
 2012SOL    HW217673   2.594   3.536   1.563  0.0005 -2.0019 -2.0323
 2013SOL     OW17674   4.485   0.293   1.213  0.1122 -0.4467  0.4479
 2013SOL    HW117675   4.579   0.312   1.214 -0.3742  1.9546 -1.9385
 2013SOL    HW217676   4.454   0.382   1.229 -2.1815 -1.0251 -0.9281
 2014SOL     OW17677   3.758   3.079   8.320 -0.3556  0.0160  0.6560
 2014SOL    HW117678   3.684   3.054   8.376  0.4130 -1.6377  0.9285
 2014SOL    HW217679   3.736   3.042   8.234  1.6444 -0.9285  0.5672
 2015SOL     OW17680   2.585   1.712   1.930  0.1148  0.7422 -0.2448
 2015SOL    HW117681   2.653   1.731   1.866  0.2453  1.4895  0.1133
 2015SOL    HW217682   2.609   1.779   1.994  0.1968 -0.6667  1.2144
 2016SOL     OW17683   2.895   0.789   5.908  0.8531 -0.1588  0.4931
 2016SOL    HW117684   2.934   0.810   5.993 -0.6353  1.1199  0.8634
 2016SOL    HW217685   2.956   0.717   5.893  0.2019 -0.5656 -0.1930
 2017SOL     OW17686   2.490   2.560   2.556 -0.1645  0.4535  0.2989
 2017SOL    HW117687   2.397   2.542   2.541  0.1317 -0.0063 -0.9687
 2017SOL    HW217688   2.509   2.586   2.466  2.5278  0.8068  0.9832
 2018SOL     OW17689   2.382   2.816   8.820  0.1834 -0.1801  0.3439
 2018SOL    HW117690   2.459   2.841   8.768  0.2358  1.4048  1.1859
 2018SOL    HW217691   2.370   2.731   8.778 -4.1144 -0.8931  3.0877
 2019SOL     OW17692   1.686   0.022   1.883 -0.1413 -0.2218  0.1385
 2019SOL    HW117693   1.624   4.690   1.870 -1.7697  1.4252 -0.9821
 2019SOL    HW217694   1.746   4.712   1.940  2.3398  2.9261  0.2576
 2020SOL     OW17695   0.599   4.407   8.812  0.3250 -0.0228  0.6483
 2020SOL    HW117696   0.671   4.352   8.842  0.5073 -0.7899 -1.1796
 2020SOL    HW217697   0.622   4.498   8.834 -0.4845 -0.0865  1.7565
 2021SOL     OW17698   0.363   1.285   0.807 -0.1303 -0.1529 -0.3479
 2021SOL    HW117699   0.391   1.272   0.716  2.0079  1.8011  0.0308
 2021SOL    HW217700   0.278   1.242   0.799 -1.6835  2.6371  0.8652
 2022SOL     OW17701   3.325   2.045  11.713 -0.3264  0.6711  0.2235
 2022SOL    HW117702   3.394   2.099  11.753  2.7746 -1.7454 -1.9429
 2022SOL    HW217703   3.379   1.966  11.708 -1.5883 -0.1514 -0.3626
 2023SOL     OW17704   0.951   2.959   6.585 -0.2673 -0.2471  0.1433
 2023SOL    HW117705   0.953   2.875   6.540 -3.0656 -1.0877  1.5346
 2023SOL    HW217706   1.040   2.987   6.567  0.4147 -1.8920  0.9319
 2024SOL     OW17707   2.107   2.861   8.871  0.3125  0.2403 -0.1300
 2024SOL    HW117708   2.178   2.895   8.816  0.0025  0.2083 -0.5482
 2024SOL    HW217709   2.098   2.775   8.830 -1.3586 -0.9291  2.7633
 2025SOL     OW17710   3.206   0.949   7.210  0.5490  0.3477  0.4616
 2025SOL    HW117711   3.281   0.997   7.174 -0.9592 -0.0334 -3.2514
 2025SOL    HW217712   3.219   0.861   7.173 -0.1731 -0.1982  1.5120
 2026SOL     OW17713   2.246   1.299   3.041 -0.4592 -0.1655  0.3012
 2026SOL    HW117714   2.244   1.342   3.126 -1.7938 -0.4388  0.4055
 2026SOL    HW217715   2.257   1.382   2.994 -0.2221 -0.8710 -0.8785
 2027SOL     OW17716   3.768   3.345   0.913 -0.3301  0.4482 -0.6105
 2027SOL    HW117717   3.713   3.334   0.836 -0.1982 -1.3686 -0.4396
 2027SOL    HW217718   3.721   3.280   0.966  1.6630 -1.2862 -0.9627
 2028SOL     OW17719   3.652   2.126   4.207 -0.2589  0.2921  0.0705
 2028SOL    HW117720   3.593   2.053   4.224  0.8759 -0.8902 -1.0244
 2028SOL    HW217721   3.697   2.139   4.291 -0.9654  1.1500  0.3142
 2029SOL     OW17722   0.584   3.089   8.765 -0.4683  0.1233  0.2484
 2029SOL    HW117723   0.645   3.114   8.834  0.7367 -1.8693 -0.1068
 2029SOL    HW217724   0.638   3.094   8.686  1.0841  0.0144  1.3239
 2030SOL     OW17725   3.620   2.687  10.756 -0.1362 -0.3402  0.5187
 2030SOL    HW117726   3.677   2.710  10.830  0.4587 -1.7737  0.4953
 2030SOL    HW217727   3.534   2.704  10.795 -0.1551 -0.1146  0.3795
 2031SOL     OW17728   3.724   1.354   7.551  0.2629  0.3922 -0.0807
 2031SOL    HW117729   3.812   1.387   7.572 -0.1051  0.4808  1.3333
 2031SOL    HW217730   3.759   1.283   7.498 -2.3755 -1.2716  0.3882
 2032SOL     OW17731   1.405   4.002  10.376  0.1531  0.4386 -0.4412
 2032SOL    HW117732   1.435   4.088  10.406  0.0529  0.8832 -1.6446
 2032SOL    HW217733   1.465   3.984  10.304  0.8435  2.2599 -0.3166
 2033SOL     OW17734   1.249   2.359  11.291  0.0773 -0.1098 -0.3072
 2033SOL    HW117735   1.183   2.296  11.321 -0.2785 -0.5358 -2.0230
 2033SOL    HW217736   1.324   2.304  11.269  1.4298  1.5905  0.0902
 2034SOL     OW17737   3.902   4.074   7.219  0.5144  0.2892  0.6973
 2034SOL    HW117738   3.924   4.002   7.279  1.1327 -0.7477 -0.7654
 2034SOL    HW217739   3.840   4.122   7.272 -1.6003 -1.3734 -0.2641
 2035SOL     OW17740   0.021   2.069   6.071 -0.7259  0.1984 -0.3312
 2035SOL    HW117741   0.022   2.028   6.157  1.5142  0.3457 -0.2752
 2035SOL    HW217742   0.097   2.128   6.067 -0.0942 -0.6484 -0.8202
 2036SOL     OW17743   0.824   0.169  13.201  0.3265  0.4856 -0.2825
 2036SOL    HW117744   0.757   0.124  13.149  0.3832  0.1127 -0.0312
 2036SOL    HW217745   0.780   0.188  13.284  1.3842  1.2592  0.1078
 2037SOL     OW17746   2.455   1.675   2.346 -0.3103  0.1500 -0.2449
 2037SOL    HW117747   2.398   1.693   2.272  0.1510 -1.3771 -0.9670
 2037SOL    HW217748   2.478   1.583   2.335  0.4724  0.3895 -0.6671
 2038SOL     OW17749   2.313   1.769   0.916 -0.3834  0.0245  0.2265
 2038SOL    HW117750   2.346   1.738   0.831  0.1351  3.5530 -0.8326
 2038SOL    HW217751   2.246   1.835   0.898 -0.4051 -0.4322 -1.3473
 2039SOL     OW17752   3.539   0.465   7.474 -0.1814  0.6161 -0.2538
 2039SOL    HW117753   3.519   0.390   7.419 -1.6288  0.8125 -0.0141
 2039SOL    HW217754   3.461   0.465   7.530  0.3327  1.3207  0.4568
 2040SOL     OW17755   1.485   2.014  14.967 -0.7006  0.0590 -0.3850
 2040SOL    HW117756   1.495   2.103  14.932 -3.7063  0.4253 -0.2562
 2040SOL    HW217757   1.575   1.997  14.994 -0.4441  1.7431 -0.1642
 2041SOL     OW17758   3.637   4.101   8.259  0.3062  0.2038 -0.1810
 2041SOL    HW117759   3.550   4.078   8.228  0.1539 -0.0398  0.4431
 2041SOL    HW217760   3.655   4.175   8.200  1.1225  1.5896  1.7862
 2042SOL     OW17761   0.028   3.090   1.754  0.0880  0.3440  0.0456
 2042SOL    HW117762   4.673   3.071   1.752  0.4700 -1.5205  0.1269
 2042SOL    HW217763   0.046   3.107   1.662 -0.7001  1.6880  0.1415
 2043SOL     OW17764   1.071   1.514   9.624  0.2284 -0.1534 -0.0701
 2043SOL    HW117765   1.110   1.576   9.687  0.3557 -0.7885  0.4718
 2043SOL    HW217766   0.984   1.504   9.662  0.5904 -1.4786  0.4104
 2044SOL     OW17767   3.507   3.312  15.677 -0.6611  0.2852 -0.1900
 2044SOL    HW117768   3.469   3.236  15.720  0.2103 -0.1014 -0.1036
 2044SOL    HW217769   3.432   3.360  15.642 -0.7109 -0.2425 -0.7957
 2045SOL     OW17770   1.531   1.230   3.668 -0.4207 -0.0342  0.6718
 2045SOL    HW117771   1.534   1.274   3.753  1.2855  0.0667  0.5612
 2045SOL    HW217772   1.490   1.302   3.619 -1.2997 -1.6115 -0.9007
 2046SOL     OW17773   0.827   1.909   3.759 -0.1439 -0.1005 -0.0144
 2046SOL    HW117774   0.772   1.831   3.752 -0.9887  0.5727 -0.8110
 2046SOL    HW217775   0.822   1.944   3.670 -1.3769 -0.1250  0.0417
 2047SOL     OW17776   4.485   2.966   6.282  0.3284  0.2220  0.2583
 2047SOL    HW117777   4.419   2.929   6.339 -0.5852 -1.6401 -2.0277
 2047SOL    HW217778   4.437   2.977   6.200  0.3939  2.4142  0.5122
 2048SOL     OW17779   3.812   1.173   7.379 -0.2168 -0.3936  0.7292
 2048SOL    HW117780   3.805   1.188   7.284 -1.0254  1.7597  1.1119
 2048SOL    HW217781   3.839   1.081   7.379 -0.5128 -0.4802  1.1771
 2049SOL     OW17782   3.102   2.118   8.401  0.3141  0.2170  0.0213
 2049SOL    HW117783   3.091   2.042   8.458  0.9866  0.2053  0.1292
 2049SOL    HW217784   3.151   2.172   8.462  1.9232 -1.0882 -0.1107
 2050SOL     OW17785   1.356   3.516   6.194  0.1068  0.7181  0.4789
 2050SOL    HW117786   1.349   3.595   6.248  0.1677  0.7446  0.4472
 2050SOL    HW217787   1.270   3.479   6.214  0.4299  0.0230  0.5698
 2051SOL     OW17788   3.815   3.187   3.083  0.1150 -0.3975  0.3338
 2051SOL    HW117789   3.722   3.164   3.089 -0.0426  0.0049 -0.5461
 2051SOL    HW217790   3.846   3.140   3.005 -2.0349  0.2529 -0.9263
 2052SOL     OW17791   3.577   4.609  13.170 -0.2491  0.3473 -0.0782
 2052SOL    HW117792   3.622   4.645  13.246  1.3684  0.3275 -1.0109
 2052SOL    HW217793   3.497   4.661  13.172  0.6957  1.8387 -0.8276
 2053SOL     OW17794   2.301   0.069   5.292  0.2351 -0.3689  0.3101
 2053SOL    HW117795   2.218   0.038   5.254  0.7223 -0.4610 -0.6641
 2053SOL    HW217796   2.273   0.150   5.336 -0.2155 -0.0534 -0.5499
 2054SOL     OW17797   0.723   0.998  17.467 -0.1277 -0.3303 -0.0011
 2054SOL    HW117798   0.708   0.986  17.373  0.2270 -1.7486  0.1262
 2054SOL    HW217799   0.701   1.091  17.474  0.5315  0.1375 -4.3210
 2055SOL     OW17800   4.599   0.078   6.299 -0.2949  0.5217 -0.7150
 2055SOL    HW117801   4.579   0.095   6.207 -1.6387 -1.1466 -0.7295
 2055SOL    HW217802   4.691   0.103   6.293 -1.0767  3.7164  0.3687
 2056SOL     OW17803   2.197   3.215   8.951 -0.5517  0.1718  0.5166
 2056SOL    HW117804   2.234   3.270   8.881 -2.4327 -0.4891 -0.9734
 2056SOL    HW217805   2.217   3.275   9.023  1.9154  0.2492 -0.2210
 2057SOL     OW17806   4.631   1.905   7.220  0.3865 -0.0769  0.1318
 2057SOL    HW117807   4.579   1.980   7.248  0.2421 -0.2737  0.3919
 2057SOL    HW217808   4.624   1.847   7.296 -2.0387  1.7314  1.2657
 2058SOL     OW17809   3.973   4.225   3.336 -0.2124  0.0811  0.3804
 2058SOL    HW117810   4.006   4.276   3.410  1.4097 -0.4278 -0.0048
 2058SOL    HW217811   4.044   4.246   3.276  0.5603  0.9619  1.5973
 2059SOL     OW17812   2.057   0.244   7.150  0.0085  0.4958 -0.1732
 2059SOL    HW117813   2.053   0.166   7.094  2.8786 -0.7435  1.3474
 2059SOL    HW217814   2.151   0.260   7.155  0.3593 -1.0589 -1.8923
 2060SOL     OW17815   0.559   1.439   7.218  0.2483  0.3073  0.0784
 2060SOL    HW117816   0.608   1.515   7.251 -2.3814  1.1457  2.0418
 2060SOL    HW217817   0.529   1.462   7.130  0.3762  0.1610 -0.0027
 2061SOL     OW17818   1.053   3.834   4.467  0.0340 -0.3928 -0.4397
 2061SOL    HW117819   1.017   3.761   4.517  2.0213  0.5325  2.3196
 2061SOL    HW217820   0.978   3.853   4.410  0.8402  0.3703 -1.2518
 2062SOL     OW17821   0.896   1.073  13.642  0.2621 -0.4024  0.2916
 2062SOL    HW117822   0.875   1.060  13.550 -0.8153 -0.7316  0.5907
 2062SOL    HW217823   0.983   1.113  13.642 -0.2972  0.7806  1.9983
 2063SOL     OW17824   2.386   4.122   6.643 -0.4353  0.0145  0.1588
 2063SOL    HW117825   2.371   4.028   6.652  2.1518 -0.3912  0.3342
 2063SOL    HW217826   2.329   4.141   6.568  1.5565  0.1863 -1.3068
 2064SOL     OW17827   0.022   3.048   2.146 -0.3297  0.0818 -0.3080
 2064SOL    HW117828   4.666   3.053   2.135 -0.5528  0.6659  1.8945
 2064SOL    HW217829   0.049   2.966   2.105 -1.4256  0.1246 -1.1159
 2065SOL     OW17830   0.061   2.598   3.287  0.3080 -0.2995  0.2348
 2065SOL    HW117831   0.113   2.550   3.223 -1.9653 -0.2379 -1.6848
 2065SOL    HW217832   4.732   2.645   3.238 -0.9910  1.2713  3.4731
 2066SOL     OW17833   3.009   2.429   9.785  0.1487  0.1859  0.2265
 2066SOL    HW117834   3.076   2.362   9.795 -1.3411 -1.3308  0.0805
 2066SOL    HW217835   3.063   2.499   9.821  0.2859 -0.5015  1.3791
 2067SOL     OW17836   2.296   1.218   8.176 -0.0166 -0.1003 -0.0711
 2067SOL    HW117837   2.338   1.257   8.100  1.1190 -1.2249 -0.0149
 2067SOL    HW217838   2.227   1.166   8.136 -0.0212  0.1743 -0.4162
 2068SOL     OW17839   4.336   0.324   3.895  0.4579  0.3872  0.0703
 2068SOL    HW117840   4.264   0.272   3.858  0.2243 -1.0120  2.4896
 2068SOL    HW217841   4.337   0.273   3.976  0.5006 -0.8285 -0.6791
 2069SOL     OW17842   1.106   1.570   7.465  0.1025  0.0476  0.0937
 2069SOL    HW117843   1.057   1.496   7.501  1.2618 -0.2018  1.1888
 2069SOL    HW217844   1.162   1.579   7.543  0.1639  0.1014  0.0432
 2070SOL     OW17845   0.465   3.414  14.255 -0.0534 -0.1125  0.0295
 2070SOL    HW117846   0.558   3.439  14.252  0.0284 -0.4181  0.0433
 2070SOL    HW217847   0.438   3.448  14.170 -1.0979 -0.0817  0.3788
 2071SOL     OW17848   0.907   4.582   3.995 -0.1978 -0.3238  0.1052
 2071SOL    HW117849   0.890   4.632   3.915 -0.3159  1.1013  1.0204
 2071SOL    HW217850   1.001   4.575   4.008  0.1002  0.0404 -1.9255
 2072SOL     OW17851   0.697   4.097   3.267  0.5201 -0.3821  0.4864
 2072SOL    HW117852   0.664   4.171   3.317 -1.5685 -0.6874 -0.4607
 2072SOL    HW217853   0.677   4.111   3.175  2.2107 -0.5725  0.0905
 2073SOL     OW17854   1.667   0.210  11.514 -0.0228 -0.3723 -0.0822
 2073SOL    HW117855   1.736   0.276  11.521 -1.5493  1.0587  1.4076
 2073SOL    HW217856   1.616   0.266  11.456  1.6872  0.6897 -0.5647
 2074SOL     OW17857   2.041   0.411   1.704 -0.0436  0.1515  0.1835
 2074SOL    HW117858   2.074   0.469   1.772  2.0017  0.5196 -1.0930
 2074SOL    HW217859   1.979   0.468   1.659  0.3122  0.6314  0.3068
 2075SOL     OW17860   1.836   2.020   3.675 -0.2065  0.6260  0.0758
 2075SOL    HW117861   1.904   1.998   3.611 -0.9332  0.6428 -0.6983
 2075SOL    HW217862   1.831   2.114   3.658  1.5669  0.4983 -1.1338
 2076SOL     OW17863   0.679   0.413  11.703  0.3430  0.2623  0.5542
 2076SOL    HW117864   0.621   0.488  11.715 -1.1093 -0.5612 -1.3022
 2076SOL    HW217865   0.687   0.380  11.793 -0.5882  0.5745  0.7618
 2077SOL     OW17866   0.963   4.156   3.494  0.0337 -0.0722 -0.0880
 2077SOL    HW117867   0.985   4.238   3.539 -1.7069  1.2707 -1.7045
 2077SOL    HW217868   0.936   4.099   3.565 -0.1910  1.9517  1.4481
 2078SOL     OW17869   4.277   3.688   5.869 -0.0008  0.0487 -0.6755
 2078SOL    HW117870   4.228   3.727   5.941 -0.0116  0.6984 -1.0301
 2078SOL    HW217871   4.347   3.752   5.853  1.8125 -1.7484  0.0600
 2079SOL     OW17872   0.503   2.199   6.667 -0.0776 -0.1109 -0.1901
 2079SOL    HW117873   0.533   2.283   6.633 -0.7052 -0.5742 -1.8607
 2079SOL    HW217874   0.578   2.180   6.724 -2.2499  0.0953  2.7116
 2080SOL     OW17875   3.954   1.041   3.707  0.2005  0.0826 -0.0164
 2080SOL    HW117876   4.032   1.050   3.762  0.9591 -0.6539 -0.9814
 2080SOL    HW217877   3.977   1.100   3.636 -1.1524  0.4807 -0.1143
 2081SOL     OW17878   3.385   3.543   3.016  0.4930 -0.3741  0.1615
 2081SOL    HW117879   3.418   3.468   3.067  0.6184 -1.0309 -0.8847
 2081SOL    HW217880   3.458   3.604   3.009  1.1231 -1.3756 -2.1616
 2082SOL     OW17881   0.499   4.421   8.551  0.7685 -0.5453 -0.5291
 2082SOL    HW117882   0.475   4.506   8.512  2.0167  1.1479  2.3869
 2082SOL    HW217883   0.478   4.423   8.644 -0.9218  1.3541 -0.9355
 2083SOL     OW17884   0.774   4.035  17.009 -0.2628 -0.0326 -0.6200
 2083SOL    HW117885   0.776   3.952  16.962 -1.3468 -0.2395 -0.3063
 2083SOL    HW217886   0.787   4.095  16.936 -0.9478 -0.2753 -0.9407
 2084SOL     OW17887   4.149   3.214   8.985  0.1993 -0.3177  0.4839
 2084SOL    HW117888   4.061   3.176   8.985  1.5266 -3.4717 -1.8128
 2084SOL    HW217889   4.157   3.252   9.072  0.9985  0.4323  0.0823
 2085SOL     OW17890   2.064   1.526   7.059 -0.0095 -0.0652 -0.1065
 2085SOL    HW117891   2.033   1.474   6.984  2.1524 -2.0238  0.3499
 2085SOL    HW217892   2.127   1.590   7.028 -1.0331  0.9017 -0.1875
 2086SOL     OW17893   3.429   0.231   2.523  0.2035 -0.0302  0.8561
 2086SOL    HW117894   3.349   0.180   2.534 -0.2800  0.8262  1.3346
 2086SOL    HW217895   3.479   0.176   2.583  0.7844 -1.2461 -0.7511
 2087SOL     OW17896   4.496   3.144   8.708 -0.1665  0.1193 -0.5045
 2087SOL    HW117897   4.421   3.202   8.701 -1.6771 -1.7234  0.2731
 2087SOL    HW217898   4.465   3.076   8.647 -0.9313 -1.3501  1.5114
 2088SOL     OW17899   1.482   4.639   2.080 -0.3222 -0.2971 -0.7603
 2088SOL    HW117900   1.485   4.565   2.019  2.6792 -0.7970  0.0038
 2088SOL    HW217901   1.553   4.617   2.140  1.1743 -0.0776 -2.4552
 2089SOL     OW17902   4.499   3.051   1.804 -0.2879 -0.2132 -0.5738
 2089SOL    HW117903   4.450   3.130   1.782  0.5255  0.4448 -0.0295
 2089SOL    HW217904   4.489   3.053   1.899  2.1777  0.5401 -0.3227
 2090SOL     OW17905   3.431   2.557   5.442  0.3360  0.2752  0.4244
 2090SOL    HW117906   3.501   2.498   5.472  0.6957  0.6187  0.2587
 2090SOL    HW217907   3.475   2.642   5.449  0.3620  0.1441  1.8737
 2091SOL     OW17908   0.632   1.903  10.058  0.9193  0.0838 -0.2339
 2091SOL    HW117909   0.657   1.861  10.141 -0.6657 -0.0354  0.1894
 2091SOL    HW217910   0.560   1.954  10.094  0.2959 -0.1801 -1.1077
 2092SOL     OW17911   3.485   1.169   6.720 -0.4968 -0.4164  0.2091
 2092SOL    HW117912   3.430   1.220   6.661 -0.0288 -1.3469 -1.0401
 2092SOL    HW217913   3.418   1.160   6.787  0.9859 -0.6618  1.6625
 2093SOL     OW17914   3.469   3.448   5.186  0.0790 -0.2252  0.7096
 2093SOL    HW117915   3.397   3.510   5.193  0.4445  0.4509 -1.5243
 2093SOL    HW217916   3.507   3.469   5.101 -1.1038  0.1962  0.2948
 2094SOL     OW17917   3.902   1.043   4.062 -1.0080 -0.1727 -0.3790
 2094SOL    HW117918   3.895   0.954   4.096  0.6122  0.7346  2.3608
 2094SOL    HW217919   3.891   1.104   4.135 -0.2086  1.2388 -1.4285
 2095SOL     OW17920   2.843   3.625  13.178 -0.1702  0.1371  0.1139
 2095SOL    HW117921   2.886   3.644  13.262  0.8390 -2.3067  0.1542
 2095SOL    HW217922   2.916   3.621  13.116 -0.9189 -0.4351 -0.7350
 2096SOL     OW17923   0.573   2.260  13.377 -0.2546 -0.1637  0.0113
 2096SOL    HW117924   0.536   2.172  13.386  0.8096 -0.7099 -0.8653
 2096SOL    HW217925   0.492   2.312  13.380 -0.9798 -1.3371  0.7185
 2097SOL     OW17926   2.088   2.418   3.353 -1.1557 -0.0536 -0.0376
 2097SOL    HW117927   2.155   2.402   3.419 -2.4045 -1.4117  0.8935
 2097SOL    HW217928   2.096   2.513   3.347 -1.7207 -0.0187 -0.2386
 2098SOL     OW17929   2.132   0.366   5.818  0.2650 -0.3883 -0.5355
 2098SOL    HW117930   2.155   0.295   5.759 -2.6196 -2.0069  0.2426
 2098SOL    HW217931   2.177   0.335   5.897  0.5982 -0.9497 -0.9496
 2099SOL     OW17932   2.445   1.344   4.258  0.5440 -0.3099 -0.1661
 2099SOL    HW117933   2.462   1.436   4.279 -1.5322 -0.4824  2.3020
 2099SOL    HW217934   2.505   1.305   4.322 -0.9048 -1.4759  0.4756
 2100SOL     OW17935   3.515   0.726   2.567  0.0323 -0.6769  0.3362
 2100SOL    HW117936   3.548   0.636   2.566 -0.3933 -0.8471  1.2808
 2100SOL    HW217937   3.542   0.743   2.477 -1.1885  0.9318  0.2754
 2101SOL     OW17938   1.041   1.603   0.483  0.0772 -0.3418  0.3459
 2101SOL    HW117939   0.996   1.520   0.463  0.0383  0.1745 -1.7686
 2101SOL    HW217940   1.009   1.623   0.571 -0.7575  0.2083 -0.0780
 2102SOL     OW17941   2.540   1.149  16.055  0.0051  0.1708 -1.0188
 2102SOL    HW117942   2.470   1.150  16.120  0.1979  0.5513 -0.8136
 2102SOL    HW217943   2.582   1.064  16.070  0.4005  0.2706 -1.5627
 2103SOL     OW17944   4.146   3.168   5.328  0.1497 -0.5785 -0.6589
 2103SOL    HW117945   4.191   3.090   5.293  0.9310 -1.8881  3.2604
 2103SOL    HW217946   4.062   3.132   5.355  0.2237  0.2525  0.6732
 2104SOL     OW17947   4.722   1.585   0.031 -0.3124 -0.1437 -0.2297
 2104SOL    HW117948   4.719   1.509  17.726  1.3251 -1.0389  0.8416
 2104SOL    HW217949   4.634   1.592   0.070 -0.0697  0.1223  0.2675
 2105SOL     OW17950   3.936   1.589  14.374 -1.0549 -0.9764  0.3910
 2105SOL    HW117951   3.999   1.558  14.438  1.6543 -0.1330 -1.8610
 2105SOL    HW217952   3.979   1.656  14.320  0.2958 -1.4790  0.8381
 2106SOL     OW17953   2.311   1.686   7.533  0.1264 -0.1917 -0.3279
 2106SOL    HW117954   2.251   1.626   7.488 -0.5653  2.2201 -2.6279
 2106SOL    HW217955   2.258   1.703   7.612  1.2280  2.9107 -0.2320
 2107SOL     OW17956   0.418   4.411   2.148 -0.1457 -0.1178  0.9262
 2107SOL    HW117957   0.434   4.398   2.054 -1.6064 -0.2991  0.7049
 2107SOL    HW217958   0.399   4.322   2.179 -0.1710 -0.0188  1.1931
 2108SOL     OW17959   1.546   3.658   2.818  0.5860 -0.1339  0.3571
 2108SOL    HW117960   1.537   3.728   2.753  0.0941  1.0151  1.6786
 2108SOL    HW217961   1.455   3.646   2.843  0.4775  1.3268  0.6123
 2109SOL     OW17962   1.082   0.609   0.419  0.5863 -0.7589 -0.0328
 2109SOL    HW117963   1.149   0.621   0.351  1.6525  0.4852  1.2326
 2109SOL    HW217964   1.009   0.571   0.370 -0.5681  0.7862  0.4975
 2110SOL     OW17965   0.529   1.455   1.532 -0.2071  0.1198 -1.4320
 2110SOL    HW117966   0.487   1.369   1.525  0.9796 -0.5651 -0.1590
 2110SOL    HW217967   0.622   1.431   1.537 -0.7060 -1.9169 -1.5734
 2111SOL     OW17968   1.478   0.210   8.863  0.4679  0.0102  0.5392
 2111SOL    HW117969   1.454   0.185   8.953  1.1872  1.7462  1.2253
 2111SOL    HW217970   1.536   0.135   8.849  0.9096  0.7601 -1.5488
 2112SOL     OW17971   4.626   1.716   1.248  0.4321 -0.1734 -0.5408
 2112SOL    HW117972   4.579   1.638   1.278 -0.4178 -0.1164 -1.7251
 2112SOL    HW217973   4.682   1.675   1.182  1.0618 -2.4426  1.4263
 2113SOL     OW17974   2.104   0.766   4.618  0.3875  0.0232 -0.1226
 2113SOL    HW117975   2.175   0.722   4.570  0.6228  0.0680  0.1889
 2113SOL    HW217976   2.161   0.840   4.638 -0.4147  0.7747 -0.6326
 2114SOL     OW17977   1.356   1.285   3.175 -0.1860  0.1489 -0.6108
 2114SOL    HW117978   1.335   1.245   3.260  1.0922 -1.3645 -1.0027
 2114SOL    HW217979   1.326   1.211   3.123  1.4540 -0.1598 -1.1304
 2115SOL     OW17980   4.119   4.192   5.212 -0.1631 -0.0683 -0.0017
 2115SOL    HW117981   4.048   4.184   5.148 -0.8782 -0.1652  0.7991
 2115SOL    HW217982   4.078   4.242   5.283  0.5266  0.4940  0.0001
 2116SOL     OW17983   1.945   2.360   5.782  0.6011 -0.0482 -0.5382
 2116SOL    HW117984   1.935   2.355   5.877  0.7322  1.2591 -0.4659
 2116SOL    HW217985   1.898   2.441   5.766 -0.1394 -0.1482  1.1265
 2117SOL     OW17986   0.647   4.162   7.293 -0.2201  1.1691 -0.8431
 2117SOL    HW117987   0.674   4.071   7.303 -3.1064  0.5442  1.2950
 2117SOL    HW217988   0.620   4.190   7.381  0.7025  0.3892 -0.3130
 2118SOL     OW17989   3.719   2.178   3.171 -0.0742  0.0188  1.0725
 2118SOL    HW117990   3.639   2.135   3.142 -0.5279  0.6616  1.3712
 2118SOL    HW217991   3.732   2.151   3.262  1.2978 -2.3815  0.1737
 2119SOL     OW17992   4.180   1.821   8.947  0.5995 -0.1571 -0.6448
 2119SOL    HW117993   4.224   1.894   8.904 -0.3982  1.4068  0.9949
 2119SOL    HW217994   4.221   1.818   9.034 -0.3638  0.0261 -0.1826
 2120SOL     OW17995   2.316   0.863   1.851  0.0749  0.1247  0.0420
 2120SOL    HW117996   2.386   0.919   1.884 -0.6473 -0.0083  1.8261
 2120SOL    HW217997   2.246   0.907   1.899 -2.0400 -3.7393  0.4878
 2121SOL     OW17998   1.033   2.562   1.174  0.1023 -0.1576 -0.6759
 2121SOL    HW117999   1.075   2.638   1.215 -2.1740  0.8289 -0.1770
 2121SOL    HW218000   1.045   2.586   1.082  0.5850 -0.1745 -0.6167
 2122SOL     OW18001   1.276   4.104  16.529 -0.3781 -0.5969 -0.2153
 2122SOL    HW118002   1.197   4.158  16.527  0.4003  0.6018  2.2648
 2122SOL    HW218003   1.339   4.158  16.576 -1.9331  1.9978 -1.1559
 2123SOL     OW18004   3.773   0.126   2.552  0.9243 -0.6209 -0.3803
 2123SOL    HW118005   3.804   0.156   2.466  0.5408  1.3608  0.1881
 2123SOL    HW218006   3.824   0.045   2.548 -1.3539 -2.0271 -1.0068
 2124SOL     OW18007   4.232   3.445   8.580  0.3350 -0.2984  0.0815
 2124SOL    HW118008   4.206   3.371   8.634  0.4927  1.7396  2.9391
 2124SOL    HW218009   4.283   3.495   8.643  1.8515  0.4640 -1.7619
 2125SOL     OW18010   1.988   2.886   7.831 -0.4340  0.4277 -0.0459
 2125SOL    HW118011   2.020   2.898   7.921  0.9581  0.6414 -0.5825
 2125SOL    HW218012   1.926   2.814   7.841 -0.2609  0.4172  0.9793
 2126SOL     OW18013   0.309   1.553   7.493 -0.4782 -0.8814 -0.1307
 2126SOL    HW118014   0.314   1.598   7.408 -2.7982 -2.2392 -0.9890
 2126SOL    HW218015   0.369   1.603   7.548  0.7458 -1.4074 -0.9832
 2127SOL     OW18016   3.755   1.237  13.476 -0.1591 -0.2301 -0.3481
 2127SOL    HW118017   3.787   1.271  13.560 -1.6498  0.1465  0.0782
 2127SOL    HW218018   3.702   1.308  13.440 -1.8925 -0.9911  0.6757
 2128SOL     OW18019   0.773   4.332   5.206  0.3480 -0.4070 -0.1676
 2128SOL    HW118020   0.760   4.394   5.134 -1.7882 -1.4998 -0.7182
 2128SOL    HW218021   0.861   4.306   5.178  0.5601  0.8528 -0.6976
 2129SOL     OW18022   1.678   4.703   3.421  0.5007  0.3148 -0.2192
 2129SOL    HW118023   1.763   4.737   3.391 -0.1440  2.5097  0.4527
 2129SOL    HW218024   1.640   0.052   3.417 -0.0764  0.0773  0.0848
 2130SOL     OW18025   1.083   1.490   1.302 -0.0824 -0.1266 -0.4661
 2130SOL    HW118026   1.046   1.503   1.389 -1.2199 -1.7130 -0.7162
 2130SOL    HW218027   1.102   1.583   1.284 -1.4823  0.1212 -0.6670
 2131SOL     OW18028   0.472   1.202   0.230  0.1150  0.2574 -0.3283
 2131SOL    HW118029   0.479   1.292   0.260  0.1486  0.7294 -1.7596
 2131SOL    HW218030   0.484   1.218   0.136  0.0676 -0.0567 -0.3891
 2132SOL     OW18031   2.261   1.881   8.802 -0.1333  0.0592  0.2719
 2132SOL    HW118032   2.285   1.956   8.857 -2.7946  1.1949 -0.1113
 2132SOL    HW218033   2.314   1.808   8.832  0.4566  0.6565  0.6827
 2133SOL     OW18034   1.993   4.348   4.026  0.3713 -0.1973 -0.0002
 2133SOL    HW118035   2.031   4.371   4.110  1.1161 -0.0682 -0.3778
 2133SOL    HW218036   2.051   4.409   3.981 -1.7178  1.3153 -0.6431
 2134SOL     OW18037   2.326   3.677   6.250 -0.0503 -0.3995  0.2464
 2134SOL    HW118038   2.405   3.634   6.219  0.9080  1.5757 -0.0220
 2134SOL    HW218039   2.296   3.619   6.321 -0.4404 -0.0429  0.3762
 2135SOL     OW18040   0.734   3.359   4.013  0.0548 -0.7514 -0.2428
 2135SOL    HW118041   0.670   3.307   3.965 -0.8418  0.2233 -0.0931
 2135SOL    HW218042   0.822   3.343   3.978  0.7127  3.7084 -0.6580
 2136SOL     OW18043   4.190   3.293   9.587 -0.2201 -0.2233 -0.2996
 2136SOL    HW118044   4.204   3.316   9.679 -2.2114 -0.2763  0.0225
 2136SOL    HW218045   4.235   3.209   9.588  0.3972  0.1057  0.0768
 2137SOL     OW18046   3.822   4.301  12.813 -0.3927  0.4251  0.9556
 2137SOL    HW118047   3.829   4.348  12.729 -0.9418 -0.9151  0.1561
 2137SOL    HW218048   3.812   4.370  12.879  0.0294  0.7799  0.6527
 2138SOL     OW18049   4.317   1.765  11.242  0.1178  0.2574 -0.4454
 2138SOL    HW118050   4.383   1.779  11.310  0.7849 -2.3147 -0.5542
 2138SOL    HW218051   4.290   1.853  11.219 -2.1428  0.1788  1.9066
 2139SOL     OW18052   1.908   1.074   9.412  0.4211 -0.3543  0.4030
 2139SOL    HW118053   1.888   0.991   9.456  0.7475 -0.0789  1.0526
 2139SOL    HW218054   1.989   1.098   9.457  0.8969 -0.1525 -0.5456
 2140SOL     OW18055   1.807   1.579  15.995 -0.2422 -0.1407 -0.5935
 2140SOL    HW118056   1.799   1.593  16.089  1.0381 -0.6423 -0.4190
 2140SOL    HW218057   1.835   1.664  15.961 -0.2734 -0.7853 -2.2281
 2141SOL     OW18058   0.188   1.147  12.974 -0.1301  0.6577 -0.3179
 2141SOL    HW118059   0.097   1.119  12.960  0.1346 -0.4268  0.1525
 2141SOL    HW218060   0.215   1.072  13.027 -0.1912  0.9443  0.1272
 2142SOL     OW18061   3.905   4.320   4.667 -0.2675  0.5016 -0.2872
 2142SOL    HW118062   3.848   4.323   4.590 -1.0781 -1.9713  0.2137
 2142SOL    HW218063   3.837   4.327   4.734  0.2251  0.7838  0.1854
 2143SOL     OW18064   4.123   1.105   7.985 -0.5939  0.0515 -0.3677
 2143SOL    HW118065   4.116   1.199   7.997 -1.3041  0.1381 -1.5253
 2143SOL    HW218066   4.112   1.095   7.891 -1.6293  1.7183 -0.4139
 2144SOL     OW18067   1.753   0.449  13.819  0.1206  0.1091 -0.2423
 2144SOL    HW118068   1.692   0.515  13.851 -1.2749 -0.3831 -1.8853
 2144SOL    HW218069   1.696   0.372  13.808  0.0803  0.2232 -0.8400
 2145SOL     OW18070   0.376   3.588   9.869  0.4587  0.2528  0.2766
 2145SOL    HW118071   0.344   3.634   9.946  0.1981 -0.5329  0.6410
 2145SOL    HW218072   0.323   3.622   9.797  0.4085 -1.7014 -0.6168
 2146SOL     OW18073   2.573   4.715   2.062  0.6700 -0.0583 -0.6549
 2146SOL    HW118074   2.653   4.731   2.113 -0.4015 -1.0432  1.3372
 2146SOL    HW218075   2.530   0.060   2.077 -0.9360 -1.1491  0.8123
 2147SOL     OW18076   3.554   3.018   1.952  0.5469 -0.3474  0.6017
 2147SOL    HW118077   3.485   2.958   1.925  0.9897 -0.8342  0.5471
 2147SOL    HW218078   3.593   2.973   2.027 -1.6548  1.0448  2.5743
 2148SOL     OW18079   4.243   3.330   7.950 -0.0627  0.8171 -0.3951
 2148SOL    HW118080   4.273   3.239   7.959  1.5030  1.1807 -1.9660
 2148SOL    HW218081   4.267   3.359   7.862  2.7542 -1.6173 -0.4637
 2149SOL     OW18082   4.467   1.866   3.261 -0.6844 -0.5211  0.2168
 2149SOL    HW118083   4.558   1.866   3.232 -0.5890 -0.8506  0.5213
 2149SOL    HW218084   4.454   1.961   3.271 -0.7804 -0.5968  0.7838
 2150SOL     OW18085   4.264   0.769   7.206 -0.4492 -0.0782  0.2863
 2150SOL    HW118086   4.294   0.724   7.285  3.3568 -0.7229 -1.5414
 2150SOL    HW218087   4.330   0.837   7.191 -0.0687 -0.0926  1.8463
 2151SOL     OW18088   1.409   1.133   5.314  0.1160 -0.1807 -0.1890
 2151SOL    HW118089   1.429   1.079   5.391  0.1953  0.9090  0.5486
 2151SOL    HW218090   1.328   1.088   5.289  0.2982 -1.1579  1.0055
 2152SOL     OW18091   0.341   2.412   9.741 -0.5161  0.0882  0.0431
 2152SOL    HW118092   0.422   2.381   9.783 -0.3095  2.4711  1.3590
 2152SOL    HW218093   0.292   2.330   9.752  0.2009 -0.7585 -3.1068
 2153SOL     OW18094   4.417   1.168   9.795  0.2707  0.6068 -0.0121
 2153SOL    HW118095   4.486   1.163   9.728  0.6625  2.6309  0.2303
 2153SOL    HW218096   4.408   1.078   9.825 -2.2171  0.3132 -1.6656
 2154SOL     OW18097   1.649   0.928   5.229  0.4196  0.5975 -0.0418
 2154SOL    HW118098   1.581   0.969   5.176  0.4318  0.9665  0.2255
 2154SOL    HW218099   1.645   0.979   5.311  1.3496  2.2943 -1.0341
 2155SOL     OW18100   0.424   2.140   3.014 -0.0090 -0.3402 -0.0275
 2155SOL    HW118101   0.373   2.168   2.937  0.6474  0.9421 -0.0037
 2155SOL    HW218102   0.470   2.068   2.972  1.2202 -0.2923  1.2591
 2156SOL     OW18103   3.923   2.630  10.129 -0.2166 -0.1523  0.3480
 2156SOL    HW118104   3.916   2.684  10.208 -0.2089  0.5736 -0.1509
 2156SOL    HW218105   3.901   2.690  10.058 -0.3692 -0.1531  0.3956
 2157SOL     OW18106   3.151   0.887  13.190  0.0320  0.6588 -0.3818
 2157SOL    HW118107   3.150   0.869  13.096  2.3268 -1.0818 -0.0694
 2157SOL    HW218108   3.244   0.901  13.208  0.0657  1.1297 -0.9067
 2158SOL     OW18109   0.792   4.106  15.892 -0.0799 -0.2963  0.6808
 2158SOL    HW118110   0.855   4.039  15.866 -0.7991 -1.0220  0.8214
 2158SOL    HW218111   0.706   4.083  15.859  0.6456 -2.7924  0.5245
 2159SOL     OW18112   1.130   0.213   1.508 -0.3608  0.1379 -0.0300
 2159SOL    HW118113   1.124   0.142   1.572 -1.2390 -0.3053 -0.6078
 2159SOL    HW218114   1.079   0.178   1.435  0.2698 -0.1563 -0.3352
 2160SOL     OW18115   4.045   0.131   0.267  0.2081  0.4798  0.0453
 2160SOL    HW118116   4.122   0.145   0.212  0.1202  0.1584 -0.1607
 2160SOL    HW218117   4.094   0.117   0.348 -0.2088  3.9326  0.8705
 2161SOL     OW18118   3.810   0.214   7.444  0.2295 -0.6997 -0.6194
 2161SOL    HW118119   3.873   0.285   7.459 -0.8508  0.3206 -0.9106
 2161SOL    HW218120   3.742   0.259   7.394 -1.1165 -0.3040  1.6077
 2162SOL     OW18121   2.513   4.319   6.268 -0.1440 -0.4330 -0.1510
 2162SOL    HW118122   2.455   4.383   6.309 -0.8383  0.6832 -2.8841
 2162SOL    HW218123   2.467   4.301   6.185 -2.5511  0.9808  0.8773
 2163SOL     OW18124   0.099   1.090   3.547 -0.2778  0.3903 -0.3394
 2163SOL    HW118125   0.006   1.076   3.527 -0.3411 -1.3472  1.2650
 2163SOL    HW218126   0.127   1.129   3.464 -0.7448  0.8434 -0.2870
 2164SOL     OW18127   0.722   3.809   8.766 -0.4690  0.1772 -0.1476
 2164SOL    HW118128   0.682   3.850   8.843  0.4051 -0.1462  0.4779
 2164SOL    HW218129   0.689   3.719   8.774  0.8574 -0.3220 -0.2184
 2165SOL     OW18130   1.478   2.408  16.607 -0.6055  0.9029 -0.6136
 2165SOL    HW118131   1.416   2.339  16.629  0.7540  0.4934  1.9136
 2165SOL    HW218132   1.445   2.416  16.517 -1.1562  1.5754 -0.3543
 2166SOL     OW18133   2.797   2.690   2.315  0.3646 -0.2126  0.0171
 2166SOL    HW118134   2.713   2.719   2.281  0.2326 -1.8983 -1.0966
 2166SOL    HW218135   2.790   2.704   2.410 -1.4588  0.1705 -0.1841
 2167SOL     OW18136   3.617   4.564   7.223 -0.3343  1.0715 -0.5569
 2167SOL    HW118137   3.600   4.654   7.196 -1.5806  0.3922 -2.0045
 2167SOL    HW218138   3.541   4.513   7.196  0.0677 -0.0241  0.3471
 2168SOL     OW18139   4.369   4.301   2.897 -0.1253  0.6830  0.1935
 2168SOL    HW118140   4.367   4.375   2.835  0.6011  0.6620  0.1456
 2168SOL    HW218141   4.436   4.336   2.956  0.1692 -1.7262  1.2664
 2169SOL     OW18142   3.486   4.555  11.003  0.6098 -0.4989  0.6866
 2169SOL    HW118143   3.391   4.564  11.013  0.7406  1.7049  0.0046
 2169SOL    HW218144   3.506   4.626  11.064  1.3904  0.0904 -0.2488
 2170SOL     OW18145   2.684   0.953   7.007 -0.2655 -0.2231 -0.3180
 2170SOL    HW118146   2.735   1.021   6.964 -0.3995  0.6494  0.8782
 2170SOL    HW218147   2.734   0.948   7.089  2.5948  1.0258 -1.9758
 2171SOL     OW18148   2.072   3.666   3.835 -0.2961  0.2888  0.7275
 2171SOL    HW118149   1.982   3.696   3.845 -0.1834  0.7653  0.3124
 2171SOL    HW218150   2.112   3.634   3.916  0.8190  2.9754  1.2481
 2172SOL     OW18151   3.184   2.757   2.719  0.0989  0.4935 -0.4616
 2172SOL    HW118152   3.257   2.817   2.704 -0.4188  0.9595 -1.0938
 2172SOL    HW218153   3.179   2.760   2.815 -0.5109  0.0984 -0.4862
 2173SOL     OW18154   1.082   4.038   8.967 -0.6653  0.1239 -0.2363
 2173SOL    HW118155   1.140   4.088   9.025 -0.0241 -0.6617 -0.2017
 2173SOL    HW218156   1.043   4.099   8.904  0.2894 -0.2240 -1.1536
 2174SOL     OW18157   1.015   3.282  13.105  0.8377 -0.0071  0.5156
 2174SOL    HW118158   1.107   3.279  13.129  1.6796 -0.0395 -2.6987
 2174SOL    HW218159   0.991   3.375  13.111  2.1587  0.5592 -2.8613
 2175SOL     OW18160   3.826   4.198   7.980  0.2825 -0.2128 -0.5106
 2175SOL    HW118161   3.898   4.260   7.969 -0.6012  0.4954 -2.2074
 2175SOL    HW218162   3.755   4.263   7.980 -0.8518 -1.4302  2.0717
 2176SOL     OW18163   3.289   0.200  11.300 -0.3730  0.2042  0.4031
 2176SOL    HW118164   3.285   0.178  11.394  1.1675 -0.8414  0.2217
 2176SOL    HW218165   3.305   0.113  11.263  0.6780  0.5928 -0.0411
 2177SOL     OW18166   1.994   3.427   5.955 -0.1482 -0.0218  0.1538
 2177SOL    HW118167   2.035   3.434   5.869 -0.1927  0.2331  0.1545
 2177SOL    HW218168   2.043   3.352   5.987 -0.3844 -0.7146 -1.0936
 2178SOL     OW18169   1.581   0.176  11.942  0.4841 -0.5959 -0.0728
 2178SOL    HW118170   1.497   0.145  11.975  0.4008 -0.0962  0.1876
 2178SOL    HW218171   1.619   0.098  11.902  2.8703  0.8721 -0.6784
 2179SOL     OW18172   0.971   0.729   9.295  0.2475 -0.3319 -0.1976
 2179SOL    HW118173   0.982   0.820   9.320 -0.7082  0.1610 -1.5644
 2179SOL    HW218174   0.882   0.721   9.329 -0.2370 -0.9625 -1.5974
 2180SOL     OW18175   1.615   4.687   7.293  0.1823 -0.1193 -0.1941
 2180SOL    HW118176   1.673   4.611   7.285  0.8751  0.5456 -1.3689
 2180SOL    HW218177   1.588   4.690   7.385  0.4604 -0.0073 -0.1150
 2181SOL     OW18178   2.864   1.289   9.434 -0.3818 -0.0614  0.1083
 2181SOL    HW118179   2.886   1.301   9.342  0.5957 -2.5096  0.0361
 2181SOL    HW218180   2.815   1.368   9.455 -2.1472 -0.9487 -0.7236
 2182SOL     OW18181   3.087   1.775   7.880 -0.3229  0.0906  0.3626
 2182SOL    HW118182   3.063   1.855   7.833 -0.9346 -0.5542 -0.4324
 2182SOL    HW218183   3.029   1.713   7.837 -0.4622  1.7676 -1.9010
 2183SOL     OW18184   2.356   2.329   7.602 -0.0043  0.1361  0.1385
 2183SOL    HW118185   2.304   2.251   7.622 -0.0775 -0.2846 -1.6788
 2183SOL    HW218186   2.319   2.361   7.519 -4.0079  0.6471  2.1110
 2184SOL     OW18187   4.350   2.377  10.003  0.2241  0.4612 -0.0109
 2184SOL    HW118188   4.266   2.394  10.046  0.1281 -1.1479  0.4422
 2184SOL    HW218189   4.377   2.297  10.049 -0.4293  0.9245  1.1783
 2185SOL     OW18190   3.591   4.685  15.996  0.2118  0.5992 -0.2355
 2185SOL    HW118191   3.535   4.702  15.920 -0.5019  1.2185  0.4295
 2185SOL    HW218192   3.532   4.674  16.071  0.3751 -1.2063 -0.3775
 2186SOL     OW18193   1.577   1.269  13.233  0.2861  0.2840 -0.2976
 2186SOL    HW118194   1.564   1.345  13.176  0.3246  0.3608 -0.2060
 2186SOL    HW218195   1.577   1.312  13.319  0.1810 -1.5431  0.6208
 2187SOL     OW18196   3.069   1.246   6.464 -0.2493  0.0581  0.0741
 2187SOL    HW118197   3.061   1.151   6.471 -0.2127 -0.2510 -4.0003
 2187SOL    HW218198   3.050   1.269   6.373 -1.7046 -1.0837  0.0954
 2188SOL     OW18199   0.574   2.601   1.977  0.5054 -0.0260  0.2615
 2188SOL    HW118200   0.602   2.550   2.053 -0.7206 -0.3535  0.4916
 2188SOL    HW218201   0.572   2.689   2.016  0.2267  0.5899 -1.1372
 2189SOL     OW18202   2.434   0.723   7.876  0.1953 -0.6986 -0.6171
 2189SOL    HW118203   2.430   0.691   7.966 -0.6975 -0.2911 -0.5118
 2189SOL    HW218204   2.342   0.724   7.848  0.7156 -0.6319 -2.3552
 2190SOL     OW18205   2.447   4.611   4.683  0.1881  0.0351  0.3480
 2190SOL    HW118206   2.447   4.705   4.663  1.6637 -0.4288 -1.7575
 2190SOL    HW218207   2.376   4.613   4.748  0.9553 -0.6575  1.2034
 2191SOL     OW18208   2.150   4.155   6.032  0.1994  0.1807 -0.1337
 2191SOL    HW118209   2.091   4.144   5.957 -1.7585  1.8500  1.1531
 2191SOL    HW218210   2.136   4.079   6.087  1.7083 -0.3784 -0.5272
 2192SOL     OW18211   4.316   3.720   6.410  0.5407 -0.4109  0.3190
 2192SOL    HW118212   4.271   3.639   6.433  1.1734 -0.8444  0.0558
 2192SOL    HW218213   4.403   3.687   6.385 -0.9694 -3.2022 -1.3463
 2193SOL     OW18214   0.379   4.470   3.157  0.5801 -0.4752  0.0013
 2193SOL    HW118215   0.330   4.441   3.234 -0.2115  0.3350 -0.1982
 2193SOL    HW218216   0.443   4.515   3.213  1.0966 -0.6831 -0.4286
 2194SOL     OW18217   2.726   2.947   7.576 -0.3383  0.1969 -0.2149
 2194SOL    HW118218   2.791   2.893   7.620 -1.1257  0.4566  1.2731
 2194SOL    HW218219   2.726   2.915   7.486  1.4265  0.6833 -0.3956
 2195SOL     OW18220   4.367   1.509  17.059  0.2362 -0.4190 -0.3987
 2195SOL    HW118221   4.338   1.525  16.970  1.5776  1.5821 -0.4568
 2195SOL    HW218222   4.294   1.450  17.077 -1.2552  0.6688 -2.9117
 2196SOL     OW18223   0.093   3.077  10.233 -0.3236  0.2221 -0.3830
 2196SOL    HW118224   0.161   3.141  10.255 -0.0640 -0.7577  1.6940
 2196SOL    HW218225   0.135   2.999  10.271 -3.0322 -0.6524  0.8083
 2197SOL     OW18226   4.656   3.765   8.514 -0.6015  0.1876 -0.0892
 2197SOL    HW118227   4.624   3.694   8.568  1.7551 -2.9050 -2.7535
 2197SOL    HW218228   4.659   3.722   8.428 -0.7937  1.1790 -0.5973
 2198SOL     OW18229   4.131   4.661   4.541  0.0948 -0.6736  0.0533
 2198SOL    HW118230   4.098   4.709   4.617  2.5981  0.1171  0.6304
 2198SOL    HW218231   4.053   4.655   4.485  0.5413 -1.7879 -0.4432
 2199SOL     OW18232   0.098   3.837   6.358  0.5388  0.2259 -0.3094
 2199SOL    HW118233   0.096   3.892   6.280  0.2326  0.1741 -0.3408
 2199SOL    HW218234   0.002   3.829   6.363  0.5057  1.1392  0.6641
 2200SOL     OW18235   3.424   0.094   5.822 -0.2582  0.0850 -0.2747
 2200SOL    HW118236   3.517   0.100   5.802  0.1451 -0.2414  1.5610
 2200SOL    HW218237   3.411   0.057   5.909  0.2088  0.4207 -0.0649
 2201SOL     OW18238   3.566   4.503   4.027  0.3122 -0.2065 -0.4113
 2201SOL    HW118239   3.630   4.434   4.010 -0.8363 -0.9498 -1.6468
 2201SOL    HW218240   3.621   4.559   4.083 -1.3421  1.9953 -1.0019
 2202SOL     OW18241   1.089   1.397   8.464 -0.2719 -0.6929  0.5671
 2202SOL    HW118242   1.073   1.351   8.547  2.3211  0.3956  1.6763
 2202SOL    HW218243   1.002   1.380   8.429  0.1355  0.1398 -0.8183
 2203SOL     OW18244   1.095   1.028   0.035 -0.2928 -0.1251  0.7704
 2203SOL    HW118245   1.187   1.021   0.011 -0.6807 -0.0431 -0.7359
 2203SOL    HW218246   1.056   1.008  17.704 -0.8396 -0.9957  1.2231
 2204SOL     OW18247   1.010   0.910   1.283 -0.4697  0.1668  0.1475
 2204SOL    HW118248   1.036   1.002   1.293  0.7841  0.1139 -2.5477
 2204SOL    HW218249   0.963   0.914   1.200  0.9523  1.3838 -0.6221
 2205SOL     OW18250   1.015   2.551  14.289 -0.2858 -0.4484 -0.0271
 2205SOL    HW118251   0.993   2.534  14.197 -1.8238  1.3363  0.0129
 2205SOL    HW218252   0.929   2.540  14.330 -0.7853  1.9461 -0.4319
 2206SOL     OW18253   0.136   2.256   9.469 -0.5441  0.2036  0.0029
 2206SOL    HW118254   0.140   2.230   9.561  0.1068  0.7353  0.1222
 2206SOL    HW218255   0.230   2.244   9.453 -0.7009  0.6786 -1.3243
 2207SOL     OW18256   0.113   0.178   9.783  0.4279 -0.6741 -0.1169
 2207SOL    HW118257   0.075   0.164   9.697  2.4867  2.4490 -1.5351
 2207SOL    HW218258   0.089   0.098   9.830  2.1667 -1.9172 -1.3370
 2208SOL     OW18259   2.388   0.447  15.080 -0.4418  0.1474 -0.0677
 2208SOL    HW118260   2.315   0.388  15.098  0.4632 -0.6617  0.9134
 2208SOL    HW218261   2.349   0.526  15.043 -1.6345 -0.0898  0.6971
 2209SOL     OW18262   4.408   1.834   0.820 -0.1890  0.3492 -0.2614
 2209SOL    HW118263   4.403   1.929   0.805  0.0620  0.5444  0.9081
 2209SOL    HW218264   4.410   1.826   0.915  0.5642  1.2967 -0.2027
 2210SOL     OW18265   3.410   0.294   0.343  0.1623  0.1651 -0.3773
 2210SOL    HW118266   3.337   0.319   0.400 -0.5101  2.0936 -2.0974
 2210SOL    HW218267   3.370   0.269   0.260  0.5783 -2.7421  0.3010
 2211SOL     OW18268   3.103   4.200  11.379  0.0452 -0.4631  0.0097
 2211SOL    HW118269   3.040   4.130  11.396  2.8900 -2.4690  2.2374
 2211SOL    HW218270   3.084   4.253  11.456  0.5499 -0.8443  0.3958
 2212SOL     OW18271   0.693   4.056   5.028 -0.3180  0.3134  0.3486
 2212SOL    HW118272   0.671   4.149   5.029 -1.9059 -0.0748  1.3050
 2212SOL    HW218273   0.788   4.056   5.015 -0.5054 -1.6073 -1.0872
 2213SOL     OW18274   2.773   3.789   6.892 -0.0824  0.4468 -0.1238
 2213SOL    HW118275   2.680   3.797   6.871  0.1520  1.1265 -0.8574
 2213SOL    HW218276   2.797   3.703   6.859 -2.5183 -0.1953 -0.2476
 2214SOL     OW18277   4.085   0.953   2.131  0.6129 -1.0266  0.0236
 2214SOL    HW118278   4.058   0.861   2.128 -0.8409 -0.5368 -2.3057
 2214SOL    HW218279   4.165   0.944   2.183  0.4604 -0.0823  0.4191
 2215SOL     OW18280   1.889   2.739   2.879 -0.4265  0.2907  0.5928
 2215SOL    HW118281   1.840   2.695   2.810 -0.3217 -0.3442  0.9158
 2215SOL    HW218282   1.880   2.686   2.958 -0.2401  1.0833  1.1436
 2216SOL     OW18283   2.220   3.561   1.344 -0.2225  0.3255 -0.1722
 2216SOL    HW118284   2.297   3.548   1.288  0.6230  0.2716  1.0130
 2216SOL    HW218285   2.188   3.644   1.309 -1.7806  0.4710  1.6123
 2217SOL     OW18286   3.454   2.511  10.545  0.1733 -0.2809  0.0501
 2217SOL    HW118287   3.479   2.551  10.628 -0.6576  1.9754 -0.8121
 2217SOL    HW218288   3.361   2.519  10.566  0.2852 -0.6258  0.6790
 2218SOL     OW18289   0.730   3.310   6.377 -0.3289  0.1237  0.3058
 2218SOL    HW118290   0.769   3.391   6.408 -0.2758 -0.1412  0.9328
 2218SOL    HW218291   0.641   3.336   6.357 -1.1058 -1.5778  1.4867
 2219SOL     OW18292   3.625   2.550   3.632 -0.2338  0.3408  0.0640
 2219SOL    HW118293   3.643   2.470   3.583  0.2006 -0.3582  1.3577
 2219SOL    HW218294   3.566   2.597   3.574  1.9452 -1.0253 -3.2333
 2220SOL     OW18295   3.569   2.622  12.876  0.0057 -0.2267 -0.0534
 2220SOL    HW118296   3.591   2.556  12.810 -0.2600 -0.9582  0.5939
 2220SOL    HW218297   3.648   2.620  12.930  0.7246 -0.1644 -1.1067
 2221SOL     OW18298   2.821   1.804   4.430  0.2446  0.5001  0.0490
 2221SOL    HW118299   2.806   1.737   4.364  1.4377  0.3544 -0.0816
 2221SOL    HW218300   2.834   1.876   4.368  2.7521 -0.9733 -1.1432
 2222SOL     OW18301   2.440   2.828   6.143 -0.0486 -0.1255 -0.1369
 2222SOL    HW118302   2.357   2.851   6.185  0.4592  0.4314  0.5902
 2222SOL    HW218303   2.424   2.876   6.062  2.0139  0.0616 -0.4279
 2223SOL     OW18304   2.912   0.085   3.339  0.1279  0.2586  0.2141
 2223SOL    HW118305   2.893   0.081   3.245 -0.3870 -1.2774  0.3924
 2223SOL    HW218306   2.987   0.025   3.341  0.2017  0.3370 -0.0910
 2224SOL     OW18307   3.639   4.246   2.355 -0.4625 -0.2914  0.0436
 2224SOL    HW118308   3.731   4.272   2.362  0.4214 -3.0922 -0.9384
 2224SOL    HW218309   3.634   4.225   2.262  0.8114 -1.7598  0.3132
 2225SOL     OW18310   4.637   0.173   2.160 -0.2577  0.2180 -0.4131
 2225SOL    HW118311   4.612   0.111   2.229  0.0969  1.3422  0.7378
 2225SOL    HW218312   4.668   0.106   2.099 -0.0079  0.5678 -0.6629
 2226SOL     OW18313   0.576   2.099   1.880 -0.4658 -0.2774 -0.1334
 2226SOL    HW118314   0.491   2.138   1.860  1.4365  3.3627 -1.1000
 2226SOL    HW218315   0.588   2.035   1.810  0.2408  0.6394 -0.8419
 2227SOL     OW18316   3.976   2.016  14.651  0.3344  0.2396  0.6303
 2227SOL    HW118317   3.955   2.103  14.686 -1.3859 -0.5427  1.5489
 2227SOL    HW218318   3.892   1.973  14.667 -0.3037  0.0911 -3.1242
 2228SOL     OW18319   1.423   2.918   4.831 -0.1744 -0.1856  0.1410
 2228SOL    HW118320   1.376   3.000   4.840 -1.3508 -0.8244 -0.2249
 2228SOL    HW218321   1.514   2.943   4.849 -0.0571 -0.1979 -0.4284
 2229SOL     OW18322   4.027   2.211  16.634  0.0733  0.5423  0.1957
 2229SOL    HW118323   4.047   2.175  16.720  1.0778  4.0855  1.4371
 2229SOL    HW218324   4.092   2.280  16.627  1.2629 -0.5227  0.7511
 2230SOL     OW18325   1.118   3.051   0.705 -0.2584  0.4110 -0.2735
 2230SOL    HW118326   1.176   3.110   0.753 -0.2397  0.7120 -0.6595
 2230SOL    HW218327   1.166   2.971   0.726  1.9947  1.4055 -1.5823
 2231SOL     OW18328   1.655   1.482  15.582 -0.7156  0.9277  0.8395
 2231SOL    HW118329   1.750   1.478  15.568 -1.2923  1.8664 -3.2865
 2231SOL    HW218330   1.627   1.567  15.550  1.1598  0.9137 -0.9247
 2232SOL     OW18331   0.200   0.768   8.129 -0.0243  0.7669 -0.0851
 2232SOL    HW118332   0.165   0.684   8.098  1.1410  0.0654  0.4963
 2232SOL    HW218333   0.229   0.738   8.215  1.5316  0.3431 -0.7756
 2233SOL     OW18334   3.789   3.223   9.188  0.1750 -0.1621 -0.3333
 2233SOL    HW118335   3.854   3.180   9.244  1.0717  1.8068  0.1133
 2233SOL    HW218336   3.781   3.308   9.230 -0.2605 -0.1203 -0.5038
 2234SOL     OW18337   0.189   0.419   7.460 -0.0051 -0.1661 -0.2686
 2234SOL    HW118338   0.103   0.428   7.500 -0.1073  4.4639 -1.5848
 2234SOL    HW218339   0.231   0.340   7.494  1.6023  0.1994 -1.4065
 2235SOL     OW18340   2.788   4.380   8.225 -0.1008 -0.4416  0.2084
 2235SOL    HW118341   2.694   4.392   8.216 -0.1059  1.8729  3.1565
 2235SOL    HW218342   2.817   4.468   8.251 -0.5800 -0.9203  2.3969
 2236SOL     OW18343   0.077   2.496  13.202 -0.2088 -0.0756  0.2070
 2236SOL    HW118344   0.019   2.501  13.126  1.0931 -1.5822 -0.9196
 2236SOL    HW218345   0.141   2.559  13.169 -1.9520 -0.1034 -3.3019
 2237SOL     OW18346   4.047   3.804  15.175  0.1166  0.5129  0.0383
 2237SOL    HW118347   4.011   3.722  15.142  0.1209  0.8397 -0.7671
 2237SOL    HW218348   4.139   3.791  15.154  0.5150 -0.7646  2.5401
 2238SOL     OW18349   2.473   3.387  13.658 -0.1776  0.3186 -0.3230
 2238SOL    HW118350   2.385   3.408  13.626 -0.3166  1.7509  1.0536
 2238SOL    HW218351   2.470   3.404  13.752 -0.1177 -1.3660 -0.0155
 2239SOL     OW18352   3.673   4.300  17.589 -0.2952 -0.3263 -0.7584
 2239SOL    HW118353   3.668   4.205  17.583 -0.6958 -0.5064  2.2527
 2239SOL    HW218354   3.584   4.320  17.618 -0.0373  1.2570 -1.0407
 2240SOL     OW18355   2.775   0.221  15.672  0.4471 -0.2119 -0.4075
 2240SOL    HW118356   2.775   0.295  15.611  0.7498  1.2251  1.3187
 2240SOL    HW218357   2.863   0.232  15.707 -0.1494  2.3977  0.3120
 2241SOL     OW18358   1.441   0.066   8.428 -0.1107 -0.2869 -0.0183
 2241SOL    HW118359   1.528   0.095   8.402 -0.4158  1.8967  1.3616
 2241SOL    HW218360   1.444   4.712   8.409 -2.1206 -0.5267  0.7873
 2242SOL     OW18361   3.632   3.907   4.120 -0.3697  0.0487 -1.1551
 2242SOL    HW118362   3.702   3.928   4.182 -2.1912  0.7569  0.6595
 2242SOL    HW218363   3.587   3.841   4.173 -0.7494 -0.5512 -2.2436
 2243SOL     OW18364   1.121   1.233   2.388 -0.1747 -0.2516  0.0418
 2243SOL    HW118365   1.145   1.319   2.356  1.8404 -0.4222  1.0555
 2243SOL    HW218366   1.142   1.242   2.481  2.8872 -0.1805 -0.6467
 2244SOL     OW18367   0.348   2.230   5.751  0.0968  0.1527  0.0961
 2244SOL    HW118368   0.428   2.238   5.804  0.3767  0.2989 -0.3549
 2244SOL    HW218369   0.387   2.267   5.672  0.3542 -0.8274 -0.2332
 2245SOL     OW18370   0.246   0.706   0.382 -0.2584  0.8090  0.0093
 2245SOL    HW118371   0.193   0.724   0.304  0.1061  1.8824  0.0037
 2245SOL    HW218372   0.290   0.791   0.377  1.1986 -0.1715 -3.7758
 2246SOL     OW18373   1.436   4.640   3.124 -0.1430  0.2372 -0.4111
 2246SOL    HW118374   1.399   4.635   3.213 -2.3429  2.3485 -1.1893
 2246SOL    HW218375   1.526   4.612   3.134 -0.7387 -1.9151 -1.1524
 2247SOL     OW18376   3.362   1.345  13.737  0.2386 -0.0515  0.0779
 2247SOL    HW118377   3.345   1.420  13.795 -1.2479  0.6839 -1.3175
 2247SOL    HW218378   3.324   1.364  13.651 -2.3260 -0.9149  1.0432
 2248SOL     OW18379   1.417   2.148   6.808 -0.1142 -0.0543  0.2597
 2248SOL    HW118380   1.427   2.156   6.903  1.4320 -0.7047  0.1440
 2248SOL    HW218381   1.409   2.053   6.795 -3.6513 -0.0748  2.4978
 2249SOL     OW18382   1.584   3.808   5.657 -0.5276 -0.1259  0.2267
 2249SOL    HW118383   1.616   3.718   5.661 -1.1941 -0.3219  1.2065
 2249SOL    HW218384   1.603   3.828   5.565  2.9520  0.4935  1.1114
 2250SOL     OW18385   1.388   3.327  11.698  0.5609 -0.4005  0.0815
 2250SOL    HW118386   1.349   3.347  11.613 -0.8223 -1.9008  0.3534
 2250SOL    HW218387   1.315   3.280  11.739  0.7513 -1.4324 -0.7904
 2251SOL     OW18388   3.657   2.736   3.857  0.2076  0.3468  0.0615
 2251SOL    HW118389   3.661   2.660   3.798  0.3742  0.0762  0.4194
 2251SOL    HW218390   3.748   2.729   3.886  0.4380 -0.7440 -0.9081
 2252SOL     OW18391   1.530   3.859   6.904 -0.4719 -0.8578  0.3150
 2252SOL    HW118392   1.543   3.867   6.999 -0.0759  1.7467  0.0236
 2252SOL    HW218393   1.453   3.801   6.901  0.1947 -1.7667  0.8019
 2253SOL     OW18394   1.203   2.907   7.001 -0.3160 -0.5258 -0.1510
 2253SOL    HW118395   1.183   2.845   6.931 -1.7588  0.7345 -0.8479
 2253SOL    HW218396   1.201   2.993   6.960 -1.2244 -0.1375  0.7180
 2254SOL     OW18397   2.237   4.172   4.228 -0.7051 -0.1348  0.3520
 2254SOL    HW118398   2.202   4.091   4.191 -3.6488  1.6197 -0.6659
 2254SOL    HW218399   2.327   4.150   4.254  0.1763  0.9265 -1.8209
 2255SOL     OW18400   4.643   1.963   5.650  0.0404  0.3850  0.2178
 2255SOL    HW118401   4.593   2.013   5.714  1.0093  0.9439  0.5359
 2255SOL    HW218402   4.725   2.013   5.651  0.2709  0.0021  0.5843
 2256SOL     OW18403   3.900   2.951   5.528  0.4251  0.3497 -0.2009
 2256SOL    HW118404   3.868   3.016   5.465 -3.5216 -1.5499 -0.2025
 2256SOL    HW218405   3.937   3.020   5.582  2.0328 -1.4825  1.0200
 2257SOL     OW18406   2.902   0.898  12.927 -0.0408 -0.0595  0.5993
 2257SOL    HW118407   2.993   0.881  12.952  0.6929  1.4720 -1.0758
 2257SOL    HW218408   2.886   0.985  12.962  1.5125  1.1546 -1.6641
 2258SOL     OW18409   1.926   2.537   6.984  0.3249  0.4959 -0.4192
 2258SOL    HW118410   1.994   2.537   7.052  1.1466  0.1320 -1.2466
 2258SOL    HW218411   1.981   2.564   6.911 -0.9335 -1.0656 -1.9170
 2259SOL     OW18412   2.522   3.486  12.691 -1.0842  0.6897 -0.4121
 2259SOL    HW118413   2.585   3.515  12.626  0.1567  0.1114  0.5276
 2259SOL    HW218414   2.578   3.480  12.768  0.9827  1.7950 -1.8485
 2260SOL     OW18415   0.672   1.887   1.014 -0.6013 -0.2188 -0.3201
 2260SOL    HW118416   0.582   1.857   1.030 -0.0493 -0.7956  1.6773
 2260SOL    HW218417   0.665   1.923   0.926  3.4561  0.4475 -0.3528
 2261SOL     OW18418   1.726   3.391   8.676 -0.4765  0.3769  0.7625
 2261SOL    HW118419   1.652   3.341   8.710 -2.9824  1.7164 -2.8271
 2261SOL    HW218420   1.767   3.418   8.758  1.4613  0.4177 -0.1948
 2262SOL     OW18421   1.064   0.521  11.841  0.2426  0.1330  0.1149
 2262SOL    HW118422   1.126   0.594  11.835  0.1734  0.2590  0.9385
 2262SOL    HW218423   1.099   0.471  11.914 -2.1303 -0.6875  0.7026
 2263SOL     OW18424   1.114   0.033  16.316  0.1002 -0.4904 -0.0271
 2263SOL    HW118425   1.073   4.688  16.292  0.6364 -1.0624  1.0811
 2263SOL    HW218426   1.160   4.734  16.390 -0.0467 -3.3915 -1.3979
 2264SOL     OW18427   4.580   4.602   0.575  0.1598 -0.2063 -0.0791
 2264SOL    HW118428   4.493   4.563   0.590  0.3872 -0.9268 -0.6428
 2264SOL    HW218429   4.549   4.682   0.533 -2.3459 -0.4343  1.2912
 2265SOL     OW18430   3.112   3.353   9.248 -0.4018 -0.2056 -0.5047
 2265SOL    HW118431   3.123   3.448   9.235  0.8208 -0.3692 -0.7213
 2265SOL    HW218432   3.085   3.324   9.161 -1.0518 -0.8984 -0.0651
 2266SOL     OW18433   3.346   4.304   5.494  0.0958 -0.2906  0.2960
 2266SOL    HW118434   3.386   4.285   5.579 -0.0691 -0.9926  0.2173
 2266SOL    HW218435   3.264   4.255   5.497 -1.0768  1.6414 -0.0862
 2267SOL     OW18436   3.044   0.495   5.888  0.2258  0.2672 -0.0621
 2267SOL    HW118437   3.124   0.502   5.940 -0.2635  1.4806  0.5373
 2267SOL    HW218438   2.990   0.452   5.954 -0.9934  2.3874  0.3168
 2268SOL     OW18439   4.073   0.575   2.587  0.0685 -0.1653 -0.5859
 2268SOL    HW118440   3.992   0.526   2.600 -0.5792  0.7602 -1.1585
 2268SOL    HW218441   4.045   0.645   2.529 -2.5078 -0.9631 -0.3096
 2269SOL     OW18442   3.050   1.619   8.212  0.4759  0.0556 -0.2608
 2269SOL    HW118443   3.043   1.713   8.227  0.3145 -0.1990  1.2893
 2269SOL    HW218444   2.959   1.590   8.206  0.3777 -0.6296  4.3059
 2270SOL     OW18445   1.744   4.110   2.987 -0.5617  0.1487 -0.4849
 2270SOL    HW118446   1.765   4.152   2.903 -1.6101 -0.8130 -1.2128
 2270SOL    HW218447   1.650   4.097   2.983 -0.1572 -2.5654 -0.7351
 2271SOL     OW18448   4.319   1.396   1.177  0.1157 -0.3457 -0.2153
 2271SOL    HW118449   4.395   1.438   1.217  0.2520 -0.2862 -0.5365
 2271SOL    HW218450   4.295   1.325   1.236  0.6556 -1.9487 -1.9163
 2272SOL     OW18451   4.352   1.470  11.185 -0.1662 -0.3547  0.7552
 2272SOL    HW118452   4.265   1.446  11.218  0.3410 -0.8481  1.7103
 2272SOL    HW218453   4.355   1.564  11.203 -0.4821 -0.1635 -0.1734
 2273SOL     OW18454   1.448   0.466   5.771 -1.3956 -0.1884  0.3010
 2273SOL    HW118455   1.482   0.430   5.853  0.3998 -1.8484 -1.1807
 2273SOL    HW218456   1.390   0.394   5.744 -1.0697 -1.0856  2.0328
 2274SOL     OW18457   2.426   0.365   3.554 -0.0363 -0.1005 -0.1783
 2274SOL    HW118458   2.397   0.448   3.591  0.3110  0.6744 -1.6461
 2274SOL    HW218459   2.453   0.399   3.469 -0.4099 -1.1929 -0.7380
 2275SOL     OW18460   2.141   0.515   9.332  0.1709 -0.3161  0.6268
 2275SOL    HW118461   2.059   0.537   9.288  0.8237 -1.5543 -1.2099
 2275SOL    HW218462   2.176   0.460   9.262 -2.5230  0.0478 -1.0034
 2276SOL     OW18463   3.527   1.655  15.511  0.3101  0.2586 -0.1473
 2276SOL    HW118464   3.460   1.698  15.565  0.7888 -1.7977  2.0794
 2276SOL    HW218465   3.534   1.565  15.542  1.6213  0.3804 -0.1150
 2277SOL     OW18466   3.753   4.306   4.012  0.1530  0.2086  0.3273
 2277SOL    HW118467   3.735   4.219   3.978  0.5307 -0.1848  1.1466
 2277SOL    HW218468   3.822   4.288   4.075 -0.2135  1.3428  1.0568
 2278SOL     OW18469   3.616   1.529   6.367 -0.1839 -0.0007 -0.1892
 2278SOL    HW118470   3.704   1.492   6.355 -0.1554  0.4095 -1.3045
 2278SOL    HW218471   3.648   1.612   6.401  2.4544 -1.0590 -0.0760
 2279SOL     OW18472   1.003   0.087   7.833 -0.8476 -0.2362  0.4408
 2279SOL    HW118473   1.005   0.018   7.766  2.2895  2.0508 -1.8050
 2279SOL    HW218474   0.949   0.157   7.798 -0.6942 -0.8914 -1.1047
 2280SOL     OW18475   2.948   4.393   9.695 -0.1522 -0.3587  0.9411
 2280SOL    HW118476   3.043   4.396   9.697 -0.0771 -2.9537  1.4152
 2280SOL    HW218477   2.918   4.473   9.652  1.7347 -0.0617  0.2002
 2281SOL     OW18478   1.664   2.973   0.205  0.4264 -0.5027 -0.3364
 2281SOL    HW118479   1.633   2.911   0.271 -0.6636 -0.2558 -0.6173
 2281SOL    HW218480   1.593   2.978   0.141  0.5812  1.4045 -0.3577
 2282SOL     OW18481   4.656   0.103  17.660  0.1883  0.1101  0.0577
 2282SOL    HW118482   4.665   0.034  17.594 -0.7815 -1.2504  1.3713
 2282SOL    HW218483   4.562   0.122  17.661  0.3400  0.9162 -0.2624
 2283SOL     OW18484   3.583   0.286   7.950 -0.1673 -0.6668  0.0901
 2283SOL    HW118485   3.504   0.282   7.896 -0.1764  1.8255 -0.0725
 2283SOL    HW218486   3.616   0.196   7.945 -1.0777 -0.8690 -2.7451
 2284SOL     OW18487   4.023   3.729   2.993 -0.5029  0.2650 -0.4040
 2284SOL    HW118488   3.949   3.710   3.051 -0.9074  1.8380 -0.4119
 2284SOL    HW218489   4.056   3.641   2.976 -1.8610 -0.1149 -1.0945
 2285SOL     OW18490   2.741   3.365   1.782  0.2638 -0.1200  0.6344
 2285SOL    HW118491   2.757   3.294   1.844 -1.1359 -0.7003  0.3107
 2285SOL    HW218492   2.648   3.351   1.767  0.8608 -2.2600 -1.0054
 2286SOL     OW18493   3.155   2.149  11.320  0.2148  0.2383  0.3540
 2286SOL    HW118494   3.082   2.088  11.332 -1.0988  1.5343 -1.1009
 2286SOL    HW218495   3.109   2.227  11.290  1.9777  1.2681  0.3128
 2287SOL     OW18496   3.126   1.464   7.454  0.2466 -0.0189 -0.3792
 2287SOL    HW118497   3.212   1.496   7.481 -0.2767 -0.2123  1.4878
 2287SOL    HW218498   3.154   1.373   7.442 -0.4938 -0.5406  1.9496
 2288SOL     OW18499   1.819   3.641  15.443 -0.1132 -0.5825  0.0326
 2288SOL    HW118500   1.860   3.557  15.465  3.8695  1.5489  0.8492
 2288SOL    HW218501   1.863   3.704  15.500 -0.5161 -0.7218  0.4995
 2289SOL     OW18502   2.000   0.713  15.565 -0.1698 -0.2010  0.2244
 2289SOL    HW118503   2.088   0.689  15.594  0.1870  1.8100  0.8118
 2289SOL    HW218504   1.964   0.764  15.638 -0.2182 -0.5162  0.4192
 2290SOL     OW18505   0.384   2.831   2.622 -0.3691 -0.4578 -0.9886
 2290SOL    HW118506   0.296   2.798   2.603 -1.5592  1.3466  1.4478
 2290SOL    HW218507   0.437   2.769   2.572 -1.4339 -0.1745 -2.4755
 2291SOL     OW18508   3.506   0.653   5.197  0.5887  0.1926 -0.4506
 2291SOL    HW118509   3.470   0.574   5.156  0.2148  0.0453  0.1580
 2291SOL    HW218510   3.456   0.720   5.150 -0.0609  1.3189  1.8505
 2292SOL     OW18511   3.964   4.244   4.153  0.0334  0.6065 -0.2132
 2292SOL    HW118512   3.987   4.169   4.207 -0.5173 -0.3815 -1.3638
 2292SOL    HW218513   4.029   4.307   4.184  3.0961 -3.3745  1.4071
 2293SOL     OW18514   2.116   0.480   8.297 -0.2595 -0.4901 -0.1691
 2293SOL    HW118515   2.165   0.558   8.275  1.6114 -1.9903 -1.3165
 2293SOL    HW218516   2.076   0.459   8.212  3.1408 -1.0006 -1.6300
 2294SOL     OW18517   3.365   3.191  10.634 -0.0733  0.5204 -0.0408
 2294SOL    HW118518   3.303   3.131  10.676 -0.0066 -0.8017 -1.8411
 2294SOL    HW218519   3.307   3.253  10.590 -0.0386 -0.4220 -1.4093
 2295SOL     OW18520   0.763   0.459  13.101  0.2069  0.2576  0.5334
 2295SOL    HW118521   0.773   0.368  13.076  1.2302  0.6923 -0.6040
 2295SOL    HW218522   0.766   0.456  13.197 -1.8176 -0.1881  0.5964
 2296SOL     OW18523   3.743   1.525   1.484 -0.0524  0.2678  0.4008
 2296SOL    HW118524   3.813   1.579   1.449  1.7817 -0.6548  2.6618
 2296SOL    HW218525   3.711   1.491   1.400  1.4591  1.4708 -0.6547
 2297SOL     OW18526   3.215   3.195   1.868 -0.1488  0.2702  0.0083
 2297SOL    HW118527   3.239   3.179   1.777 -1.6166 -0.2073 -0.3048
 2297SOL    HW218528   3.166   3.113   1.882 -1.3670  0.7946 -1.2403
 2298SOL     OW18529   2.089   1.603   4.485  0.7220  0.4744 -0.3185
 2298SOL    HW118530   2.005   1.649   4.478  0.3172 -0.0968  0.6175
 2298SOL    HW218531   2.052   1.521   4.519  1.5393  0.5504  0.7541
 2299SOL     OW18532   4.370   1.273   4.213 -0.4425 -0.2256 -0.2691
 2299SOL    HW118533   4.316   1.293   4.137 -1.4275 -1.6177  0.0631
 2299SOL    HW218534   4.404   1.188   4.187  0.2143 -0.5817  1.7150
 2300SOL     OW18535   0.768   4.552   5.060 -0.3522 -0.0011  0.1956
 2300SOL    HW118536   0.736   4.623   5.004  0.9045  0.4729  0.0608
 2300SOL    HW218537   0.858   4.576   5.082  0.2135 -1.2125 -0.7453
 2301SOL     OW18538   0.884   0.908   8.059  0.1181  0.0006  0.0099
 2301SOL    HW118539   0.889   1.003   8.069  1.6837 -0.1939  1.0983
 2301SOL    HW218540   0.895   0.891   7.966  1.4593  1.9247 -0.1855
 2302SOL     OW18541   4.114   3.630   6.666  0.0916 -0.3541 -1.0027
 2302SOL    HW118542   4.125   3.575   6.744  2.6909  1.0616 -0.3819
 2302SOL    HW218543   4.135   3.564   6.600 -0.5197  0.7324 -2.2679
 2303SOL     OW18544   3.452   1.528   6.011  0.5471 -0.1478  0.6453
 2303SOL    HW118545   3.389   1.514   6.082 -0.5763 -1.0279 -0.5379
 2303SOL    HW218546   3.509   1.598   6.045 -0.2889  1.4655 -1.2751
 2304SOL     OW18547   0.219   1.873   6.476  0.3112  0.3217 -0.0468
 2304SOL    HW118548   0.245   1.873   6.384  0.2806 -1.6180 -0.0526
 2304SOL    HW218549   0.201   1.781   6.492  3.9038 -0.1805  0.9267
 2305SOL     OW18550   1.190   4.244  16.795  0.1718 -0.0213  0.5440
 2305SOL    HW118551   1.184   4.160  16.840  1.5251 -1.0157 -1.1117
 2305SOL    HW218552   1.137   4.221  16.719 -0.2199  0.3606  0.7052
 2306SOL     OW18553   0.461   1.613  14.591  0.2170  0.3746  0.3059
 2306SOL    HW118554   0.525   1.617  14.662  1.0819  1.0789 -0.5112
 2306SOL    HW218555   0.509   1.667  14.528 -0.5148  1.7911  0.9604
 2307SOL     OW18556   2.986   2.904   4.993 -0.1185  0.0244 -0.3140
 2307SOL    HW118557   2.919   2.896   4.925  0.6989 -1.6102 -0.9384
 2307SOL    HW218558   2.995   2.999   4.994  0.0034  0.0188 -0.8455
 2308SOL     OW18559   1.759   3.987   3.338  0.4372  0.0414 -0.1351
 2308SOL    HW118560   1.696   4.057   3.318  0.7040  0.2518 -0.2278
 2308SOL    HW218561   1.826   4.040   3.381 -1.4984  2.0718  0.3822
 2309SOL     OW18562   2.459   3.149   4.873  0.3359 -0.4071 -0.3480
 2309SOL    HW118563   2.502   3.098   4.942 -1.0298 -1.0424  0.0390
 2309SOL    HW218564   2.454   3.237   4.909  0.2018 -0.6028  0.1177
 2310SOL     OW18565   0.170   0.857   3.259  0.1799 -0.0143  0.0519
 2310SOL    HW118566   0.135   0.834   3.173 -1.3657  2.8029 -0.0524
 2310SOL    HW218567   0.177   0.952   3.252  0.8801  0.0217  1.1839
 2311SOL     OW18568   3.986   0.061   7.693 -0.5250 -0.0182 -0.4187
 2311SOL    HW118569   4.009   0.134   7.751  1.2285  0.5838 -1.8550
 2311SOL    HW218570   3.896   0.088   7.673 -0.1057  1.2332 -0.6504
 2312SOL     OW18571   2.118   2.388   8.043  0.6868  0.4676  0.1156
 2312SOL    HW118572   2.074   2.303   8.044 -0.7705  1.2243  1.0244
 2312SOL    HW218573   2.192   2.372   8.101  0.5349  0.5075  0.3258
 2313SOL     OW18574   4.077   2.608   9.691 -0.3424 -1.1271  0.2441
 2313SOL    HW118575   4.035   2.587   9.608 -0.4148  0.1374 -0.0393
 2313SOL    HW218576   4.095   2.521   9.727  1.9906 -1.3289 -1.3433
 2314SOL     OW18577   4.342   3.279   1.803 -0.2097 -0.0141  0.0127
 2314SOL    HW118578   4.281   3.206   1.807 -0.5086  0.2471  0.2513
 2314SOL    HW218579   4.290   3.359   1.799 -1.3647 -0.7817 -0.2468
 2315SOL     OW18580   1.485   0.510   8.024 -0.1640 -0.3755 -0.2387
 2315SOL    HW118581   1.530   0.541   8.102  1.3203  0.2386 -1.3426
 2315SOL    HW218582   1.448   0.592   7.992 -1.1639 -0.1296  1.5814
 2316SOL     OW18583   2.212   4.472   5.565  0.7052  0.1588  0.1003
 2316SOL    HW118584   2.281   4.527   5.526 -0.2759  3.3132  2.7165
 2316SOL    HW218585   2.225   4.497   5.657 -0.0682  0.7870  0.0375
 2317SOL     OW18586   1.164   2.344   8.598 -0.4270 -0.2469  0.4461
 2317SOL    HW118587   1.094   2.403   8.571  1.2428  0.8144 -1.5933
 2317SOL    HW218588   1.204   2.398   8.666  0.9102 -0.8671  0.1503
 2318SOL     OW18589   1.847   0.444   8.614 -0.3029 -0.7266 -0.2267
 2318SOL    HW118590   1.799   0.498   8.678 -0.9967  0.0310 -1.3842
 2318SOL    HW218591   1.808   0.359   8.633  0.0205 -0.3796  1.9738
 2319SOL     OW18592   3.374   3.834   5.348  0.5379  1.1378 -0.6513
 2319SOL    HW118593   3.344   3.876   5.267 -1.5492 -0.1167 -0.5231
 2319SOL    HW218594   3.307   3.879   5.399  0.2558  0.9181 -0.8263
 2320SOL     OW18595   4.017   3.521   6.075  0.4406  0.8355 -0.1764
 2320SOL    HW118596   4.023   3.557   6.164  0.8840  1.1006 -0.3136
 2320SOL    HW218597   4.108   3.493   6.067  0.2207  0.2065 -0.5328
 2321SOL     OW18598   3.341   2.260   4.906  0.5963 -0.7381 -0.1486
 2321SOL    HW118599   3.372   2.203   4.977  1.2048 -3.0077 -2.2416
 2321SOL    HW218600   3.362   2.339   4.955  0.3940  0.0076 -1.2681
 2322SOL     OW18601   4.653   1.283   4.694 -0.2662 -0.3171  0.6829
 2322SOL    HW118602   4.706   1.216   4.650  1.7138  1.5446  0.2421
 2322SOL    HW218603   4.622   1.344   4.627 -2.6901 -1.7314  0.5276
 2323SOL     OW18604   0.913   1.756   3.249  0.6119 -0.0617  0.1607
 2323SOL    HW118605   0.862   1.721   3.322 -1.0236  0.7483 -0.5952
 2323SOL    HW218606   0.934   1.842   3.285 -1.5970  1.1767 -1.5325
 2324SOL     OW18607   3.426   3.218   8.115  1.1472  0.2037  0.3246
 2324SOL    HW118608   3.495   3.177   8.062 -0.5184 -1.2358 -0.7423
 2324SOL    HW218609   3.448   3.308   8.091  0.5006  0.3828  0.4236
 2325SOL     OW18610   0.986   0.307   6.923  0.1050  0.1064  0.2732
 2325SOL    HW118611   1.008   0.395   6.951  0.3834 -0.4480  1.8139
 2325SOL    HW218612   0.986   0.271   7.011 -0.7022  0.4088  0.3980
 2326SOL     OW18613   0.746   2.153   2.062 -0.0686  0.7207 -0.0701
 2326SOL    HW118614   0.707   2.127   1.978  1.9844  1.3035 -1.1858
 2326SOL    HW218615   0.745   2.066   2.103  1.0689  1.0306  0.5908
 2327SOL     OW18616   2.888   0.273   4.512 -0.1210 -0.0323 -0.0803
 2327SOL    HW118617   2.847   0.189   4.535  0.3209 -0.3229 -0.3587
 2327SOL    HW218618   2.813   0.332   4.523  1.5250  1.5528  2.8460
 2328SOL     OW18619   0.654   2.737   8.008 -0.6383  0.1959 -0.0356
 2328SOL    HW118620   0.581   2.794   8.031  0.1768  1.6193 -0.8968
 2328SOL    HW218621   0.697   2.732   8.093 -1.4686 -0.7506  0.3283
 2329SOL     OW18622   2.380   0.165   3.706 -0.3295 -0.4260  0.0292
 2329SOL    HW118623   2.297   0.202   3.735  0.0214 -0.6582  1.3245
 2329SOL    HW218624   2.419   0.236   3.655  1.3452 -1.1160  0.3364
 2330SOL     OW18625   4.093   0.410   3.526 -0.3359  0.5197  0.4329
 2330SOL    HW118626   4.124   0.491   3.566  1.4097 -0.3308  0.7890
 2330SOL    HW218627   4.146   0.350   3.579 -1.3017  0.8051  1.7071
 2331SOL     OW18628   3.062   3.486  14.726  0.5505 -0.1673 -0.3710
 2331SOL    HW118629   3.061   3.459  14.634  1.0673 -1.9289  0.1455
 2331SOL    HW218630   3.010   3.416  14.765  2.4913 -1.6061 -0.3904
 2332SOL     OW18631   0.385   0.321  16.102 -0.4844 -0.0434 -0.4115
 2332SOL    HW118632   0.373   0.416  16.099 -0.0015  0.0287 -0.0102
 2332SOL    HW218633   0.481   0.318  16.103 -0.4718 -0.6247 -1.9104
 2333SOL     OW18634   3.267   3.651  11.844 -0.3783 -0.0731  0.1718
 2333SOL    HW118635   3.300   3.678  11.758  0.8677 -0.8336  0.4231
 2333SOL    HW218636   3.315   3.706  11.905 -0.5674 -1.5024  1.6196
 2334SOL     OW18637   2.740   0.932  15.923 -0.7572  0.4315  0.3101
 2334SOL    HW118638   2.812   0.869  15.911 -1.9796 -0.6762 -1.3208
 2334SOL    HW218639   2.679   0.873  15.878  1.2131 -0.7807 -0.8116
 2335SOL     OW18640   3.651   3.375   4.358  0.3025 -0.2244 -0.8105
 2335SOL    HW118641   3.655   3.288   4.319 -2.3732  0.0209 -1.6443
 2335SOL    HW218642   3.599   3.366   4.438  1.1104 -0.9553 -0.3657
 2336SOL     OW18643   1.352   4.414   6.863 -0.3049  0.2840 -0.0083
 2336SOL    HW118644   1.306   4.367   6.933  0.8098 -0.1143  0.4527
 2336SOL    HW218645   1.437   4.371   6.866  0.4639  1.7145 -1.5970
 2337SOL     OW18646   2.146   3.377  10.195  1.1445  0.8417 -0.2598
 2337SOL    HW118647   2.131   3.472  10.195 -2.7376  0.2292 -0.8522
 2337SOL    HW218648   2.240   3.372  10.181  1.7171  3.0654  2.7253
 2338SOL     OW18649   3.538   3.233  16.512 -0.3101  0.5214  0.0457
 2338SOL    HW118650   3.549   3.160  16.450 -2.6010  0.9881 -0.9308
 2338SOL    HW218651   3.544   3.306  16.450  1.3384  1.8241  1.7506
 2339SOL     OW18652   3.385   3.084   2.438  0.7887 -0.0284 -0.1501
 2339SOL    HW118653   3.305   3.045   2.401 -0.7937  2.1453  1.0062
 2339SOL    HW218654   3.458   3.028   2.412  0.8709  0.5353 -1.1182
 2340SOL     OW18655   2.816   3.188   1.988  0.7409  0.6526  0.4707
 2340SOL    HW118656   2.785   3.182   2.078  0.7767  2.2058  0.5867
 2340SOL    HW218657   2.824   3.094   1.978 -0.1160  0.3958  2.2106
 2341SOL     OW18658   0.246   0.856  11.849 -0.1820 -0.2998  0.0365
 2341SOL    HW118659   0.217   0.947  11.846  1.8269  0.2862 -1.4119
 2341SOL    HW218660   0.180   0.798  11.811 -0.3143 -0.6380  0.7932
 2342SOL     OW18661   3.445   2.085   8.092 -0.2343 -0.3459  0.0232
 2342SOL    HW118662   3.387   2.124   8.157  0.4595  1.6263 -0.5486
 2342SOL    HW218663   3.376   2.054   8.033 -0.4217  1.2006 -0.5789
 2343SOL     OW18664   4.538   1.966   9.401  0.1372 -0.2522 -0.1758
 2343SOL    HW118665   4.484   2.044   9.417 -0.8550 -0.8449 -0.6047
 2343SOL    HW218666   4.471   1.897   9.396 -0.3313  0.1983 -0.1648
 2344SOL     OW18667   0.898   2.287  14.285  0.0176 -0.4763  0.2678
 2344SOL    HW118668   0.950   2.272  14.206 -0.7305 -3.2962  0.2745
 2344SOL    HW218669   0.883   2.381  14.289 -2.3289 -0.8031 -0.5178
 2345SOL     OW18670   0.092   1.986   4.865  0.4651 -0.0578 -0.1814
 2345SOL    HW118671   0.057   2.055   4.809 -2.1747  0.8546  2.6097
 2345SOL    HW218672   0.024   1.994   4.932 -0.0034 -0.7312 -0.5760
 2346SOL     OW18673   2.194   3.277   5.443  0.3651  0.3784  0.0974
 2346SOL    HW118674   2.172   3.184   5.438  0.8963  0.3274 -1.2766
 2346SOL    HW218675   2.135   3.320   5.381 -0.1218 -1.3045 -0.5929
 2347SOL     OW18676   1.553   2.939  12.659  0.1294  0.0069  0.1882
 2347SOL    HW118677   1.620   2.934  12.591 -0.0807  0.1256 -0.0226
 2347SOL    HW218678   1.590   2.895  12.736  1.6942  1.2912  0.1731
 2348SOL     OW18679   1.249   2.668  16.728  0.6408 -0.5051 -0.3099
 2348SOL    HW118680   1.227   2.634  16.641 -0.1998  1.7706 -0.9888
 2348SOL    HW218681   1.173   2.721  16.752  0.9130  0.5859 -1.7671
 2349SOL     OW18682   1.985   0.435   3.730  0.0820  0.1620  0.3720
 2349SOL    HW118683   2.071   0.450   3.770  0.2340  1.1473 -0.3240
 2349SOL    HW218684   2.008   0.382   3.654  0.2117  0.7696 -0.0145
 2350SOL     OW18685   4.069   1.513   0.539  0.2906  0.0488 -0.6965
 2350SOL    HW118686   4.059   1.551   0.627 -1.5376  2.1832 -1.8286
 2350SOL    HW218687   4.028   1.427   0.542  0.9549 -0.1729  1.8470
 2351SOL     OW18688   0.751   0.168   4.256  0.1534 -0.4246 -0.6083
 2351SOL    HW118689   0.740   0.222   4.334 -0.7631  0.9782 -1.7218
 2351SOL    HW218690   0.705   0.089   4.287 -3.2566  1.3639 -1.0532
 2352SOL     OW18691   1.625   1.830   6.696  0.3601  0.5760 -1.0829
 2352SOL    HW118692   1.603   1.901   6.636 -0.0128  0.0727 -1.5376
 2352SOL    HW218693   1.720   1.827   6.688  0.5926 -0.8000  2.2368
 2353SOL     OW18694   0.467   3.097   3.327 -0.3070  0.6515 -0.3606
 2353SOL    HW118695   0.408   3.171   3.316 -0.6326  0.7800  2.2144
 2353SOL    HW218696   0.494   3.081   3.237  1.8220 -1.6645  0.6906
 2354SOL     OW18697   1.805   2.899   6.205 -0.0415  0.3600 -0.3510
 2354SOL    HW118698   1.793   2.923   6.113 -1.3830 -0.0944 -0.2918
 2354SOL    HW218699   1.836   2.809   6.206  1.8624  1.0188  0.3126
 2355SOL     OW18700   2.540   3.781   6.748  0.0976 -0.3943 -0.1484
 2355SOL    HW118701   2.450   3.781   6.779  0.8785 -1.2749  2.1744
 2355SOL    HW218702   2.530   3.733   6.667 -1.9886 -2.4222  1.3217
 2356SOL     OW18703   0.990   3.731  15.598 -0.5692  0.4218  0.2378
 2356SOL    HW118704   1.013   3.692  15.514 -0.5081 -1.2928  1.0693
 2356SOL    HW218705   1.027   3.667  15.658  2.3945  1.6781 -0.2796
 2357SOL     OW18706   4.030   0.334   6.643 -0.5935  0.3582  0.1248
 2357SOL    HW118707   4.126   0.328   6.643 -0.5039  1.9609 -0.0539
 2357SOL    HW218708   4.022   0.419   6.686 -0.1385 -0.2114  1.3342
 2358SOL     OW18709   1.346   1.944   7.308  0.4898 -0.3981 -0.4429
 2358SOL    HW118710   1.392   1.877   7.358  1.7768 -0.0104 -1.0979
 2358SOL    HW218711   1.253   1.942   7.329  0.2346 -2.6064 -1.7662
 2359SOL     OW18712   2.393   2.554  15.683  0.4560 -0.1115  0.4422
 2359SOL    HW118713   2.407   2.646  15.664  0.1390 -0.1384  0.0762
 2359SOL    HW218714   2.484   2.533  15.702  0.5725 -0.3319 -0.3300
 2360SOL     OW18715   2.559   0.926  17.381 -0.2252 -0.3030 -0.2668
 2360SOL    HW118716   2.502   1.003  17.386 -1.5810 -1.3128 -0.0905
 2360SOL    HW218717   2.497   0.855  17.399 -0.1702  0.2966  2.3127
 2361SOL     OW18718   4.515   1.387   9.154  0.1946 -0.0760  0.1567
 2361SOL    HW118719   4.529   1.470   9.107  0.5704  0.3195  0.9809
 2361SOL    HW218720   4.562   1.328   9.095  1.2070 -0.7009  1.5902
 2362SOL     OW18721   3.677   0.036   6.757  0.2230  0.6647  0.0281
 2362SOL    HW118722   3.761   0.079   6.774  0.4840  0.2685 -0.2485
 2362SOL    HW218723   3.689   4.700   6.815  0.0472 -0.0445 -0.8566
 2363SOL     OW18724   0.197   0.621   7.105  0.2066  0.3835  0.2265
 2363SOL    HW118725   0.192   0.526   7.099  1.5995  0.2444  1.2452
 2363SOL    HW218726   0.165   0.641   7.193 -1.1669 -1.8696  0.2516
 2364SOL     OW18727   3.560   0.401   3.036  0.5291 -0.4708 -0.1111
 2364SOL    HW118728   3.522   0.437   3.116 -0.7554  1.4403 -1.5727
 2364SOL    HW218729   3.492   0.338   3.011 -0.8957  0.2342  1.9701
 2365SOL     OW18730   3.683   0.860   7.941 -0.0189 -0.2580 -0.6366
 2365SOL    HW118731   3.656   0.779   7.898  0.8687 -0.1096 -1.4548
 2365SOL    HW218732   3.601   0.909   7.947  0.8555  0.9084  1.7229
 2366SOL     OW18733   0.007   4.645   4.359  0.1221 -0.1145  0.4992
 2366SOL    HW118734   0.003   4.723   4.303  2.5548 -0.6154 -0.3656
 2366SOL    HW218735   4.678   4.588   4.323 -0.4886  0.8962  0.0607
 2367SOL     OW18736   1.050   2.529   5.847 -0.0173  0.1792  0.0502
 2367SOL    HW118737   0.955   2.531   5.833  0.4245 -0.2869 -2.9470
 2367SOL    HW218738   1.061   2.608   5.900 -1.9482  0.9150 -0.6153
 2368SOL     OW18739   3.918   3.484  10.643  0.3022 -0.5865  0.0547
 2368SOL    HW118740   3.938   3.404  10.594  1.5713  1.0508 -2.1355
 2368SOL    HW218741   3.957   3.461  10.727 -2.1461  0.2855  1.3968
 2369SOL     OW18742   2.245   4.375   9.987  0.0647 -0.1976 -0.6844
 2369SOL    HW118743   2.225   4.399  10.078 -2.4156 -0.6779 -1.0988
 2369SOL    HW218744   2.319   4.432   9.969  1.6751 -3.0046 -2.8897
 2370SOL     OW18745   3.886   2.523   0.978  0.3281  0.1636 -0.1484
 2370SOL    HW118746   3.980   2.531   0.997  0.3066  1.3099 -0.5536
 2370SOL    HW218747   3.848   2.549   1.062  1.8564 -2.1380  1.2554
 2371SOL     OW18748   2.070   0.966  12.803  0.7250 -0.4270 -0.4575
 2371SOL    HW118749   2.040   0.875  12.796 -0.3702 -0.1051  0.0955
 2371SOL    HW218750   2.017   0.997  12.876  2.2305 -0.3504  0.6127
 2372SOL     OW18751   3.144   1.006   2.069 -0.0493  0.6300 -0.7170
 2372SOL    HW118752   3.214   1.051   2.022  1.4834 -0.3954  0.6045
 2372SOL    HW218753   3.079   1.076   2.074  0.0603  0.6340  0.7973
 2373SOL     OW18754   3.360   4.639  16.249  0.0333  0.0114  0.5762
 2373SOL    HW118755   3.276   4.653  16.206  0.6922 -0.0198 -0.7203
 2373SOL    HW218756   3.370   4.545  16.236 -0.6925 -0.1488  1.1608
 2374SOL     OW18757   3.059   1.051   4.330  0.0727 -0.0801 -0.7560
 2374SOL    HW118758   3.112   1.129   4.346 -0.7708  0.1995  0.6907
 2374SOL    HW218759   2.980   1.069   4.381  0.3322  0.9268 -0.6991
 2375SOL     OW18760   4.618   0.942   9.142  0.0697  0.1796 -0.5291
 2375SOL    HW118761   4.648   1.014   9.086 -2.5435  2.1989  0.6945
 2375SOL    HW218762   4.645   0.870   9.085 -0.3461 -0.4493  0.0728
 2376SOL     OW18763   3.703   2.331  10.647 -0.0376 -0.4085  0.0211
 2376SOL    HW118764   3.631   2.390  10.625 -0.1169 -0.4350  0.2029
 2376SOL    HW218765   3.717   2.343  10.741  0.2398  0.1717 -0.0943
 2377SOL     OW18766   1.198   4.018   5.717  0.1320 -0.2551  0.9275
 2377SOL    HW118767   1.233   4.072   5.788  0.5084  1.6057 -0.6352
 2377SOL    HW218768   1.177   4.089   5.656 -1.5281 -0.2343  1.5398
 2378SOL     OW18769   2.290   1.308  16.986  0.0540 -0.0129 -0.1305
 2378SOL    HW118770   2.331   1.305  16.900  1.4099 -0.1807  0.5174
 2378SOL    HW218771   2.253   1.395  16.997  2.0588  0.7090  0.9390
 2379SOL     OW18772   2.042   3.575   4.489  0.4855 -0.0331  0.2219
 2379SOL    HW118773   1.992   3.494   4.491 -0.6715  0.6519 -0.4885
 2379SOL    HW218774   2.131   3.542   4.480  0.5518 -0.1112  1.1827
 2380SOL     OW18775   0.791   0.758   1.931 -0.3848 -0.6983  0.9167
 2380SOL    HW118776   0.733   0.812   1.985 -1.7722 -0.2864 -0.9655
 2380SOL    HW218777   0.878   0.784   1.963  0.0744 -3.5456  1.9202
 2381SOL     OW18778   4.428   2.345   1.011  0.0161  0.4602 -0.1721
 2381SOL    HW118779   4.487   2.417   1.031  1.5747 -1.8678  3.6325
 2381SOL    HW218780   4.408   2.336   1.104  1.4392 -0.1576  0.0688
 2382SOL     OW18781   3.879   3.593  15.512 -0.4560  0.2120 -0.8528
 2382SOL    HW118782   3.932   3.521  15.480 -0.8708 -0.2262 -0.5456
 2382SOL    HW218783   3.793   3.562  15.482 -0.6668 -0.2960  0.3173
 2383SOL     OW18784   2.396   2.695  10.168 -0.4682  0.0966 -0.0041
 2383SOL    HW118785   2.425   2.704  10.259  0.5892 -0.1602 -0.3114
 2383SOL    HW218786   2.455   2.759  10.129 -1.6937  0.1831 -1.7180
 2384SOL     OW18787   4.368   0.016   4.790  0.0112  0.0044  0.2092
 2384SOL    HW118788   4.363   0.107   4.818 -3.5493 -0.5067  1.2412
 2384SOL    HW218789   4.277   0.003   4.763  1.2785 -3.0805 -2.6441
 2385SOL     OW18790   4.654   0.542   3.943  0.1739  0.1140 -0.2107
 2385SOL    HW118791   4.598   0.469   3.969  1.5406  0.1054  2.6882
 2385SOL    HW218792   0.003   0.507   3.953  0.5132  0.8089 -0.7915
 2386SOL     OW18793   0.933   0.002   0.034 -0.1255 -0.4055 -0.1398
 2386SOL    HW118794   0.959   4.669  17.731 -1.8367 -1.7327  0.7661
 2386SOL    HW218795   0.839   4.728   0.040 -0.1295 -0.2244  0.1727
 2387SOL     OW18796   4.503   3.357   6.559  0.4788  0.2791 -0.2394
 2387SOL    HW118797   4.475   3.349   6.468 -2.1760 -1.3162  0.7085
 2387SOL    HW218798   4.518   3.263   6.572  0.3328  0.7968  3.6575
 2388SOL     OW18799   0.012   3.232   2.874 -0.0072 -0.2894 -0.0920
 2388SOL    HW118800   0.054   3.147   2.886 -1.0484 -0.6529  1.0304
 2388SOL    HW218801   0.042   3.290   2.944 -2.0861  0.0469  0.5270
 2389SOL     OW18802   3.965   2.777   1.345  0.0226 -0.3389  0.2539
 2389SOL    HW118803   3.957   2.752   1.437  1.2797  0.9527  0.7088
 2389SOL    HW218804   3.925   2.695   1.314  0.9637 -0.6420 -0.1563
 2390SOL     OW18805   0.790   1.938   5.398 -0.0879 -0.2901 -0.1915
 2390SOL    HW118806   0.738   2.016   5.377  0.7615  0.0748 -0.9325
 2390SOL    HW218807   0.803   1.929   5.492  0.9114  0.2070 -0.2759
 2391SOL     OW18808   1.833   0.149   7.360 -0.0360  0.1477  0.2334
 2391SOL    HW118809   1.796   0.237   7.364 -3.4257 -1.2575 -0.0923
 2391SOL    HW218810   1.753   0.104   7.333  0.9340 -0.6929 -1.2263
 2392SOL     OW18811   1.023   2.868   9.138 -0.1770 -0.0967  0.4543
 2392SOL    HW118812   0.972   2.878   9.218 -1.0541  0.0962 -0.1334
 2392SOL    HW218813   1.080   2.945   9.143  0.2495 -0.4799  1.4614
 2393SOL     OW18814   4.675   3.014   2.701  0.6145 -0.3706  0.4713
 2393SOL    HW118815   4.666   2.934   2.649 -0.3221 -0.2858  0.4956
 2393SOL    HW218816   0.026   3.032   2.676  0.0986  2.1105  0.3936
 2394SOL     OW18817   1.024   4.282   3.124  0.0150  0.1761  0.0207
 2394SOL    HW118818   0.976   4.216   3.073  1.3362 -1.2540  0.6424
 2394SOL    HW218819   0.986   4.369   3.112  0.5753  0.5303  0.8183
 2395SOL     OW18820   3.745   1.480   0.568 -0.2285 -0.4891  0.1502
 2395SOL    HW118821   3.819   1.477   0.629  1.6563 -4.1213 -2.3366
 2395SOL    HW218822   3.706   1.394   0.583  0.8875 -1.1353 -0.6832
 2396SOL     OW18823   0.237   3.741   3.216 -0.8956  0.2960 -0.5818
 2396SOL    HW118824   0.248   3.700   3.130 -1.2110  0.9595 -0.9324
 2396SOL    HW218825   0.213   3.666   3.270  1.4144 -0.3805 -0.4935
 2397SOL     OW18826   0.478   1.744   7.620 -0.2231  0.9822 -0.0994
 2397SOL    HW118827   0.475   1.814   7.685  1.0436  0.6847  0.2751
 2397SOL    HW218828   0.554   1.699   7.656  0.0013 -0.1834 -2.0443
 2398SOL     OW18829   3.307   0.538   4.756  0.0663 -0.2206 -0.0807
 2398SOL    HW118830   3.345   0.501   4.835 -0.3720  2.3156  1.3224
 2398SOL    HW218831   3.388   0.522   4.707 -0.3686 -0.0769 -0.8434
 2399SOL     OW18832   1.040   1.887  14.657 -0.5931  0.1408  0.2082
 2399SOL    HW118833   1.120   1.850  14.694  0.1737  0.7711 -0.8311
 2399SOL    HW218834   1.082   1.954  14.603 -0.0150  0.9801  1.7031
 2400SOL     OW18835   3.109   1.458   1.637 -0.4523 -0.3759  0.0782
 2400SOL    HW118836   3.044   1.489   1.574 -0.5243 -1.3797 -0.3376
 2400SOL    HW218837   3.059   1.386   1.676 -0.5227 -0.9391 -1.0587
 2401SOL     OW18838   1.706   0.252   2.310  0.4174 -0.2205 -0.1296
 2401SOL    HW118839   1.720   0.324   2.249 -0.6082  0.2886  0.2460
 2401SOL    HW218840   1.624   0.274   2.354 -0.4661  0.7778 -2.2727
 2402SOL     OW18841   3.750   2.353   0.797 -0.1416 -0.2296 -0.4386
 2402SOL    HW118842   3.800   2.414   0.850 -0.0094  2.2252 -3.4281
 2402SOL    HW218843   3.737   2.275   0.851  1.0687  1.6748  2.5672
 2403SOL     OW18844   3.181   3.724   3.948 -0.0536 -0.3415  0.0791
 2403SOL    HW118845   3.251   3.679   3.995 -0.5849 -1.3061 -0.0578
 2403SOL    HW218846   3.169   3.678   3.865  3.1314  0.6030 -0.9027
 2404SOL     OW18847   0.902   2.650  13.434  0.2045 -0.0954 -0.0526
 2404SOL    HW118848   0.979   2.604  13.401 -0.4617 -0.9127 -0.4683
 2404SOL    HW218849   0.839   2.582  13.455 -0.8895  0.5081 -1.3917
 2405SOL     OW18850   2.378   3.819   7.168 -0.2343  0.2648 -0.7799
 2405SOL    HW118851   2.306   3.757   7.181  0.7817 -0.9545 -0.9704
 2405SOL    HW218852   2.393   3.833   7.262  1.6408  2.8558 -1.4537
 2406SOL     OW18853   0.572   1.694   0.105 -0.1975 -0.1917  1.0125
 2406SOL    HW118854   0.665   1.709   0.093 -0.1181 -0.6516  1.0348
 2406SOL    HW218855   0.545   1.785   0.090  1.3073  0.0066 -0.4861
 2407SOL     OW18856   1.805   4.327   4.800  0.1672  0.0960 -0.3764
 2407SOL    HW118857   1.891   4.295   4.825  0.6022  1.4835 -0.1115
 2407SOL    HW218858   1.759   4.258   4.751  0.0447 -1.5068  2.0372
 2408SOL     OW18859   4.555   2.548  15.848  0.2825 -0.3284 -0.1193
 2408SOL    HW118860   4.579   2.528  15.758  0.0347 -2.0119  0.1920
 2408SOL    HW218861   4.636   2.586  15.883 -0.6837  0.6327  1.1048
 2409SOL     OW18862   3.936   1.330   4.318 -0.1751  0.6520 -0.4199
 2409SOL    HW118863   3.859   1.295   4.272 -0.3136 -0.3973  0.5848
 2409SOL    HW218864   3.977   1.247   4.343  0.7058  1.3439  0.4101
 2410SOL     OW18865   2.806   2.208  16.633  0.1878  0.1186 -0.3256
 2410SOL    HW118866   2.747   2.155  16.579  1.3184 -1.2809 -0.1747
 2410SOL    HW218867   2.891   2.182  16.597  1.4638  1.1604  1.9438
 2411SOL     OW18868   0.771   2.260  15.414 -0.2562  0.3314  0.3328
 2411SOL    HW118869   0.747   2.258  15.322 -0.5541 -1.4526  0.4656
 2411SOL    HW218870   0.699   2.313  15.449  1.3231  2.5839  0.2081
 2412SOL     OW18871   3.916   1.782  14.152  0.9560  0.0824 -0.2145
 2412SOL    HW118872   3.899   1.856  14.210 -2.6269  0.3069 -1.5085
 2412SOL    HW218873   3.892   1.815  14.065 -0.0369 -0.1772 -0.0339
 2413SOL     OW18874   0.338   2.967   5.891 -0.5167  0.2502 -0.5052
 2413SOL    HW118875   0.339   2.899   5.957 -2.2400  0.3534 -0.3788
 2413SOL    HW218876   0.296   2.927   5.815  0.0713 -0.9930 -0.1697
 2414SOL     OW18877   3.244   3.827   7.368  0.0609  0.2100  0.1248
 2414SOL    HW118878   3.229   3.733   7.369  0.9586  0.0539 -1.3389
 2414SOL    HW218879   3.301   3.827   7.291 -1.2577 -2.1332 -0.8490
 2415SOL     OW18880   3.701   3.304  15.874  0.0466 -0.7793  0.3387
 2415SOL    HW118881   3.769   3.371  15.870 -0.5040 -0.2170  0.4503
 2415SOL    HW218882   3.637   3.329  15.807  1.8314  1.9319 -0.3725
 2416SOL     OW18883   0.790   0.548   3.546 -0.3670  0.1286  0.0258
 2416SOL    HW118884   0.739   0.540   3.627  0.8519  0.2938  0.8246
 2416SOL    HW218885   0.857   0.600   3.592  1.3842 -2.6825  0.6662
 2417SOL     OW18886   3.914   0.592   6.746  0.0251  0.1770 -0.1283
 2417SOL    HW118887   3.855   0.664   6.769 -3.4954 -2.5013 -0.7937
 2417SOL    HW218888   3.946   0.557   6.829 -0.5268  0.4521  0.1985
 2418SOL     OW18889   1.357   1.398   3.567 -0.4651  0.2985  0.6469
 2418SOL    HW118890   1.389   1.487   3.553 -2.8015  0.7521 -1.7726
 2418SOL    HW218891   1.288   1.392   3.501 -0.1225 -1.0681  0.4049
 2419SOL     OW18892   0.868   2.360   5.662 -0.1286 -0.7314  0.1250
 2419SOL    HW118893   0.865   2.296   5.591  0.7563 -0.1287 -0.4507
 2419SOL    HW218894   0.860   2.447   5.624  2.0333 -0.5815  0.0218
 2420SOL     OW18895   2.742   0.866  17.130 -0.2537 -0.1858  0.5180
 2420SOL    HW118896   2.649   0.884  17.140 -0.2900 -0.6059  0.9601
 2420SOL    HW218897   2.760   0.850  17.223  0.0532  1.9142  0.8066
 2421SOL     OW18898   1.574   3.201   2.799  0.6726 -0.3987 -0.1223
 2421SOL    HW118899   1.618   3.122   2.831  3.6166  1.5651  0.7629
 2421SOL    HW218900   1.553   3.178   2.709  1.4777  1.2686 -0.7587
 2422SOL     OW18901   2.637   0.712   5.901  0.2150  0.7337 -0.1098
 2422SOL    HW118902   2.572   0.759   5.848 -0.2301  0.6343  0.3503
 2422SOL    HW218903   2.723   0.751   5.885  0.1722  0.6080 -0.6609
 2423SOL     OW18904   3.957   1.542   9.184 -0.5774  0.9477 -0.1856
 2423SOL    HW118905   3.949   1.637   9.181 -0.5326  1.0070  1.8393
 2423SOL    HW218906   4.051   1.530   9.198 -0.8689  0.8607  1.6894
 2424SOL     OW18907   1.115   0.974   4.824 -0.4566  0.1181  0.4805
 2424SOL    HW118908   1.106   1.065   4.853  3.4259  0.0753  1.7702
 2424SOL    HW218909   1.054   0.985   4.751 -0.4189  0.1513  0.4537
 2425SOL     OW18910   4.386   4.233   1.874 -0.6726  0.1489 -0.0678
 2425SOL    HW118911   4.381   4.180   1.954 -1.7920  0.2926 -0.0519
 2425SOL    HW218912   4.306   4.284   1.881 -1.2170 -0.4400 -2.2425
 2426SOL     OW18913   3.935   1.451   5.385 -0.1126  0.5223 -0.1431
 2426SOL    HW118914   3.889   1.409   5.313  0.8828  0.2303 -0.6123
 2426SOL    HW218915   3.981   1.521   5.338  1.4006 -0.0517  0.4615
 2427SOL     OW18916   3.080   0.235  10.157  0.0359  0.2307  0.6445
 2427SOL    HW118917   3.007   0.231  10.219 -3.0417 -0.2764 -3.0496
 2427SOL    HW218918   3.154   0.231  10.218 -1.2835 -1.3320  2.1644
 2428SOL     OW18919   4.449   1.037   9.359  0.2238  0.0744  0.7084
 2428SOL    HW118920   4.379   1.085   9.313 -0.3017 -1.4578 -0.0863
 2428SOL    HW218921   4.489   0.998   9.281 -0.6271 -1.3345  0.9750
 2429SOL     OW18922   1.891   2.882   4.665 -0.1833  0.0653  0.5037
 2429SOL    HW118923   1.843   2.927   4.735  1.0377  1.0054  0.7474
 2429SOL    HW218924   1.863   2.791   4.669 -2.8381  0.8146 -1.2810
 2430SOL     OW18925   2.447   2.928   3.635  0.2696  0.6239 -0.4675
 2430SOL    HW118926   2.478   2.911   3.724  1.0588 -3.4427 -1.5203
 2430SOL    HW218927   2.413   2.842   3.610 -1.1955  1.4999 -1.5080
 2431SOL     OW18928   2.581   1.707   5.011  0.4794 -0.2666  0.0234
 2431SOL    HW118929   2.618   1.718   4.923 -1.7678  0.6570 -0.8141
 2431SOL    HW218930   2.652   1.703   5.075  0.3106  0.0386  0.2287
 2432SOL     OW18931   1.313   0.207   4.071  0.1873  0.2635  0.5822
 2432SOL    HW118932   1.391   0.203   4.126 -0.3002  2.1885  1.4273
 2432SOL    HW218933   1.245   0.181   4.133  1.1736  2.4403  2.5584
 2433SOL     OW18934   2.853   2.622   8.829 -0.2735  0.5103  0.4019
 2433SOL    HW118935   2.819   2.548   8.777  2.2007  0.2131 -0.8082
 2433SOL    HW218936   2.802   2.604   8.908  1.1162  1.1369  1.4442
 2434SOL     OW18937   1.856   0.805   9.944  0.4446  0.5218  0.7439
 2434SOL    HW118938   1.816   0.857   9.875 -2.3996 -0.1887  1.8863
 2434SOL    HW218939   1.945   0.798   9.908  1.1514 -0.3316  2.6886
 2435SOL     OW18940   4.616   0.559   4.345  0.1955 -0.2058 -0.5514
 2435SOL    HW118941   4.555   0.550   4.273 -0.6149  0.7235  0.0166
 2435SOL    HW218942   4.577   0.513   4.420  0.7758  1.8133  1.0046
 2436SOL     OW18943   4.511   1.080   7.499 -0.3474  0.3367 -0.0031
 2436SOL    HW118944   4.531   1.171   7.474  1.1451  0.1718  0.5512
 2436SOL    HW218945   4.593   1.051   7.539 -0.9515 -1.0281  0.2185
 2437SOL     OW18946   1.956   1.968   4.379 -0.3217  0.2458  0.1146
 2437SOL    HW118947   1.997   1.977   4.465  2.0594  0.5605 -1.0324
 2437SOL    HW218948   2.033   1.927   4.339  0.4538  1.6508  0.1333
 2438SOL     OW18949   4.103   1.663  15.801 -0.1305 -0.0902  0.7726
 2438SOL    HW118950   4.099   1.684  15.708  0.6985 -0.2020  0.7140
 2438SOL    HW218951   4.175   1.599  15.801  0.3423  0.4103  2.9651
 2439SOL     OW18952   0.079   0.229   8.735  0.2499 -0.2192 -0.0165
 2439SOL    HW118953   0.037   0.270   8.659 -1.7869  0.9859  1.7645
 2439SOL    HW218954   0.007   0.189   8.783  0.5923  1.0803  1.5745
 2440SOL     OW18955   0.573   0.642   5.577 -0.0555 -0.1150  0.2388
 2440SOL    HW118956   0.570   0.736   5.597 -2.0973 -0.0010 -0.6176
 2440SOL    HW218957   0.599   0.622   5.667  1.9873 -0.1786 -0.3566
 2441SOL     OW18958   1.978   1.672   6.305  0.0623 -0.4675 -0.4991
 2441SOL    HW118959   1.911   1.702   6.243  0.9762  0.6823 -0.9356
 2441SOL    HW218960   2.054   1.683   6.249  0.6360 -0.0741  0.3602
 2442SOL     OW18961   3.813   3.407   4.088  0.1447  0.1681 -0.1959
 2442SOL    HW118962   3.750   3.353   4.136  0.0934  2.0234  1.8104
 2442SOL    HW218963   3.869   3.343   4.044  0.3250 -1.0977  1.9334
 2443SOL     OW18964   0.701   0.318  14.116  0.1049  0.1356  0.8520
 2443SOL    HW118965   0.683   0.275  14.032  2.2578 -0.0874  0.5043
 2443SOL    HW218966   0.630   0.382  14.124  1.8986  2.1488  0.6458
 2444SOL     OW18967   2.275   0.544   2.441  0.0389  0.1523  0.0236
 2444SOL    HW118968   2.255   0.459   2.482 -0.9949  0.6935  0.6645
 2444SOL    HW218969   2.369   0.557   2.452 -0.1148  3.0569 -2.2102
 2445SOL     OW18970   2.521   2.079   5.764  0.0964  0.0697  0.2676
 2445SOL    HW118971   2.572   2.082   5.683 -0.0570  1.5045  0.2087
 2445SOL    HW218972   2.491   1.989   5.769 -0.6356  0.2284 -1.2050
 2446SOL     OW18973   1.724   4.507   9.001 -0.5603  0.4288  0.0150
 2446SOL    HW118974   1.706   4.425   9.047 -0.8600  0.5122  0.0473
 2446SOL    HW218975   1.802   4.480   8.952 -0.8641 -3.3215  1.5753
 2447SOL     OW18976   0.771   0.660   0.353  0.1294  0.4277  0.3865
 2447SOL    HW118977   0.677   0.672   0.355 -0.2698 -2.8767  1.0677
 2447SOL    HW218978   0.787   0.618   0.268  0.5387  1.4465 -0.0357
 2448SOL     OW18979   2.478   1.942   2.744  0.6587 -0.0278  0.2397
 2448SOL    HW118980   2.386   1.950   2.771  0.8275 -0.7843  1.0190
 2448SOL    HW218981   2.492   2.026   2.700  4.4283 -1.8950 -2.0489
 2449SOL     OW18982   4.284   1.407   7.443 -0.0430 -0.0656 -0.5346
 2449SOL    HW118983   4.255   1.391   7.353 -3.4440  1.4063  0.3066
 2449SOL    HW218984   4.374   1.377   7.431 -0.2509 -0.8997 -0.0069
 2450SOL     OW18985   3.262   0.065  11.526  0.1773  0.1659 -0.4304
 2450SOL    HW118986   3.253   4.715  11.562 -2.9473  0.1302 -1.2471
 2450SOL    HW218987   3.197   0.113  11.578 -0.3082 -1.9873  0.9970
 2451SOL     OW18988   4.172   2.396   3.029 -0.2094  0.8264  0.1850
 2451SOL    HW118989   4.130   2.469   3.075 -1.4238  1.6859 -2.2759
 2451SOL    HW218990   4.091   2.345   3.015 -0.3563  0.4547  2.3684
 2452SOL     OW18991   4.587   0.849  13.650  0.0612  0.1539  0.0442
 2452SOL    HW118992   4.654   0.816  13.590  0.4927 -1.3251  1.3360
 2452SOL    HW218993   4.528   0.776  13.667 -0.7639  0.9144  0.4217
 2453SOL     OW18994   2.656   0.726  17.678 -0.3703 -0.1404  0.0458
 2453SOL    HW118995   2.608   0.709   0.005  0.1986 -2.0229 -0.0187
 2453SOL    HW218996   2.593   0.697  17.612 -2.4190  0.4308  1.7299
 2454SOL     OW18997   1.066   0.357  15.825 -0.5159  0.1378 -0.0417
 2454SOL    HW118998   1.061   0.354  15.921  2.3617  0.5444  0.1378
 2454SOL    HW218999   1.020   0.278  15.798 -1.6536  0.7284  0.1485
 2455SOL     OW19000   1.179   2.012  11.942 -0.2839 -0.0705  0.4861
 2455SOL    HW119001   1.111   1.952  11.912  1.7044 -2.3096  0.4923
 2455SOL    HW219002   1.233   1.955  11.996 -3.5411 -1.3944  2.3678
 2456SOL     OW19003   4.675   2.953   4.207 -0.3367 -0.0247  0.3222
 2456SOL    HW119004   0.027   2.982   4.203 -0.3380  0.0951  1.1710
 2456SOL    HW219005   4.682   2.907   4.291  1.9946 -0.2067  0.0201
 2457SOL     OW19006   1.156   0.800  11.583  0.2943 -0.1853  0.0309
 2457SOL    HW119007   1.170   0.816  11.677 -0.7455  1.5015 -0.1052
 2457SOL    HW219008   1.231   0.840  11.540 -0.3523  0.4015 -0.5368
 2458SOL     OW19009   2.201   4.722  15.843 -0.1482  0.0045 -0.1159
 2458SOL    HW119010   2.232   4.643  15.888 -1.5660 -1.0712 -1.0097
 2458SOL    HW219011   2.167   4.682  15.762  0.9463  1.3574 -1.2416
 2459SOL     OW19012   3.788   1.790   0.838 -0.2827 -0.0766 -0.4535
 2459SOL    HW119013   3.850   1.863   0.846  2.4620 -2.5983  1.1068
 2459SOL    HW219014   3.707   1.830   0.807  0.7957 -0.4685 -3.7685
 2460SOL     OW19015   3.764   2.700  16.788  0.4753  0.3000  0.1512
 2460SOL    HW119016   3.837   2.641  16.808  1.0963  0.6654 -1.0342
 2460SOL    HW219017   3.716   2.708  16.871  0.3110 -0.3242  0.1145
 2461SOL     OW19018   0.258   2.492   2.216  0.5451  0.0505  0.3798
 2461SOL    HW119019   0.194   2.469   2.283  1.0407  0.2102  0.9108
 2461SOL    HW219020   0.325   2.533   2.270  1.2538  2.4576 -2.3834
 2462SOL     OW19021   2.368   0.022   2.919  0.3091 -0.2559 -0.2548
 2462SOL    HW119022   2.396   0.064   2.838 -1.9660 -0.0321 -0.9244
 2462SOL    HW219023   2.369   4.667   2.902  0.6598 -0.3794  0.4355
 2463SOL     OW19024   4.659   3.175   0.423  0.3422  0.6026  0.5157
 2463SOL    HW119025   4.679   3.258   0.466 -1.9097  0.5875  1.5598
 2463SOL    HW219026   4.564   3.180   0.435  0.6006  0.8095  2.3389
 2464SOL     OW19027   2.125   0.537  11.947  0.3285 -0.7995  0.2720
 2464SOL    HW119028   2.106   0.536  12.041  0.9168 -1.0283  0.3897
 2464SOL    HW219029   2.149   0.448  11.924  1.4733  0.0449 -1.8384
 2465SOL     OW19030   3.265   2.963  17.096  0.4974  0.4887 -0.1023
 2465SOL    HW119031   3.255   3.018  17.174 -2.5448 -0.7701  0.4066
 2465SOL    HW219032   3.234   3.022  17.028  1.1793 -0.0261 -0.8626
 2466SOL     OW19033   1.346   0.013   6.357 -0.3868 -0.3867  0.2969
 2466SOL    HW119034   1.315   4.669   6.393 -2.5108 -0.4460 -1.6854
 2466SOL    HW219035   1.414   0.040   6.419  1.8907 -0.0732 -2.3005
 2467SOL     OW19036   0.803   3.800   9.936 -0.0730  0.4707 -0.1709
 2467SOL    HW119037   0.747   3.766  10.005  0.2424  0.4109  0.0572
 2467SOL    HW219038   0.792   3.893   9.955  0.0288  0.1528  1.4325
 2468SOL     OW19039   0.686   1.681  13.980 -0.0168 -0.1489 -0.4602
 2468SOL    HW119040   0.608   1.626  13.982  0.6011 -1.0006  0.4673
 2468SOL    HW219041   0.682   1.710  13.889 -1.4703 -1.1791 -0.7023
 2469SOL     OW19042   2.164   2.285  13.267 -0.1483  0.4692  0.4706
 2469SOL    HW119043   2.225   2.241  13.208  0.6115  1.8479  0.2138
 2469SOL    HW219044   2.077   2.262  13.235 -0.7444  2.2656  0.8144
 2470SOL     OW19045   0.956   0.052   6.823 -0.2187 -0.1411  0.0990
 2470SOL    HW119046   1.002   0.048   6.739  0.4464  4.0824  0.2610
 2470SOL    HW219047   0.968   0.145   6.841 -2.9247  0.0216  1.0766
 2471SOL     OW19048   2.670   1.377   8.487 -0.0642 -0.5116 -0.3159
 2471SOL    HW119049   2.624   1.402   8.567  1.7485  2.7387 -0.2960
 2471SOL    HW219050   2.635   1.447   8.432  0.4884  0.9295  1.1724
 2472SOL     OW19051   2.394   0.834   6.801 -0.4139  0.8025  0.3605
 2472SOL    HW119052   2.479   0.869   6.773 -0.5685  0.4699 -0.5358
 2472SOL    HW219053   2.343   0.864   6.726  0.5904 -0.4585 -0.8333
 2473SOL     OW19054   3.168   2.209   0.851 -0.1332  0.0341  0.1273
 2473SOL    HW119055   3.092   2.262   0.875  1.3276  2.9485 -1.7308
 2473SOL    HW219056   3.216   2.279   0.807  0.4789 -0.7884 -0.5069
 2474SOL     OW19057   2.355   0.674   7.402  0.3849 -0.3302  0.7227
 2474SOL    HW119058   2.302   0.672   7.322 -0.2287 -1.8171  1.1641
 2474SOL    HW219059   2.312   0.607   7.455 -0.7162 -0.1436  0.0567
 2475SOL     OW19060   4.627   3.936   9.670  0.1734  0.5082  0.1925
 2475SOL    HW119061   4.697   3.951   9.606  0.8349  1.4084  1.1342
 2475SOL    HW219062   4.650   4.002   9.735  0.1010  0.5673  0.1584
 2476SOL     OW19063   1.640   2.813   5.088 -0.4169 -1.2217  0.0067
 2476SOL    HW119064   1.581   2.739   5.075  0.4222 -1.3986 -2.7313
 2476SOL    HW219065   1.678   2.800   5.175 -0.4615  0.8877  0.3544
 2477SOL     OW19066   2.628   2.300   7.585  0.2066  0.5612 -0.1912
 2477SOL    HW119067   2.534   2.316   7.577  0.3886  1.2882 -0.7938
 2477SOL    HW219068   2.634   2.204   7.589 -0.4778  0.6055  1.6623
 2478SOL     OW19069   2.021   1.119   1.732  0.1372 -0.0822 -0.0155
 2478SOL    HW119070   2.038   1.092   1.642 -1.7623 -0.8255 -0.1653
 2478SOL    HW219071   1.963   1.053   1.771 -0.5170 -0.2093 -1.2067
 2479SOL     OW19072   3.953   4.585   2.842  0.1862  0.0864  0.7854
 2479SOL    HW119073   3.882   4.649   2.836  0.3552  0.0571 -1.4557
 2479SOL    HW219074   4.002   4.610   2.921  2.3293 -1.5056 -0.0472
 2480SOL     OW19075   2.827   3.478   9.428 -0.3278 -0.8377  0.0802
 2480SOL    HW119076   2.779   3.495   9.509 -0.4179 -2.5157  0.3953
 2480SOL    HW219077   2.832   3.564   9.388 -2.0752 -1.0559 -0.6144
 2481SOL     OW19078   3.625   4.206   7.675 -0.2059  0.6412 -0.3925
 2481SOL    HW119079   3.607   4.113   7.662 -0.0135  0.8026 -1.7843
 2481SOL    HW219080   3.542   4.237   7.710 -0.3859 -1.3111  0.8628
 2482SOL     OW19081   1.038   2.303  15.344  0.0301  0.5327  0.3313
 2482SOL    HW119082   1.012   2.363  15.414  0.7741  1.8521 -0.5200
 2482SOL    HW219083   0.962   2.245  15.341 -1.4418  2.4705  0.6064
 2483SOL     OW19084   3.572   1.820   6.775  0.0679 -0.6785  0.3616
 2483SOL    HW119085   3.664   1.795   6.775  0.3094  0.1990 -0.2098
 2483SOL    HW219086   3.585   1.894   6.834  1.4555 -1.6157  1.2094
 2484SOL     OW19087   4.567   3.876  15.700  0.0093  0.0269 -0.2384
 2484SOL    HW119088   4.552   3.905  15.610  0.6480  1.6815  0.1760
 2484SOL    HW219089   4.539   3.953  15.750 -1.4322 -0.1296 -0.7989
 2485SOL     OW19090   3.511   0.642   2.899 -0.5033  0.1578 -0.3196
 2485SOL    HW119091   3.447   0.601   2.841  1.1085  0.9700 -2.6842
 2485SOL    HW219092   3.558   0.567   2.937 -0.0955  2.5972  3.9919
 2486SOL     OW19093   1.988   4.143  12.147  0.5483  0.1546  0.2530
 2486SOL    HW119094   2.042   4.210  12.105 -0.2221  1.2861  1.0855
 2486SOL    HW219095   1.901   4.174  12.123  0.7588 -0.6824 -1.6168
 2487SOL     OW19096   0.295   4.124   2.746 -0.1334 -0.6452  0.0764
 2487SOL    HW119097   0.251   4.043   2.769  0.6144 -1.9311 -3.1055
 2487SOL    HW219098   0.311   4.165   2.831  2.2581  2.8058 -2.0091
 2488SOL     OW19099   1.174   1.591   4.281  0.0887  0.5358 -0.1141
 2488SOL    HW119100   1.213   1.619   4.364 -0.2492  0.6658  0.0015
 2488SOL    HW219101   1.134   1.511   4.315 -1.0823  1.1203 -0.1093
 2489SOL     OW19102   2.137   4.336   5.097  0.0255 -0.1174  0.1600
 2489SOL    HW119103   2.097   4.266   5.046  0.6007 -0.1802 -0.2067
 2489SOL    HW219104   2.161   4.400   5.030 -0.0855  0.5598  0.7747
 2490SOL     OW19105   1.816   1.679  13.719 -0.0253  0.1669 -0.2108
 2490SOL    HW119106   1.880   1.710  13.654  0.8051 -1.3429 -0.1367
 2490SOL    HW219107   1.864   1.606  13.758 -0.7139 -0.6463 -0.8822
 2491SOL     OW19108   2.782   4.448   2.149  0.2148  0.5823 -0.3473
 2491SOL    HW119109   2.833   4.374   2.118 -0.9578 -0.3718 -0.0180
 2491SOL    HW219110   2.832   4.463   2.230 -0.7217  1.5229  0.0540
 2492SOL     OW19111   1.987   3.480   3.284  0.0893 -0.4315  0.2659
 2492SOL    HW119112   1.894   3.472   3.267  0.0634  4.1410 -1.7775
 2492SOL    HW219113   1.998   3.536   3.361  2.7365 -0.2387 -0.2175
 2493SOL     OW19114   0.760   2.523  14.355 -0.3065  1.0505  0.4404
 2493SOL    HW119115   0.679   2.474  14.357  0.3071  0.0446  0.4079
 2493SOL    HW219116   0.739   2.612  14.327 -0.0886  1.0249  0.1882
 2494SOL     OW19117   3.786   1.861   5.996  0.8006 -0.4262  0.0107
 2494SOL    HW119118   3.789   1.933   6.059 -0.3577 -0.2656 -0.1252
 2494SOL    HW219119   3.817   1.914   5.923 -3.3398  0.4952 -1.0668
 2495SOL     OW19120   1.751   2.731   7.847 -0.0650 -0.3005 -0.1800
 2495SOL    HW119121   1.671   2.765   7.887 -0.0420 -0.6289  0.1520
 2495SOL    HW219122   1.775   2.664   7.911 -2.6051 -2.1525 -1.1885
 2496SOL     OW19123   1.666   4.370   5.496 -0.1857  0.3747 -0.4333
 2496SOL    HW119124   1.756   4.404   5.490  0.5410 -1.4420  0.0683
 2496SOL    HW219125   1.673   4.366   5.591  1.3004  4.2088 -0.3593
 2497SOL     OW19126   3.910   3.282  17.563 -0.1911 -0.1968  0.6581
 2497SOL    HW119127   3.887   3.371  17.537 -1.3847 -0.3521  1.1772
 2497SOL    HW219128   4.004   3.283  17.541 -0.5407 -0.5088 -0.8535
 2498SOL     OW19129   2.925   2.618   3.855  0.2183  0.5541  0.2822
 2498SOL    HW119130   2.910   2.682   3.785 -1.0846  1.5336  1.4277
 2498SOL    HW219131   3.018   2.600   3.844  0.2226  1.6938 -1.5940
 2499SOL     OW19132   1.072   0.665   4.217 -0.0576  0.8261 -0.1936
 2499SOL    HW119133   1.041   0.579   4.244  0.7424  0.4257 -0.5742
 2499SOL    HW219134   1.026   0.717   4.284  0.5574  0.1369  0.7620
 2500SOL     OW19135   0.858   0.302   5.175  0.5211  0.0857 -0.3476
 2500SOL    HW119136   0.894   0.296   5.264 -3.1617 -1.3353  1.0459
 2500SOL    HW219137   0.937   0.269   5.134  0.1105 -0.3314 -0.8030
 2501SOL     OW19138   3.694   1.793  10.849  0.0883 -0.2290  0.3397
 2501SOL    HW119139   3.687   1.782  10.944 -0.4439  0.0029  0.3235
 2501SOL    HW219140   3.690   1.700  10.829  1.3862 -0.2920  0.3654
 2502SOL     OW19141   2.233   3.827   3.652  0.2777  0.1994 -0.3408
 2502SOL    HW119142   2.219   3.804   3.743 -0.1321  3.8923  0.5606
 2502SOL    HW219143   2.328   3.824   3.647  0.3045 -0.7009  0.9084
 2503SOL     OW19144   1.874   4.725   8.501 -0.1956  0.1120  0.0425
 2503SOL    HW119145   1.817   4.702   8.428 -1.6754  0.6495  1.0414
 2503SOL    HW219146   1.831   4.702   8.584  0.0584  0.0700  0.1634
 2504SOL     OW19147   1.284   4.014   3.961  0.0027  0.3283  0.3820
 2504SOL    HW119148   1.213   3.993   3.900  1.0903 -0.2386 -0.6923
 2504SOL    HW219149   1.281   4.109   3.949  0.2421  0.2375 -0.4231
 2505SOL     OW19150   2.280   0.076  13.118 -1.0625  0.4655 -0.0683
 2505SOL    HW119151   2.360   0.026  13.100  0.4415  2.9668 -0.3390
 2505SOL    HW219152   2.316   0.142  13.178 -1.2791 -0.9138  1.5887
 2506SOL     OW19153   1.595   4.263   7.313  0.2720 -0.3949  0.7547
 2506SOL    HW119154   1.538   4.189   7.295  1.8140 -0.9281 -1.9604
 2506SOL    HW219155   1.539   4.339   7.300 -0.5628 -1.0816  0.3713
 2507SOL     OW19156   2.036   2.155   8.702 -0.5287  0.1753  0.0733
 2507SOL    HW119157   1.961   2.100   8.679  0.4243 -1.0950 -0.0355
 2507SOL    HW219158   2.073   2.171   8.615 -1.8950 -1.7549 -0.8539
 2508SOL     OW19159   0.586   3.131   1.819  0.1168 -0.2652  0.0183
 2508SOL    HW119160   0.561   3.059   1.760  1.5573 -2.0781  1.5859
 2508SOL    HW219161   0.651   3.095   1.880 -0.0598 -0.6421 -0.0155
 2509SOL     OW19162   2.467   1.089   8.460  0.1010 -0.5757 -0.8030
 2509SOL    HW119163   2.538   1.031   8.487 -0.6509 -0.3009  1.7607
 2509SOL    HW219164   2.401   1.038   8.413  0.5021 -0.3671 -1.5991
 2510SOL     OW19165   3.505   4.109  13.197 -0.1371  0.5452 -0.3402
 2510SOL    HW119166   3.447   4.119  13.273 -0.5032  0.4106 -0.6009
 2510SOL    HW219167   3.561   4.185  13.210  0.1125  0.2682  0.2296
 2511SOL     OW19168   0.012   3.231   8.707  0.3830  0.8651  0.3420
 2511SOL    HW119169   0.034   3.242   8.800  0.0471  1.8186  0.3091
 2511SOL    HW219170   4.661   3.202   8.697  0.7459 -0.0085 -0.3809
 2512SOL     OW19171   2.106   3.238  13.523 -0.3965 -0.0710 -0.5056
 2512SOL    HW119172   2.148   3.214  13.441  2.2754  2.6724  0.0704
 2512SOL    HW219173   2.050   3.163  13.544  0.6639 -0.2985  1.5791
 2513SOL     OW19174   0.854   1.725   0.675  0.2707  0.0045  0.0441
 2513SOL    HW119175   0.821   1.803   0.629  1.5559  1.0466  0.8610
 2513SOL    HW219176   0.779   1.680   0.714  0.7438 -0.6164  0.2216
 2514SOL     OW19177   4.489   1.837   4.688 -0.4968  0.0616 -0.5915
 2514SOL    HW119178   4.438   1.908   4.727  2.1781  0.7588  1.6557
 2514SOL    HW219179   4.562   1.879   4.641  0.7352 -0.8772  0.4592
 2515SOL     OW19180   3.889   0.350   9.195 -0.1956 -0.1713  0.0341
 2515SOL    HW119181   3.913   0.349   9.287  0.1348 -0.8764 -0.0606
 2515SOL    HW219182   3.978   0.351   9.160  0.1148  1.5327  0.9006
 2516SOL     OW19183   0.128   3.743   4.327 -0.6850 -0.3815 -0.1250
 2516SOL    HW119184   0.110   3.797   4.403 -2.0132  0.2184 -0.8676
 2516SOL    HW219185   0.063   3.673   4.336 -0.9874  0.2279  2.4526
 2517SOL     OW19186   3.752   3.498   6.015 -0.5578 -0.4536  0.0950
 2517SOL    HW119187   3.846   3.489   6.029 -0.8072 -1.9313  0.7755
 2517SOL    HW219188   3.754   3.575   5.957  1.5316 -1.0185 -0.5888
 2518SOL     OW19189   4.032   0.190   7.941  0.2316 -0.7399 -0.2522
 2518SOL    HW119190   3.993   0.276   7.954  1.1059 -0.5312  1.0140
 2518SOL    HW219191   4.010   0.142   8.021  0.2523 -0.2026  0.0697
 2519SOL     OW19192   3.138   0.115   2.507  0.2457  0.1366 -0.4153
 2519SOL    HW119193   3.141   0.021   2.523  0.7602  0.1206 -0.6217
 2519SOL    HW219194   3.125   0.123   2.413  2.7804  1.2927 -0.6827
 2520SOL     OW19195   0.172   1.619   6.594 -0.1348  0.0480  0.0178
 2520SOL    HW119196   0.087   1.588   6.561 -1.2979 -0.6195  3.6748
 2520SOL    HW219197   0.138   1.679   6.660  2.6228  1.2314  0.3539
 2521SOL     OW19198   4.053   4.329   7.140 -0.1405 -0.1410  0.2868
 2521SOL    HW119199   3.963   4.354   7.118  0.5828  2.3498  0.1173
 2521SOL    HW219200   4.047   4.344   7.234 -0.5492 -0.7756  0.3630
 2522SOL     OW19201   0.760   4.679  11.242  0.5242 -0.1102  0.1561
 2522SOL    HW119202   0.843   4.639  11.267  1.6094  1.3567 -1.0487
 2522SOL    HW219203   0.763   0.034  11.263 -1.8604 -0.6267  2.7022
 2523SOL     OW19204   1.760   0.859   4.259  0.5290 -0.2928  0.4625
 2523SOL    HW119205   1.769   0.954   4.254  2.2469 -0.4735  0.0412
 2523SOL    HW219206   1.807   0.824   4.183 -1.0193 -1.3902  0.0021
 2524SOL     OW19207   2.960   2.108   5.740  0.1437 -0.1583 -0.5894
 2524SOL    HW119208   2.889   2.169   5.760  1.8087  0.1774  4.3612
 2524SOL    HW219209   3.025   2.144   5.800 -1.1389  0.3116  0.5169
 2525SOL     OW19210   0.986   0.045   2.004  0.8087 -0.0898  0.3106
 2525SOL    HW119211   1.079   0.062   1.990  1.0028 -0.3876  1.2631
 2525SOL    HW219212   0.944   0.128   1.979  0.2451 -0.1951  0.9099
 2526SOL     OW19213   3.040   3.941   7.125  0.4826 -0.4611 -0.7325
 2526SOL    HW119214   3.090   3.915   7.048  0.4209 -0.3307 -0.8149
 2526SOL    HW219215   2.970   3.875   7.127  0.7405 -0.6727  1.3571
 2527SOL     OW19216   3.088   2.717   0.695 -0.2720 -0.1283  0.3480
 2527SOL    HW119217   3.087   2.624   0.674 -0.8536 -0.7511  3.2097
 2527SOL    HW219218   3.183   2.723   0.707 -0.2228  1.2374 -0.6220
 2528SOL     OW19219   2.973   3.252   6.234 -0.2539  0.7619  0.2274
 2528SOL    HW119220   3.055   3.301   6.232 -0.8161  1.6819 -0.3832
 2528SOL    HW219221   2.998   3.163   6.211  0.5198  0.7859  0.9744
 2529SOL     OW19222   3.090   2.739   6.381 -0.0858  0.4391  0.6060
 2529SOL    HW119223   3.151   2.674   6.415  1.2806  1.6214  0.4200
 2529SOL    HW219224   3.083   2.793   6.461 -0.1886  1.7688 -0.2942
 2530SOL     OW19225   3.600   1.955  17.669 -0.3368  0.0447 -0.5290
 2530SOL    HW119226   3.523   1.962  17.726  0.4032  2.0173  0.2388
 2530SOL    HW219227   3.673   1.970  17.730 -0.2358  0.6842 -0.8095
 2531SOL     OW19228   2.686   1.134  13.308 -0.6549 -0.9305  0.3419
 2531SOL    HW119229   2.735   1.216  13.308 -1.8953 -0.1850 -1.0542
 2531SOL    HW219230   2.745   1.070  13.268  1.2281 -0.6612  2.6976
 2532SOL     OW19231   3.872   2.517  10.448 -0.1980  0.1843  0.0342
 2532SOL    HW119232   3.932   2.490  10.517 -0.6784  0.9490  0.7515
 2532SOL    HW219233   3.895   2.606  10.423  0.8335 -0.7046 -2.1182
 2533SOL     OW19234   3.107   4.165   2.886 -0.0098  0.2593  0.4700
 2533SOL    HW119235   3.044   4.093   2.883 -0.7379  0.8743  1.4176
 2533SOL    HW219236   3.189   4.115   2.875 -1.5457 -1.8772 -1.4073
 2534SOL     OW19237   1.695   2.087   9.250  0.2709 -0.6502  0.9050
 2534SOL    HW119238   1.760   2.152   9.276 -0.4302 -0.6132  2.5317
 2534SOL    HW219239   1.727   2.074   9.161  1.6195 -0.5324  1.3726
 2535SOL     OW19240   3.259   3.627   5.112 -0.3620  0.0884  0.3716
 2535SOL    HW119241   3.304   3.712   5.118 -1.6667  0.7351  0.9802
 2535SOL    HW219242   3.187   3.646   5.052  1.7027  0.2304 -2.0780
 2536SOL     OW19243   4.431   2.127  13.787  0.6466  0.4711  0.2929
 2536SOL    HW119244   4.371   2.126  13.713  0.7613 -2.4607  0.2705
 2536SOL    HW219245   4.426   2.217  13.819 -0.5699  1.0106 -1.3806
 2537SOL     OW19246   0.528   1.483  17.662  0.4218  0.0453 -0.4192
 2537SOL    HW119247   0.542   1.555  17.724  3.2889 -2.2757  1.6219
 2537SOL    HW219248   0.560   1.405  17.707 -0.1086  0.0394 -0.0557
 2538SOL     OW19249   1.859   0.170  14.866 -0.0013 -0.5044  0.0733
 2538SOL    HW119250   1.891   0.254  14.898  1.0630 -0.9333  0.1332
 2538SOL    HW219251   1.930   0.160  14.802 -0.8597 -2.6392 -0.5568
 2539SOL     OW19252   2.933   0.415   2.940 -0.0917 -0.1160 -0.6964
 2539SOL    HW119253   3.013   0.407   2.887  0.3287 -0.3953 -0.0256
 2539SOL    HW219254   2.969   0.433   3.027  0.0103 -0.1346 -0.7350
 2540SOL     OW19255   1.877   2.809   4.402  0.8225  0.0195 -0.0421
 2540SOL    HW119256   1.905   2.858   4.479  1.6903 -1.6685  0.7258
 2540SOL    HW219257   1.902   2.722   4.434  0.6953  0.1791  0.4738
 2541SOL     OW19258   0.169   1.888   3.993 -0.2012  0.0982 -0.1517
 2541SOL    HW119259   0.180   1.967   3.939  1.2431 -1.4539 -2.1136
 2541SOL    HW219260   0.230   1.896   4.066 -0.8453  0.8592  0.3117
 2542SOL     OW19261   3.149   2.153   7.960  0.6412 -0.0031 -0.0447
 2542SOL    HW119262   3.125   2.085   7.897 -2.5440  0.6495  0.4939
 2542SOL    HW219263   3.206   2.206   7.904  0.4390  2.7536  2.3875
 2543SOL     OW19264   4.205   1.586   1.029 -0.2533 -0.5387 -0.2199
 2543SOL    HW119265   4.240   1.545   1.108  0.6502  1.6769  0.5192
 2543SOL    HW219266   4.250   1.668   1.048  0.7011 -0.5793 -2.2940
 2544SOL     OW19267   3.149   2.205   5.934  0.7189 -0.2692 -0.4374
 2544SOL    HW119268   3.121   2.216   6.024  0.7417  1.4053 -0.6470
 2544SOL    HW219269   3.210   2.275   5.910  0.6221  0.4262  1.3337
 2545SOL     OW19270   0.647   0.466   3.958  0.3041 -0.1911  0.3616
 2545SOL    HW119271   0.646   0.435   4.048  0.8404  0.7143  0.6806
 2545SOL    HW219272   0.723   0.523   3.965  0.2423 -0.1555  0.7344
 2546SOL     OW19273   2.244   0.419   7.467 -0.3306  0.4231  0.0075
 2546SOL    HW119274   2.160   0.380   7.441  0.3961 -1.0270 -0.1640
 2546SOL    HW219275   2.255   0.391   7.558 -0.1550 -2.2438 -0.8477
 2547SOL     OW19276   4.248   4.366  16.900 -0.2289  0.5513 -0.9255
 2547SOL    HW119277   4.334   4.350  16.861 -0.7353 -1.2213 -1.3439
 2547SOL    HW219278   4.211   4.426  16.835  0.4552 -0.1948 -2.0067
 2548SOL     OW19279   1.924   1.852  16.058 -0.0445  0.2996  0.4081
 2548SOL    HW119280   2.009   1.895  16.073 -0.1370 -0.0330  1.9119
 2548SOL    HW219281   1.884   1.910  15.994  0.7953  1.4101  0.8978
 2549SOL     OW19282   4.438   3.551   3.066  0.1361 -0.1579 -0.3327
 2549SOL    HW119283   4.511   3.572   3.008 -0.9499  0.8981 -1.3207
 2549SOL    HW219284   4.361   3.607   3.055 -0.4651 -0.2563  3.5027
 2550SOL     OW19285   3.758   1.672  15.356 -0.1145 -0.2453 -0.7155
 2550SOL    HW119286   3.793   1.590  15.391  4.0088  1.3991 -1.0702
 2550SOL    HW219287   3.670   1.669  15.395 -0.0789 -0.8847 -0.6831
 2551SOL     OW19288   1.464   4.472   7.196  0.4471 -0.1194  0.3080
 2551SOL    HW119289   1.514   4.546   7.231 -0.4864  1.0577 -0.8531
 2551SOL    HW219290   1.448   4.513   7.111  0.5592  3.0140  1.7829
 2552SOL     OW19291   3.830   1.996  13.926 -0.1478  0.1892 -0.1457
 2552SOL    HW119292   3.919   2.004  13.961  0.2323 -3.4339 -0.2665
 2552SOL    HW219293   3.833   2.042  13.842 -1.7455  0.9344  0.2156
 2553SOL     OW19294   1.127   1.535  17.286  0.4000 -0.2413  0.0233
 2553SOL    HW119295   1.119   1.547  17.381  1.0176 -1.0651  0.1869
 2553SOL    HW219296   1.039   1.552  17.254 -0.0090  1.7378  2.1956
 2554SOL     OW19297   4.681   3.089   9.784 -0.0440 -0.3664  0.6717
 2554SOL    HW119298   4.679   2.994   9.794  1.7183 -0.5772 -1.1915
 2554SOL    HW219299   4.738   3.109   9.711 -0.8529  1.8157  0.6338
 2555SOL     OW19300   3.892   4.149  10.250 -0.1346 -0.0202 -0.1284
 2555SOL    HW119301   3.910   4.066  10.206 -0.1307 -1.1642  2.0310
 2555SOL    HW219302   3.975   4.193  10.235 -0.1159 -0.0635 -0.1503
 2556SOL     OW19303   0.499   0.189   3.264  0.3821  0.7114 -0.4250
 2556SOL    HW119304   0.523   0.186   3.172  0.8997  1.5877 -0.3146
 2556SOL    HW219305   0.579   0.205   3.314  0.5801 -0.2033 -0.4504
 2557SOL     OW19306   1.883   3.999   1.270 -0.4360 -0.1975  0.4328
 2557SOL    HW119307   1.870   4.044   1.353 -1.1933  0.7825 -0.2258
 2557SOL    HW219308   1.953   3.940   1.300 -0.6743 -0.8563 -0.3105
 2558SOL     OW19309   0.108   3.044   7.467  0.0540  0.1116  0.1446
 2558SOL    HW119310   0.127   2.992   7.545  0.0606 -1.3481 -0.8299
 2558SOL    HW219311   0.089   2.973   7.406 -2.9456 -0.9120  2.2640
 2559SOL     OW19312   4.267   0.733   6.472 -0.0996 -0.1010 -0.1044
 2559SOL    HW119313   4.333   0.748   6.405 -0.0586  1.7784  0.3585
 2559SOL    HW219314   4.328   0.704   6.540 -1.1425 -1.5685  0.2085
 2560SOL     OW19315   1.863   1.041   0.452  0.0150 -0.5882 -0.0435
 2560SOL    HW119316   1.779   1.086   0.443 -1.2208 -2.0989  3.7633
 2560SOL    HW219317   1.890   1.006   0.367 -0.8882  0.8692 -0.9252
 2561SOL     OW19318   3.251   1.873  11.369 -0.3595  0.0005 -0.5779
 2561SOL    HW119319   3.333   1.919  11.355 -0.2945  0.6879  1.9965
 2561SOL    HW219320   3.184   1.939  11.355  0.2348  0.8636  0.6838
 2562SOL     OW19321   1.564   0.890   3.325  0.6605  0.0976  0.1121
 2562SOL    HW119322   1.633   0.914   3.263  0.1080 -0.1649 -0.5950
 2562SOL    HW219323   1.521   0.815   3.286  1.3407 -1.3347  2.0796
 2563SOL     OW19324   3.011   0.775   1.027  0.0169 -0.6371 -0.3897
 2563SOL    HW119325   2.963   0.827   1.093  0.1486 -1.5449  0.4165
 2563SOL    HW219326   2.991   0.685   1.054 -1.6660  0.1231  0.9692
 2564SOL     OW19327   3.303   3.941   1.598  0.1865  0.3756  0.3862
 2564SOL    HW119328   3.252   3.968   1.521  0.6377 -1.9505 -0.7454
 2564SOL    HW219329   3.366   3.880   1.559  0.7457  0.3134  1.4014
 2565SOL     OW19330   0.176   1.342   4.614 -0.3061  0.0309  0.4981
 2565SOL    HW119331   0.184   1.248   4.625 -1.8914 -0.2491 -0.8014
 2565SOL    HW219332   0.203   1.344   4.522  0.0426  2.0518  0.6297
 2566SOL     OW19333   4.259   1.311   6.475  0.0371 -0.7922 -0.3753
 2566SOL    HW119334   4.343   1.319   6.521 -0.4890 -0.1778  0.4727
 2566SOL    HW219335   4.250   1.216   6.472  1.7381 -0.9783  0.1054
 2567SOL     OW19336   2.967   3.321  14.497  0.1842  0.0075 -0.0791
 2567SOL    HW119337   2.882   3.322  14.541 -0.2478  0.5773 -0.9257
 2567SOL    HW219338   2.959   3.398  14.441  0.7032 -0.2071 -0.4497
 2568SOL     OW19339   2.835   1.315   2.841  0.1398 -0.7709  0.2161
 2568SOL    HW119340   2.809   1.407   2.829  2.5510 -0.3304 -1.6181
 2568SOL    HW219341   2.925   1.319   2.808  0.7842 -0.1414  2.0358
 2569SOL     OW19342   2.728   3.797   8.609  0.0487 -0.2298  0.1577
 2569SOL    HW119343   2.765   3.791   8.697 -0.7836  0.9946  0.5948
 2569SOL    HW219344   2.636   3.817   8.624 -0.3742 -0.5402 -2.0073
 2570SOL     OW19345   1.748   3.841  14.106 -0.0053 -0.3611 -0.2120
 2570SOL    HW119346   1.655   3.863  14.109  0.5373  1.8529  0.2983
 2570SOL    HW219347   1.766   3.871  14.195 -0.3373 -0.3360 -0.1531
 2571SOL     OW19348   1.964   0.536   6.540 -0.0458 -0.3699 -0.1919
 2571SOL    HW119349   1.918   0.619   6.555 -1.0101 -0.7080 -1.2702
 2571SOL    HW219350   1.957   0.501   6.629  1.1778  1.1645  0.5224
 2572SOL     OW19351   2.080   1.097   4.056  0.1357  0.1421  0.4332
 2572SOL    HW119352   2.118   1.093   4.144  2.3721 -1.4306 -0.6143
 2572SOL    HW219353   2.012   1.164   4.065  0.3051 -0.0521  3.2422
 2573SOL     OW19354   0.117   2.471   7.755  0.3261  0.0365 -0.7143
 2573SOL    HW119355   0.109   2.382   7.789  2.1867 -0.2339 -0.9783
 2573SOL    HW219356   0.110   2.515   7.839  0.9687 -0.0462 -0.6151
 2574SOL     OW19357   4.368   4.259   3.401  0.2870 -0.5367 -0.4470
 2574SOL    HW119358   4.457   4.292   3.404  0.0400  0.2231 -1.3962
 2574SOL    HW219359   4.382   4.213   3.318  1.0667  0.2122 -0.7218
 2575SOL     OW19360   0.365   4.403   6.820 -0.0379  0.4042 -0.3243
 2575SOL    HW119361   0.328   4.488   6.845  0.6793 -0.1147  2.5065
 2575SOL    HW219362   0.446   4.419   6.868  0.0010  0.4864 -0.4171
 2576SOL     OW19363   3.745   3.787   3.206  0.0057 -0.2007  0.2688
 2576SOL    HW119364   3.765   3.724   3.275  0.5280  0.9243  1.1452
 2576SOL    HW219365   3.764   3.874   3.241 -2.3193 -0.1033  1.2899
 2577SOL     OW19366   4.699   3.819   1.936  0.0115 -0.0635  0.5033
 2577SOL    HW119367   4.649   3.878   1.993  0.2509  0.6562 -0.0313
 2577SOL    HW219368   4.729   3.750   1.996  0.2058 -0.0060  0.4742
 2578SOL     OW19369   4.165   3.267   3.436  0.5240 -0.6176 -0.8184
 2578SOL    HW119370   4.187   3.196   3.377 -1.3208 -1.7889 -0.0835
 2578SOL    HW219371   4.121   3.327   3.376 -0.5001  0.6684  1.2053
 2579SOL     OW19372   3.838   4.160   9.517 -0.1435 -0.3431 -0.2379
 2579SOL    HW119373   3.926   4.175   9.551 -0.5498 -0.0384  0.6806
 2579SOL    HW219374   3.847   4.200   9.430  2.1477 -0.5350 -0.0874
 2580SOL     OW19375   2.363   1.866  10.020  0.4795 -0.0982 -1.2264
 2580SOL    HW119376   2.438   1.896  10.072  0.4780 -0.9405 -0.7503
 2580SOL    HW219377   2.372   1.915   9.939 -0.5720  2.6473  0.3140
 2581SOL     OW19378   0.246   4.487   9.849  0.2763 -0.3025  0.9683
 2581SOL    HW119379   0.323   4.468   9.901  0.5494 -1.3416  0.1861
 2581SOL    HW219380   0.212   4.568   9.887 -0.0115 -0.3584  0.8374
 2582SOL     OW19381   1.567   1.250   6.473  0.3061  0.0895  0.1980
 2582SOL    HW119382   1.620   1.196   6.531  0.7708  0.9407  0.5638
 2582SOL    HW219383   1.633   1.319   6.480 -3.5990  3.6549  1.9654
 2583SOL     OW19384   4.493   3.794  11.607 -0.4402 -0.3337 -0.0688
 2583SOL    HW119385   4.574   3.828  11.646 -1.0001 -0.3694  1.0949
 2583SOL    HW219386   4.459   3.743  11.680  0.6264 -1.7709 -0.5537
 2584SOL     OW19387   2.638   2.458  11.034 -0.4958 -0.4511  0.5050
 2584SOL    HW119388   2.651   2.425  11.123  2.3075 -2.2712 -0.5798
 2584SOL    HW219389   2.729   2.467  11.006 -1.5180  0.2707 -2.5844
 2585SOL     OW19390   3.145   1.299   9.357 -0.4970 -0.3678 -0.1177
 2585SOL    HW119391   3.210   1.229   9.348  0.6736  0.7365 -0.2989
 2585SOL    HW219392   3.114   1.310   9.267 -0.9481 -0.5895  0.0154
 2586SOL     OW19393   3.986   2.643  12.563 -0.3111 -0.0785  0.1913
 2586SOL    HW119394   3.995   2.585  12.487  3.1489 -1.0515  1.3537
 2586SOL    HW219395   4.062   2.623  12.617  0.3927  2.7406  0.2551
 2587SOL     OW19396   3.718   2.155   0.970 -0.2938 -0.0729 -0.5538
 2587SOL    HW119397   3.655   2.085   0.983 -0.0133 -0.3899 -0.9107
 2587SOL    HW219398   3.793   2.117   1.015  1.2766 -0.7467 -3.7367
 2588SOL     OW19399   1.074   4.380   7.971  0.2369 -0.5639 -0.9847
 2588SOL    HW119400   1.105   4.393   7.882  0.2682  0.2228 -0.8641
 2588SOL    HW219401   1.123   4.447   8.018 -0.7663 -0.3172 -0.2795
 2589SOL     OW19402   2.162   2.069   6.051 -0.7197  0.1285 -0.0987
 2589SOL    HW119403   2.157   2.158   6.016 -2.6309 -1.0845 -2.9019
 2589SOL    HW219404   2.255   2.049   6.044 -0.7762 -0.9749  2.2241
 2590SOL     OW19405   0.033   2.308  17.110  0.4958  0.1509 -0.3716
 2590SOL    HW119406   0.092   2.261  17.169  0.1489 -2.3035 -2.0017
 2590SOL    HW219407   0.070   2.297  17.022  1.2712  2.2512 -0.3118
 2591SOL     OW19408   3.575   1.697   2.584 -0.0889  0.1419 -0.4138
 2591SOL    HW119409   3.668   1.697   2.563  0.0072  1.6338  0.0111
 2591SOL    HW219410   3.562   1.604   2.569 -0.6737 -0.0975  1.5513
 2592SOL     OW19411   1.552   2.720   8.030  0.2661 -0.2549  0.2624
 2592SOL    HW119412   1.609   2.706   8.106 -0.0967  1.0180  0.7874
 2592SOL    HW219413   1.475   2.672   8.062  0.5067 -0.3908  0.6398
 2593SOL     OW19414   3.322   1.729  10.716  0.1185 -0.4711  0.3578
 2593SOL    HW119415   3.396   1.771  10.760  0.1636  1.0023 -1.1397
 2593SOL    HW219416   3.262   1.728  10.790  0.8006 -2.4098  0.8823
 2594SOL     OW19417   4.181   1.781   8.634 -0.0469 -0.4597 -0.3649
 2594SOL    HW119418   4.186   1.706   8.693  0.5314  0.7278  1.1146
 2594SOL    HW219419   4.127   1.750   8.562 -0.1984  1.3351 -1.0381
 2595SOL     OW19420   1.043   0.107   4.173 -0.0771 -0.3799  0.4114
 2595SOL    HW119421   0.973   0.159   4.135  0.3965 -0.5959 -0.7559
 2595SOL    HW219422   1.003   0.064   4.249 -1.6965  1.2124  0.4569
 2596SOL     OW19423   2.618   0.315   7.195 -0.4140  0.3328 -0.2505
 2596SOL    HW119424   2.679   0.282   7.261  1.4897  0.7089 -1.8249
 2596SOL    HW219425   2.642   0.406   7.175 -1.4586  0.8209  0.6973
 2597SOL     OW19426   1.533   3.375   9.900 -0.0881 -0.2698  0.0329
 2597SOL    HW119427   1.519   3.344   9.811 -1.8785  0.8384 -0.0646
 2597SOL    HW219428   1.557   3.465   9.878  0.8230 -0.5929 -0.2653
 2598SOL     OW19429   1.812   4.239   0.858  0.9999 -0.1983 -0.1035
 2598SOL    HW119430   1.807   4.206   0.768  0.8260  0.7012 -0.4293
 2598SOL    HW219431   1.805   4.334   0.852 -0.2077 -0.2437  0.7010
 2599SOL     OW19432   1.702   4.459   2.325 -0.0253 -0.1717 -0.6697
 2599SOL    HW119433   1.689   4.365   2.314  0.0844 -0.5244  2.1964
 2599SOL    HW219434   1.788   4.473   2.284  0.4635 -0.5811  0.2202
 2600SOL     OW19435   4.711   1.459   2.157  0.0838 -0.1937 -0.5629
 2600SOL    HW119436   0.039   1.397   2.127 -1.3616 -1.6034 -0.8527
 2600SOL    HW219437   4.673   1.485   2.073 -0.3479 -0.4584 -0.4492
 2601SOL     OW19438   3.530   4.643   8.063  0.2826 -0.4656  0.7527
 2601SOL    HW119439   3.606   4.694   8.034 -0.4276  0.9710  1.4222
 2601SOL    HW219440   3.480   4.636   7.982 -0.8954  0.6074  1.3940
 2602SOL     OW19441   3.753   0.531   3.285  0.3133 -0.2414  0.0784
 2602SOL    HW119442   3.664   0.520   3.251  0.5514  0.5509 -0.7960
 2602SOL    HW219443   3.763   0.456   3.344  0.3022 -1.5232 -1.5678
 2603SOL     OW19444   2.288   3.955   6.186 -0.1122 -0.3849 -0.3020
 2603SOL    HW119445   2.288   3.867   6.223  0.8379 -0.1738  0.1913
 2603SOL    HW219446   2.315   3.938   6.096 -1.1299 -1.7640 -0.3508
 2604SOL     OW19447   2.394   1.754  16.261  0.3072  0.4078  0.3137
 2604SOL    HW119448   2.463   1.774  16.325 -1.2010  0.6094  1.8692
 2604SOL    HW219449   2.444   1.751  16.180 -0.4128 -4.4671  0.0663
 2605SOL     OW19450   4.163   1.826   7.585 -0.0634  0.3882  0.1829
 2605SOL    HW119451   4.114   1.887   7.531 -1.1630 -2.7006 -2.2977
 2605SOL    HW219452   4.184   1.757   7.521 -1.9168 -1.8243  1.9825
 2606SOL     OW19453   3.036   1.893   8.130 -0.3112 -0.4982  0.2534
 2606SOL    HW119454   3.094   1.965   8.107 -1.6614  0.4655 -0.1595
 2606SOL    HW219455   3.036   1.849   8.045 -0.4236 -0.2310  0.1140
 2607SOL     OW19456   1.774   3.004   2.124  0.3181  0.1687 -0.6315
 2607SOL    HW119457   1.861   3.033   2.096  0.5122 -0.0158 -0.2211
 2607SOL    HW219458   1.790   2.912   2.145  0.4723  0.6217  1.2197
 2608SOL     OW19459   2.802   0.870   4.538 -0.1611  0.4438  0.3756
 2608SOL    HW119460   2.763   0.785   4.557 -0.1466  0.2913 -0.2893
 2608SOL    HW219461   2.892   0.841   4.550  0.4135  2.2190  0.3908
 2609SOL     OW19462   4.442   4.101   3.170  0.1586  0.2625  0.2791
 2609SOL    HW119463   4.376   4.100   3.101  1.5441  1.4061 -1.0660
 2609SOL    HW219464   4.504   4.035   3.140 -0.2399 -0.2218  0.5256
 2610SOL     OW19465   0.307   3.963  16.060  0.5148  0.0991  0.9054
 2610SOL    HW119466   0.242   3.954  15.991  0.8907  0.7562  0.4595
 2610SOL    HW219467   0.253   3.961  16.139 -1.0804  0.0390 -0.1886
 2611SOL     OW19468   4.658   1.223   2.755 -0.2962  0.6897 -0.2598
 2611SOL    HW119469   4.584   1.249   2.700  1.4436 -0.2326 -3.0241
 2611SOL    HW219470   4.693   1.162   2.690 -0.5864 -0.2614  0.4798
 2612SOL     OW19471   3.137   3.421   0.387 -0.4201 -0.2124  0.2517
 2612SOL    HW119472   3.072   3.367   0.431  0.5043 -1.2938  0.2980
 2612SOL    HW219473   3.084   3.500   0.377  0.3257  0.3551  0.7878
 2613SOL     OW19474   0.901   0.671  11.108  0.3355 -0.1863  0.2923
 2613SOL    HW119475   0.967   0.602  11.101 -0.7436 -1.1829 -0.0632
 2613SOL    HW219476   0.823   0.641  11.062  0.5706  0.2432 -0.3963
 2614SOL     OW19477   1.599   0.733   2.073  0.0612  0.5675 -0.5447
 2614SOL    HW119478   1.543   0.675   2.124 -1.5611  2.9772  0.3883
 2614SOL    HW219479   1.605   0.677   1.995  2.3127  0.3782 -0.2331
 2615SOL     OW19480   2.040   1.407   1.794 -0.3010  0.9540  0.0088
 2615SOL    HW119481   1.968   1.390   1.855 -0.0777 -0.6878 -0.1786
 2615SOL    HW219482   2.034   1.320   1.754 -2.4803  1.5873 -1.0577
 2616SOL     OW19483   2.504   0.919  13.377 -0.0009  0.3567 -0.0605
 2616SOL    HW119484   2.576   0.974  13.347  0.7456 -0.1323  0.8373
 2616SOL    HW219485   2.474   0.973  13.449 -0.3368  0.3227 -0.1756
 2617SOL     OW19486   2.861   1.793   1.845 -0.5029 -0.3626 -0.1766
 2617SOL    HW119487   2.838   1.700   1.854 -0.1419 -0.4170  0.1679
 2617SOL    HW219488   2.896   1.818   1.930  0.0398 -0.6276 -0.3186
 2618SOL     OW19489   2.492   2.415  13.137 -0.3605  0.0830  0.1595
 2618SOL    HW119490   2.514   2.346  13.199  2.6104 -1.5783 -2.6913
 2618SOL    HW219491   2.492   2.490  13.196  0.8304 -1.4165  2.0598
 2619SOL     OW19492   2.235   2.504   8.371  0.0430  0.0684  0.2539
 2619SOL    HW119493   2.278   2.472   8.451 -1.4736  4.1680  2.7541
 2619SOL    HW219494   2.279   2.460   8.298  0.8065  1.9866 -0.4606
 2620SOL     OW19495   2.856   4.324   5.131 -0.1819 -0.0671  0.0892
 2620SOL    HW119496   2.763   4.337   5.152  0.0706  0.1631  1.0547
 2620SOL    HW219497   2.888   4.259   5.193  0.1878 -0.1714 -0.2150
 2621SOL     OW19498   4.725   2.351   8.295  0.5902  0.5133  0.4834
 2621SOL    HW119499   0.007   2.270   8.248 -1.2812  0.8307 -0.9071
 2621SOL    HW219500   0.072   2.368   8.332  1.5597 -0.0342 -1.5148
 2622SOL     OW19501   4.368   2.790   2.696 -0.5724 -0.2745 -0.2997
 2622SOL    HW119502   4.460   2.765   2.703 -0.3720  1.3507  3.0767
 2622SOL    HW219503   4.327   2.741   2.768  0.2070 -0.2698  0.1499
 2623SOL     OW19504   1.161   2.705   4.250  0.0159  0.3741 -0.0675
 2623SOL    HW119505   1.134   2.738   4.165 -2.2315  0.7129  0.7848
 2623SOL    HW219506   1.233   2.766   4.269 -0.6262  1.1634 -0.1717
 2624SOL     OW19507   4.287   0.429   2.700  0.1710  0.2811 -0.4611
 2624SOL    HW119508   4.352   0.438   2.631  0.4129 -1.1672 -0.4192
 2624SOL    HW219509   4.220   0.488   2.663 -0.6286  0.5744  1.4220
 2625SOL     OW19510   1.297   3.385   2.744  0.5928  0.4667  0.3202
 2625SOL    HW119511   1.378   3.397   2.693  0.4287  0.6023  0.0900
 2625SOL    HW219512   1.236   3.389   2.670  1.7567  2.6757 -0.5445
 2626SOL     OW19513   2.727   3.364   0.822  0.3843  0.2226  0.2366
 2626SOL    HW119514   2.745   3.336   0.732 -3.7933 -0.5220 -0.3715
 2626SOL    HW219515   2.688   3.282   0.853  1.7433 -0.3255  0.4885
 2627SOL     OW19516   3.791   3.495   5.536 -0.3855 -0.1973  0.9383
 2627SOL    HW119517   3.730   3.524   5.468  0.3299 -1.6039 -0.3253
 2627SOL    HW219518   3.827   3.576   5.571 -1.3761 -0.1395  1.8073
 2628SOL     OW19519   1.185   2.464  15.657 -0.8981 -0.5867  0.9724
 2628SOL    HW119520   1.121   2.485  15.589  0.9564 -0.3941 -0.7116
 2628SOL    HW219521   1.233   2.547  15.653  0.3352 -1.4151 -1.2097
 2629SOL     OW19522   3.355   1.085  17.385 -0.2937  0.2702 -0.1343
 2629SOL    HW119523   3.331   1.003  17.428  3.7979 -0.2399  1.2091
 2629SOL    HW219524   3.302   1.144  17.439 -3.1778 -1.2085 -1.3589
 2630SOL     OW19525   2.989   0.850   2.632 -0.6130 -0.1487  1.2378
 2630SOL    HW119526   3.077   0.882   2.648  0.6538 -4.0321  2.0712
 2630SOL    HW219527   2.994   0.779   2.696 -0.1977  1.3910  2.9385
 2631SOL     OW19528   0.789   2.848  15.583 -0.1843  0.4439  0.2035
 2631SOL    HW119529   0.695   2.866  15.579 -0.2405  0.2368  0.6008
 2631SOL    HW219530   0.797   2.754  15.596  0.3518  0.2883 -1.2937
 2632SOL     OW19531   1.757   0.254   3.091 -0.2941 -0.0545 -0.3212
 2632SOL    HW119532   1.734   0.166   3.061  0.6948 -0.2708 -0.4269
 2632SOL    HW219533   1.814   0.231   3.164  1.1382  1.8917 -0.8289
 2633SOL     OW19534   2.672   3.165   4.682 -0.2059  0.2927  0.2207
 2633SOL    HW119535   2.619   3.193   4.607  0.8976  1.3389 -0.1686
 2633SOL    HW219536   2.607   3.184   4.749 -0.3851 -1.1754  0.4585
 2634SOL     OW19537   0.383   1.382  13.025  0.2061 -0.6503 -0.2320
 2634SOL    HW119538   0.306   1.338  13.061 -0.9021  1.5718  0.0420
 2634SOL    HW219539   0.402   1.329  12.947 -0.0097  0.7425 -1.2143
 2635SOL     OW19540   4.626   3.204   4.376 -0.1796 -0.0579  0.2184
 2635SOL    HW119541   4.649   3.164   4.460  0.1644  0.9352  0.5941
 2635SOL    HW219542   4.610   3.122   4.330  0.9884 -0.6051  0.7838
 2636SOL     OW19543   2.553   4.385   0.707  0.3636  0.0374 -0.1430
 2636SOL    HW119544   2.475   4.331   0.694  1.2100 -1.0050 -0.8974
 2636SOL    HW219545   2.590   4.366   0.793 -1.2457 -0.4672  0.4345
 2637SOL     OW19546   0.698   3.568   6.302  0.0577  0.0686  0.2266
 2637SOL    HW119547   0.670   3.556   6.212 -0.9758 -0.2666  0.5885
 2637SOL    HW219548   0.620   3.558   6.358  0.5752 -0.7905  0.7864
 2638SOL     OW19549   0.303   3.030   6.713 -0.0998 -0.0279  0.5897
 2638SOL    HW119550   0.394   3.049   6.692 -0.1979  1.0144  1.1067
 2638SOL    HW219551   0.302   2.935   6.720 -1.9007 -0.0129  0.5309
 2639SOL     OW19552   3.273   3.276   6.454  0.4957  0.0058  0.5039
 2639SOL    HW119553   3.310   3.353   6.498 -0.1076  1.4464 -1.4703
 2639SOL    HW219554   3.283   3.224   6.533  2.7572  1.5006  1.1825
 2640SOL     OW19555   1.080   4.019   8.499  0.6531  0.0904  0.6726
 2640SOL    HW119556   1.111   4.090   8.442 -0.1101  0.5098  0.7790
 2640SOL    HW219557   1.013   4.067   8.548  1.2659  0.9522  0.6860
 2641SOL     OW19558   1.162   3.549  12.482  0.5158  0.4144  0.2400
 2641SOL    HW119559   1.256   3.568  12.486  0.5480  0.0795  0.8861
 2641SOL    HW219560   1.154   3.519  12.391 -1.0844  1.3076  0.0803
 2642SOL     OW19561   3.136   2.496  10.592  0.4506 -0.2484 -0.3348
 2642SOL    HW119562   3.069   2.563  10.602  0.2400 -0.4083 -0.6495
 2642SOL    HW219563   3.093   2.422  10.635 -1.4157  1.5529  0.8153
 2643SOL     OW19564   2.137   2.426  17.251 -0.1063  0.2525 -0.2862
 2643SOL    HW119565   2.150   2.419  17.157 -0.4782  1.1127 -0.4033
 2643SOL    HW219566   2.050   2.386  17.253  0.1898 -0.3816 -0.0840
 2644SOL     OW19567   1.591   3.182  12.789  0.1787  0.1949  0.7147
 2644SOL    HW119568   1.534   3.239  12.737  1.9375 -0.0258 -1.4256
 2644SOL    HW219569   1.585   3.103  12.736  0.2636 -0.1293  1.1865
 2645SOL     OW19570   0.949   4.652  14.363 -0.3316  0.4512  0.1100
 2645SOL    HW119571   1.033   4.646  14.409  0.1797  2.2365 -0.6024
 2645SOL    HW219572   0.914   4.563  14.372 -0.3645  0.5838  1.3436
 2646SOL     OW19573   3.061   1.185   1.793 -0.0857 -0.4464 -0.2792
 2646SOL    HW119574   3.144   1.165   1.837  1.0001 -0.7443 -2.4923
 2646SOL    HW219575   3.016   1.104   1.814 -0.5889  0.3210  1.6252
 2647SOL     OW19576   3.325   0.061   0.599  0.3514 -0.1556 -0.4103
 2647SOL    HW119577   3.299   4.729   0.541 -2.8973  1.5439 -1.0180
 2647SOL    HW219578   3.279   0.135   0.560  2.1443  0.2343 -1.7812
 2648SOL     OW19579   2.117   3.037   4.357  0.6130 -0.0854 -0.3049
 2648SOL    HW119580   2.098   3.127   4.330 -1.6171 -0.2656  0.6285
 2648SOL    HW219581   2.200   3.027   4.310  0.3528  1.0941 -1.0100
 2649SOL     OW19582   2.947   2.537   4.483 -0.6198 -0.2342 -0.3461
 2649SOL    HW119583   2.931   2.443   4.491  1.9586 -0.5441  0.8750
 2649SOL    HW219584   3.035   2.542   4.448  0.0198  1.1622  1.4957
 2650SOL     OW19585   2.860   3.690   7.744 -0.2152 -0.3493 -0.0478
 2650SOL    HW119586   2.862   3.708   7.838 -0.8436  0.5940 -0.2240
 2650SOL    HW219587   2.772   3.719   7.722 -0.1423 -0.0513  0.0545
 2651SOL     OW19588   0.549   1.569  17.396  0.3223  0.4927  0.2350
 2651SOL    HW119589   0.547   1.528  17.483 -3.0124 -0.8217 -0.4477
 2651SOL    HW219590   0.581   1.511  17.327 -0.3101  0.3881  0.0301
 2652SOL     OW19591   1.889   3.959   3.731 -0.0924  0.3728  0.0159
 2652SOL    HW119592   1.878   3.868   3.758 -3.2340 -0.6546 -4.6454
 2652SOL    HW219593   1.972   3.983   3.773  0.1002 -0.8936  0.3454
 2653SOL     OW19594   4.319   0.205   3.107 -0.1614 -0.2271  0.3201
 2653SOL    HW119595   4.267   0.257   3.167  0.3258  1.2328 -0.5249
 2653SOL    HW219596   4.251   0.181   3.045 -0.6001  0.8037  0.4101
 2654SOL     OW19597   3.972   3.774   1.189  0.7025 -0.7200  0.1460
 2654SOL    HW119598   3.925   3.706   1.142  0.9199  0.7903 -2.2333
 2654SOL    HW219599   3.976   3.732   1.275 -0.5083  1.2297  1.1345
 2655SOL     OW19600   3.409   1.142   2.669 -0.0426 -0.2390  0.0458
 2655SOL    HW119601   3.381   1.055   2.699  3.3339 -0.8794  1.3326
 2655SOL    HW219602   3.431   1.119   2.579  1.1584 -1.7367  0.7246
 2656SOL     OW19603   3.850   2.126   1.280 -0.2236 -0.0257  0.7830
 2656SOL    HW119604   3.874   2.044   1.237 -0.5082  0.6753 -0.6780
 2656SOL    HW219605   3.860   2.104   1.373  0.3917 -0.0413  0.7166
 2657SOL     OW19606   4.099   0.533  12.723  0.1345 -0.3013  0.1068
 2657SOL    HW119607   4.178   0.499  12.766 -0.1631 -0.1920  0.7437
 2657SOL    HW219608   4.120   0.621  12.691 -1.8426  1.5167  3.7996
 2658SOL     OW19609   3.104   3.903   2.609 -0.7596 -0.0246  0.1233
 2658SOL    HW119610   3.011   3.891   2.625 -0.4598  1.3020  2.8664
 2658SOL    HW219611   3.140   3.824   2.569  0.6367 -0.4274  2.1592
 2659SOL     OW19612   1.761   0.252  15.171  0.3035 -0.6404  0.4115
 2659SOL    HW119613   1.713   0.327  15.135 -0.8204 -1.0620  1.0292
 2659SOL    HW219614   1.720   0.179  15.124 -1.7158  1.2171 -0.6967
 2660SOL     OW19615   2.738   4.734   9.928  0.1843 -0.5692  0.0157
 2660SOL    HW119616   2.777   4.650   9.950  1.7930  0.4655  1.1144
 2660SOL    HW219617   2.800   0.064   9.951 -0.1529  0.0300 -0.8524
 2661SOL     OW19618   4.119   3.165   2.021 -0.3256  0.1901 -0.0391
 2661SOL    HW119619   4.048   3.114   2.062  1.5644 -1.3770  1.3238
 2661SOL    HW219620   4.126   3.125   1.934  1.3438  0.6514 -0.1078
 2662SOL     OW19621   1.310   2.564   4.638  0.1636  0.0381  0.1273
 2662SOL    HW119622   1.366   2.637   4.613  0.2860  0.0939  0.5654
 2662SOL    HW219623   1.295   2.521   4.554 -0.8413  0.3755  0.1343
 2663SOL     OW19624   0.590   4.307   1.434  0.1932 -0.2193  0.1003
 2663SOL    HW119625   0.621   4.398   1.431  0.4293 -0.3571 -1.4720
 2663SOL    HW219626   0.640   4.275   1.509 -0.0745  0.7763  0.7065
 2664SOL     OW19627   3.899   1.230   3.191  0.1875  0.1572  0.0627
 2664SOL    HW119628   3.848   1.302   3.227 -0.3339 -0.5820  0.7725
 2664SOL    HW219629   3.935   1.188   3.269 -0.3165 -2.1015 -0.9198
 2665SOL     OW19630   4.185   4.249  13.516 -0.1183  0.3434  0.0682
 2665SOL    HW119631   4.179   4.244  13.421 -0.5154 -0.8093  0.1498
 2665SOL    HW219632   4.124   4.179  13.542 -1.7762  1.2675 -1.3620
 2666SOL     OW19633   3.874   3.013   2.063 -0.2360  0.8228 -0.4075
 2666SOL    HW119634   3.812   3.074   2.104 -0.4842 -1.5293  2.7321
 2666SOL    HW219635   3.896   2.952   2.133  1.7234 -0.6723 -2.3247
 2667SOL     OW19636   1.398   0.896   0.042  0.0395  0.5546 -0.2914
 2667SOL    HW119637   1.342   0.851   0.105  0.7401 -0.9161 -0.7413
 2667SOL    HW219638   1.460   0.939   0.101 -0.1759  0.1415  0.2339
 2668SOL     OW19639   2.694   0.119   0.465 -0.0547  0.5290 -0.0461
 2668SOL    HW119640   2.657   0.055   0.526  0.5529 -1.6468 -1.9463
 2668SOL    HW219641   2.642   0.092   0.389 -0.4740 -2.7790  1.4047
 2669SOL     OW19642   2.923   3.980   2.884 -0.2615  0.1729  0.7104
 2669SOL    HW119643   2.953   3.894   2.915  0.1623 -0.7423 -2.2052
 2669SOL    HW219644   2.849   3.947   2.834 -0.8794  3.7714 -0.7436
 2670SOL     OW19645   4.318   4.078   2.558  0.6325 -0.2575  0.3237
 2670SOL    HW119646   4.281   4.053   2.473 -0.9731  1.0820  0.6279
 2670SOL    HW219647   4.239   4.123   2.586  2.2582  2.4191  0.5371
 2671SOL     OW19648   4.167   4.527   3.772  0.2819  0.3099 -0.5837
 2671SOL    HW119649   4.167   4.596   3.839  2.5269 -2.2053  2.0533
 2671SOL    HW219650   4.233   4.473   3.814  0.0255  0.1436 -0.3929
 2672SOL     OW19651   3.141   4.553  14.827  0.3629 -0.0227 -0.0315
 2672SOL    HW119652   3.148   4.608  14.749  0.6336 -1.8995 -1.3335
 2672SOL    HW219653   3.126   4.469  14.783  2.4949 -0.3763 -0.0726
 2673SOL     OW19654   1.299   2.189  13.301 -0.5046  0.0969  0.0760
 2673SOL    HW119655   1.217   2.207  13.256  0.4238  0.3605 -1.4947
 2673SOL    HW219656   1.274   2.188  13.394  0.4486  0.2818  0.3350
 2674SOL     OW19657   1.882   3.264   5.636  0.7780  0.0674  0.1763
 2674SOL    HW119658   1.849   3.329   5.572  1.2837  1.1184  0.9854
 2674SOL    HW219659   1.838   3.291   5.717  2.0903  0.0017  0.8977
 2675SOL     OW19660   3.905   4.570   4.067  0.0009 -0.7123  0.2860
 2675SOL    HW119661   3.910   4.568   3.972 -1.7124 -1.5130  0.2021
 2675SOL    HW219662   3.875   4.482   4.092 -0.3352 -0.8462 -0.5934
 2676SOL     OW19663   1.112   3.046   4.564  0.1523  0.4232 -0.2923
 2676SOL    HW119664   1.069   3.018   4.484  1.2172 -1.1140 -0.3332
 2676SOL    HW219665   1.054   3.001   4.625  2.0729 -0.4275  0.9198
 2677SOL     OW19666   1.453   2.106   8.519  0.3484  0.0938  0.2019
 2677SOL    HW119667   1.380   2.092   8.458 -1.5652 -2.4449  3.1256
 2677SOL    HW219668   1.474   2.193   8.485  0.0023 -0.0479 -0.3814
 2678SOL     OW19669   3.548   4.050  17.374 -0.0219  0.4627 -0.0080
 2678SOL    HW119670   3.590   4.037  17.459  2.7137  3.3798 -0.9297
 2678SOL    HW219671   3.456   4.053  17.401 -0.0476 -0.7136  0.0254
 2679SOL     OW19672   1.747   4.550  13.496 -0.1644  0.0132 -0.8136
 2679SOL    HW119673   1.784   4.463  13.486  0.6377  0.1785  0.6918
 2679SOL    HW219674   1.820   4.594  13.540 -0.8395  1.6749 -1.3377
 2680SOL     OW19675   1.422   2.676   7.034  0.0141  0.4387 -0.2501
 2680SOL    HW119676   1.451   2.763   7.008 -0.4306  0.3557 -1.0334
 2680SOL    HW219677   1.337   2.663   6.991 -0.0576  3.0742 -0.8907
 2681SOL     OW19678   2.298   0.131   1.947 -0.3679  0.2156 -0.3061
 2681SOL    HW119679   2.209   0.121   1.913  0.7215  1.1970 -3.4205
 2681SOL    HW219680   2.324   0.042   1.925 -2.8269 -0.5425 -0.1903
 2682SOL     OW19681   4.654   1.078   6.833 -0.4412  0.1527  0.5003
 2682SOL    HW119682   4.697   1.003   6.875 -0.2874  0.6704  1.2606
 2682SOL    HW219683   4.717   1.097   6.764 -1.9414  1.8419 -0.3687
 2683SOL     OW19684   2.456   4.111   7.345 -0.1973  0.4486 -0.5594
 2683SOL    HW119685   2.522   4.161   7.393  0.8395 -0.6835 -0.8193
 2683SOL    HW219686   2.441   4.036   7.401 -0.6308  1.1102  0.2108
 2684SOL     OW19687   1.034   1.152   6.196  0.3884 -0.1918 -0.1921
 2684SOL    HW119688   1.094   1.131   6.268  0.0155  3.3316  1.1460
 2684SOL    HW219689   1.062   1.242   6.181  1.3343 -0.6852 -1.4097
 2685SOL     OW19690   2.630   4.669  10.719 -0.1347 -0.1701  0.1048
 2685SOL    HW119691   2.643   4.580  10.752  0.0727 -0.5255 -0.9420
 2685SOL    HW219692   2.685   4.717  10.782 -2.0565  0.2110  1.4841
 2686SOL     OW19693   0.059   1.055   4.602  0.0399  0.0123  0.1276
 2686SOL    HW119694   0.080   1.042   4.509  1.2638 -0.1484  0.4352
 2686SOL    HW219695   0.130   1.010   4.647  2.4754  0.2075 -3.5062
 2687SOL     OW19696   0.497   2.524   2.634 -0.0370  0.0281  0.2363
 2687SOL    HW119697   0.489   2.429   2.627 -1.2798  0.3328 -2.4088
 2687SOL    HW219698   0.564   2.553   2.572  2.2116 -1.4170  1.9833
 2688SOL     OW19699   1.901   2.299  13.471  0.0032 -0.2202 -0.2692
 2688SOL    HW119700   1.828   2.361  13.473  0.4656  0.3321 -0.4795
 2688SOL    HW219701   1.973   2.362  13.465 -1.1189  1.1632  0.8508
 2689SOL     OW19702   2.110   1.395   3.597  0.5318 -0.3301 -0.2062
 2689SOL    HW119703   2.138   1.347   3.519 -0.1403  2.1137 -1.9325
 2689SOL    HW219704   2.020   1.368   3.615  0.1767  0.3217 -1.0297
 2690SOL     OW19705   1.467   3.925   8.540  0.3480 -0.0224  0.4031
 2690SOL    HW119706   1.451   3.971   8.623  3.2060 -1.3961  1.7163
 2690SOL    HW219707   1.553   3.883   8.544 -0.8211 -2.3424  0.9365
 2691SOL     OW19708   2.229   1.083   6.269  0.2306 -0.3083 -0.0185
 2691SOL    HW119709   2.255   0.992   6.285 -0.0639 -0.2531  0.7723
 2691SOL    HW219710   2.231   1.117   6.359 -2.4676  0.3790 -0.2274
 2692SOL     OW19711   0.821   2.522   3.100  0.1156  0.2722  0.4915
 2692SOL    HW119712   0.819   2.600   3.044 -2.7935  2.4739  3.7077
 2692SOL    HW219713   0.748   2.483   3.053  1.1358 -0.5349 -0.4366
 2693SOL     OW19714   3.863   2.141   5.888  0.4925  0.1835 -0.5463
 2693SOL    HW119715   3.918   2.219   5.894 -0.5544  0.8066  0.7702
 2693SOL    HW219716   3.927   2.076   5.858  0.9060 -0.6739  2.1446
 2694SOL     OW19717   3.149   1.133   1.189 -0.0514  0.4600 -0.7186
 2694SOL    HW119718   3.125   1.223   1.207 -1.5530 -0.3418  1.2955
 2694SOL    HW219719   3.064   1.090   1.178 -0.9459  1.7682  1.0630
 2695SOL     OW19720   2.859   0.769   4.824 -0.5494  0.1889 -0.2195
 2695SOL    HW119721   2.937   0.812   4.858  0.7573 -2.8423  0.6505
 2695SOL    HW219722   2.798   0.800   4.891 -0.1450 -1.5762  0.9621
 2696SOL     OW19723   0.624   0.843   6.642 -0.2335  0.3906 -0.3688
 2696SOL    HW119724   0.716   0.828   6.659 -0.0943  1.1376 -0.4502
 2696SOL    HW219725   0.611   0.788   6.565 -1.5111  0.0615  0.0800
 2697SOL     OW19726   2.868   4.694   8.249  0.7522  0.4992 -0.5225
 2697SOL    HW119727   2.842   0.036   8.206 -1.7669 -0.8411 -1.5140
 2697SOL    HW219728   2.800   4.685   8.316  0.3393  1.5012 -0.8028
 2698SOL     OW19729   3.466   0.642   9.654  0.2427  0.2445  0.7696
 2698SOL    HW119730   3.448   0.555   9.619  1.0906  0.2199  0.3738
 2698SOL    HW219731   3.427   0.633   9.740 -1.7716 -0.8206 -0.2656
 2699SOL     OW19732   2.008   3.405   9.834  0.0206 -0.4127  0.2401
 2699SOL    HW119733   1.956   3.384   9.757  1.1100 -0.9612 -0.3596
 2699SOL    HW219734   2.000   3.500   9.838 -1.5379 -0.5698  0.6706
 2700SOL     OW19735   1.484   2.085  12.146 -0.3977 -0.1770  0.0226
 2700SOL    HW119736   1.536   2.091  12.065 -0.2651 -2.9918 -0.0793
 2700SOL    HW219737   1.507   2.169  12.185  1.5768 -1.8246  2.3918
 2701SOL     OW19738   2.786   2.182  12.990  0.1046  0.5716  0.1279
 2701SOL    HW119739   2.772   2.202  12.897 -1.0631  0.1099  0.2077
 2701SOL    HW219740   2.881   2.189  12.989  0.1139  0.4024 -0.7437
 2702SOL     OW19741   0.943   1.209  16.376 -0.1394  0.0613  0.0229
 2702SOL    HW119742   0.970   1.241  16.290 -1.0502 -0.5684 -0.4976
 2702SOL    HW219743   0.949   1.287  16.430  1.3760  1.1754 -1.7398
 2703SOL     OW19744   3.589   2.373   2.076 -0.2300  0.0006  0.1889
 2703SOL    HW119745   3.573   2.286   2.112 -0.2874 -0.0266  0.0975
 2703SOL    HW219746   3.676   2.397   2.107 -0.0651  0.1141 -0.3689
 2704SOL     OW19747   0.586   2.327   9.224  0.2784 -0.0130 -0.8725
 2704SOL    HW119748   0.595   2.323   9.129 -2.7588 -1.0850 -1.1168
 2704SOL    HW219749   0.652   2.263   9.248 -0.1242 -0.6046 -1.3503
 2705SOL     OW19750   2.780   3.727   1.394 -0.5794 -0.1475  0.4800
 2705SOL    HW119751   2.796   3.738   1.488 -1.5251 -0.7286  0.7143
 2705SOL    HW219752   2.869   3.732   1.360 -0.8523  2.6435  0.1481
 2706SOL     OW19753   1.681   1.424   8.322  0.1136  0.7213 -0.2527
 2706SOL    HW119754   1.718   1.349   8.369 -0.7467 -0.0277 -0.7536
 2706SOL    HW219755   1.590   1.412   8.349  0.5896 -1.9353  0.2285
 2707SOL     OW19756   0.357   3.744  15.249  0.0945  0.1230  0.3751
 2707SOL    HW119757   0.405   3.690  15.313 -2.9015 -2.5599  0.3649
 2707SOL    HW219758   0.396   3.831  15.252 -0.9860  0.6007  0.8079
 2708SOL     OW19759   0.285   2.412  15.655  0.4707 -0.0172  0.0918
 2708SOL    HW119760   0.365   2.414  15.708  0.2637  0.5216  0.3786
 2708SOL    HW219761   0.311   2.348  15.588 -1.3861  0.2217 -0.8522
 2709SOL     OW19762   2.742   3.043   6.009 -0.1756 -0.0607 -0.0329
 2709SOL    HW119763   2.834   3.048   6.035 -0.5330 -1.1821  1.4364
 2709SOL    HW219764   2.718   2.957   5.975 -2.0846  0.8556 -0.9961
 2710SOL     OW19765   3.135   3.469   6.247 -0.6164 -0.0676 -0.0660
 2710SOL    HW119766   3.109   3.537   6.308 -0.0071  0.4774 -0.4133
 2710SOL    HW219767   3.213   3.441   6.295  0.5627 -0.0742 -1.9663
 2711SOL     OW19768   0.376   0.686   4.900 -0.6355 -0.6162  0.4272
 2711SOL    HW119769   0.313   0.696   4.830  1.1149 -3.7907 -1.6144
 2711SOL    HW219770   0.436   0.621   4.863  0.9666  2.2267 -1.9229
 2712SOL     OW19771   1.399   3.142   8.036  0.2083  0.7893 -0.9176
 2712SOL    HW119772   1.383   3.236   8.046  1.3460  0.9027  0.0255
 2712SOL    HW219773   1.488   3.135   8.072 -0.0178  1.5317 -0.2066
 2713SOL     OW19774   2.433   2.095  12.440  0.1985  0.0097 -0.3373
 2713SOL    HW119775   2.342   2.068  12.424  0.0575  0.8428 -0.9403
 2713SOL    HW219776   2.449   2.073  12.532 -1.7360 -0.5195 -0.1151
 2714SOL     OW19777   0.300   2.729   8.594  0.1201 -0.6072  0.9500
 2714SOL    HW119778   0.328   2.787   8.665 -2.1212  0.2656  1.1085
 2714SOL    HW219779   0.369   2.749   8.530 -1.3361  0.7443 -0.1787
 2715SOL     OW19780   1.334   2.598   2.484  0.9173  0.3451  0.4855
 2715SOL    HW119781   1.294   2.571   2.567  0.6209 -0.6494  0.0303
 2715SOL    HW219782   1.367   2.684   2.509 -0.6465 -0.0844  3.9626
 2716SOL     OW19783   3.761   1.736   2.914 -0.9978 -0.2332 -0.0787
 2716SOL    HW119784   3.742   1.650   2.875  1.3459 -0.1219 -1.4296
 2716SOL    HW219785   3.833   1.760   2.856 -0.2466 -2.3221 -0.0228
 2717SOL     OW19786   3.949   3.106  10.781  0.5701  0.2013  0.0495
 2717SOL    HW119787   3.947   3.147  10.695  2.9306 -0.1243 -0.1620
 2717SOL    HW219788   3.973   3.182  10.834 -2.2192  0.2585  1.2460
 2718SOL     OW19789   4.217   3.196   8.685 -0.1399  0.1713  0.3152
 2718SOL    HW119790   4.240   3.174   8.775 -0.4312  1.9542  0.8161
 2718SOL    HW219791   4.131   3.157   8.667  0.1081 -0.6100  0.8017
 2719SOL     OW19792   0.826   4.096   2.503  0.1285  0.7775  0.9037
 2719SOL    HW119793   0.742   4.062   2.532  1.4438 -1.4551  2.1315
 2719SOL    HW219794   0.872   4.117   2.585  0.2656  0.0079  1.0247
 2720SOL     OW19795   3.787   3.505  17.455 -0.0601  0.3402 -0.4653
 2720SOL    HW119796   3.748   3.455  17.382 -0.2744  1.4167 -1.0786
 2720SOL    HW219797   3.712   3.520  17.512 -1.8791  0.5736 -2.8881
 2721SOL     OW19798   0.140   3.957  16.274 -0.1154  0.3202 -0.6699
 2721SOL    HW119799   0.112   4.047  16.255 -0.5015  0.7318  1.8183
 2721SOL    HW219800   0.077   3.937  16.343  2.5282 -1.0111  1.3482
 2722SOL     OW19801   1.730   4.071   4.033 -0.0884 -0.5077  0.0163
 2722SOL    HW119802   1.699   4.003   4.092 -0.9121 -0.6622 -0.5929
 2722SOL    HW219803   1.823   4.051   4.041  0.2881  0.0492 -2.7551
 2723SOL     OW19804   1.476   4.148   2.963  0.4680  0.2367 -0.7838
 2723SOL    HW119805   1.490   4.235   2.925 -1.8352  1.6151  1.5359
 2723SOL    HW219806   1.471   4.158   3.058  0.6065  1.2110 -0.8852
 2724SOL     OW19807   3.583   1.739   0.169 -0.1456  0.3812  0.4463
 2724SOL    HW119808   3.503   1.786   0.145 -0.4179 -0.5285 -0.4350
 2724SOL    HW219809   3.558   1.660   0.216 -3.1446 -0.8508 -3.1753
 2725SOL     OW19810   2.694   4.081   6.855  0.0331  0.5087 -0.1392
 2725SOL    HW119811   2.742   4.004   6.887  0.4259  0.8646  0.1291
 2725SOL    HW219812   2.610   4.053   6.893  0.8819 -1.1305  0.5414
 2726SOL     OW19813   2.156   2.130   1.722  0.3106  0.0868  0.4976
 2726SOL    HW119814   2.190   2.180   1.796 -1.0397 -3.4514  3.5190
 2726SOL    HW219815   2.065   2.126   1.751 -0.4710 -1.9262 -2.2502
 2727SOL     OW19816   0.753   4.706   2.695 -0.2896 -0.4867  0.6164
 2727SOL    HW119817   0.808   0.011   2.631 -1.6670 -0.9885 -0.8976
 2727SOL    HW219818   0.796   0.001   2.774 -1.0729  0.9120  0.4565
 2728SOL     OW19819   0.863   2.539  16.522  0.1371 -0.0686  0.2243
 2728SOL    HW119820   0.867   2.634  16.507 -3.0016  0.1462  0.8214
 2728SOL    HW219821   0.848   2.541  16.616  1.1023 -0.7645  0.3873
 2729SOL     OW19822   0.123   3.940   7.395 -0.3011  0.5285  0.7781
 2729SOL    HW119823   0.061   3.893   7.452 -0.7313  0.9215  0.6351
 2729SOL    HW219824   0.088   3.911   7.311  0.8060  1.1771  0.0969
 2730SOL     OW19825   0.995   0.401   4.286  0.1271  0.4522  0.0639
 2730SOL    HW119826   0.905   0.393   4.255  0.7482  0.3138 -1.6706
 2730SOL    HW219827   0.995   0.324   4.343  0.7965  0.2062 -0.2727
 2731SOL     OW19828   1.998   0.897   5.825 -0.3162 -0.0636  0.5098
 2731SOL    HW119829   1.998   0.881   5.730 -2.4139  1.8426  0.2012
 2731SOL    HW219830   1.923   0.844   5.853  1.3551 -2.5499  0.3366
 2732SOL     OW19831   1.325   1.790   5.995 -0.0384 -0.5705 -0.2784
 2732SOL    HW119832   1.327   1.885   5.998  1.3105 -0.6994  2.8669
 2732SOL    HW219833   1.232   1.779   6.015 -0.4872 -1.3447 -2.7382
 2733SOL     OW19834   1.350   0.572   7.360  0.4438  0.2528  0.2501
 2733SOL    HW119835   1.415   0.570   7.290  0.5039  0.5715  0.2966
 2733SOL    HW219836   1.373   0.496   7.414  0.5685  0.0217 -0.1336
 2734SOL     OW19837   2.785   0.435  15.956 -0.0678  0.0877 -0.0957
 2734SOL    HW119838   2.735   0.482  15.889 -0.0228 -0.4707 -0.5172
 2734SOL    HW219839   2.731   0.356  15.957 -1.3259  0.9378 -2.1159
 2735SOL     OW19840   3.193   3.641   9.245  0.2078 -0.1427 -0.4747
 2735SOL    HW119841   3.244   3.650   9.165  0.2785 -1.9871 -0.6485
 2735SOL    HW219842   3.169   3.733   9.255 -0.3848 -0.5103  1.5188
 2736SOL     OW19843   2.967   2.940   1.126  0.2112  0.6693  0.0313
 2736SOL    HW119844   3.019   2.878   1.074 -2.0943 -0.9357 -0.3735
 2736SOL    HW219845   2.971   3.019   1.072  1.4757 -0.2089 -1.1848
 2737SOL     OW19846   1.623   4.702   9.185 -0.1229  0.2709  0.1487
 2737SOL    HW119847   1.655   0.040   9.139  0.1497 -0.2650 -0.5504
 2737SOL    HW219848   1.640   4.634   9.120  1.1032  1.6565 -0.9768
 2738SOL     OW19849   3.413   1.866  16.398 -0.0326  0.2460  0.2147
 2738SOL    HW119850   3.447   1.818  16.473  0.3725  0.2798  0.0517
 2738SOL    HW219851   3.331   1.822  16.373 -0.0912  2.2338 -3.1223
 2739SOL     OW19852   3.652   2.458  16.977 -0.2587 -0.0285  0.1823
 2739SOL    HW119853   3.556   2.460  16.975 -0.2405 -0.0195 -0.4920
 2739SOL    HW219854   3.675   2.438  16.886  0.2951  0.6760  0.1707
 2740SOL     OW19855   4.050   2.168   9.956 -0.2153  0.0997 -0.3793
 2740SOL    HW119856   4.086   2.127  10.035 -2.2546 -3.2760 -1.2375
 2740SOL    HW219857   3.973   2.216   9.986  1.2064  2.6313 -0.7803
 2741SOL     OW19858   0.382   4.176   8.478 -0.7109 -0.2870  0.3392
 2741SOL    HW119859   0.424   4.262   8.476  0.9340 -1.0882 -0.3457
 2741SOL    HW219860   0.443   4.125   8.532 -0.3718  2.0040  2.1043
 2742SOL     OW19861   2.866   3.299  13.517 -0.5174  0.3646  0.3598
 2742SOL    HW119862   2.818   3.264  13.592 -0.2086 -0.9387 -0.0389
 2742SOL    HW219863   2.793   3.334  13.466  1.1874  1.7534 -1.1503
 2743SOL     OW19864   1.962   3.388   7.986  0.2859  0.1124 -0.0340
 2743SOL    HW119865   1.971   3.325   7.915 -1.1032 -1.7139  1.4069
 2743SOL    HW219866   1.966   3.325   8.058  0.2675 -2.3428 -2.1791
 2744SOL     OW19867   1.394   4.094   6.844 -0.1666 -0.9276 -1.0356
 2744SOL    HW119868   1.454   4.020   6.837  1.6021  0.3068  1.1508
 2744SOL    HW219869   1.460   4.156   6.875 -1.7146 -0.0440  0.4914
 2745SOL     OW19870   0.229   1.682   3.815  0.4033  0.7283  0.2876
 2745SOL    HW119871   0.211   1.743   3.887 -3.9265  1.1494 -1.1446
 2745SOL    HW219872   0.314   1.718   3.789  0.8097 -0.5613 -0.1409
 2746SOL     OW19873   0.929   2.334   7.876  0.3275  0.6978 -0.0536
 2746SOL    HW119874   0.888   2.413   7.841  2.3143  0.5637 -2.7919
 2746SOL    HW219875   0.925   2.279   7.797 -0.9096  1.0667 -0.2474
 2747SOL     OW19876   1.411   3.863   6.633  0.3860 -0.3680 -0.1646
 2747SOL    HW119877   1.392   3.953   6.661  1.6170  0.3896 -1.7268
 2747SOL    HW219878   1.357   3.809   6.690  0.6392 -1.8144 -1.3029
 2748SOL     OW19879   0.043   0.947   7.204 -0.2159 -0.4380 -0.1630
 2748SOL    HW119880   0.013   0.875   7.260  0.9493 -2.1574 -1.7505
 2748SOL    HW219881   0.042   0.904   7.119 -0.1456  1.6036 -1.1919
 2749SOL     OW19882   1.328   1.167   6.723  0.1422  0.0530  0.3262
 2749SOL    HW119883   1.248   1.171   6.774  0.6043 -0.6808  1.1160
 2749SOL    HW219884   1.320   1.239   6.660 -1.6227 -0.1835  0.2986
 2750SOL     OW19885   2.618   2.132  11.291  0.0304  0.2773 -0.2319
 2750SOL    HW119886   2.705   2.172  11.293  0.9174 -1.6968  0.5925
 2750SOL    HW219887   2.619   2.085  11.208  2.4405  0.5202 -0.3520
 2751SOL     OW19888   1.373   2.052   6.060  0.0097 -0.3064  0.1983
 2751SOL    HW119889   1.362   2.100   5.978  0.3277 -0.7442 -0.0989
 2751SOL    HW219890   1.461   2.084   6.079 -1.1204  1.3999  2.5825
 2752SOL     OW19891   1.086   0.113  13.151  0.3555  0.2944  0.4231
 2752SOL    HW119892   1.084   0.028  13.107  0.4819  0.8178 -0.5877
 2752SOL    HW219893   0.999   0.124  13.191  0.5792 -1.0706  1.3042
 2753SOL     OW19894   2.714   3.510   9.678  0.2163 -0.6529 -0.0027
 2753SOL    HW119895   2.630   3.464   9.678 -1.1041  1.8434  3.4141
 2753SOL    HW219896   2.777   3.452   9.721  1.1757  1.5846  1.5789
 2754SOL     OW19897   4.022   0.221  12.333  0.3551  0.5222 -0.2702
 2754SOL    HW119898   4.048   0.162  12.404 -1.6762  0.1616  0.1766
 2754SOL    HW219899   4.060   0.302  12.367 -0.1634  0.5143  0.3423
 2755SOL     OW19900   1.340   3.648  12.667  0.4468 -0.4490 -0.5943
 2755SOL    HW119901   1.382   3.719  12.715 -1.9406 -0.4895  1.5618
 2755SOL    HW219902   1.248   3.674  12.675  0.7923  0.6342 -0.1874
 2756SOL     OW19903   3.541   2.841   9.866 -0.7446 -0.1290  0.2551
 2756SOL    HW119904   3.559   2.860   9.774 -1.0542 -2.4423 -0.3045
 2756SOL    HW219905   3.499   2.756   9.849  0.8047 -1.2337  1.9546
 2757SOL     OW19906   0.851   0.761   6.236  0.0818  0.4484 -0.1526
 2757SOL    HW119907   0.882   0.766   6.146 -1.3401  0.4253 -0.6487
 2757SOL    HW219908   0.874   0.844   6.278  2.8509 -1.3415  1.9030
 2758SOL     OW19909   1.767   4.009  13.807 -0.4606 -0.3183  0.9671
 2758SOL    HW119910   1.822   4.061  13.748  0.2063 -2.3713 -0.2190
 2758SOL    HW219911   1.687   4.054  13.782 -1.3280 -2.7136 -0.5285
 2759SOL     OW19912   3.387   4.158   4.608 -0.4154 -0.0119 -0.0661
 2759SOL    HW119913   3.370   4.068   4.637  2.2233 -0.9491 -1.3744
 2759SOL    HW219914   3.368   4.145   4.516 -2.0378  1.9890  0.0032
 2760SOL     OW19915   1.909   1.600   8.200 -0.5655  0.0350 -0.4043
 2760SOL    HW119916   1.822   1.588   8.237 -1.1228 -0.2887 -1.8416
 2760SOL    HW219917   1.918   1.522   8.146  2.0319 -0.1548  0.2932
 2761SOL     OW19918   0.009   4.176   4.693 -0.3545 -0.5981  0.3244
 2761SOL    HW119919   4.731   4.139   4.607 -0.9255 -1.1308  0.6648
 2761SOL    HW219920   4.677   4.240   4.692  0.0599 -0.1210  1.0566
 2762SOL     OW19921   3.356   0.175   3.671 -0.6237 -0.1369 -0.5331
 2762SOL    HW119922   3.389   0.095   3.630 -0.2783  0.0758 -0.6701
 2762SOL    HW219923   3.431   0.204   3.722 -0.5955  1.3659 -1.4225
 2763SOL     OW19924   0.591   1.740   1.284 -0.6590  0.1379  0.2095
 2763SOL    HW119925   0.498   1.762   1.283 -0.7358 -0.1523  2.4410
 2763SOL    HW219926   0.614   1.833   1.282 -0.5620  0.0930 -1.5902
 2764SOL     OW19927   3.228   2.809   8.997  0.1628  0.1966 -0.5555
 2764SOL    HW119928   3.266   2.803   9.085 -1.4789 -0.3904  0.1032
 2764SOL    HW219929   3.310   2.803   8.948 -0.5636  4.0854 -2.1755
 2765SOL     OW19930   2.768   0.402   4.998  0.0115  0.0225 -0.0110
 2765SOL    HW119931   2.774   0.334   4.932  0.5528  0.1099 -0.0484
 2765SOL    HW219932   2.685   0.382   5.042  0.9003 -0.2889  1.5399
 2766SOL     OW19933   2.232   3.895  14.828 -0.6204  0.1465 -0.3014
 2766SOL    HW119934   2.228   3.895  14.924  0.7898  1.0889 -0.2564
 2766SOL    HW219935   2.197   3.808  14.806  1.5317 -0.6315 -0.6445
 2767SOL     OW19936   1.917   4.148   2.459 -0.2267 -0.4284 -0.2373
 2767SOL    HW119937   1.904   4.077   2.396  0.3569 -0.5373 -0.2334
 2767SOL    HW219938   1.982   4.202   2.415  1.9756 -2.7538  0.1658
 2768SOL     OW19939   4.717   2.584  15.420  0.2423  0.1073 -0.9259
 2768SOL    HW119940   4.733   2.508  15.364 -1.6682 -2.1029  1.5284
 2768SOL    HW219941   4.720   2.537  15.504 -0.9655  0.2030 -0.8289
 2769SOL     OW19942   0.965   2.827   6.194 -0.5395 -0.3109  0.1915
 2769SOL    HW119943   0.971   2.895   6.261  3.8378  0.3416 -0.8517
 2769SOL    HW219944   0.973   2.749   6.249 -0.7763  1.8843  3.3317
 2770SOL     OW19945   3.578   0.463   2.574 -0.4608 -0.1250  0.0218
 2770SOL    HW119946   3.661   0.455   2.622  1.0815  3.0438 -2.0826
 2770SOL    HW219947   3.566   0.372   2.548 -0.5800 -0.0834 -0.0718
 2771SOL     OW19948   3.080   1.624  10.307  0.2367 -0.1016 -0.0297
 2771SOL    HW119949   3.156   1.614  10.251 -0.1401  1.6609 -0.8414
 2771SOL    HW219950   3.036   1.539  10.299 -1.5058  0.8372 -0.5094
 2772SOL     OW19951   0.342   4.663   8.079 -1.2178 -0.0404 -0.3355
 2772SOL    HW119952   0.431   4.696   8.067 -1.3532  0.9934  1.5032
 2772SOL    HW219953   0.320   4.625   7.994 -0.5032  0.8673 -0.9325
 2773SOL     OW19954   1.392   2.182   2.334 -0.0359 -1.2117 -0.0476
 2773SOL    HW119955   1.321   2.230   2.290  0.7570 -1.3370 -1.4789
 2773SOL    HW219956   1.441   2.149   2.259 -0.1795 -1.1065 -0.1871
 2774SOL     OW19957   0.821   2.901   5.568 -0.3317 -0.2969 -0.2583
 2774SOL    HW119958   0.847   2.977   5.515  0.8698 -0.4532  0.0958
 2774SOL    HW219959   0.829   2.948   5.652  1.0318 -1.4500  0.2549
 2775SOL     OW19960   2.238   2.161  11.202 -0.2555  0.1432 -0.6038
 2775SOL    HW119961   2.304   2.132  11.139  0.6549  0.1639  0.3541
 2775SOL    HW219962   2.156   2.156  11.151 -0.5084  0.3700 -0.2173
 2776SOL     OW19963   2.766   4.710   5.844 -0.5395 -0.0112  0.6234
 2776SOL    HW119964   2.747   4.696   5.751  1.4997  0.7418  0.0937
 2776SOL    HW219965   2.740   0.062   5.854  1.1185  0.5055  0.2085
 2777SOL     OW19966   2.442   0.830   5.757 -0.1600 -0.0469  0.6060
 2777SOL    HW119967   2.401   0.839   5.671 -1.0610  1.3037  1.1747
 2777SOL    HW219968   2.375   0.777   5.800  0.3315 -2.1376 -1.2257
 2778SOL     OW19969   2.054   1.154   8.049  0.2315 -0.3361 -0.0366
 2778SOL    HW119970   2.030   1.246   8.043 -1.3027 -0.7717 -0.5752
 2778SOL    HW219971   2.104   1.145   7.967  1.3621 -1.5393  0.7769
 2779SOL     OW19972   2.349   1.943  11.993  0.3453 -0.3472 -0.4412
 2779SOL    HW119973   2.362   1.849  12.004  2.1448  0.0742  1.1342
 2779SOL    HW219974   2.396   1.954  11.910  0.6789 -1.1523 -0.3621
 2780SOL     OW19975   3.869   2.643  12.013 -0.1673 -0.1116  0.5242
 2780SOL    HW119976   3.934   2.661  12.081 -1.5122  2.7399  1.0211
 2780SOL    HW219977   3.823   2.577  12.064  1.9844 -1.1287  1.1631
 2781SOL     OW19978   3.851   0.305   3.421 -0.1772 -0.0431  0.0870
 2781SOL    HW119979   3.915   0.236   3.403  0.0875 -0.0903  1.2431
 2781SOL    HW219980   3.911   0.359   3.472  2.3423 -1.6677 -1.1216
 2782SOL     OW19981   3.282   3.841   9.695  0.1748  0.5322  0.5066
 2782SOL    HW119982   3.196   3.884   9.698 -0.6503 -0.9560 -1.7409
 2782SOL    HW219983   3.342   3.909   9.725  1.7684 -1.0950  0.9820
 2783SOL     OW19984   3.939   3.972   3.574  0.0985 -0.0373  0.1817
 2783SOL    HW119985   3.978   3.900   3.524 -0.5437 -0.2462 -0.0252
 2783SOL    HW219986   4.010   4.032   3.598 -1.1283  1.7291 -0.6014
 2784SOL     OW19987   3.712   2.655   4.162 -0.3680  0.1288  0.0781
 2784SOL    HW119988   3.734   2.709   4.238  1.0554  0.2439 -0.4294
 2784SOL    HW219989   3.773   2.688   4.097 -0.2819 -0.3386 -0.0822
 2785SOL     OW19990   4.615   3.848   8.846  0.4215 -0.1642  0.2077
 2785SOL    HW119991   4.637   3.837   8.939  1.6192  0.7550  0.0389
 2785SOL    HW219992   4.551   3.918   8.852  1.0839  0.5977 -1.5391
 2786SOL     OW19993   4.437   0.089   6.777  0.3127 -0.4081 -0.0808
 2786SOL    HW119994   4.459   0.052   6.692 -0.8784 -0.0991 -0.5320
 2786SOL    HW219995   4.412   0.009   6.822  1.6120  0.0851  1.5117
 2787SOL     OW19996   0.052   2.162  15.487 -0.7942  0.0053  0.5748
 2787SOL    HW119997   0.065   2.232  15.422  1.1499 -1.7054 -0.8668
 2787SOL    HW219998   0.071   2.084  15.435  1.4220 -0.4173  2.0292
 2788SOL     OW19999   0.502   3.587   7.617 -0.0675  0.0632  0.0723
 2788SOL    HW120000   0.525   3.505   7.574  1.0540 -0.2781  1.3010
 2788SOL    HW220001   0.509   3.645   7.541  3.0598 -1.2107 -0.6229
 2789SOL     OW20002   1.986   2.499   7.676 -0.2951 -0.1238  0.2173
 2789SOL    HW120003   2.047   2.572   7.676 -1.6235  0.9774 -2.5794
 2789SOL    HW220004   1.941   2.515   7.593  1.1831  0.0150 -0.5607
 2790SOL     OW20005   2.136   0.549   8.583 -0.2979 -0.4363  0.2040
 2790SOL    HW120006   2.042   0.557   8.595 -0.3381  0.6700 -0.9063
 2790SOL    HW220007   2.135   0.507   8.496  0.0164 -0.0729  0.0253
 2791SOL     OW20008   1.498   4.718   5.876 -0.6432  0.1939 -0.0221
 2791SOL    HW120009   1.440   4.735   5.802 -1.8778 -1.9903  0.4233
 2791SOL    HW220010   1.429   4.693   5.937 -0.0411 -1.0659  0.1426
 2792SOL     OW20011   4.527   3.549   4.831 -0.1047 -0.0049 -0.7023
 2792SOL    HW120012   4.490   3.483   4.890 -1.8011  3.3419  1.9834
 2792SOL    HW220013   4.564   3.609   4.896  0.4217 -1.2093  0.1177
 2793SOL     OW20014   3.806   1.788   3.182 -0.6430  0.3406 -0.0525
 2793SOL    HW120015   3.768   1.776   3.095 -1.4668 -1.5730  0.5571
 2793SOL    HW220016   3.860   1.865   3.164  0.4380 -0.2005  0.8206
 2794SOL     OW20017   1.485   4.150   8.710 -0.3474  0.1176  0.1857
 2794SOL    HW120018   1.568   4.189   8.740 -0.0308 -0.8466  0.5435
 2794SOL    HW220019   1.445   4.122   8.792 -0.8066  0.2319 -0.0037
 2795SOL     OW20020   1.103   2.349   4.192 -0.0778 -0.0104  0.2762
 2795SOL    HW120021   1.104   2.418   4.125 -0.5947  2.2564  2.6081
 2795SOL    HW220022   1.148   2.275   4.150 -1.5323 -0.0647 -1.2260
 2796SOL     OW20023   0.004   3.407   2.663  0.4929 -0.0919 -0.0584
 2796SOL    HW120024   0.095   3.430   2.644 -0.2277  1.2269 -1.9356
 2796SOL    HW220025   0.012   3.333   2.723  0.7702 -0.7959 -0.9757
 2797SOL     OW20026   0.655   1.045   8.212 -0.0472 -0.2745 -0.1091
 2797SOL    HW120027   0.731   1.003   8.170 -0.6247 -0.4035 -1.0302
 2797SOL    HW220028   0.608   0.968   8.245 -2.5995  1.4175  0.1422
 2798SOL     OW20029   2.852   3.076   4.170 -0.7097  0.1353  0.2481
 2798SOL    HW120030   2.845   3.148   4.233  0.4513  0.5870 -0.1455
 2798SOL    HW220031   2.867   3.120   4.086  0.1148 -1.8849 -0.6566
 2799SOL     OW20032   4.517   3.736   6.840 -0.2247 -0.3521 -0.4343
 2799SOL    HW120033   4.460   3.753   6.766 -0.7890 -1.4581 -0.2608
 2799SOL    HW220034   4.600   3.733   6.793  1.4802  0.6956  2.4806
 2800SOL     OW20035   0.255   0.029   3.127  0.1297 -0.6068 -0.4557
 2800SOL    HW120036   0.217   4.700   3.182 -0.4807 -0.8648 -1.1903
 2800SOL    HW220037   0.343   4.732   3.114 -1.0318 -3.5608 -0.0516
 2801SOL     OW20038   2.696   0.442  16.374 -0.5421  0.3901  0.0425
 2801SOL    HW120039   2.641   0.364  16.383  0.0834 -0.5227 -4.3994
 2801SOL    HW220040   2.744   0.427  16.293 -0.4256  1.8859 -0.1583
 2802SOL     OW20041   0.696   0.075   2.150  0.6182 -0.0865 -0.1247
 2802SOL    HW120042   0.621   0.032   2.190 -0.6818  2.3629  0.0681
 2802SOL    HW220043   0.657   0.160   2.131 -2.8692 -1.1514  2.3806
 2803SOL     OW20044   1.007   2.529   5.089 -0.4568  0.6262 -0.4017
 2803SOL    HW120045   1.099   2.517   5.064 -0.4343  0.5511 -0.2812
 2803SOL    HW220046   0.980   2.442   5.061 -1.6053  1.3169 -1.4357
 2804SOL     OW20047   3.253   2.488   5.846  0.2797  0.0799  0.1336
 2804SOL    HW120048   3.269   2.537   5.926  0.3945  2.2590 -1.2299
 2804SOL    HW220049   3.342   2.476   5.812  0.2453 -3.6601  1.3777
 2805SOL     OW20050   4.094   1.173   0.705  0.1779  0.1988  0.2992
 2805SOL    HW120051   4.109   1.083   0.676  1.2273  0.6246 -0.4413
 2805SOL    HW220052   4.164   1.199   0.764 -0.5629  0.5651  1.0153
 2806SOL     OW20053   2.800   3.758   1.658  0.3618  0.3725  0.6254
 2806SOL    HW120054   2.877   3.806   1.688 -0.1163  0.8778  1.0730
 2806SOL    HW220055   2.800   3.691   1.727 -3.3994 -0.3584 -0.0849
 2807SOL     OW20056   1.744   0.138   8.037 -0.4613 -0.0023  0.0443
 2807SOL    HW120057   1.782   0.052   8.018 -0.7634 -0.0144 -0.5130
 2807SOL    HW220058   1.798   0.191   7.978  1.6612 -1.2254  0.9067
 2808SOL     OW20059   3.202   2.322   5.371  0.1705 -0.1173 -0.2397
 2808SOL    HW120060   3.295   2.337   5.392 -0.2307 -0.6883  2.0132
 2808SOL    HW220061   3.176   2.331   5.463  0.9320  0.2836 -0.0615
 2809SOL     OW20062   1.876   2.014   5.471  0.0797 -0.6777 -0.4465
 2809SOL    HW120063   1.971   2.021   5.459 -0.3484  0.5584 -3.3540
 2809SOL    HW220064   1.873   1.999   5.565 -0.5018  1.4660 -0.1277
 2810SOL     OW20065   4.654   0.809   5.413 -0.0116 -0.4062  0.6336
 2810SOL    HW120066   0.008   0.787   5.404  0.1523 -0.1083  1.6191
 2810SOL    HW220067   4.618   0.736   5.464 -2.1380 -0.0119 -0.2902
 2811SOL     OW20068   0.156   1.200   5.641 -0.0086  0.0136 -0.3276
 2811SOL    HW120069   0.104   1.279   5.659 -2.5784 -1.2512 -2.0920
 2811SOL    HW220070   0.235   1.237   5.602  0.2460  0.8581  0.9831
 2812SOL     OW20071   3.392   3.758  11.621 -0.6259  0.3313 -0.6199
 2812SOL    HW120072   3.456   3.728  11.556  0.8396  2.1510 -0.0122
 2812SOL    HW220073   3.423   3.848  11.630 -0.1447  0.1885 -0.7878
 2813SOL     OW20074   2.540   0.155   0.926  0.5435 -0.0832  0.2747
 2813SOL    HW120075   2.489   0.095   0.980  1.2784  0.2498  1.3390
 2813SOL    HW220076   2.533   0.241   0.965  0.3856  0.8630 -1.8354
 2814SOL     OW20077   1.179   4.629   3.986 -0.2935  0.3167 -0.2326
 2814SOL    HW120078   1.262   4.672   3.968  0.2462 -1.0803 -1.0177
 2814SOL    HW220079   1.123   4.707   3.980 -1.8549 -0.5834  2.4562
 2815SOL     OW20080   4.172   2.695   6.467 -0.4138 -0.1562  0.1633
 2815SOL    HW120081   4.149   2.717   6.377 -1.2012  1.9156  0.8880
 2815SOL    HW220082   4.191   2.601   6.462 -0.5853 -0.3213  2.3431
 2816SOL     OW20083   4.670   4.301   3.833 -1.2173 -0.4756  0.1665
 2816SOL    HW120084   0.022   4.277   3.818 -1.2822 -1.1083  0.7596
 2816SOL    HW220085   4.681   4.347   3.917 -1.6840  0.5674 -0.3419
 2817SOL     OW20086   0.360   4.347   8.158  0.0872 -0.0077 -0.3172
 2817SOL    HW120087   0.309   4.428   8.155 -0.3373 -0.2402  0.4435
 2817SOL    HW220088   0.445   4.380   8.186 -0.7021  2.7845 -1.2310
 2818SOL     OW20089   0.699   1.680   7.285 -0.1159  0.0699  0.0083
 2818SOL    HW120090   0.664   1.722   7.206  0.3699 -0.3271 -0.4189
 2818SOL    HW220091   0.698   1.748   7.352  0.0011  0.0114  0.0705
 2819SOL     OW20092   0.652   1.937  13.125 -0.3790 -0.0962  0.3744
 2819SOL    HW120093   0.664   2.030  13.107 -0.1971 -0.3639 -0.8781
 2819SOL    HW220094   0.591   1.916  13.054 -2.2736  0.0150  1.9673
 2820SOL     OW20095   2.628   4.203   7.569  0.1509 -0.1098 -0.4853
 2820SOL    HW120096   2.718   4.190   7.598 -0.3086  0.1773  1.0808
 2820SOL    HW220097   2.601   4.111   7.567  0.1428 -0.0882 -1.2383
 2821SOL     OW20098   0.844   1.878   6.558  0.1461  0.5886 -0.0774
 2821SOL    HW120099   0.895   1.934   6.499 -0.6408  1.1464 -0.2102
 2821SOL    HW220100   0.910   1.854   6.623 -2.0777  0.4014  2.0672
 2822SOL     OW20101   0.799   3.942   5.286 -0.1909 -0.1888  1.2640
 2822SOL    HW120102   0.785   3.962   5.193 -0.8419  0.6752  1.5497
 2822SOL    HW220103   0.894   3.951   5.290 -0.1729 -0.5492  1.6095
 2823SOL     OW20104   2.418   1.270   7.095 -0.0822 -0.2836  0.0011
 2823SOL    HW120105   2.474   1.206   7.139 -1.1756 -0.5182  1.0423
 2823SOL    HW220106   2.366   1.211   7.040 -0.7356 -0.1042  0.4295
 2824SOL     OW20107   1.925   2.390   5.117  0.6453  0.0694 -0.0240
 2824SOL    HW120108   1.846   2.394   5.171 -0.0796  0.4976 -1.0877
 2824SOL    HW220109   1.912   2.459   5.052  1.6357  0.4613  0.1912
 2825SOL     OW20110   0.630   1.203  13.924 -0.5413  0.3235  0.0551
 2825SOL    HW120111   0.675   1.127  13.962 -1.6248  0.2558  1.2059
 2825SOL    HW220112   0.556   1.220  13.982  0.3726 -0.9525  1.6176
 2826SOL     OW20113   1.870   3.902   3.109 -0.2795  0.5023 -0.0589
 2826SOL    HW120114   1.823   3.922   3.191 -0.1313  1.1794 -0.1406
 2826SOL    HW220115   1.829   3.967   3.052 -0.2018  1.0883  0.5543
 2827SOL     OW20116   2.191   1.862   5.102  0.1193  0.1488 -0.4467
 2827SOL    HW120117   2.187   1.785   5.045 -1.1874  0.2365 -0.4678
 2827SOL    HW220118   2.176   1.815   5.184  1.6767  0.0852 -0.2050
 2828SOL     OW20119   0.901   4.716   3.516  0.4092  0.0419 -0.2312
 2828SOL    HW120120   0.832   4.695   3.453 -0.4525  0.8148  0.4456
 2828SOL    HW220121   0.936   4.629   3.533 -2.7768 -1.4632 -1.5329
 2829SOL     OW20122   2.347   1.042  13.089 -0.1662  0.4103 -0.4574
 2829SOL    HW120123   2.330   1.027  12.996 -2.5415 -0.2724  0.0957
 2829SOL    HW220124   2.442   1.029  13.097 -0.5442 -2.5291 -0.8954
 2830SOL     OW20125   1.842   2.992  13.657 -0.2510  0.0403  0.1012
 2830SOL    HW120126   1.899   3.009  13.731 -1.0263 -1.3932  1.0271
 2830SOL    HW220127   1.802   3.077  13.635  1.1347  0.6847  0.0920
 2831SOL     OW20128   2.479   0.936   7.482 -0.0364 -0.0334  0.0336
 2831SOL    HW120129   2.526   0.890   7.552  1.7601  1.5790 -0.1317
 2831SOL    HW220130   2.413   0.869   7.464 -0.0059  0.0293 -0.3188
 2832SOL     OW20131   1.690   2.400   3.331  0.2721 -0.3269 -0.2185
 2832SOL    HW120132   1.701   2.352   3.249  3.3109  0.0325 -0.0045
 2832SOL    HW220133   1.613   2.455   3.312  0.2858 -0.7692 -1.5311
 2833SOL     OW20134   0.770   1.839   7.526  0.1863  0.2239 -0.7312
 2833SOL    HW120135   0.804   1.796   7.605 -0.5050 -1.1904 -1.1934
 2833SOL    HW220136   0.710   1.903   7.562  0.0753 -0.4560  0.3129
 2834SOL     OW20137   2.306   2.444   6.777  0.9616  0.5952 -0.1542
 2834SOL    HW120138   2.353   2.420   6.697  1.7594  0.1571  0.4398
 2834SOL    HW220139   2.312   2.368   6.836  0.0018  0.3748 -0.3392
 2835SOL     OW20140   2.689   3.823   3.242  0.1950  0.2467 -0.5839
 2835SOL    HW120141   2.762   3.872   3.279  0.8220 -1.4525  0.4080
 2835SOL    HW220142   2.618   3.831   3.306 -0.3346  1.1309 -1.2788
 2836SOL     OW20143   3.890   0.686  12.433 -0.4702 -0.2703  0.2757
 2836SOL    HW120144   3.877   0.781  12.435 -0.3514 -0.2923  1.6050
 2836SOL    HW220145   3.815   0.653  12.481  0.5381  0.3254  2.2541
 2837SOL     OW20146   0.981   1.879   7.069 -0.4236  0.2408  0.2269
 2837SOL    HW120147   0.977   1.930   7.150  1.1747  1.0345 -0.1965
 2837SOL    HW220148   0.886   1.876   7.058 -0.2983  0.5460 -0.8715
 2838SOL     OW20149   3.189   2.604   9.846  0.2044 -0.1197  0.0274
 2838SOL    HW120150   3.201   2.664   9.919 -0.5706 -1.0020  0.8773
 2838SOL    HW220151   3.278   2.574   9.829  0.4713 -0.0230  1.2676
 2839SOL     OW20152   1.980   4.147   2.071  0.1919  0.1421 -0.9626
 2839SOL    HW120153   1.963   4.088   2.144  0.8716 -0.2711 -1.1296
 2839SOL    HW220154   2.065   4.111   2.043  0.1196 -0.4588 -0.4235
 2840SOL     OW20155   4.257   4.461   3.121 -0.3145 -0.1189  0.3602
 2840SOL    HW120156   4.182   4.520   3.115 -0.4893 -0.5250 -1.5198
 2840SOL    HW220157   4.234   4.398   3.052  0.1461  0.9061 -0.7387
 2841SOL     OW20158   2.430   4.384   9.355 -0.1029 -0.1774  0.1096
 2841SOL    HW120159   2.451   4.378   9.262 -0.2862 -0.4407  0.0842
 2841SOL    HW220160   2.378   4.465   9.357 -0.2237 -0.3000  1.4740
 2842SOL     OW20161   2.630   1.366   5.990 -0.2391  0.4619  0.0788
 2842SOL    HW120162   2.660   1.276   6.002  1.8070  0.8943 -1.8165
 2842SOL    HW220163   2.600   1.390   6.078  3.0914  1.4166  0.9712
 2843SOL     OW20164   0.966   2.523   3.916  0.2234  0.0800 -0.1722
 2843SOL    HW120165   1.021   2.600   3.899  0.7157 -0.0560  0.8075
 2843SOL    HW220166   1.030   2.453   3.904 -1.2031 -1.4951  1.3518
 2844SOL     OW20167   2.799   1.701   8.586 -0.8764 -0.3515  0.2961
 2844SOL    HW120168   2.729   1.766   8.597 -0.3036  0.4473 -0.7343
 2844SOL    HW220169   2.755   1.617   8.592  0.1306 -0.6561  3.2403
 2845SOL     OW20170   0.030   2.278  10.135  0.0948  0.0005 -0.3365
 2845SOL    HW120171   0.046   2.288  10.229 -2.0015 -0.3905  0.0620
 2845SOL    HW220172   4.714   2.352  10.112  3.0634  1.2701 -3.3502
 2846SOL     OW20173   1.220   0.126  17.116 -0.2631 -0.0584  0.3771
 2846SOL    HW120174   1.288   0.193  17.122  0.3383 -0.3575 -3.0370
 2846SOL    HW220175   1.264   0.050  17.077  1.3533  1.6507 -1.1171
 2847SOL     OW20176   2.950   1.545  13.151  0.4358 -0.0090  0.4249
 2847SOL    HW120177   2.934   1.639  13.139  0.5647  0.0173  0.4588
 2847SOL    HW220178   3.042   1.529  13.134  0.7348  2.4706 -0.3059
 2848SOL     OW20179   1.095   1.628   3.891  0.0855  0.0611 -0.1968
 2848SOL    HW120180   1.059   1.689   3.954 -0.1675 -0.2728 -0.0176
 2848SOL    HW220181   1.184   1.610   3.919 -1.0399 -0.1704  3.1927
 2849SOL     OW20182   2.355   1.354   7.351  0.2631 -0.7258  0.4090
 2849SOL    HW120183   2.381   1.341   7.260 -0.1716  2.8295 -0.1980
 2849SOL    HW220184   2.285   1.419   7.343 -0.3352 -1.3469  0.5919
 2850SOL     OW20185   4.198   1.426   7.185 -0.2350 -0.4409  0.4862
 2850SOL    HW120186   4.219   1.502   7.131  0.5849 -1.7937 -1.0812
 2850SOL    HW220187   4.119   1.407   7.134  0.9824  1.4500 -2.1052
 2851SOL     OW20188   1.464   3.762   3.681  0.7590 -0.5129 -0.2619
 2851SOL    HW120189   1.517   3.839   3.703  0.9746 -1.0600  1.0770
 2851SOL    HW220190   1.400   3.810   3.628  2.1677 -1.3149 -2.7053
 2852SOL     OW20191   0.903   1.076   0.754  0.0321  0.4845 -0.6075
 2852SOL    HW120192   0.847   1.006   0.719 -1.2089  2.2826 -2.2232
 2852SOL    HW220193   0.887   1.145   0.690 -0.4306  1.1366  0.2116
 2853SOL     OW20194   4.687   4.099   7.183 -0.1569  0.0252 -0.1006
 2853SOL    HW120195   4.735   4.054   7.114 -0.8222  1.5258 -1.5200
 2853SOL    HW220196   4.614   4.141   7.139 -0.3692 -1.2644 -0.9660
 2854SOL     OW20197   0.873   3.208  14.781  0.3734 -0.4141  0.3662
 2854SOL    HW120198   0.863   3.215  14.686 -0.6864  1.7730  0.6480
 2854SOL    HW220199   0.817   3.278  14.814 -0.0210 -0.3027 -0.5498
 2855SOL     OW20200   2.194   0.464  11.683  0.1687 -0.0871 -0.3029
 2855SOL    HW120201   2.229   0.401  11.747 -1.1106 -0.1437  0.3445
 2855SOL    HW220202   2.153   0.528  11.742  0.2326 -0.7360  0.4410
 2856SOL     OW20203   1.910   1.938   5.082 -0.3308 -0.0545  0.3624
 2856SOL    HW120204   1.994   1.969   5.048 -1.7197  1.6249 -1.5677
 2856SOL    HW220205   1.852   1.974   5.015 -2.4012  0.7214  2.5711
 2857SOL     OW20206   2.723   4.547   8.435 -0.2408 -0.2590 -1.0522
 2857SOL    HW120207   2.674   4.465   8.439 -1.8335  0.8067  1.5110
 2857SOL    HW220208   2.808   4.509   8.456  0.2897  1.2663 -0.4170
 2858SOL     OW20209   2.011   2.840   4.147 -0.1812 -0.1397  0.2743
 2858SOL    HW120210   1.973   2.827   4.234 -2.2833 -1.0350 -0.7896
 2858SOL    HW220211   2.000   2.935   4.143  3.2202  0.2688  0.2950
 2859SOL     OW20212   1.630   3.262   4.779  0.7988 -0.5556 -0.3604
 2859SOL    HW120213   1.694   3.241   4.846 -0.6438 -1.0687  0.8719
 2859SOL    HW220214   1.578   3.183   4.766 -1.0171  0.0366  3.0692
 2860SOL     OW20215   3.322   4.413   2.157  0.2092  0.9755  0.1102
 2860SOL    HW120216   3.360   4.474   2.094 -2.5060  0.5838 -1.9245
 2860SOL    HW220217   3.333   4.331   2.109  1.4301 -0.6243  3.1753
 2861SOL     OW20218   4.478   1.502   5.516  0.7715  0.6033  0.3671
 2861SOL    HW120219   4.468   1.462   5.429 -0.8588  0.8455  0.4294
 2861SOL    HW220220   4.447   1.593   5.510 -0.7436  0.0136 -0.9909
 2862SOL     OW20221   0.793   2.613  13.175  0.1175 -0.4004 -0.4635
 2862SOL    HW120222   0.803   2.623  13.270  2.9323  0.5471 -0.8552
 2862SOL    HW220223   0.809   2.519  13.165 -0.1180 -0.6931  1.9311
 2863SOL     OW20224   0.612   4.287   3.662  0.2337 -0.5367  0.0687
 2863SOL    HW120225   0.679   4.270   3.729  1.1591  1.6194 -0.3121
 2863SOL    HW220226   0.587   4.371   3.702  0.0593 -0.6959  0.2994
 2864SOL     OW20227   3.845   4.373   2.498 -0.1695  0.1714 -0.0188
 2864SOL    HW120228   3.936   4.384   2.524 -0.0217 -1.2694  0.0859
 2864SOL    HW220229   3.820   4.293   2.545 -1.0108 -0.7831 -2.0831
 2865SOL     OW20230   0.511   2.306   0.914  0.3631 -0.0799  0.2472
 2865SOL    HW120231   0.492   2.241   0.846  1.7409 -0.6599  0.4222
 2865SOL    HW220232   0.440   2.296   0.977  1.3675  0.1495  1.4181
 2866SOL     OW20233   0.336   2.955   8.281 -0.1890  0.2362  0.1895
 2866SOL    HW120234   0.299   2.959   8.369  0.0768  1.7123  0.2447
 2866SOL    HW220235   0.332   3.046   8.250  0.7015  0.7958  1.7167
 2867SOL     OW20236   0.328   3.733  10.155  0.0933  0.6442 -0.2527
 2867SOL    HW120237   0.333   3.808  10.214 -0.3498  1.2684 -1.0190
 2867SOL    HW220238   0.274   3.670  10.203 -0.0678  0.3643 -0.7985
 2868SOL     OW20239   3.108   1.704  13.917  0.3127 -0.2679  0.1392
 2868SOL    HW120240   3.183   1.659  13.877  0.2549  0.0941 -0.3709
 2868SOL    HW220241   3.056   1.716  13.838  1.0592  1.0073 -0.1424
 2869SOL     OW20242   2.340   1.430   6.447 -0.0348 -0.1440 -0.1573
 2869SOL    HW120243   2.247   1.442   6.467 -0.0489 -0.2456 -0.1601
 2869SOL    HW220244   2.377   1.519   6.443 -3.0409  1.0855 -0.5529
 2870SOL     OW20245   4.411   4.350  17.656 -0.7440  0.2202 -0.3248
 2870SOL    HW120246   4.392   4.398  17.576  0.4562 -1.2448 -1.4829
 2870SOL    HW220247   4.354   4.274  17.650  1.7964 -1.6953 -0.3046
 2871SOL     OW20248   0.850   1.263  17.005 -0.4263  0.1973 -0.1291
 2871SOL    HW120249   0.927   1.268  16.949  1.1380  1.5966  2.1532
 2871SOL    HW220250   0.834   1.355  17.022 -0.2750  0.2060 -0.0353
 2872SOL     OW20251   2.331   0.306   4.185  0.1234  0.3200  0.9137
 2872SOL    HW120252   2.385   0.368   4.135 -3.1799  1.9757 -0.5647
 2872SOL    HW220253   2.258   0.357   4.220  1.1173 -0.3593  4.0103
 2873SOL     OW20254   3.773   1.083   8.090  0.3097  0.2426 -0.1944
 2873SOL    HW120255   3.822   1.034   8.157 -1.6409 -1.9561 -0.3689
 2873SOL    HW220256   3.731   1.017   8.035  0.5574 -0.7728  0.8257
 2874SOL     OW20257   1.803   4.199   8.732  0.4206  0.3752 -0.1716
 2874SOL    HW120258   1.842   4.192   8.819  1.5873 -2.1323 -0.8826
 2874SOL    HW220259   1.765   4.111   8.726 -0.1459  0.6598 -0.7064
 2875SOL     OW20260   1.649   3.942   7.988 -0.5011  0.4969 -0.0460
 2875SOL    HW120261   1.709   3.987   8.046 -0.8912 -0.5880  1.2241
 2875SOL    HW220262   1.583   4.010   7.996 -2.0318 -0.9818  0.0573
 2876SOL     OW20263   3.715   0.312   8.686 -0.4384  0.0179  0.6136
 2876SOL    HW120264   3.734   0.280   8.773  1.2080 -0.1962  0.1681
 2876SOL    HW220265   3.653   0.246   8.654 -0.2628  0.2224 -0.1597
 2877SOL     OW20266   3.179   4.014   7.954 -0.1326 -0.0592  0.1293
 2877SOL    HW120267   3.212   4.092   7.997 -3.4418  0.4562  1.7387
 2877SOL    HW220268   3.242   3.946   7.977 -1.9637 -1.4889  0.9286
 2878SOL     OW20269   1.669   3.194   3.241 -0.6235 -0.2678 -0.9013
 2878SOL    HW120270   1.593   3.140   3.220 -1.6411  1.2550 -1.1901
 2878SOL    HW220271   1.707   3.142   3.311 -0.9279 -0.7279 -1.0788
 2879SOL     OW20272   1.694   4.266   9.080 -0.1965 -0.0908  0.1528
 2879SOL    HW120273   1.616   4.211   9.073  1.1056 -1.8516 -0.6871
 2879SOL    HW220274   1.718   4.275   9.172  1.5963 -0.1951 -0.2996
 2880SOL     OW20275   1.483   2.339   8.377  0.2317 -0.0937  0.0196
 2880SOL    HW120276   1.416   2.407   8.370 -0.1299 -0.5331 -0.8525
 2880SOL    HW220277   1.511   2.330   8.286 -2.8526 -1.4365 -0.7925
 2881SOL     OW20278   0.128   3.331   9.851 -0.0304 -0.1754  0.5906
 2881SOL    HW120279   0.071   3.258   9.829  1.1727 -0.8866 -0.1775
 2881SOL    HW220280   0.068   3.380   9.908  1.8068  2.5340  0.1935
 2882SOL     OW20281   1.481   0.485   5.408  0.1222 -1.1205 -0.0628
 2882SOL    HW120282   1.543   0.533   5.464  0.2015  0.9628 -1.9333
 2882SOL    HW220283   1.531   0.454   5.333 -1.7673 -0.1192 -1.7508
 2883SOL     OW20284   1.870   2.272   3.477  0.3325  0.5668 -0.2542
 2883SOL    HW120285   1.794   2.324   3.454  0.9607  1.9846  0.8669
 2883SOL    HW220286   1.937   2.335   3.450  0.3071  0.9354  0.5716
 2884SOL     OW20287   4.089   3.451   5.676 -0.3326 -0.1259  0.0921
 2884SOL    HW120288   4.058   3.541   5.664 -0.6563 -0.5520 -2.1147
 2884SOL    HW220289   4.152   3.459   5.747 -0.5904 -1.7843  0.4971
 2885SOL     OW20290   1.118   0.480   5.944 -0.1233 -0.0153 -0.1046
 2885SOL    HW120291   1.171   0.406   5.916  1.9661  1.3066  0.3727
 2885SOL    HW220292   1.183   0.537   5.985 -0.0163 -1.6738  2.0502
 2886SOL     OW20293   4.344   2.113   4.742  0.0493 -0.1921  1.4464
 2886SOL    HW120294   4.334   2.062   4.823 -1.9303 -1.7332  0.2251
 2886SOL    HW220295   4.255   2.148   4.735 -0.9162 -2.9640 -0.3650
 2887SOL     OW20296   0.815   3.281   9.164 -0.2305 -0.0931 -0.0077
 2887SOL    HW120297   0.787   3.296   9.254  2.7116 -2.9856  1.3983
 2887SOL    HW220298   0.909   3.299   9.167 -0.1810 -0.3601  0.0285
 2888SOL     OW20299   3.730   4.490   5.137 -0.1093 -0.2952 -0.4790
 2888SOL    HW120300   3.655   4.483   5.197  1.6572  0.4799  1.8508
 2888SOL    HW220301   3.731   4.586   5.130  2.3130 -0.5056 -2.9457
 2889SOL     OW20302   2.318   1.008   4.268  0.2445  0.1347 -0.8263
 2889SOL    HW120303   2.409   1.021   4.295  0.3552 -3.0980  0.3136
 2889SOL    HW220304   2.325   0.924   4.223 -0.7431  0.7453 -2.1346
 2890SOL     OW20305   0.077   1.668  13.364  0.0892  0.1282  0.0472
 2890SOL    HW120306   0.006   1.700  13.308 -0.6917 -2.2002 -0.3364
 2890SOL    HW220307   0.066   1.727  13.438 -1.1375  1.5919 -1.3011
 2891SOL     OW20308   1.316   0.748   4.157 -0.2826 -0.0063 -0.4341
 2891SOL    HW120309   1.238   0.699   4.182 -0.3237 -0.9319 -2.3904
 2891SOL    HW220310   1.307   0.766   4.063 -0.0647 -0.0054 -0.4566
 2892SOL     OW20311   2.131   4.074   7.965 -0.3638 -0.5621  0.2089
 2892SOL    HW120312   2.138   4.116   8.051  2.2996 -3.3634  1.3420
 2892SOL    HW220313   2.036   4.078   7.956 -0.2702 -0.1893 -0.6147
 2893SOL     OW20314   3.950   1.184   2.900  0.5001  0.3039 -0.0143
 2893SOL    HW120315   3.948   1.211   2.991 -0.1152  1.6339 -0.4219
 2893SOL    HW220316   3.858   1.190   2.872  0.3940 -2.8378 -0.2958
 2894SOL     OW20317   0.780   0.470   8.675 -0.0157 -0.4218  0.0196
 2894SOL    HW120318   0.856   0.506   8.720 -0.1126 -0.4185  0.1817
 2894SOL    HW220319   0.812   0.386   8.641  0.4207 -0.6696  1.0519
 2895SOL     OW20320   3.725   0.145   1.235  0.3627 -0.3929 -0.3751
 2895SOL    HW120321   3.745   0.237   1.248 -1.2304 -0.0567 -0.3829
 2895SOL    HW220322   3.662   0.137   1.307 -0.6543  3.0683 -0.9109
 2896SOL     OW20323   3.245   4.719   7.632  0.5676 -0.4263  0.0376
 2896SOL    HW120324   3.204   4.671   7.560  1.2611 -0.2930 -0.4489
 2896SOL    HW220325   3.186   4.688   7.700  2.3895 -0.9437  1.3836
 2897SOL     OW20326   2.153   2.981   5.434 -0.4077  0.2092  0.4415
 2897SOL    HW120327   2.103   2.961   5.355  1.2605  0.2899 -0.6594
 2897SOL    HW220328   2.228   2.923   5.419 -0.4878 -0.0950  1.2587
 2898SOL     OW20329   1.240   1.652   4.544 -0.4164 -1.0478 -0.0790
 2898SOL    HW120330   1.275   1.604   4.619 -0.3250 -0.7508  0.0676
 2898SOL    HW220331   1.161   1.681   4.589  0.5001  0.1432  0.7510
 2899SOL     OW20332   4.549   0.430   0.972 -0.1943  0.1912  0.3225
 2899SOL    HW120333   4.478   0.415   1.034 -0.4268 -0.5999 -0.1353
 2899SOL    HW220334   4.583   0.343   0.953  1.3403  1.1204 -1.1560
 2900SOL     OW20335   3.442   2.016   1.791 -0.5510 -0.2637  0.1878
 2900SOL    HW120336   3.396   2.009   1.708 -2.1551  1.5911  0.9099
 2900SOL    HW220337   3.394   1.957   1.849  1.4757  2.1477  4.3117
 2901SOL     OW20338   0.751   3.931  13.055  0.0676 -0.2718 -0.0971
 2901SOL    HW120339   0.757   3.846  13.011 -1.2974 -0.6906  0.5366
 2901SOL    HW220340   0.833   3.969  13.021  0.0569  0.3394  0.5399
 2902SOL     OW20341   1.838   1.538   9.579 -0.4718  0.3236 -0.2490
 2902SOL    HW120342   1.927   1.530   9.544 -0.5240  1.2796 -0.5815
 2902SOL    HW220343   1.819   1.629   9.559 -2.9133 -0.0148  0.5480
 2903SOL     OW20344   0.982   1.643   6.364  0.0916  0.1643  0.1122
 2903SOL    HW120345   0.917   1.692   6.314  0.2847 -0.4375 -0.7056
 2903SOL    HW220346   1.039   1.715   6.392  0.8135 -0.5673  0.4947
 2904SOL     OW20347   1.079   3.445  13.891  0.5239 -0.2096 -0.5500
 2904SOL    HW120348   1.032   3.376  13.843  1.4926 -1.7080  0.6665
 2904SOL    HW220349   1.117   3.387  13.957 -0.1045 -1.4924 -1.2870
 2905SOL     OW20350   1.728   2.469   5.527 -0.0352 -0.3266 -0.4983
 2905SOL    HW120351   1.736   2.510   5.614  1.7784 -0.8032 -0.4361
 2905SOL    HW220352   1.699   2.383   5.556 -0.7140  0.6774  1.8198
 2906SOL     OW20353   3.789   0.072   2.884 -0.2525 -0.1488  0.3361
 2906SOL    HW120354   3.763   0.163   2.900 -2.1214 -0.6580  0.1849
 2906SOL    HW220355   3.712   0.015   2.888  0.1404 -0.6631  0.5286
 2907SOL     OW20356   1.195   0.006   7.992 -0.4288 -0.1106  0.2282
 2907SOL    HW120357   1.191   0.078   8.055  1.1795  0.0074  0.1867
 2907SOL    HW220358   1.130   0.046   7.935  0.1313 -0.6920 -0.8128
 2908SOL     OW20359   0.350   1.171  12.444  0.2920  0.4144  0.4762
 2908SOL    HW120360   0.282   1.185  12.510  0.5813  2.3060  0.3923
 2908SOL    HW220361   0.426   1.155  12.500  0.6112  1.1506  0.2552
 2909SOL     OW20362   4.534   3.597  13.585 -0.1150 -0.0866  0.0867
 2909SOL    HW120363   4.625   3.603  13.554 -0.4685  0.8023 -0.7778
 2909SOL    HW220364   4.497   3.520  13.541 -1.7649  0.8893 -0.2063
 2910SOL     OW20365   0.469   1.194   4.295 -0.4121 -0.1210 -0.5402
 2910SOL    HW120366   0.540   1.148   4.250 -0.3328 -1.1288  0.6365
 2910SOL    HW220367   0.475   1.146   4.377 -2.1052 -0.2603 -0.4901
 2911SOL     OW20368   3.335   1.497   4.573  0.4198  0.0308  0.0552
 2911SOL    HW120369   3.320   1.573   4.518 -1.4063 -0.7128 -0.4879
 2911SOL    HW220370   3.422   1.512   4.610 -0.1927  2.4762  0.5213
 2912SOL     OW20371   0.021   3.668   5.661 -0.2343 -0.2440  0.0908
 2912SOL    HW120372   4.711   3.750   5.661 -0.5525 -0.4376  2.3676
 2912SOL    HW220373   0.031   3.665   5.756 -2.1733  1.6507  0.3675
 2913SOL     OW20374   4.213   1.699   5.808 -0.2231  0.3103  0.5370
 2913SOL    HW120375   4.261   1.665   5.884 -1.7764 -0.5634  1.1230
 2913SOL    HW220376   4.283   1.732   5.751 -0.8864  1.2408  0.2621
 2914SOL     OW20377   4.203   3.611   4.590  0.3146  0.8851  0.6208
 2914SOL    HW120378   4.273   3.671   4.616  1.2066 -0.1182  0.5397
 2914SOL    HW220379   4.251   3.528   4.584 -0.1162  0.5536  1.6751
 2915SOL     OW20380   2.591   1.836   7.979  0.4205 -0.1862 -0.0519
 2915SOL    HW120381   2.607   1.752   7.936 -2.2773  0.6532 -2.7337
 2915SOL    HW220382   2.504   1.824   8.015 -0.2409  0.0138 -1.5723
 2916SOL     OW20383   0.446   1.507   2.087 -0.2808 -0.2261 -0.1835
 2916SOL    HW120384   0.506   1.580   2.102 -2.0391  1.2684 -0.4189
 2916SOL    HW220385   0.467   1.492   1.994  2.2099  1.2174  0.1573
 2917SOL     OW20386   3.731   0.062   5.007 -0.2315 -0.3999  0.2317
 2917SOL    HW120387   3.706   0.055   4.915 -2.3435 -4.0122  1.0583
 2917SOL    HW220388   3.693   0.146   5.031 -0.1567 -0.2058 -0.3409
 2918SOL     OW20389   2.850   1.971   8.317 -0.3061  0.2838 -0.0393
 2918SOL    HW120390   2.908   2.031   8.363  2.6140 -1.7351 -1.0686
 2918SOL    HW220391   2.911   1.923   8.260 -1.0028 -0.6745  0.0146
 2919SOL     OW20392   0.001   3.539   1.247  0.7781  0.0564 -0.4298
 2919SOL    HW120393   4.676   3.602   1.214 -1.0863 -1.3487  0.4537
 2919SOL    HW220394   0.081   3.590   1.243 -0.0015  1.2893 -0.1660
 2920SOL     OW20395   1.586   1.194   9.987 -0.6876  0.1291 -0.0019
 2920SOL    HW120396   1.604   1.210   9.894 -1.0065 -1.2942 -0.3054
 2920SOL    HW220397   1.511   1.254   9.996  0.5023  1.4068  1.3196
 2921SOL     OW20398   1.177   2.644   3.722  0.0967 -0.3059  0.4631
 2921SOL    HW120399   1.148   2.735   3.727  0.9423  0.0173 -0.7294
 2921SOL    HW220400   1.106   2.604   3.671  0.0091  0.8141 -0.2801
 2922SOL     OW20401   4.532   0.251  15.688  0.2525 -0.3519  0.1279
 2922SOL    HW120402   4.605   0.277  15.744 -1.0812  1.6581  0.9018
 2922SOL    HW220403   4.481   0.332  15.688  1.5460  0.4661  0.0089
 2923SOL     OW20404   0.746   3.400   7.540 -0.2339 -0.2772 -0.4510
 2923SOL    HW120405   0.830   3.419   7.582 -0.6669 -1.1755  0.8163
 2923SOL    HW220406   0.708   3.331   7.595  1.5520  1.4271  2.8939
 2924SOL     OW20407   1.314   2.587   8.340 -0.2050  0.4844  0.4196
 2924SOL    HW120408   1.261   2.589   8.261  1.8340 -1.1234 -0.9942
 2924SOL    HW220409   1.335   2.680   8.352 -0.0403  0.7252 -1.8172
 2925SOL     OW20410   0.128   1.779   6.817 -0.2119  0.3350 -0.0345
 2925SOL    HW120411   0.162   1.842   6.880 -0.1297  1.0498 -0.8018
 2925SOL    HW220412   0.035   1.777   6.843  0.4134 -0.0496  2.1400
 2926SOL     OW20413   2.716   0.786   2.226  0.3782  0.0443 -0.3733
 2926SOL    HW120414   2.732   0.699   2.263 -2.1467  0.3702  1.4988
 2926SOL    HW220415   2.650   0.763   2.160 -0.2266  0.5453  0.0536
 2927SOL     OW20416   1.611   1.164   0.723 -0.1230 -0.2715  0.2204
 2927SOL    HW120417   1.561   1.122   0.793  0.3825  0.2388  0.8944
 2927SOL    HW220418   1.677   1.206   0.779  0.2581  0.4727 -0.7780
 2928SOL     OW20419   3.406   0.494  14.907 -0.2316  0.0268 -0.1947
 2928SOL    HW120420   3.319   0.493  14.948  0.0880  1.0629  0.4972
 2928SOL    HW220421   3.435   0.405  14.926  0.1440  0.2043  0.0776
 2929SOL     OW20422   4.389   2.251   9.049 -0.1066 -0.0749  0.3599
 2929SOL    HW120423   4.338   2.235   9.128  2.0241  0.4255  1.8099
 2929SOL    HW220424   4.413   2.344   9.055 -0.5511  0.0785 -0.1686
 2930SOL     OW20425   2.289   2.982   9.229  0.0149 -0.4691  0.2708
 2930SOL    HW120426   2.364   2.992   9.170 -0.1860 -3.3061 -0.4901
 2930SOL    HW220427   2.337   2.984   9.312  2.5581  1.3220 -1.2477
 2931SOL     OW20428   0.555   0.081   6.960 -0.2027 -0.2484 -0.2006
 2931SOL    HW120429   0.558   0.168   6.919  2.1694  1.1696  2.9850
 2931SOL    HW220430   0.632   0.075   7.017  0.7688 -2.2173 -1.7316
 2932SOL     OW20431   3.921   4.353  16.610  0.4847  0.1928  0.2415
 2932SOL    HW120432   3.992   4.417  16.621  0.7267 -0.1417  0.6217
 2932SOL    HW220433   3.952   4.308  16.532 -0.6647  0.4266 -0.3432
 2933SOL     OW20434   4.385   3.649   7.146 -0.0773  0.0414 -0.5053
 2933SOL    HW120435   4.334   3.568   7.147 -0.7339  0.4581  0.0774
 2933SOL    HW220436   4.351   3.699   7.072 -1.1614  0.7230  0.4543
 2934SOL     OW20437   0.505   3.502   8.509  0.4292  0.5754 -0.4867
 2934SOL    HW120438   0.566   3.439   8.547  0.0059 -0.2881 -1.2387
 2934SOL    HW220439   0.457   3.540   8.583 -0.9538 -0.6866 -0.7174
 2935SOL     OW20440   2.017   3.353  17.682 -0.1569 -0.1369  0.7064
 2935SOL    HW120441   1.922   3.364  17.675  0.1552  1.4149 -1.1097
 2935SOL    HW220442   2.022   3.314  17.595 -3.7154  0.8340  0.0312
 2936SOL     OW20443   3.548   4.551   0.334  0.4985  0.5773 -0.1656
 2936SOL    HW120444   3.467   4.541   0.385 -0.7608  5.5246 -1.2319
 2936SOL    HW220445   3.559   4.645   0.346 -0.8408  0.9368 -1.8388
 2937SOL     OW20446   3.532   4.118   3.488  0.0706  0.3220 -0.3331
 2937SOL    HW120447   3.576   4.201   3.470 -0.2776  0.7731  0.8779
 2937SOL    HW220448   3.594   4.050   3.465  1.0879  0.8987  0.6834
 2938SOL     OW20449   1.465   3.975   2.445 -0.3861 -0.2406 -0.1411
 2938SOL    HW120450   1.396   3.914   2.474  0.4579 -1.0311  0.1892
 2938SOL    HW220451   1.522   3.914   2.398  0.4751  1.8401 -1.7772
 2939SOL     OW20452   1.219   0.949   8.017 -0.6221  0.4219  0.5759
 2939SOL    HW120453   1.136   0.924   7.978  0.2248 -1.8975  0.2495
 2939SOL    HW220454   1.210   0.913   8.105  0.5030  1.0099  0.9467
 2940SOL     OW20455   2.414   0.174  14.350 -0.1822 -0.3366 -0.0589
 2940SOL    HW120456   2.402   0.266  14.326 -2.6304 -0.7704 -0.4659
 2940SOL    HW220457   2.469   0.147  14.277  1.3514  1.6912  0.3441
 2941SOL     OW20458   0.394   0.685   3.328  0.0993  0.3925 -0.3103
 2941SOL    HW120459   0.348   0.640   3.399 -1.2365 -0.7649 -1.9207
 2941SOL    HW220460   0.316   0.728   3.295 -1.1425 -2.2283 -0.8136
 2942SOL     OW20461   4.268   2.440   7.953  0.1005 -0.1748 -0.2068
 2942SOL    HW120462   4.222   2.367   7.910  0.2314  0.5026 -1.4912
 2942SOL    HW220463   4.287   2.394   8.035  3.6084 -0.7241 -1.3258
 2943SOL     OW20464   2.014   3.562   5.259  0.5175 -0.3431 -0.0652
 2943SOL    HW120465   2.107   3.553   5.240  1.2328  2.8875  1.9589
 2943SOL    HW220466   2.004   3.655   5.277 -3.8248 -0.9797  0.8601
 2944SOL     OW20467   1.378   4.341   5.426  0.4377 -0.2129 -0.0720
 2944SOL    HW120468   1.472   4.357   5.438 -0.1804  3.6119 -0.2126
 2944SOL    HW220469   1.341   4.362   5.512  0.2508 -1.2119  0.0958
 2945SOL     OW20470   1.918   4.701  13.670 -0.0336 -0.1324  0.4298
 2945SOL    HW120471   1.842   4.733  13.719 -2.0467 -1.1247 -2.0432
 2945SOL    HW220472   1.967   0.043  13.660  0.0324 -0.4687 -1.9075
 2946SOL     OW20473   0.296   3.523  11.144 -0.1861  0.0950  0.2226
 2946SOL    HW120474   0.376   3.543  11.192  0.1957 -1.5945  0.2869
 2946SOL    HW220475   0.258   3.453  11.197  2.7776 -0.6220  1.3944
 2947SOL     OW20476   2.599   0.347   6.094 -0.1486  0.0391  0.2439
 2947SOL    HW120477   2.581   0.341   6.188 -0.1734  1.6571  0.3498
 2947SOL    HW220478   2.594   0.443   6.094 -1.7349 -0.0247 -0.6573
 2948SOL     OW20479   2.179   0.354   8.778 -0.3291 -0.4173  0.0224
 2948SOL    HW120480   2.100   0.342   8.830  1.1044  0.0882  2.3118
 2948SOL    HW220481   2.150   0.409   8.705  0.2447 -1.6878 -1.1721
 2949SOL     OW20482   0.284   3.986   5.011  0.7827  0.3776 -0.0847
 2949SOL    HW120483   0.344   4.059   4.996  0.7887  0.0100 -1.8216
 2949SOL    HW220484   0.335   3.918   5.054  0.7471 -0.6581 -1.6901
 2950SOL     OW20485   0.936   2.340   2.079  0.2310  0.4453  0.1163
 2950SOL    HW120486   0.938   2.329   1.984  0.2887 -0.1668  0.1858
 2950SOL    HW220487   0.877   2.266   2.097 -0.3256  1.0223  0.6686
 2951SOL     OW20488   4.423   3.427   5.208  0.2407 -0.5976 -0.4538
 2951SOL    HW120489   4.384   3.401   5.291 -2.9383  0.4397 -1.6383
 2951SOL    HW220490   4.488   3.492   5.238  0.2562 -0.0252 -1.7330
 2952SOL     OW20491   1.203   0.860   0.265 -0.1352  0.4255  0.0726
 2952SOL    HW120492   1.227   0.913   0.342 -2.5838  0.9112  0.4923
 2952SOL    HW220493   1.144   0.927   0.232 -2.5697 -2.9139 -2.1909
 2953SOL     OW20494   3.160   3.278   5.557 -0.0406 -0.1157  0.3285
 2953SOL    HW120495   3.129   3.230   5.634  2.0904 -2.9485 -0.5438
 2953SOL    HW220496   3.097   3.249   5.492 -0.1084  2.2251 -0.6324
 2954SOL     OW20497   4.479   1.142   7.993 -0.1184 -0.1188 -0.1580
 2954SOL    HW120498   4.424   1.083   8.045  0.0790  0.4840  0.7345
 2954SOL    HW220499   4.441   1.125   7.907 -1.2617  1.4951  0.0371
 2955SOL     OW20500   0.815   4.707   7.029 -0.0048  0.1745  0.0403
 2955SOL    HW120501   0.831   0.055   7.065  2.2611 -0.0533 -0.4558
 2955SOL    HW220502   0.857   4.712   6.943 -0.0237 -1.8164 -0.0914
 2956SOL     OW20503   2.226   3.844   2.313  0.8876 -0.3099 -0.1625
 2956SOL    HW120504   2.252   3.845   2.405  2.9742  0.5457 -0.7553
 2956SOL    HW220505   2.294   3.792   2.270  2.3775  2.2182 -0.8459
 2957SOL     OW20506   2.723   1.942  17.681  0.0738 -0.0312 -0.0818
 2957SOL    HW120507   2.679   1.883  17.619 -0.5071 -0.1372  0.4242
 2957SOL    HW220508   2.712   2.025  17.634 -1.5700 -1.0894 -1.6056
 2958SOL     OW20509   1.282   3.387   4.315  0.2222  0.1813 -0.4000
 2958SOL    HW120510   1.281   3.482   4.325 -0.5307  0.4095 -2.5737
 2958SOL    HW220511   1.204   3.367   4.262 -0.5905 -0.4749  1.0565
 2959SOL     OW20512   3.345   1.468  15.689  0.1464  0.2431 -0.1220
 2959SOL    HW120513   3.325   1.468  15.783 -0.5781 -0.4804 -0.2683
 2959SOL    HW220514   3.438   1.446  15.684  0.9148  3.3571  0.5903
 2960SOL     OW20515   4.626   2.138   4.122  0.0511 -0.1484 -0.1563
 2960SOL    HW120516   4.592   2.067   4.177 -1.1783  0.8534  0.3623
 2960SOL    HW220517   4.611   2.102   4.034  0.1459  0.9013 -0.6008
 2961SOL     OW20518   2.068   0.771   1.034 -0.4021 -0.1186  0.0870
 2961SOL    HW120519   2.092   0.863   1.041  0.4479 -0.1513 -2.3702
 2961SOL    HW220520   2.039   0.767   0.943  0.2435  0.5506 -0.1507
 2962SOL     OW20521   3.355   0.484   7.719 -0.5284  0.0475  0.2091
 2962SOL    HW120522   3.265   0.486   7.689  0.0451  1.9076 -1.3972
 2962SOL    HW220523   3.376   0.392   7.706 -0.6778  0.3758 -2.3006
 2963SOL     OW20524   3.882   3.566   9.997  1.0562 -0.5664  0.1828
 2963SOL    HW120525   3.951   3.585   9.934 -1.0191  2.7579 -1.0685
 2963SOL    HW220526   3.937   3.523  10.063 -0.5563 -2.1870  0.4626
 2964SOL     OW20527   2.754   2.220  10.594  0.1297 -1.1099 -0.4215
 2964SOL    HW120528   2.674   2.247  10.549  1.8119  1.1627 -2.0053
 2964SOL    HW220529   2.818   2.231  10.524  0.2511  1.0681  0.0394
 2965SOL     OW20530   3.911   3.100   8.066 -0.2436 -0.0150 -0.0417
 2965SOL    HW120531   3.985   3.102   8.128 -1.7114  0.3559  1.6822
 2965SOL    HW220532   3.931   3.012   8.034  0.4287 -0.0398  0.4444
 2966SOL     OW20533   0.914   2.481   6.697 -0.6763 -0.3047 -0.2367
 2966SOL    HW120534   0.988   2.430   6.729 -0.7744  1.3425  2.6437
 2966SOL    HW220535   0.884   2.514   6.782  0.0010  1.9714 -0.8808
 2967SOL     OW20536   2.384   4.491  12.857  0.3613 -0.3121  0.2539
 2967SOL    HW120537   2.298   4.471  12.819  0.4862 -0.7672  0.2143
 2967SOL    HW220538   2.445   4.440  12.805  0.9759 -0.8539  1.5042
 2968SOL     OW20539   2.631   2.941  15.849 -0.6404 -0.3110 -0.0271
 2968SOL    HW120540   2.640   3.022  15.899  0.6295 -1.4078  1.4936
 2968SOL    HW220541   2.716   2.898  15.854  1.3453  3.8690  2.5892
 2969SOL     OW20542   0.938   2.030   7.276  0.0138  0.6450  0.3516
 2969SOL    HW120543   0.857   2.050   7.229 -0.3380  2.0432  1.5658
 2969SOL    HW220544   0.928   2.088   7.352 -0.7619  2.2635 -0.9782
 2970SOL     OW20545   4.542   0.219   7.976  0.3032 -0.3712 -0.0866
 2970SOL    HW120546   4.635   0.210   7.955 -0.2834 -1.6717 -2.1054
 2970SOL    HW220547   4.547   0.280   8.050 -1.5379  1.0883 -1.1570
 2971SOL     OW20548   1.039   2.998  15.634 -0.1602 -0.8589  0.3827
 2971SOL    HW120549   0.999   3.059  15.696 -1.3360 -2.3654  1.0944
 2971SOL    HW220550   0.959   2.966  15.593 -2.2927  2.4370  1.9552
 2972SOL     OW20551   3.261   3.169   9.690  0.4110  0.4002  0.0182
 2972SOL    HW120552   3.313   3.153   9.611  0.3676  0.4929 -0.0302
 2972SOL    HW220553   3.188   3.219   9.653 -0.3144 -1.5181 -1.1497
 2973SOL     OW20554   3.154   1.443   3.309  0.4634 -0.6606 -0.4116
 2973SOL    HW120555   3.196   1.422   3.225  0.3347  1.4913 -0.9964
 2973SOL    HW220556   3.064   1.449   3.277 -0.0734 -1.5486  0.9438
 2974SOL     OW20557   4.208   1.513   8.390 -0.1489 -0.4204 -0.4750
 2974SOL    HW120558   4.118   1.516   8.425 -0.3103 -0.5275 -0.8835
 2974SOL    HW220559   4.258   1.444   8.434 -0.3077 -0.2176  0.0275
 2975SOL     OW20560   4.109   1.968   3.996 -0.5767  0.2412  0.0843
 2975SOL    HW120561   4.116   1.943   4.088 -0.3968 -0.5105 -0.1345
 2975SOL    HW220562   4.023   2.010   4.001 -0.9207 -0.6228  1.4808
 2976SOL     OW20563   3.655   1.423   5.168  0.0823 -0.1608  0.1375
 2976SOL    HW120564   3.685   1.386   5.086  0.6849  0.9319 -0.1349
 2976SOL    HW220565   3.635   1.349   5.225 -1.2820  0.1000 -0.0027
 2977SOL     OW20566   0.916   3.764   3.389 -0.7479  0.1578 -0.5961
 2977SOL    HW120567   0.963   3.810   3.319 -2.2828 -0.4621 -2.0467
 2977SOL    HW220568   0.848   3.826   3.417  1.2554  1.0172  2.4211
 2978SOL     OW20569   1.725   1.243   9.697 -0.0913  0.3515  0.0448
 2978SOL    HW120570   1.801   1.187   9.682 -2.4647 -2.1538 -3.0625
 2978SOL    HW220571   1.750   1.318   9.644  1.4214  1.0333  1.7674
 2979SOL     OW20572   0.131   3.564   3.589  0.5767 -0.3395  0.0454
 2979SOL    HW120573   0.065   3.506   3.628  1.8334 -2.4673 -0.9551
 2979SOL    HW220574   0.124   3.646   3.637 -0.5323 -0.1281 -0.4741
 2980SOL     OW20575   3.930   2.702   1.606  0.1693 -0.6347  0.3028
 2980SOL    HW120576   3.946   2.765   1.676 -1.6460  0.3960 -0.2079
 2980SOL    HW220577   3.861   2.640   1.629 -1.2894  1.3347  1.1896
 2981SOL     OW20578   0.281   1.375  13.922 -0.3497  0.2274  0.1959
 2981SOL    HW120579   0.283   1.279  13.922  1.1573  0.2538  0.1766
 2981SOL    HW220580   0.250   1.404  13.836  0.2147  0.4629  0.0740
 2982SOL     OW20581   3.408   0.620   2.078 -0.0372 -0.1837 -0.3653
 2982SOL    HW120582   3.329   0.567   2.063 -1.5838  2.1491 -0.4623
 2982SOL    HW220583   3.450   0.607   1.993  0.6447  2.2500 -0.4048
 2983SOL     OW20584   2.035   1.369   5.331  0.3523 -0.3512  0.0675
 2983SOL    HW120585   1.978   1.355   5.406 -1.5726  0.7034 -1.1918
 2983SOL    HW220586   1.982   1.322   5.267 -3.9320  1.3892  2.3671
 2984SOL     OW20587   1.916   0.020   2.093  0.4287  0.2912  0.1136
 2984SOL    HW120588   1.881   0.105   2.120 -1.3042 -1.2162  2.6992
 2984SOL    HW220589   1.996   0.015   2.146 -0.2533 -2.0415  0.9205
 2985SOL     OW20590   1.259   4.403   5.667  0.0920  0.0627  0.5967
 2985SOL    HW120591   1.284   4.333   5.728 -1.3468  1.1619  2.4345
 2985SOL    HW220592   1.219   4.459   5.734 -0.0775  0.9128 -0.2111
 2986SOL     OW20593   1.950   4.213  11.823  0.0980 -0.0530  0.6826
 2986SOL    HW120594   2.002   4.283  11.783 -0.5879 -0.0286 -0.1629
 2986SOL    HW220595   1.880   4.268  11.860  1.2434  0.7250  1.6831
 2987SOL     OW20596   3.844   2.300   9.214 -0.4075  0.1719 -0.1352
 2987SOL    HW120597   3.916   2.359   9.192  1.0787  0.1833  4.8409
 2987SOL    HW220598   3.773   2.363   9.219 -0.2399  0.4110 -0.7550
 2988SOL     OW20599   4.124   1.683   0.759 -0.1662 -0.6243  0.1294
 2988SOL    HW120600   4.141   1.652   0.848  0.3688 -1.7708 -0.3769
 2988SOL    HW220601   4.064   1.758   0.766  1.1708  0.5047 -0.4430
 2989SOL     OW20602   4.392   2.142   0.801  0.2750 -0.0508  0.0529
 2989SOL    HW120603   4.308   2.156   0.758  0.4907  2.0567  0.3264
 2989SOL    HW220604   4.383   2.201   0.876 -1.8029 -0.4028  0.0769
 2990SOL     OW20605   3.236   0.891   6.684 -0.2485 -0.1201  0.0614
 2990SOL    HW120606   3.328   0.918   6.675 -1.0002  1.9776 -1.3746
 2990SOL    HW220607   3.247   0.796   6.691 -0.3171 -0.1507 -0.2724
 2991SOL     OW20608   4.088   4.187  16.453  0.1954  0.1538 -0.2490
 2991SOL    HW120609   4.140   4.174  16.533  1.7852  0.6653 -1.1987
 2991SOL    HW220610   4.045   4.102  16.444 -0.6258  0.5237  0.2007
 2992SOL     OW20611   3.682   2.025   8.290  0.6658  0.3645  0.0729
 2992SOL    HW120612   3.644   1.944   8.323 -0.0810  1.6303  2.3258
 2992SOL    HW220613   3.611   2.073   8.248  1.0493 -0.1445 -1.1614
 2993SOL     OW20614   0.623   1.104   5.822 -0.4756 -0.5423 -0.1267
 2993SOL    HW120615   0.554   1.162   5.790  0.3062  0.0311 -0.7736
 2993SOL    HW220616   0.596   1.020   5.785  0.3688 -0.7093 -0.3754
 2994SOL     OW20617   4.273   3.320   6.720 -0.5753  0.0742 -0.1789
 2994SOL    HW120618   4.322   3.378   6.778  1.1943 -0.9425 -0.6610
 2994SOL    HW220619   4.327   3.332   6.642  1.3948 -0.5853  1.1055
 2995SOL     OW20620   0.745   2.515   1.755 -0.4691 -0.1143  0.5662
 2995SOL    HW120621   0.702   2.551   1.832 -2.3095 -1.3836  0.1366
 2995SOL    HW220622   0.787   2.593   1.720  1.1827 -1.2633 -0.0232
 2996SOL     OW20623   3.119   3.464  13.507  0.0416  0.1803  0.1041
 2996SOL    HW120624   3.193   3.417  13.544 -1.0824 -1.5217  0.1944
 2996SOL    HW220625   3.057   3.391  13.508 -0.9220  0.9826 -0.3795
 2997SOL     OW20626   3.220   4.585   0.370  0.5842  0.4747  0.0032
 2997SOL    HW120627   3.196   4.666   0.324  2.5480  0.5698 -0.8350
 2997SOL    HW220628   3.153   4.580   0.439  1.2200  1.2525  0.6817
 2998SOL     OW20629   1.767   2.865   9.117  0.8404 -0.1250  0.0618
 2998SOL    HW120630   1.804   2.781   9.091  0.1181  0.1214 -1.7958
 2998SOL    HW220631   1.832   2.931   9.094 -0.2431  0.6369 -0.7854
 2999SOL     OW20632   2.884   4.155   7.269  0.3256  0.8042  0.0364
 2999SOL    HW120633   2.955   4.105   7.229 -3.1046 -1.7770 -2.8204
 2999SOL    HW220634   2.822   4.088   7.297 -1.6554  1.3746 -3.0164
 3000SOL     OW20635   2.218   3.385   6.165  0.0614  0.5300 -0.3372
 3000SOL    HW120636   2.305   3.420   6.185 -0.0610 -0.3548  1.7843
 3000SOL    HW220637   2.237   3.310   6.109 -0.7416  0.1074 -0.0588
 3001SOL     OW20638   1.560   2.514   6.718 -0.0949 -0.3057 -0.3405
 3001SOL    HW120639   1.585   2.472   6.800 -3.3192 -0.9995  0.2829
 3001SOL    HW220640   1.592   2.602   6.741 -1.4686 -0.3723  1.7242
 3002SOL     OW20641   0.586   4.079   2.698 -0.1146  0.2899  0.1851
 3002SOL    HW120642   0.620   4.166   2.720 -0.8863  1.2735 -2.5063
 3002SOL    HW220643   0.491   4.089   2.700 -0.1046  0.8101 -2.4800
 3003SOL     OW20644   0.263   1.976  13.586  0.3874  0.0639 -0.1070
 3003SOL    HW120645   0.290   2.017  13.504 -2.2566 -2.8427 -2.4517
 3003SOL    HW220646   0.198   2.040  13.618 -0.0921 -1.7988  2.6047
 3004SOL     OW20647   1.879   3.742   1.543  0.0826 -0.2504 -0.7407
 3004SOL    HW120648   1.878   3.647   1.530  0.0293  0.0068 -2.5595
 3004SOL    HW220649   1.927   3.764   1.464  1.6550 -0.0214  0.2812
 3005SOL     OW20650   1.797   4.048   7.395 -0.0666  0.2814 -0.5229
 3005SOL    HW120651   1.816   4.005   7.312 -1.5955 -1.2106 -0.1137
 3005SOL    HW220652   1.745   4.124   7.366 -2.5290 -1.5304 -0.8108
 3006SOL     OW20653   2.384   3.588   2.706 -0.3486  0.0515 -0.0899
 3006SOL    HW120654   2.429   3.657   2.756  1.6504 -0.7387 -0.8130
 3006SOL    HW220655   2.364   3.520   2.770  2.0934 -1.0423 -0.5001
 3007SOL     OW20656   3.852   3.355   1.503  0.0313 -0.1826  0.0439
 3007SOL    HW120657   3.880   3.344   1.593  2.1925 -0.8680 -0.7143
 3007SOL    HW220658   3.857   3.264   1.474  0.8206  0.7438 -2.7453
 3008SOL     OW20659   4.436   3.676   1.620 -0.2948 -0.2798 -0.2708
 3008SOL    HW120660   4.515   3.660   1.672 -1.1285 -1.8162  0.5549
 3008SOL    HW220661   4.461   3.741   1.555  3.4645 -1.5571 -0.0919
 3009SOL     OW20662   0.399   4.054  17.566 -0.7007  0.3363 -0.5512
 3009SOL    HW120663   0.338   4.057  17.639  0.7794 -1.0002  0.7351
 3009SOL    HW220664   0.487   4.038  17.601 -0.1368  0.8905 -1.7095
 3010SOL     OW20665   2.581   3.688   1.939  0.1627 -0.0421 -0.8738
 3010SOL    HW120666   2.666   3.656   1.910  0.7304  0.3270  0.3947
 3010SOL    HW220667   2.539   3.609   1.975  1.1257  0.9512  2.4694
 3011SOL     OW20668   2.590   4.073   8.326 -0.6018  0.4840  0.2281
 3011SOL    HW120669   2.549   4.020   8.258  1.0191 -0.6100  0.1100
 3011SOL    HW220670   2.684   4.061   8.315 -0.3972  2.5533 -0.4214
 3012SOL     OW20671   2.645   4.643   3.138  0.3584 -0.9232  0.3430
 3012SOL    HW120672   2.731   4.665   3.102  0.9060 -0.9861  1.6398
 3012SOL    HW220673   2.621   4.729   3.172 -1.5247 -1.3355  0.1050
 3013SOL     OW20674   1.247   1.941   7.923 -0.2698 -0.8067 -0.2403
 3013SOL    HW120675   1.312   1.953   7.992 -1.9973 -0.7246  1.3557
 3013SOL    HW220676   1.243   1.846   7.926 -2.9053 -0.6657  0.3914
 3014SOL     OW20677   3.242   1.110   3.381 -0.0176  0.6796  0.1570
 3014SOL    HW120678   3.181   1.038   3.364  3.2369 -2.4320  1.3614
 3014SOL    HW220679   3.295   1.104   3.301  0.0402 -1.2222  0.3229
 3015SOL     OW20680   2.567   1.459  16.686  0.3630  0.7785 -0.1782
 3015SOL    HW120681   2.481   1.417  16.681 -0.1618  2.1131 -2.5166
 3015SOL    HW220682   2.605   1.424  16.766  0.1032 -0.3417 -0.5440
 3016SOL     OW20683   4.263   0.238   4.923  0.0097 -0.3399  0.7318
 3016SOL    HW120684   4.331   0.301   4.946  0.5289 -0.4192 -0.6297
 3016SOL    HW220685   4.191   0.255   4.984 -2.6594  0.2941 -2.6097
 3017SOL     OW20686   2.709   2.355   2.285  0.4734 -0.0079  0.3070
 3017SOL    HW120687   2.725   2.440   2.244 -0.3063 -0.1358 -0.2637
 3017SOL    HW220688   2.733   2.290   2.218  1.5140 -1.2346  1.8596
 3018SOL     OW20689   1.746   2.129   8.725 -0.2658  0.1559  0.7294
 3018SOL    HW120690   1.746   2.184   8.647 -2.0881  0.0936  0.6947
 3018SOL    HW220691   1.662   2.084   8.728 -0.0844 -0.3629 -2.2070
 3019SOL     OW20692   2.270   1.876   7.992  0.1446  0.2312  0.7143
 3019SOL    HW120693   2.179   1.878   8.021  0.2006 -0.2080  0.9157
 3019SOL    HW220694   2.257   1.833   7.908 -0.6464 -0.3761  1.1473
 3020SOL     OW20695   2.779   2.344   3.253  0.2660  0.3524  0.4029
 3020SOL    HW120696   2.772   2.392   3.171  1.0580 -1.5690 -0.7920
 3020SOL    HW220697   2.711   2.279   3.236 -0.6866  1.0489  1.4995
 3021SOL     OW20698   1.845   0.761  16.365  0.1527 -0.3091  0.3638
 3021SOL    HW120699   1.790   0.803  16.299  0.7380  1.5610  1.0822
 3021SOL    HW220700   1.836   0.669  16.337 -2.4735 -0.6803  2.4146
 3022SOL     OW20701   4.013   1.372   1.267  0.4431  0.2447  0.2254
 3022SOL    HW120702   4.013   1.335   1.355 -1.3198 -0.6321 -0.1447
 3022SOL    HW220703   3.975   1.300   1.218  1.0306  0.1648 -0.0988
 3023SOL     OW20704   0.753   1.118   8.453  0.3119 -0.6691 -0.0610
 3023SOL    HW120705   0.682   1.089   8.510  0.0715 -1.3401 -0.7011
 3023SOL    HW220706   0.717   1.087   8.369  0.3345 -0.7940 -0.0241
 3024SOL     OW20707   4.681   3.798   7.547 -0.6584  0.4921  0.6087
 3024SOL    HW120708   4.709   3.707   7.530  0.2833  1.3198 -2.3239
 3024SOL    HW220709   4.610   3.804   7.483 -1.0508  0.5267  1.0518
 3025SOL     OW20710   1.364   1.565   4.770 -0.2567 -0.4945 -0.7441
 3025SOL    HW120711   1.434   1.572   4.835 -1.2381  2.1007  0.0393
 3025SOL    HW220712   1.381   1.472   4.751  0.4181  0.0700 -2.8905
 3026SOL     OW20713   3.111   3.530   1.511  0.4885  0.0416 -0.2565
 3026SOL    HW120714   3.137   3.548   1.601 -2.9488 -0.2232  0.8017
 3026SOL    HW220715   3.031   3.481   1.529  0.2079 -0.1227 -1.9354
 3027SOL     OW20716   0.631   3.097   8.497 -0.2568  0.4968  0.0452
 3027SOL    HW120717   0.576   3.151   8.440 -0.7985 -1.9711 -1.7916
 3027SOL    HW220718   0.714   3.145   8.493 -0.0298  0.0079 -1.3681
 3028SOL     OW20719   0.316   4.097   1.202 -0.0215 -0.2125  0.3289
 3028SOL    HW120720   0.368   4.017   1.198  0.7533  0.3174 -0.4321
 3028SOL    HW220721   0.228   4.067   1.222  0.0087 -1.0524 -0.7620
 3029SOL     OW20722   2.047   1.062   6.741  0.0523  0.8768 -0.3830
 3029SOL    HW120723   2.034   0.981   6.691 -0.1265  0.5276  0.2307
 3029SOL    HW220724   1.983   1.043   6.809  1.9033 -0.2206  1.0337
 3030SOL     OW20725   3.158   0.784   5.991  0.2882  0.1856 -0.3071
 3030SOL    HW120726   3.144   0.863   6.044 -1.8667  1.4690 -2.7353
 3030SOL    HW220727   3.150   0.819   5.902 -3.4901 -0.2769 -0.1819
 3031SOL     OW20728   2.404   4.251  13.946 -0.6984  0.1688  0.8251
 3031SOL    HW120729   2.332   4.226  13.888 -1.5815  2.3827  0.9384
 3031SOL    HW220730   2.477   4.225  13.890  0.6744  3.2101  1.2096
 3032SOL     OW20731   0.858   2.507   3.371 -0.2571  0.0596  0.2173
 3032SOL    HW120732   0.823   2.420   3.393 -1.2004  0.1319 -1.0362
 3032SOL    HW220733   0.899   2.482   3.288  0.4893  3.2826 -0.3540
 3033SOL     OW20734   2.556   1.480  15.851 -0.2518  0.0352 -0.1321
 3033SOL    HW120735   2.464   1.481  15.827 -0.5947  0.8268  1.2087
 3033SOL    HW220736   2.600   1.447  15.773 -0.3132  1.3678 -0.7280
 3034SOL     OW20737   4.682   1.741   2.401  0.1438 -0.0834  0.0251
 3034SOL    HW120738   4.589   1.762   2.387  0.3843  0.8360 -0.2473
 3034SOL    HW220739   4.671   1.651   2.431  0.4017  0.1629  0.8719
 3035SOL     OW20740   3.059   3.139   0.957  0.2171  0.1245  0.3109
 3035SOL    HW120741   3.129   3.198   0.985  0.9443 -1.1211  1.1138
 3035SOL    HW220742   3.111   3.098   0.888  1.2235  1.5731  0.2070
 3036SOL     OW20743   2.649   2.646   6.136 -0.8208  0.3254 -0.0577
 3036SOL    HW120744   2.575   2.692   6.176 -0.4056  0.0955  0.9983
 3036SOL    HW220745   2.717   2.669   6.200 -1.0385  0.2194  0.2119
 3037SOL     OW20746   3.289   3.236   7.675  0.5507  0.5745 -0.1659
 3037SOL    HW120747   3.296   3.308   7.612 -1.8259 -2.0076 -3.3699
 3037SOL    HW220748   3.232   3.287   7.734 -0.7676  0.3336 -1.2315
 3038SOL     OW20749   3.512   2.448   5.753  0.1851  0.2875 -0.1428
 3038SOL    HW120750   3.545   2.361   5.774  2.1335  0.9905 -0.3495
 3038SOL    HW220751   3.547   2.444   5.664 -0.8415 -0.4704 -0.5198
 3039SOL     OW20752   0.177   4.147   3.704 -0.0371  1.0942  0.8163
 3039SOL    HW120753   0.252   4.198   3.735  1.1622 -0.4685  0.4730
 3039SOL    HW220754   0.168   4.086   3.778 -3.3416 -0.3823 -0.7864
 3040SOL     OW20755   0.829   3.096   8.069  0.4013 -0.0793  0.1093
 3040SOL    HW120756   0.893   3.085   8.140  0.3745 -0.4515  0.0749
 3040SOL    HW220757   0.746   3.059   8.098  0.7666 -1.1894 -0.2911
 3041SOL     OW20758   0.229   2.536   5.320 -0.3161 -0.5838  0.3699
 3041SOL    HW120759   0.196   2.620   5.354 -0.8293  0.2659 -2.2502
 3041SOL    HW220760   0.296   2.562   5.257 -0.9790 -0.2307 -0.1846
 3042SOL     OW20761   2.037   0.290   4.976 -0.2984 -0.2031 -0.5061
 3042SOL    HW120762   1.978   0.238   4.922 -0.9241  0.9998 -0.9878
 3042SOL    HW220763   1.980   0.279   5.052  1.0708  2.7244  0.9476
 3043SOL     OW20764   3.751   1.881   7.686  0.4846  0.2404 -0.1287
 3043SOL    HW120765   3.677   1.919   7.637 -0.3396  2.1139  2.6107
 3043SOL    HW220766   3.765   1.945   7.756 -1.6340 -1.9559  2.2743
 3044SOL     OW20767   2.413   2.241   3.209 -0.0085 -0.2221  0.3940
 3044SOL    HW120768   2.355   2.177   3.167 -1.8812  0.8530  1.3399
 3044SOL    HW220769   2.481   2.184   3.245 -0.3137 -1.2916 -0.7083
 3045SOL     OW20770   2.103   1.043  13.600  0.0030  0.0901 -0.0410
 3045SOL    HW120771   2.081   0.950  13.607 -0.2486  0.0132 -1.8664
 3045SOL    HW220772   2.198   1.036  13.590 -0.0137 -0.6109  0.3098
 3046SOL     OW20773   4.333   0.660   0.085  0.2044  0.0345 -0.1598
 3046SOL    HW120774   4.240   0.657   0.106  0.9886 -0.3509  3.2186
 3046SOL    HW220775   4.366   0.581   0.128 -0.8718 -0.0559  0.4973
 3047SOL     OW20776   3.349   1.356  15.940  0.2601  0.3184 -0.7624
 3047SOL    HW120777   3.329   1.409  16.017 -1.4492 -2.7625  0.9269
 3047SOL    HW220778   3.281   1.290  15.957  1.1243 -0.2275  0.5677
 3048SOL     OW20779   2.280   2.994  13.976 -0.0615  0.0156 -0.2777
 3048SOL    HW120780   2.251   3.069  13.925  1.9235 -1.2010 -3.1315
 3048SOL    HW220781   2.244   2.920  13.927  0.2541 -0.6027  0.4110
 3049SOL     OW20782   4.097   3.980   3.142 -0.4467  0.0572  0.2553
 3049SOL    HW120783   4.128   4.061   3.101 -1.9389  0.9375  0.8508
 3049SOL    HW220784   4.019   3.954   3.093 -0.4200  1.7775 -0.7268
 3050SOL     OW20785   0.064   2.348  15.271 -0.4637  0.6783  0.3496
 3050SOL    HW120786   0.130   2.398  15.223 -0.4185  1.3241  1.0812
 3050SOL    HW220787   0.005   2.320  15.201 -0.0934  1.2200 -0.1816
 3051SOL     OW20788   3.329   4.046   7.543 -0.8118 -0.1583 -0.1345
 3051SOL    HW120789   3.318   3.991   7.466 -1.2672 -0.2197 -0.0286
 3051SOL    HW220790   3.350   4.131   7.504  1.0261 -0.1150  0.9813
 3052SOL     OW20791   1.462   3.826   5.291  0.3828 -0.3897 -0.2613
 3052SOL    HW120792   1.396   3.757   5.282  1.2714 -1.3317  0.4455
 3052SOL    HW220793   1.411   3.886   5.347  0.3407  0.3451 -1.0879
 3053SOL     OW20794   4.561   2.035  13.464 -0.7511 -0.2662  0.1605
 3053SOL    HW120795   4.599   1.950  13.487 -1.0418 -0.0329  1.5048
 3053SOL    HW220796   4.633   2.097  13.470  0.1996 -1.2351 -1.3829
 3054SOL     OW20797   2.979   3.097   3.608  0.1072  0.2334  0.0244
 3054SOL    HW120798   3.054   3.149   3.581  0.5369  0.3611  1.4725
 3054SOL    HW220799   2.917   3.117   3.537 -0.4424 -0.0611  0.4211
 3055SOL     OW20800   2.261   4.424   7.946 -0.0813  0.4835 -0.2390
 3055SOL    HW120801   2.195   4.391   8.006 -0.1355  0.6455 -0.2096
 3055SOL    HW220802   2.310   4.342   7.940  1.6180  1.4287  0.6528
 3056SOL     OW20803   1.925   1.330   4.188  0.2981  0.1353 -0.8107
 3056SOL    HW120804   1.919   1.423   4.209 -0.8532 -0.2545  0.5691
 3056SOL    HW220805   2.012   1.312   4.224 -0.4952 -2.0149  0.0285
 3057SOL     OW20806   2.760   3.885   7.291 -0.1235 -0.0232 -0.2206
 3057SOL    HW120807   2.823   3.877   7.362  1.1796 -1.0716 -1.5048
 3057SOL    HW220808   2.681   3.836   7.314  0.1941 -0.3586  0.1471
 3058SOL     OW20809   2.461   2.779   6.688 -0.0336 -0.2667  0.4802
 3058SOL    HW120810   2.438   2.748   6.776 -3.0908 -1.3200 -0.7008
 3058SOL    HW220811   2.374   2.776   6.648 -0.3585  1.2162  1.0996
 3059SOL     OW20812   3.913   3.616   3.708  0.4610  0.1385 -0.1620
 3059SOL    HW120813   4.003   3.650   3.704  0.4567 -0.1456 -2.5975
 3059SOL    HW220814   3.886   3.635   3.798  0.1051  0.9779 -0.4430
 3060SOL     OW20815   4.236   1.558  11.683 -0.0512 -0.0623 -0.1111
 3060SOL    HW120816   4.293   1.500  11.632  1.4886 -1.2704  3.0506
 3060SOL    HW220817   4.215   1.521  11.769 -0.0749 -0.8571 -0.4540
 3061SOL     OW20818   4.345   2.543   5.986 -0.0147 -0.2208 -0.2625
 3061SOL    HW120819   4.414   2.559   6.049 -0.0178 -1.1375 -0.0211
 3061SOL    HW220820   4.346   2.447   5.983 -0.1275 -0.2046 -0.9431
 3062SOL     OW20821   4.059   3.857   2.066 -0.0628 -0.3975 -0.0541
 3062SOL    HW120822   4.125   3.920   2.036 -2.8228  2.6394  0.1828
 3062SOL    HW220823   4.041   3.817   1.981  0.3327  0.0757 -0.3628
 3063SOL     OW20824   1.586   0.383   4.172 -0.3369 -0.0974  0.0658
 3063SOL    HW120825   1.613   0.455   4.229 -0.9014 -0.3980  0.7134
 3063SOL    HW220826   1.566   0.431   4.092 -0.3604 -1.3968 -0.7106
 3064SOL     OW20827   0.978   2.031   3.353  0.2901  0.0397 -0.4280
 3064SOL    HW120828   1.059   2.011   3.401  0.2259 -0.2442 -0.4424
 3064SOL    HW220829   1.012   2.090   3.285 -3.0402  1.4968 -0.8240
 3065SOL     OW20830   0.305   0.607   7.718  0.1156 -0.4116  0.1695
 3065SOL    HW120831   0.282   0.646   7.634  0.3474 -0.7603 -0.0538
 3065SOL    HW220832   0.381   0.657   7.747  0.1273  0.1556 -0.8389
 3066SOL     OW20833   0.080   0.536   8.066  0.2904  0.0096  0.0856
 3066SOL    HW120834   0.023   0.470   8.106 -0.2787  0.0068 -0.7175
 3066SOL    HW220835   0.158   0.481   8.071 -0.6533 -1.3722 -0.3737
 3067SOL     OW20836   4.306   3.979   1.982 -0.4835 -0.0850 -0.6683
 3067SOL    HW120837   4.331   3.994   1.891  0.8984 -1.2421 -0.4743
 3067SOL    HW220838   4.352   3.897   1.996 -1.4029 -0.3035  1.1154
 3068SOL     OW20839   4.388   3.648  15.068  0.2605  0.1816  0.1095
 3068SOL    HW120840   4.355   3.640  15.157  0.7548  1.6045  0.4314
 3068SOL    HW220841   4.481   3.652  15.088 -0.0966  1.2188  1.5577
 3069SOL     OW20842   0.402   1.820   5.708  0.2748  0.0931 -0.0993
 3069SOL    HW120843   0.479   1.860   5.747  0.7187 -0.1852 -0.6979
 3069SOL    HW220844   0.343   1.880   5.755  1.1727  1.2964 -0.5148
 3070SOL     OW20845   0.915   0.080   7.403 -0.5258  0.4038  0.4212
 3070SOL    HW120846   0.871   0.124   7.329 -0.6986 -1.5497 -0.6390
 3070SOL    HW220847   0.969   0.014   7.360 -0.7745  0.8237 -0.5427
 3071SOL     OW20848   3.592   2.701   1.444  0.3777 -0.1727  0.1218
 3071SOL    HW120849   3.562   2.712   1.353  2.5909  0.0012 -0.5722
 3071SOL    HW220850   3.609   2.793   1.462  1.3593  0.0287 -1.8652
 3072SOL     OW20851   2.710   1.974   7.227  0.2308 -0.1641 -0.4212
 3072SOL    HW120852   2.700   1.895   7.280 -1.8780 -0.0223 -0.6284
 3072SOL    HW220853   2.764   1.935   7.158  1.3927 -0.1173  0.4584
 3073SOL     OW20854   2.465   2.860   3.293 -0.4044 -0.1452  0.1313
 3073SOL    HW120855   2.380   2.816   3.294 -0.9977  0.9978 -1.9303
 3073SOL    HW220856   2.428   2.945   3.271  1.8229  1.7727  3.7094
 3074SOL     OW20857   3.393   0.667  15.176  0.1356  0.2313 -0.2353
 3074SOL    HW120858   3.477   0.620  15.167 -0.7575 -1.4457  0.1260
 3074SOL    HW220859   3.339   0.603  15.223 -0.8951  0.7736 -0.6990
 3075SOL     OW20860   0.534   2.460   3.363 -0.0619  0.1444  0.3016
 3075SOL    HW120861   0.613   2.512   3.352  1.2603 -1.9042  0.2631
 3075SOL    HW220862   0.460   2.487   3.308  1.4616  0.2196 -1.6965
 3076SOL     OW20863   4.314   0.913   2.299 -0.0669  0.2790  0.2869
 3076SOL    HW120864   4.269   0.928   2.382 -2.3749 -0.3097 -0.8764
 3076SOL    HW220865   4.352   0.827   2.319 -2.1335 -0.1172  2.4355
 3077SOL     OW20866   3.993   3.814   1.810 -0.8581  0.2155 -0.1678
 3077SOL    HW120867   4.021   3.906   1.810 -2.2331  0.6353  0.5033
 3077SOL    HW220868   3.935   3.806   1.735 -1.8338  0.8075  0.5195
 3078SOL     OW20869   4.375   3.875   6.668 -0.5058 -0.1036  0.1899
 3078SOL    HW120870   4.311   3.841   6.606  2.0697 -2.2963 -1.2510
 3078SOL    HW220871   4.320   3.937   6.716  1.4610 -0.4693  2.9144
 3079SOL     OW20872   0.105   3.692   5.952 -0.0032 -0.3606  0.2101
 3079SOL    HW120873   0.162   3.652   6.018  1.7337  2.2627  0.3378
 3079SOL    HW220874   0.131   3.783   5.968  0.6330 -0.7659  1.4425
 3080SOL     OW20875   1.348   1.287   4.210  0.0264 -0.2206  0.1659
 3080SOL    HW120876   1.258   1.281   4.178  0.4452  0.1095 -1.0455
 3080SOL    HW220877   1.399   1.283   4.130  0.0872  0.7433  0.1564
 3081SOL     OW20878   1.994   0.226  14.247 -0.2089 -0.1903 -1.1843
 3081SOL    HW120879   2.001   0.136  14.215  2.0276  0.2755 -1.9533
 3081SOL    HW220880   1.906   0.243  14.211 -1.1078 -3.4868 -0.5299
 3082SOL     OW20881   4.427   1.673   8.534 -0.2415 -0.0892 -0.1378
 3082SOL    HW120882   4.360   1.713   8.590 -0.5307  0.4487 -0.8546
 3082SOL    HW220883   4.377   1.633   8.462 -2.3114 -1.6997  2.2105
 3083SOL     OW20884   3.784   1.338   7.109  0.3147 -0.6299  0.6949
 3083SOL    HW120885   3.742   1.374   7.031 -0.4499  0.9252  1.8223
 3083SOL    HW220886   3.708   1.353   7.164 -0.4157 -0.0506 -0.4684
 3084SOL     OW20887   0.505   2.236  17.660  0.4167 -0.5364  0.1635
 3084SOL    HW120888   0.531   2.264  17.748  1.8977 -2.1880  0.2527
 3084SOL    HW220889   0.505   2.316  17.607 -1.6284  0.3879  1.5325
 3085SOL     OW20890   3.147   1.413  11.964 -0.0593 -0.6380 -0.2246
 3085SOL    HW120891   3.193   1.496  11.981  3.6166 -2.4369 -1.2666
 3085SOL    HW220892   3.173   1.395  11.873 -0.2696  0.7321 -0.5616
 3086SOL     OW20893   3.971   0.110   6.806  0.0662  0.0690  0.4948
 3086SOL    HW120894   4.004   0.190   6.765  1.9536 -0.7197  0.4903
 3086SOL    HW220895   4.021   0.042   6.762 -1.9492  1.0360 -3.2690
 3087SOL     OW20896   2.399   0.033  11.784  0.4471  0.2947  0.4849
 3087SOL    HW120897   2.398   0.054  11.877  1.3637  1.4572  0.2407
 3087SOL    HW220898   2.390   4.677  11.790 -1.9321  0.5064  0.3363
 3088SOL     OW20899   3.171   3.622   2.708 -0.2745 -0.8928  0.1812
 3088SOL    HW120900   3.116   3.611   2.631  0.9834  0.6520 -0.9241
 3088SOL    HW220901   3.248   3.657   2.663  0.4423 -0.8512  1.4328
 3089SOL     OW20902   2.336   2.003   6.634  0.0415  0.2273  0.5155
 3089SOL    HW120903   2.268   2.031   6.574  0.1132 -0.1504  0.2595
 3089SOL    HW220904   2.399   1.956   6.579 -1.7474 -0.8900 -0.5506
 3090SOL     OW20905   4.566   3.197  10.179 -0.0694 -0.0342  0.0889
 3090SOL    HW120906   4.598   3.256  10.111  0.2845  0.6955  0.8891
 3090SOL    HW220907   4.641   3.163  10.227 -1.1725 -1.6075  0.7189
 3091SOL     OW20908   2.559   0.807  15.792  0.5165 -0.3954 -0.1000
 3091SOL    HW120909   2.523   0.838  15.709 -0.2051  0.8274  0.6598
 3091SOL    HW220910   2.485   0.840  15.843 -1.4219  0.4809 -3.4947
 3092SOL     OW20911   1.998   4.077   3.979 -0.0757  0.4930 -0.2929
 3092SOL    HW120912   2.085   4.074   3.939 -0.3288  1.5396 -0.9215
 3092SOL    HW220913   1.981   4.171   3.984  1.0145  0.7483 -1.5474
 3093SOL     OW20914   4.192   4.136   5.527  0.1900  0.3948  0.3250
 3093SOL    HW120915   4.151   4.088   5.599 -0.5886  2.1265  1.0234
 3093SOL    HW220916   4.217   4.055   5.482  0.4142 -0.2615  1.6244
 3094SOL     OW20917   4.224   4.405   5.571 -0.0121  0.0266 -0.1141
 3094SOL    HW120918   4.153   4.440   5.518 -0.3869 -1.7247 -0.7640
 3094SOL    HW220919   4.215   4.310   5.565 -0.9190  0.0824  0.3188
 3095SOL     OW20920   4.644   4.055   2.646 -1.0146 -0.2849  0.1404
 3095SOL    HW120921   4.622   3.977   2.696  0.9863 -1.6877 -1.1752
 3095SOL    HW220922   4.663   4.111   2.720 -1.2207 -0.0253 -0.0016
 3096SOL     OW20923   1.373   0.091  13.292 -0.4541  0.3694 -0.3375
 3096SOL    HW120924   1.405   0.162  13.236 -1.0702  0.2463 -0.8521
 3096SOL    HW220925   1.283   0.077  13.264 -0.2910  1.9622 -1.6558
 3097SOL     OW20926   4.130   3.994   2.348 -0.5858  0.1477  0.6450
 3097SOL    HW120927   4.038   3.999   2.373 -1.1663  1.5370 -1.8168
 3097SOL    HW220928   4.121   3.912   2.300 -0.6767  0.5639 -0.0378
 3098SOL     OW20929   0.460   3.118   2.194 -0.1025 -0.0692 -0.0608
 3098SOL    HW120930   0.445   3.181   2.123  1.0384 -1.5546 -1.6398
 3098SOL    HW220931   0.545   3.148   2.226 -0.5314  1.5978 -0.4825
 3099SOL     OW20932   3.739   2.966  11.213 -0.1953  0.3861 -0.2413
 3099SOL    HW120933   3.711   2.912  11.287  1.3063 -0.9940 -0.6721
 3099SOL    HW220934   3.823   2.988  11.254  1.0732 -1.7074 -1.6933
 3100SOL     OW20935   3.223   0.352   9.954  0.1604  0.2360 -0.2987
 3100SOL    HW120936   3.307   0.307   9.964  0.5571  1.3236  1.2744
 3100SOL    HW220937   3.159   0.283   9.974 -0.0508  0.1107 -1.4020
 3101SOL     OW20938   0.420   4.451   7.350  0.2443 -0.3240  0.3104
 3101SOL    HW120939   0.473   4.449   7.271 -1.5748  1.5227 -0.9691
 3101SOL    HW220940   0.368   4.371   7.346 -0.0097 -0.0964 -0.7579
 3102SOL     OW20941   3.185   3.607   7.817 -0.4501  0.1428  0.4681
 3102SOL    HW120942   3.206   3.622   7.909 -1.6120 -3.3899  1.3164
 3102SOL    HW220943   3.232   3.681   7.779  0.0803 -0.5192 -0.1728
 3103SOL     OW20944   2.826   3.602   4.870 -0.0493  0.3114 -0.0902
 3103SOL    HW120945   2.827   3.689   4.910 -0.0492  0.4831 -0.4677
 3103SOL    HW220946   2.751   3.552   4.903  0.5525 -0.6788 -0.2426
 3104SOL     OW20947   2.921   3.310  14.897 -0.2275 -0.3653 -0.6505
 3104SOL    HW120948   2.861   3.294  14.970 -0.1513  0.4766 -0.4058
 3104SOL    HW220949   2.860   3.282  14.828 -1.1192  2.1811 -0.9031
 3105SOL     OW20950   0.123   4.266   9.494 -0.5447  0.6247  0.4668
 3105SOL    HW120951   0.100   4.283   9.402 -1.4785 -2.2137  0.1778
 3105SOL    HW220952   0.041   4.256   9.541 -0.2074  1.6418  1.2557
 3106SOL     OW20953   0.560   4.546   5.902  0.4771  0.8553  0.0610
 3106SOL    HW120954   0.650   4.580   5.901  0.5656  0.6160 -0.2586
 3106SOL    HW220955   0.527   4.587   5.822 -1.9733 -1.1333  0.0700
 3107SOL     OW20956   3.760   2.922  12.105 -0.1866 -0.0400 -0.2175
 3107SOL    HW120957   3.718   2.845  12.066 -0.0987  0.2634 -0.9090
 3107SOL    HW220958   3.739   2.988  12.040 -0.3559 -0.6924 -0.8226
 3108SOL     OW20959   0.941   4.517  17.642  0.1197 -0.1925 -0.0724
 3108SOL    HW120960   1.013   4.457  17.622 -0.9852 -1.8728  1.0166
 3108SOL    HW220961   0.886   4.462  17.697 -1.2080  0.4337 -0.7745
 3109SOL     OW20962   2.335   2.780  16.367  0.0270 -0.1303  0.1967
 3109SOL    HW120963   2.352   2.718  16.296  1.5038  0.3867  0.0905
 3109SOL    HW220964   2.259   2.737  16.406 -2.4657  5.0899  1.0536
 3110SOL     OW20965   0.662   1.871   0.520 -0.6444  0.4035 -0.1409
 3110SOL    HW120966   0.622   1.922   0.449 -1.6978  1.5300  1.2765
 3110SOL    HW220967   0.685   1.793   0.469  1.4753 -0.1712  1.7127
 3111SOL     OW20968   0.758   0.927   2.674 -0.4341  0.4055 -0.4075
 3111SOL    HW120969   0.673   0.889   2.651  0.9431 -2.2293 -1.2156
 3111SOL    HW220970   0.774   0.871   2.750 -2.4394  1.9258  1.1201
 3112SOL     OW20971   2.366   0.545   1.865  0.0700 -0.1356  0.0453
 3112SOL    HW120972   2.379   0.545   1.771  2.0725  0.7246  0.3352
 3112SOL    HW220973   2.295   0.609   1.875  0.3787  0.0485  1.1204
 3113SOL     OW20974   0.139   4.249   3.321 -0.2690 -0.0622  0.1064
 3113SOL    HW120975   0.211   4.222   3.377 -0.5145  1.9680  1.3836
 3113SOL    HW220976   0.111   4.167   3.278 -1.9866  0.2234  0.6637
 3114SOL     OW20977   3.802   4.214   8.592 -0.0649 -0.2082 -0.3751
 3114SOL    HW120978   3.844   4.130   8.611 -1.7163 -1.3250 -1.5896
 3114SOL    HW220979   3.873   4.277   8.601 -0.3264 -0.0293  0.4543
 3115SOL     OW20980   2.424   3.734  11.047  0.2644  0.2960  0.4976
 3115SOL    HW120981   2.486   3.681  11.098 -0.5319 -1.1267 -0.0214
 3115SOL    HW220982   2.471   3.818  11.048  0.3578  0.2149  2.5557
 3116SOL     OW20983   3.187   1.676   8.516 -0.6514  0.6383  0.1271
 3116SOL    HW120984   3.177   1.602   8.456  0.8106 -1.7435  2.8259
 3116SOL    HW220985   3.257   1.645   8.573  1.0183  2.4167 -0.9440
 3117SOL     OW20986   3.971   0.850   6.939 -0.1401  0.4095  0.5705
 3117SOL    HW120987   3.913   0.917   6.975 -2.2926  0.0789 -2.2859
 3117SOL    HW220988   4.049   0.887   6.982 -0.3463  1.0153  0.4278
 3118SOL     OW20989   2.453   3.707   2.217 -0.3893  0.0513  0.1553
 3118SOL    HW120990   2.409   3.622   2.220 -2.2471  1.0942  2.1217
 3118SOL    HW220991   2.502   3.697   2.135 -1.5575 -0.9584 -0.4156
 3119SOL     OW20992   2.770   2.392   4.112  0.1807  0.2485  0.3473
 3119SOL    HW120993   2.750   2.400   4.019 -1.4560  0.2479  0.7021
 3119SOL    HW220994   2.688   2.411   4.157 -0.1838  1.4416 -0.8344
 3120SOL     OW20995   0.474   0.279   7.348 -0.0110 -0.1730  0.8205
 3120SOL    HW120996   0.399   0.219   7.345  0.3638 -0.6915  2.0988
 3120SOL    HW220997   0.524   0.234   7.280 -0.0775 -0.2226  0.8043
 3121SOL     OW20998   1.250   4.735  12.319 -0.2981 -0.2835  0.2364
 3121SOL    HW120999   1.233   4.711  12.410  0.9326 -1.1429  0.2332
 3121SOL    HW221000   1.279   0.087  12.321 -0.5031 -0.2030 -0.5010
 3122SOL     OW21001   4.460   4.547   4.931  0.0488  0.3991  0.2154
 3122SOL    HW121002   4.436   4.610   4.863 -2.0774  0.3042  0.8878
 3122SOL    HW221003   4.392   4.569   4.994 -0.9958 -1.0207 -0.3923
 3123SOL     OW21004   0.353   1.297   7.603  0.7638 -0.0867  0.6353
 3123SOL    HW121005   0.442   1.325   7.624  1.8692 -1.6915 -1.8809
 3123SOL    HW221006   0.315   1.370   7.553 -0.2447  0.0783  1.6343
 3124SOL     OW21007   3.938   4.279   8.265 -0.3596 -0.1080 -0.1505
 3124SOL    HW121008   3.973   4.251   8.181 -0.7573 -0.0797 -0.3215
 3124SOL    HW221009   3.862   4.227   8.292 -1.8958  2.3939  0.3964
 3125SOL     OW21010   0.941   1.813   9.537 -0.1978  0.1462 -0.6142
 3125SOL    HW121011   0.887   1.863   9.475 -0.6745 -0.8449 -1.0106
 3125SOL    HW221012   1.026   1.824   9.495 -0.0641  1.0093 -0.1063
 3126SOL     OW21013   1.101   1.184  15.377 -0.5013  0.6293 -0.1394
 3126SOL    HW121014   1.185   1.193  15.334  0.4880  1.7625  2.0249
 3126SOL    HW221015   1.099   1.099  15.422 -0.2767  1.7152  1.9404
 3127SOL     OW21016   1.171   1.497  16.223  0.0291 -0.4260  0.1886
 3127SOL    HW121017   1.253   1.476  16.268  0.8184 -0.1143 -1.1119
 3127SOL    HW221018   1.200   1.487  16.133 -0.6874 -1.1647  0.0385
 3128SOL     OW21019   4.564   0.426   2.463  0.4651  0.7464  0.1448
 3128SOL    HW121020   4.490   0.373   2.433  1.4164 -0.0137 -0.8392
 3128SOL    HW221021   4.613   0.352   2.499 -0.7397 -0.5654 -0.9094
 3129SOL     OW21022   4.177   2.996   6.036  0.2940 -0.3270  0.0189
 3129SOL    HW121023   4.120   2.930   5.997 -1.6138  0.7874  0.9151
 3129SOL    HW221024   4.161   2.987   6.130 -1.0429 -1.5278 -0.3133
 3130SOL     OW21025   1.361   2.585  11.387 -0.1261  0.4299  0.4625
 3130SOL    HW121026   1.343   2.500  11.349  1.0713  0.5623 -0.3880
 3130SOL    HW221027   1.298   2.585  11.459  0.3850 -1.0727  0.9105
 3131SOL     OW21028   1.945   4.163  13.655  0.6878  0.6284 -0.2447
 3131SOL    HW121029   1.965   4.251  13.686  0.2264  0.4258  0.6144
 3131SOL    HW221030   1.915   4.182  13.566 -0.3770  0.7980  0.1533
 3132SOL     OW21031   3.994   2.369   1.318 -1.0302 -0.5374 -0.5805
 3132SOL    HW121032   3.931   2.303   1.290 -1.1814 -1.1072  1.0881
 3132SOL    HW221033   4.027   2.329   1.398 -0.7938  0.5253 -0.1404
 3133SOL     OW21034   4.683   3.927  11.728  0.4415 -0.4873 -0.0662
 3133SOL    HW121035   0.007   3.909  11.797  1.0814  3.1863  0.2999
 3133SOL    HW221036   0.001   3.983  11.677  0.7334 -2.5224 -1.9898
 3134SOL     OW21037   3.754   4.676   5.701  0.1926 -0.0859 -0.8284
 3134SOL    HW121038   3.790   4.703   5.785 -2.5896  0.6939  0.1146
 3134SOL    HW221039   3.814   4.604   5.681  0.1207 -0.4529  0.2699
 3135SOL     OW21040   2.966   3.878   7.522  0.3152  0.9774  0.0332
 3135SOL    HW121041   2.979   3.804   7.581 -0.6797 -0.7984 -1.9797
 3135SOL    HW221042   3.047   3.880   7.472  1.3934  0.2353  1.7697
 3136SOL     OW21043   0.148   1.539   6.992  0.5835 -0.1903  0.4127
 3136SOL    HW121044   0.147   1.551   6.898 -0.2585 -0.8667  0.3356
 3136SOL    HW221045   0.222   1.479   6.988  0.3059 -0.3981 -1.5828
 3137SOL     OW21046   2.900   4.504   9.963 -0.1921  0.1004 -0.3906
 3137SOL    HW121047   2.903   4.431   9.901 -2.7159  0.8658 -1.4560
 3137SOL    HW221048   2.956   4.563   9.913 -1.0144  1.0666 -0.1760
 3138SOL     OW21049   1.559   2.269   5.577 -0.0272  0.0892 -0.1700
 3138SOL    HW121050   1.526   2.193   5.529 -2.0114  0.9659 -0.2327
 3138SOL    HW221051   1.475   2.314   5.564 -0.5012 -0.2081  1.9643
 3139SOL     OW21052   0.100   3.865  14.478 -0.6289 -0.1158 -0.0614
 3139SOL    HW121053   0.025   3.812  14.451 -0.5568  0.1612 -0.8053
 3139SOL    HW221054   0.073   3.892  14.566 -2.3520  0.3101 -0.7233
 3140SOL     OW21055   3.216   0.315   9.657 -0.4130  0.5864  0.2162
 3140SOL    HW121056   3.287   0.373   9.630 -0.3789  0.4723  0.0629
 3140SOL    HW221057   3.210   0.329   9.752 -1.8530  0.4542  0.1419
 3141SOL     OW21058   3.631   2.998   7.310  0.1401  0.2377 -0.1131
 3141SOL    HW121059   3.598   3.081   7.344  1.8007  1.1668 -0.7916
 3141SOL    HW221060   3.596   2.998   7.221  1.3161  3.2802 -0.5765
 3142SOL     OW21061   2.649   0.522   3.242  0.4175  0.3955 -0.5975
 3142SOL    HW121062   2.714   0.474   3.294  0.9109 -0.7012 -2.2274
 3142SOL    HW221063   2.712   0.579   3.198  0.3108 -0.1061 -1.4012
 3143SOL     OW21064   0.734   3.046  13.397  0.1941  0.2126  0.5935
 3143SOL    HW121065   0.726   2.984  13.469 -0.5440 -0.8658 -0.4029
 3143SOL    HW221066   0.676   3.015  13.327  1.4389 -0.9853  0.0997
 3144SOL     OW21067   1.776   0.401   3.913 -0.3238  0.1315 -0.2515
 3144SOL    HW121068   1.734   0.485   3.935 -3.7923 -2.1009  1.6864
 3144SOL    HW221069   1.851   0.420   3.857  1.4333  0.8852  2.4224
 3145SOL     OW21070   3.266   3.823  12.513 -0.2927 -0.0739 -0.0212
 3145SOL    HW121071   3.318   3.822  12.594  0.2512 -0.0605 -0.3729
 3145SOL    HW221072   3.258   3.731  12.487 -3.0343  0.8394 -2.3809
 3146SOL     OW21073   3.426   3.096   9.465  0.4822 -0.1428 -0.4507
 3146SOL    HW121074   3.369   3.074   9.392  0.4273  1.9033 -1.0329
 3146SOL    HW221075   3.434   3.190   9.447  1.4311  0.2422  1.8922
 3147SOL     OW21076   3.171   0.322   0.479 -0.2629 -0.3613  0.1228
 3147SOL    HW121077   3.088   0.274   0.490 -1.8347  1.8691 -2.0806
 3147SOL    HW221078   3.130   0.404   0.453 -1.5017 -0.4336  1.8404
 3148SOL     OW21079   1.145   4.276  11.335  0.5733 -0.0058  0.1316
 3148SOL    HW121080   1.176   4.338  11.401 -0.9212 -1.5746  2.3519
 3148SOL    HW221081   1.223   4.231  11.303  0.9854 -1.1951  2.7387
 3149SOL     OW21082   0.439   3.233   2.519 -0.2894  0.6459 -0.3653
 3149SOL    HW121083   0.506   3.243   2.587 -0.1348 -1.3233 -0.2387
 3149SOL    HW221084   0.452   3.146   2.481 -0.5858  0.7286 -0.6540
 3150SOL     OW21085   1.829   2.027   1.160  0.2136 -0.3531  0.0161
 3150SOL    HW121086   1.908   1.981   1.132 -0.0818 -0.5011 -0.5807
 3150SOL    HW221087   1.763   1.958   1.160 -0.2772  0.1235  0.7991
 3151SOL     OW21088   3.542   1.070  15.293 -0.0613 -0.4012  0.5216
 3151SOL    HW121089   3.498   1.152  15.312  0.4942 -0.2452  1.1413
 3151SOL    HW221090   3.603   1.069  15.367  0.0067 -1.3154  0.4523
 3152SOL     OW21091   0.330   4.273  10.084  0.1681  0.3910  0.0057
 3152SOL    HW121092   0.372   4.359  10.076 -1.0727  0.7680 -2.5122
 3152SOL    HW221093   0.301   4.275  10.175 -3.2131  2.1774 -1.1092
 3153SOL     OW21094   0.574   1.788   3.419 -0.0369 -0.2048 -0.3591
 3153SOL    HW121095   0.608   1.772   3.506  0.2030 -2.8284 -0.9475
 3153SOL    HW221096   0.561   1.698   3.390  1.3113 -0.0610 -1.4207
 3154SOL     OW21097   2.354   3.623   9.004 -0.4900 -0.4687  0.2477
 3154SOL    HW121098   2.326   3.561   9.070  3.6967 -1.4466  1.1179
 3154SOL    HW221099   2.352   3.577   8.920 -0.5295 -2.9827  1.6502
 3155SOL     OW21100   4.452   3.685   0.854  0.0243  0.2590  0.0407
 3155SOL    HW121101   4.495   3.600   0.865 -0.7235 -0.1745 -0.3638
 3155SOL    HW221102   4.519   3.744   0.887  0.5684 -0.2199 -0.1978
 3156SOL     OW21103   2.613   0.379   4.514  0.2140 -0.3099  0.7643
 3156SOL    HW121104   2.606   0.365   4.608  0.1583 -1.0674  0.6502
 3156SOL    HW221105   2.545   0.327   4.470  1.6349 -0.1561 -1.6099
 3157SOL     OW21106   4.426   4.580   3.298  0.2942 -0.3912  0.2451
 3157SOL    HW121107   4.495   4.526   3.336 -0.4368 -1.9995 -0.6937
 3157SOL    HW221108   4.383   4.516   3.241 -0.0463  0.2429 -0.2046
 3158SOL     OW21109   0.074   1.097  13.374 -0.7491  0.4894 -0.2209
 3158SOL    HW121110   0.054   1.190  13.358 -1.4909  0.5410  1.0499
 3158SOL    HW221111   0.166   1.104  13.398 -0.5286  1.1947 -1.2689
 3159SOL     OW21112   0.117   4.340  17.047  0.6323 -0.9806  0.0076
 3159SOL    HW121113   0.183   4.279  17.013  0.9328 -0.3986 -0.4649
 3159SOL    HW221114   0.164   4.378  17.121 -1.4050  0.7411  0.3988
 3160SOL     OW21115   1.508   1.451   2.298  0.7799  1.1765  0.4529
 3160SOL    HW121116   1.513   1.547   2.292  0.2987  1.1953  0.3561
 3160SOL    HW221117   1.424   1.445   2.344  0.5640 -0.9657 -0.2354
 3161SOL     OW21118   0.348   4.700  12.301  0.0414 -0.3094 -0.1027
 3161SOL    HW121119   0.419   4.637  12.292  0.4752  0.3045 -0.9580
 3161SOL    HW221120   0.297   4.679  12.223 -0.1105 -2.0576  0.4758
 3162SOL     OW21121   2.352   2.670   3.565  0.1025  0.5992  0.1905
 3162SOL    HW121122   2.412   2.605   3.528 -0.1321  0.3323  0.2782
 3162SOL    HW221123   2.276   2.666   3.507  0.3522  2.5363 -0.2445
 3163SOL     OW21124   2.279   4.124   2.533  0.4008  0.2969 -0.1417
 3163SOL    HW121125   2.300   4.035   2.559  0.5552 -0.1458 -1.8306
 3163SOL    HW221126   2.238   4.166   2.609  1.7380  0.7335  0.3459
 3164SOL     OW21127   2.154   3.341   0.169  0.9542 -0.1138 -0.0371
 3164SOL    HW121128   2.128   3.354   0.078  3.8206  0.9956 -0.6922
 3164SOL    HW221129   2.073   3.372   0.210  0.8775  0.9592 -1.0117
 3165SOL     OW21130   3.821   0.796   4.124  0.1481  0.3975 -0.5273
 3165SOL    HW121131   3.905   0.764   4.090  0.9213  1.1662  0.6307
 3165SOL    HW221132   3.757   0.786   4.054 -1.3299 -0.0450  0.9071
 3166SOL     OW21133   4.616   4.526   9.453  0.2439  0.6792  0.1081
 3166SOL    HW121134   4.672   4.536   9.530  0.5088 -2.2729  0.2990
 3166SOL    HW221135   4.548   4.471   9.492  3.8812 -2.4715  1.9200
 3167SOL     OW21136   0.457   0.381  13.865  0.0588  0.2526 -0.5305
 3167SOL    HW121137   0.393   0.311  13.878 -0.2631  0.6742  0.1054
 3167SOL    HW221138   0.538   0.328  13.863 -0.4587 -0.4904 -1.8514
 3168SOL     OW21139   0.217   1.619   5.253 -0.2245 -0.0929  0.3079
 3168SOL    HW121140   0.202   1.705   5.214  2.4841 -0.8026 -2.3419
 3168SOL    HW221141   0.259   1.652   5.332  0.3114 -0.6738  0.2618
 3169SOL     OW21142   3.504   2.221   2.454 -0.0973 -0.6523  0.1486
 3169SOL    HW121143   3.593   2.215   2.419  0.5261 -0.1723  1.6587
 3169SOL    HW221144   3.509   2.174   2.537  0.5999  0.1885  0.5890
 3170SOL     OW21145   2.642   4.010  16.849 -0.0145 -0.6692  0.0666
 3170SOL    HW121146   2.690   4.088  16.821 -0.9333 -0.6082 -1.3626
 3170SOL    HW221147   2.565   4.045  16.892  0.1108  0.3176 -0.5030
 3171SOL     OW21148   1.975   2.428   6.361  0.1870 -0.7473 -0.5642
 3171SOL    HW121149   2.056   2.400   6.403 -0.4308  0.5297  1.4844
 3171SOL    HW221150   1.922   2.450   6.438  0.1518 -0.2181 -0.7413
 3172SOL     OW21151   4.264   0.698   9.653 -0.0055 -0.4825  1.1022
 3172SOL    HW121152   4.349   0.664   9.680  1.8266  0.6159 -3.1607
 3172SOL    HW221153   4.277   0.787   9.686 -0.5810  0.3205 -0.8125
 3173SOL     OW21154   3.995   2.638   7.923 -0.1441 -0.6889  0.0944
 3173SOL    HW121155   4.048   2.559   7.916  1.4382  0.1297  3.0207
 3173SOL    HW221156   3.923   2.604   7.977 -1.3660  2.8412  0.7086
 3174SOL     OW21157   1.554   3.219   1.499 -0.5267 -0.3106 -0.0996
 3174SOL    HW121158   1.459   3.210   1.512 -0.5005 -1.2231 -0.5446
 3174SOL    HW221159   1.581   3.222   1.591 -1.7388 -0.9427  0.2823
 3175SOL     OW21160   1.935   3.490  13.600  0.4118  0.0298  0.1822
 3175SOL    HW121161   1.971   3.402  13.588 -1.6775 -0.8969  0.8542
 3175SOL    HW221162   1.864   3.488  13.536  0.2392  0.5308  0.3588
 3176SOL     OW21163   0.609   1.152   7.403 -0.1663 -0.1375 -0.2418
 3176SOL    HW121164   0.590   1.230   7.454 -0.3478  1.6632 -3.0939
 3176SOL    HW221165   0.600   1.179   7.312  0.3196  0.0743 -0.2273
 3177SOL     OW21166   3.046   3.083   9.425 -0.0830 -0.0523 -0.7813
 3177SOL    HW121167   2.995   3.003   9.437  0.5415 -0.3283 -0.0008
 3177SOL    HW221168   3.119   3.050   9.373  0.6323 -0.0197  0.2045
 3178SOL     OW21169   2.175   1.731   2.581 -0.4002  0.2472  0.1040
 3178SOL    HW121170   2.251   1.675   2.575  0.4675  1.4014  0.2425
 3178SOL    HW221171   2.103   1.672   2.557 -0.3410  0.7643 -1.3469
 3179SOL     OW21172   0.199   4.605  10.537 -0.1012 -0.0875  0.0033
 3179SOL    HW121173   0.274   4.598  10.597  0.8516  2.3279 -0.9144
 3179SOL    HW221174   0.179   4.697  10.553 -1.5071 -0.5800  1.0715
 3180SOL     OW21175   3.208   1.453  12.459 -0.2384  0.2952 -0.0185
 3180SOL    HW121176   3.131   1.487  12.413 -1.3215 -0.6683  1.0968
 3180SOL    HW221177   3.181   1.459  12.551  0.0054  2.1945 -0.0636
 3181SOL     OW21178   2.975   4.712   7.121 -0.2571 -0.1669  0.0219
 3181SOL    HW121179   2.986   4.726   7.027  2.3096  2.7629  0.7443
 3181SOL    HW221180   3.050   4.655   7.138 -2.2418 -2.7076  0.2104
 3182SOL     OW21181   0.038   3.716  17.365  0.0334  0.1501 -0.0668
 3182SOL    HW121182   0.032   3.714  17.269  3.2882  1.9908 -0.3068
 3182SOL    HW221183   0.100   3.788  17.374  0.2151 -0.0079 -0.0548
 3183SOL     OW21184   3.641   4.357   5.703 -0.1391 -0.3605  0.4073
 3183SOL    HW121185   3.688   4.412   5.766  0.0072  1.7929 -1.5668
 3183SOL    HW221186   3.695   4.277   5.702  1.6170  0.8176 -0.0278
 3184SOL     OW21187   2.910   3.962   8.055  0.2344 -0.4997 -0.1407
 3184SOL    HW121188   2.904   4.006   8.140 -0.5957  0.6183 -0.7760
 3184SOL    HW221189   2.999   3.980   8.025  0.2196 -0.4478 -0.1543
 3185SOL     OW21190   3.416   2.879   3.852  0.3372  0.1993  0.0243
 3185SOL    HW121191   3.494   2.824   3.848 -0.3094 -0.7390  0.5419
 3185SOL    HW221192   3.357   2.834   3.912  0.2105 -0.4692 -0.5918
 3186SOL     OW21193   3.279   4.248   8.468 -0.1506  0.0199  0.5309
 3186SOL    HW121194   3.285   4.320   8.405  1.1210  0.0460  0.6802
 3186SOL    HW221195   3.205   4.273   8.523 -1.3427 -2.0951 -0.1397
 3187SOL     OW21196   2.926   2.758   3.296  0.3737  0.5363  0.1632
 3187SOL    HW121197   2.918   2.852   3.281  0.1818  0.4854 -0.0545
 3187SOL    HW221198   2.834   2.734   3.284  0.5610  0.1164 -0.4276
 3188SOL     OW21199   0.926   0.404  16.128  0.5253  0.3227  0.7407
 3188SOL    HW121200   1.021   0.408  16.133  0.4271  0.2512  2.4470
 3188SOL    HW221201   0.912   0.331  16.188 -2.5486 -0.2858 -0.6990
 3189SOL     OW21202   0.621   1.893   5.870 -0.0208  0.0659 -0.1523
 3189SOL    HW121203   0.570   1.952   5.925  0.2334  0.1339  0.0100
 3189SOL    HW221204   0.710   1.927   5.877  0.3049 -1.2840  2.0834
 3190SOL     OW21205   0.690   2.292   7.252  0.1192  0.1381 -0.3529
 3190SOL    HW121206   0.639   2.337   7.319  0.8673  0.9975 -0.3610
 3190SOL    HW221207   0.756   2.358   7.230 -0.4094  0.7916  0.0258
 3191SOL     OW21208   1.000   3.132  12.007  0.0145 -0.4448 -0.9147
 3191SOL    HW121209   1.003   3.038  12.026 -0.7118 -0.1013  0.7915
 3191SOL    HW221210   0.910   3.141  12.037  0.6020  0.2596  0.5991
 3192SOL     OW21211   4.434   1.461   3.004  0.4119  0.1175 -0.2234
 3192SOL    HW121212   4.473   1.376   3.023  1.2187 -0.0788 -2.7728
 3192SOL    HW221213   4.456   1.512   3.082  0.3558 -0.5740  0.2491
 3193SOL     OW21214   2.281   3.558   5.277  0.4212  0.2181  0.8973
 3193SOL    HW121215   2.337   3.580   5.203 -0.6336  0.6689  0.2264
 3193SOL    HW221216   2.316   3.475   5.311 -1.5323 -0.5491  1.0731
 3194SOL     OW21217   3.460   3.027   7.743 -0.1567 -0.0704 -0.4417
 3194SOL    HW121218   3.484   3.008   7.833  1.9997 -2.1447 -1.4619
 3194SOL    HW221219   3.411   3.109   7.752  0.4646 -0.2004  3.7702
 3195SOL     OW21220   4.270   4.611   1.740 -0.0217 -0.0686  0.3891
 3195SOL    HW121221   4.193   4.563   1.708  1.5807 -3.4886  1.6420
 3195SOL    HW221222   4.224   4.682   1.785  1.3608  1.1999 -0.1841
 3196SOL     OW21223   2.660   2.092   5.484  0.2102 -0.3106  0.1083
 3196SOL    HW121224   2.608   2.171   5.476 -2.3202 -1.6522  3.3013
 3196SOL    HW221225   2.739   2.117   5.436  0.1360  0.3233  0.3191
 3197SOL     OW21226   3.785   4.410   6.361  0.0165 -0.1603  0.2716
 3197SOL    HW121227   3.794   4.319   6.388  1.0734 -0.3466 -0.7298
 3197SOL    HW221228   3.690   4.418   6.350 -0.1361 -0.2862  1.5751
 3198SOL     OW21229   3.378   1.202   1.032  0.0316  0.0606  0.4474
 3198SOL    HW121230   3.412   1.276   1.083 -2.0386  1.3477 -0.0416
 3198SOL    HW221231   3.290   1.181   1.061  0.1614  0.9124  1.4653
 3199SOL     OW21232   3.203   2.976   8.762  0.1770  0.2062  0.1904
 3199SOL    HW121233   3.198   2.911   8.832 -1.0369  2.3786  2.1204
 3199SOL    HW221234   3.182   2.934   8.678  1.0701  0.3784 -0.1178
 3200SOL     OW21235   1.446   1.979   5.467  0.9129  0.1507  0.0836
 3200SOL    HW121236   1.423   1.887   5.460  0.5408  0.1753  0.8979
 3200SOL    HW221237   1.472   2.010   5.380  1.4276 -0.2757  0.0893
 3201SOL     OW21238   2.228   1.955   3.347 -0.7869  0.1987  0.0092
 3201SOL    HW121239   2.275   1.871   3.349  0.6049  0.9734  0.2189
 3201SOL    HW221240   2.262   1.984   3.263 -0.6249 -1.5020 -0.5096
 3202SOL     OW21241   0.789   0.161  11.635 -0.1697  0.0624 -0.0112
 3202SOL    HW121242   0.865   0.167  11.693 -1.0816  1.2645  1.0741
 3202SOL    HW221243   0.756   0.251  11.627  1.6817  0.8310  0.8797
 3203SOL     OW21244   1.051   0.811   1.555 -1.1302 -0.3826  0.2011
 3203SOL    HW121245   1.097   0.739   1.512  0.5162  0.1977  1.0163
 3203SOL    HW221246   1.020   0.863   1.481 -2.6194 -0.4943  0.7317
 3204SOL     OW21247   2.781   0.911   3.270 -0.0328  0.1419  0.3525
 3204SOL    HW121248   2.845   0.966   3.224 -0.6464 -1.2215 -2.0917
 3204SOL    HW221249   2.789   0.834   3.214 -1.9055 -1.1007  1.8161
 3205SOL     OW21250   1.535   2.575   5.955 -0.2434 -0.6762  0.1872
 3205SOL    HW121251   1.526   2.653   6.010 -1.0287 -0.6915  0.0685
 3205SOL    HW221252   1.452   2.569   5.909  0.6380  0.6613 -1.5609
 3206SOL     OW21253   2.739   4.586   9.251 -0.3215 -0.5963 -0.5419
 3206SOL    HW121254   2.664   4.535   9.221  0.1249 -0.6683 -1.5275
 3206SOL    HW221255   2.694   4.630   9.323 -0.2522 -1.5398  0.0779
 3207SOL     OW21256   2.521   3.564   3.551 -0.7175  0.0015 -0.1677
 3207SOL    HW121257   2.587   3.560   3.620 -0.5377 -1.1322 -0.3992
 3207SOL    HW221258   2.525   3.653   3.517  1.6831 -0.6007 -1.4325
 3208SOL     OW21259   3.841   1.823   4.222 -0.0719 -0.1204 -0.5653
 3208SOL    HW121260   3.834   1.739   4.266  0.6826  0.5250  0.7671
 3208SOL    HW221261   3.764   1.871   4.252 -0.7422 -2.1113  0.9020
 3209SOL     OW21262   2.385   4.068   2.890 -0.3692 -0.2369 -0.0065
 3209SOL    HW121263   2.335   3.993   2.923 -0.8622 -0.1887 -0.6568
 3209SOL    HW221264   2.444   4.094   2.961 -2.4458  1.9747  0.9290
 3210SOL     OW21265   1.542   3.909   5.905 -0.7130  0.3894 -0.1816
 3210SOL    HW121266   1.544   3.873   5.816 -0.0582 -1.1193  0.4456
 3210SOL    HW221267   1.494   3.842   5.953  0.4870 -0.4831 -0.2199
 3211SOL     OW21268   2.345   2.541  10.633 -0.1814  0.2921 -0.4216
 3211SOL    HW121269   2.357   2.604  10.562  1.2119  0.9379  0.3946
 3211SOL    HW221270   2.414   2.476  10.615  1.1578  1.5044  0.3216
 3212SOL     OW21271   3.735   1.381   8.518  0.3261 -0.6199 -0.1003
 3212SOL    HW121272   3.691   1.356   8.600 -1.1296 -1.4481 -1.1393
 3212SOL    HW221273   3.707   1.319   8.450  0.7222 -0.2464 -0.5995
 3213SOL     OW21274   4.594   0.624   2.918 -0.6939 -0.0946  0.2227
 3213SOL    HW121275   4.554   0.560   2.976 -0.0485 -0.4787  0.2450
 3213SOL    HW221276   4.615   0.567   2.844 -3.0600 -1.1042  0.3412
 3214SOL     OW21277   0.511   0.597  11.396  0.4534  0.1990 -0.8482
 3214SOL    HW121278   0.539   0.603  11.487  0.1918 -2.0680 -0.6201
 3214SOL    HW221279   0.528   0.688  11.369  0.8453  0.2539 -0.4245
 3215SOL     OW21280   1.098   4.697   1.631  0.0693 -0.1179  0.0491
 3215SOL    HW121281   1.023   4.683   1.689 -0.8169  1.4686 -0.7412
 3215SOL    HW221282   1.065   4.650   1.555 -1.5230 -0.1845  0.7790
 3216SOL     OW21283   2.130   2.015   5.558 -0.0036 -0.0911 -0.2247
 3216SOL    HW121284   2.130   2.077   5.631  0.6462 -0.2289 -0.1116
 3216SOL    HW221285   2.149   1.932   5.601  2.1078  0.7350  0.4187
 3217SOL     OW21286   2.329   1.161   7.566 -0.0282  0.0748 -0.1566
 3217SOL    HW121287   2.331   1.228   7.496  1.2214 -0.3490 -0.5282
 3217SOL    HW221288   2.395   1.094   7.547  1.5012  1.7249 -0.7120
 3218SOL     OW21289   2.859   1.325  16.164 -0.2202 -0.0399 -0.7810
 3218SOL    HW121290   2.823   1.305  16.251 -0.0279 -2.3976 -1.2393
 3218SOL    HW221291   2.775   1.350  16.125 -0.5022  0.4417  0.1397
 3219SOL     OW21292   1.597   4.443   8.558  0.4508 -0.3410 -0.1527
 3219SOL    HW121293   1.600   4.506   8.630 -0.8938  2.3550 -2.4675
 3219SOL    HW221294   1.526   4.389   8.594  1.6682 -0.7909  1.5265
 3220SOL     OW21295   1.731   4.155  15.232  0.0295 -0.2680  0.0559
 3220SOL    HW121296   1.776   4.126  15.153 -0.6166 -4.6696  1.3259
 3220SOL    HW221297   1.677   4.220  15.188  1.7121 -0.4921 -2.3203
 3221SOL     OW21298   0.723   1.512   4.082  0.0528  0.0217  0.6276
 3221SOL    HW121299   0.753   1.497   4.171  0.1153 -3.0877  0.0987
 3221SOL    HW221300   0.654   1.578   4.095 -1.8883 -1.5293 -1.6804
 3222SOL     OW21301   4.175   4.069  13.309  0.3234 -0.1032  0.3546
 3222SOL    HW121302   4.186   4.145  13.252 -1.9604 -1.1659 -1.4830
 3222SOL    HW221303   4.080   4.072  13.325  0.2598 -0.7155  0.1074
 3223SOL     OW21304   3.098   2.376   6.212 -0.2536  0.3176 -0.6611
 3223SOL    HW121305   3.124   2.303   6.269 -1.5626  0.5612  0.2426
 3223SOL    HW221306   3.005   2.356   6.203 -0.3393 -0.4253  1.7423
 3224SOL     OW21307   3.592   1.137   5.595 -0.2150  0.6651 -0.0384
 3224SOL    HW121308   3.498   1.129   5.607 -0.3098  2.5672  0.4270
 3224SOL    HW221309   3.611   1.194   5.670 -0.1388  4.0786 -2.6402
 3225SOL     OW21310   1.322   0.333   6.266 -0.5796  0.3127  0.1632
 3225SOL    HW121311   1.292   0.244   6.286 -2.9634  0.8763 -0.8711
 3225SOL    HW221312   1.374   0.360   6.342  0.5038 -1.3277 -0.0063
 3226SOL     OW21313   4.127   4.224   3.006 -0.3215  0.2144 -0.3093
 3226SOL    HW121314   4.174   4.223   2.923  1.9705 -1.0539  1.0074
 3226SOL    HW221315   4.036   4.221   2.976 -0.6281  2.4548  0.3920
 3227SOL     OW21316   0.234   3.379   8.623 -0.3151 -0.8273  0.0287
 3227SOL    HW121317   0.151   3.343   8.652 -0.1736 -1.4537 -0.3279
 3227SOL    HW221318   0.296   3.366   8.695  0.2858 -0.5541 -0.4348
 3228SOL     OW21319   3.608   3.026   7.983 -0.2418  0.4876  0.1386
 3228SOL    HW121320   3.584   2.961   8.048 -0.3472 -0.2561 -0.6500
 3228SOL    HW221321   3.653   2.976   7.915  1.7846  1.5382  0.7149
 3229SOL     OW21322   2.888   0.081   3.065 -0.2132  0.0415  0.4476
 3229SOL    HW121323   2.965   0.085   3.009 -0.6380 -0.6832 -0.1981
 3229SOL    HW221324   2.847   0.029   2.995 -0.2471 -1.4307  1.5545
 3230SOL     OW21325   0.592   0.751  12.878 -0.3107 -0.2061 -0.3712
 3230SOL    HW121326   0.674   0.702  12.881 -0.2522 -0.0312  0.9697
 3230SOL    HW221327   0.547   0.714  12.803 -2.2299  0.3162  0.5129
 3231SOL     OW21328   0.233   2.942   4.518 -0.4308  0.4599 -0.1810
 3231SOL    HW121329   0.239   3.020   4.573 -0.8964 -1.4491  2.5909
 3231SOL    HW221330   0.258   2.875   4.582 -0.3617  0.0818 -0.6029
 3232SOL     OW21331   2.469   1.234  17.175  0.3660  0.1755 -0.4227
 3232SOL    HW121332   2.398   1.275  17.126  0.2080  0.4725  0.0661
 3232SOL    HW221333   2.538   1.299  17.164 -1.3650  1.8890 -1.2579
 3233SOL     OW21334   1.456   0.544  10.049 -0.0380 -0.0929  0.2591
 3233SOL    HW121335   1.550   0.531  10.038  0.1866  0.4760  1.5533
 3233SOL    HW221336   1.417   0.481   9.988  0.4415  0.3458 -0.4866
 3234SOL     OW21337   1.282   0.074   2.043  0.2134  0.2583 -0.6301
 3234SOL    HW121338   1.310   0.118   1.963  2.3345 -0.6134 -0.3545
 3234SOL    HW221339   1.355   0.012   2.044 -0.7056 -0.8362 -0.6096
 3235SOL     OW21340   0.896   4.387   1.726 -0.0018 -0.4451 -0.0841
 3235SOL    HW121341   0.888   4.482   1.725 -3.2723 -0.7454 -0.1865
 3235SOL    HW221342   0.955   4.362   1.798  0.2302 -1.6174 -0.6777
 3236SOL     OW21343   4.394   3.395  13.449 -0.0365 -0.8548 -0.7711
 3236SOL    HW121344   4.419   3.310  13.412  0.5327 -0.0383 -2.2315
 3236SOL    HW221345   4.341   3.435  13.381 -1.4719 -2.3636 -0.5502
 3237SOL     OW21346   0.748   1.058   8.786  0.3122  0.3143  0.1136
 3237SOL    HW121347   0.721   1.001   8.858  1.1529 -0.5694 -0.2590
 3237SOL    HW221348   0.843   1.046   8.789  0.0070 -1.8749  1.1410
 3238SOL     OW21349   2.560   4.300   9.080  0.0782 -0.8674 -0.1698
 3238SOL    HW121350   2.647   4.267   9.104 -0.0719  0.1959  1.8583
 3238SOL    HW221351   2.571   4.346   8.997 -0.6119 -0.8469 -0.2530
 3239SOL     OW21352   3.424   4.402   5.884 -0.1964  0.2760  0.1354
 3239SOL    HW121353   3.491   4.355   5.933  0.0644 -0.9259 -1.3384
 3239SOL    HW221354   3.470   4.459   5.822  1.2316 -1.8663 -0.7864
 3240SOL     OW21355   3.365   1.915  17.386  0.0562  0.2943  0.4360
 3240SOL    HW121356   3.386   1.888  17.475  1.0278  0.7077  0.3224
 3240SOL    HW221357   3.440   1.969  17.363  0.0795 -1.2200 -3.1504
 3241SOL     OW21358   2.700   0.620   6.147  0.0822 -0.2058  0.2936
 3241SOL    HW121359   2.691   0.651   6.057  1.1184 -1.1545 -0.1412
 3241SOL    HW221360   2.648   0.687   6.192 -2.3420 -1.0162 -1.2931
 3242SOL     OW21361   4.370   2.740  15.682  0.2247  0.3362  0.1296
 3242SOL    HW121362   4.460   2.739  15.649 -0.0684  2.0277 -0.7530
 3242SOL    HW221363   4.326   2.783  15.608  3.0545  1.6995 -0.7627
 3243SOL     OW21364   2.330   1.227   6.679 -0.1898 -0.0830  0.1156
 3243SOL    HW121365   2.381   1.272   6.611 -1.4482  1.0085 -0.0995
 3243SOL    HW221366   2.246   1.201   6.642 -0.7966  1.5762  0.3004
 3244SOL     OW21367   3.313   1.169   1.914 -0.3232 -0.3145 -0.5399
 3244SOL    HW121368   3.344   1.104   1.851 -0.6894 -1.1003  0.0888
 3244SOL    HW221369   3.387   1.229   1.912  0.4038 -1.1783  0.6659
 3245SOL     OW21370   2.381   3.051  16.253  0.1139  0.5599  0.7207
 3245SOL    HW121371   2.474   3.045  16.275 -0.1338 -1.5074  1.2316
 3245SOL    HW221372   2.362   2.958  16.242  0.2232  0.4695  1.2639
 3246SOL     OW21373   3.192   1.128  16.024  0.0893  0.6247  0.0531
 3246SOL    HW121374   3.117   1.176  15.989 -0.4286 -0.3162 -0.1256
 3246SOL    HW221375   3.168   1.113  16.116 -0.5246 -1.6712 -0.5062
 3247SOL     OW21376   1.324   2.120   4.056  0.2539 -0.1140  0.3235
 3247SOL    HW121377   1.229   2.121   4.043  0.7942  0.9003 -3.4167
 3247SOL    HW221378   1.350   2.045   4.003  2.2470  0.2130  0.8592
 3248SOL     OW21379   3.795   0.858   5.689 -0.0347 -0.4960  0.6610
 3248SOL    HW121380   3.715   0.890   5.647 -0.0114  1.0252  1.8049
 3248SOL    HW221381   3.760   0.834   5.775  1.4896 -1.5196  0.9857
 3249SOL     OW21382   3.056   0.879  11.055  0.7673  0.0565 -0.4691
 3249SOL    HW121383   3.021   0.792  11.037 -0.4637  0.6718 -1.0568
 3249SOL    HW221384   3.100   0.874  11.139  1.5814 -1.0226 -0.9634
 3250SOL     OW21385   3.150   0.661   7.344  0.8526 -0.5185 -0.4767
 3250SOL    HW121386   3.165   0.695   7.256  0.7230 -3.0691 -1.4860
 3250SOL    HW221387   3.204   0.584   7.326 -0.4256 -1.6206  0.3931
 3251SOL     OW21388   0.662   4.141   6.498  0.4039  0.7846  0.5731
 3251SOL    HW121389   0.599   4.127   6.569 -0.1069  0.3468  0.0260
 3251SOL    HW221390   0.609   4.157   6.420  0.4429 -1.7247  0.0348
 3252SOL     OW21391   4.160   4.368   1.906  0.0660  0.2000 -0.1047
 3252SOL    HW121392   4.124   4.320   1.981 -1.0715  1.1537 -0.0556
 3252SOL    HW221393   4.088   4.414   1.864 -0.8230 -2.1098 -1.0882
 3253SOL     OW21394   3.543   2.540  16.648  0.3218 -0.3883 -0.1300
 3253SOL    HW121395   3.635   2.563  16.663  0.7621  0.0277 -3.4005
 3253SOL    HW221396   3.517   2.611  16.589  0.1479  0.8901  1.4877
 3254SOL     OW21397   1.939   3.366   4.882 -0.0218 -1.0128  0.4460
 3254SOL    HW121398   1.981   3.315   4.812  1.0950 -2.1360  1.9390
 3254SOL    HW221399   1.972   3.453   4.860 -0.9239 -0.6708  0.4351
 3255SOL     OW21400   3.586   0.932   3.742 -0.1555  0.4288 -0.4952
 3255SOL    HW121401   3.511   0.940   3.683  0.4489 -0.6396 -1.4024
 3255SOL    HW221402   3.608   1.024   3.755  1.1559  0.1190 -0.5262
 3256SOL     OW21403   4.168   4.736   2.118  0.3982  0.5846 -0.1324
 3256SOL    HW121404   4.164   0.039   2.204  2.1103 -0.0884  0.2813
 3256SOL    HW221405   4.115   0.064   2.075 -0.2061  0.7292  0.8355
 3257SOL     OW21406   1.160   1.791   3.662  0.0261 -0.8893  0.0874
 3257SOL    HW121407   1.168   1.705   3.621 -0.4835 -1.2086  0.6628
 3257SOL    HW221408   1.148   1.772   3.755  2.0790  2.6912  1.0704
 3258SOL     OW21409   0.090   4.264   1.302 -0.2586 -0.5634 -0.3897
 3258SOL    HW121410   0.164   4.281   1.361 -0.9389 -1.0714  0.6040
 3258SOL    HW221411   0.068   4.172   1.316  1.6547 -0.8867  0.5452
 3259SOL     OW21412   4.270   3.565  13.025  1.4274 -0.2296  0.3765
 3259SOL    HW121413   4.300   3.649  12.990 -0.5027  0.1477 -0.3585
 3259SOL    HW221414   4.221   3.599  13.099  1.0211 -2.5772  1.1820
 3260SOL     OW21415   3.774   1.548   4.777 -0.3858 -0.0116 -0.0703
 3260SOL    HW121416   3.777   1.625   4.833 -0.1337  1.3998 -2.0199
 3260SOL    HW221417   3.810   1.479   4.832 -1.9972 -0.2718  0.6393
 3261SOL     OW21418   1.883   1.012   8.846 -0.3136 -0.2852  0.2374
 3261SOL    HW121419   1.821   0.981   8.912 -0.3039 -0.1411  0.3129
 3261SOL    HW221420   1.862   1.104   8.830 -0.5847 -0.3914 -0.0178
 3262SOL     OW21421   1.420   1.068  17.398  0.0173 -0.2530  0.8273
 3262SOL    HW121422   1.463   1.083  17.314 -0.1663 -1.3229  0.5451
 3262SOL    HW221423   1.359   1.141  17.391  0.2924  0.0482  1.5400
 3263SOL     OW21424   1.765   3.753   7.208  0.2769 -0.0228 -0.0161
 3263SOL    HW121425   1.794   3.677   7.258 -2.2125 -0.5518  0.6287
 3263SOL    HW221426   1.830   3.821   7.228  0.7014 -0.4258 -0.0484
 3264SOL     OW21427   4.042   2.057  17.594 -0.2312 -0.0775 -0.3238
 3264SOL    HW121428   4.137   2.046  17.586 -0.2195  1.2072 -1.8120
 3264SOL    HW221429   4.043   2.152  17.597 -3.5631  0.0198 -2.7332
 3265SOL     OW21430   0.653   2.191  16.021 -0.4346 -0.5374 -0.0238
 3265SOL    HW121431   0.725   2.170  15.961  0.7145 -0.7289  1.4121
 3265SOL    HW221432   0.682   2.278  16.048  1.3884 -0.5666 -1.9048
 3266SOL     OW21433   2.647   1.750   3.165  0.0829 -0.7833 -0.2069
 3266SOL    HW121434   2.675   1.660   3.150 -0.8874 -1.2243  0.6587
 3266SOL    HW221435   2.679   1.765   3.254 -0.4892  0.6480 -0.2413
 3267SOL     OW21436   3.336   4.263   6.753 -0.6413  0.1056  0.3983
 3267SOL    HW121437   3.355   4.350   6.719  0.5994 -0.1167  0.5358
 3267SOL    HW221438   3.412   4.210   6.731 -1.1841  0.1467 -1.6596
 3268SOL     OW21439   1.154   4.043  17.734  0.0435  0.4578 -0.2659
 3268SOL    HW121440   1.109   3.965  17.700 -0.6245  1.2566 -1.1964
 3268SOL    HW221441   1.241   4.018  17.700 -0.0079  1.5373 -1.1983
 3269SOL     OW21442   4.271   0.218  12.503  0.1460  0.0372  0.4502
 3269SOL    HW121443   4.254   0.126  12.484  2.3647 -0.3585  0.3077
 3269SOL    HW221444   4.203   0.232  12.569  0.9321  1.1459  1.0411
 3270SOL     OW21445   1.158   0.686   1.346  0.0376 -0.0631 -0.2291
 3270SOL    HW121446   1.118   0.753   1.291 -1.6115 -0.7005  0.1939
 3270SOL    HW221447   1.086   0.624   1.350  1.7287 -1.8250  3.2778
 3271SOL     OW21448   3.181   1.940   6.652 -0.0044 -0.2284  0.4272
 3271SOL    HW121449   3.183   1.964   6.560  0.2510  0.5550  0.6273
 3271SOL    HW221450   3.102   1.886   6.653 -0.3098  0.2245  2.3745
 3272SOL     OW21451   0.956   0.672   5.990 -0.2041  0.5755 -0.7847
 3272SOL    HW121452   0.867   0.675   5.955 -0.0665 -1.2049 -1.2801
 3272SOL    HW221453   0.993   0.591   5.955  0.0624  1.1113 -1.7480
 3273SOL     OW21454   3.666   1.635   3.570 -0.0844  0.0354  0.0908
 3273SOL    HW121455   3.628   1.550   3.591 -1.5146  1.1212  1.8602
 3273SOL    HW221456   3.622   1.670   3.648 -0.5698 -3.2751  1.2846
 3274SOL     OW21457   4.411   0.201   0.664  0.5160 -0.1381  0.8766
 3274SOL    HW121458   4.447   0.155   0.740  1.2454  0.2663  0.7824
 3274SOL    HW221459   4.386   0.287   0.698  1.6522  1.0643 -1.2892
 3275SOL     OW21460   1.857   4.424   7.685  0.2877 -0.1759 -0.3668
 3275SOL    HW121461   1.925   4.437   7.619  0.1976  0.2877 -0.3632
 3275SOL    HW221462   1.775   4.429   7.635 -0.2239 -0.8135  0.4109
 3276SOL     OW21463   0.805   3.821  16.814  0.0441 -0.2380 -0.5499
 3276SOL    HW121464   0.886   3.779  16.844  0.2106  1.0417  0.8008
 3276SOL    HW221465   0.838   3.856  16.731  1.0034  0.2812  0.0384
 3277SOL     OW21466   0.013   0.374   1.221  0.1204 -0.1531 -0.0520
 3277SOL    HW121467   0.059   0.436   1.165  2.2895 -0.2885  1.6094
 3277SOL    HW221468   0.044   0.286   1.199 -1.3794 -0.6716 -0.0966
 3278SOL     OW21469   1.589   2.642  14.844 -0.5293  0.5351 -0.3526
 3278SOL    HW121470   1.553   2.565  14.888  2.5576 -0.2525  0.7682
 3278SOL    HW221471   1.588   2.617  14.751 -0.6685  0.5247 -0.3484
 3279SOL     OW21472   0.526   1.485  13.838 -0.0237  0.0756 -0.6619
 3279SOL    HW121473   0.571   1.404  13.861  0.5611  0.8297  0.8327
 3279SOL    HW221474   0.438   1.471  13.872 -0.6087  0.5308 -1.9946
 3280SOL     OW21475   2.524   2.383   8.497  0.2468 -0.0919 -0.8207
 3280SOL    HW121476   2.533   2.386   8.402 -0.5105  0.2408 -0.8804
 3280SOL    HW221477   2.496   2.292   8.509 -1.1767  0.3307 -0.9682
 3281SOL     OW21478   3.863   2.602  11.746 -0.5208  0.6915 -0.2231
 3281SOL    HW121479   3.885   2.605  11.839 -1.0174 -1.0470 -0.0453
 3281SOL    HW221480   3.780   2.649  11.739 -0.7389  0.2152 -0.8365
 3282SOL     OW21481   4.635   3.590   2.844  0.0897  0.2132 -0.4774
 3282SOL    HW121482   4.547   3.589   2.808  0.4796 -1.4484 -1.3793
 3282SOL    HW221483   4.675   3.541   2.772  0.1312  0.3837 -0.5700
 3283SOL     OW21484   3.686   3.001   3.938 -0.1198  0.3049 -0.3350
 3283SOL    HW121485   3.679   3.035   3.849 -0.3723  1.4664  0.1358
 3283SOL    HW221486   3.661   2.909   3.927  2.0333 -0.7653  3.3844
 3284SOL     OW21487   1.688   3.789   2.623 -0.2058 -0.2790  0.6857
 3284SOL    HW121488   1.666   3.772   2.531  2.9159 -2.3263  0.2919
 3284SOL    HW221489   1.721   3.878   2.612 -2.1714  0.3854  0.2738
 3285SOL     OW21490   1.764   1.890   5.925 -0.0475 -0.0343  0.5000
 3285SOL    HW121491   1.754   1.962   5.863 -0.9838  0.0265  0.7177
 3285SOL    HW221492   1.710   1.832   5.872  2.1626 -1.3912 -0.2261
 3286SOL     OW21493   0.656   3.925   3.513 -0.1135 -0.3837 -0.0191
 3286SOL    HW121494   0.724   3.968   3.564 -0.6271  0.3332  0.0589
 3286SOL    HW221495   0.656   3.989   3.442 -0.0631 -0.9173 -0.5114
 3287SOL     OW21496   3.357   3.726   2.533 -0.1797  0.1681  0.1053
 3287SOL    HW121497   3.390   3.776   2.458 -0.1266  1.2956  0.8703
 3287SOL    HW221498   3.423   3.760   2.594 -0.6170 -0.1289  0.7489
 3288SOL     OW21499   3.062   2.638   4.924  0.1912  0.5691 -0.0115
 3288SOL    HW121500   3.102   2.585   4.993 -0.5157 -1.4679 -1.1560
 3288SOL    HW221501   3.060   2.727   4.958  0.9299 -0.0897  1.7299
 3289SOL     OW21502   0.937   2.834   8.352 -0.1823 -0.1547  0.6113
 3289SOL    HW121503   0.994   2.862   8.424  1.9424 -0.3254 -0.9990
 3289SOL    HW221504   0.951   2.915   8.304 -0.0458 -1.0741 -0.8907
 3290SOL     OW21505   3.444   3.142   9.923 -0.4960 -0.0548  0.5870
 3290SOL    HW121506   3.397   3.172   9.845  0.1412 -3.0482 -0.9374
 3290SOL    HW221507   3.473   3.057   9.892  0.6869  0.4181  0.4225
 3291SOL     OW21508   1.699   1.014   3.736 -0.2074 -0.3174 -0.2665
 3291SOL    HW121509   1.776   1.064   3.763  0.1624 -0.0182 -1.8775
 3291SOL    HW221510   1.640   1.086   3.711  0.1916 -0.1637 -0.7656
 3292SOL     OW21511   3.983   0.714   2.144 -0.2557 -0.5190  0.2785
 3292SOL    HW121512   3.983   0.625   2.109  3.2832 -1.0337  1.5276
 3292SOL    HW221513   3.938   0.715   2.228 -2.4800 -0.6077 -0.9032
 3293SOL     OW21514   3.754   3.559   7.271  0.0986 -0.2256  0.0550
 3293SOL    HW121515   3.824   3.505   7.233 -0.4133 -0.9506  0.1301
 3293SOL    HW221516   3.772   3.555   7.365  0.3371  1.5464  0.0692
 3294SOL     OW21517   2.808   2.620   1.867 -0.2101 -0.6415  0.0224
 3294SOL    HW121518   2.722   2.579   1.870 -0.7548  0.4911  0.0061
 3294SOL    HW221519   2.790   2.692   1.806  4.8611  2.3341  2.0351
 3295SOL     OW21520   3.726   3.491   3.014 -0.5915 -0.6297  0.4006
 3295SOL    HW121521   3.656   3.554   2.994 -0.0012  0.0125  0.3349
 3295SOL    HW221522   3.681   3.419   3.058 -0.7494 -2.4172 -2.6364
 3296SOL     OW21523   4.462   4.438  10.038  0.0769  0.3132 -0.2067
 3296SOL    HW121524   4.532   4.492  10.002 -2.1077  3.0264 -0.3290
 3296SOL    HW221525   4.408   4.413   9.964 -1.1846  1.3073  0.3878
 3297SOL     OW21526   3.859   0.169   7.070  0.3079  0.3388 -0.4110
 3297SOL    HW121527   3.931   0.189   7.010 -0.3035 -1.2748 -1.6644
 3297SOL    HW221528   3.820   0.248   7.110 -0.1489 -0.2042  0.2254
 3298SOL     OW21529   3.843   2.184   1.986 -0.2109  0.0866  0.0222
 3298SOL    HW121530   3.825   2.257   1.927 -0.0689 -1.0542 -1.4241
 3298SOL    HW221531   3.800   2.114   1.936  0.7913 -1.8348  1.8580
 3299SOL     OW21532   2.323   2.827   6.413 -0.3692 -0.1460  0.2229
 3299SOL    HW121533   2.255   2.893   6.427  1.5611  1.7946  0.5043
 3299SOL    HW221534   2.407   2.868   6.435 -1.0623  0.4782  1.6957
 3300SOL     OW21535   0.542   3.714   8.103  0.4672  0.0229 -0.0500
 3300SOL    HW121536   0.536   3.711   8.008  1.4568  0.0437 -0.1158
 3300SOL    HW221537   0.637   3.715   8.111  0.7247 -0.4164 -3.2774
 3301SOL     OW21538   3.859   3.400  15.257  0.4663 -0.5872  0.7953
 3301SOL    HW121539   3.933   3.460  15.247  1.0426 -0.9814  2.7045
 3301SOL    HW221540   3.785   3.456  15.279 -1.6904 -3.0833 -0.1721
 3302SOL     OW21541   3.838   1.869   2.219  0.0081 -0.4467  0.3480
 3302SOL    HW121542   3.881   1.784   2.231  1.6725  0.1869 -1.0925
 3302SOL    HW221543   3.752   1.829   2.202 -0.0338 -0.3128  0.2364
 3303SOL     OW21544   1.554   0.918   7.329  0.0023  0.1411  0.1284
 3303SOL    HW121545   1.508   0.994   7.293 -1.2990 -1.7083 -2.0806
 3303SOL    HW221546   1.632   0.964   7.363  0.9283 -1.4621  0.1854
 3304SOL     OW21547   3.213   1.674   1.828  0.4381  0.1334 -1.0143
 3304SOL    HW121548   3.218   1.612   1.901  0.6779  1.2494 -0.0658
 3304SOL    HW221549   3.170   1.618   1.764 -1.0280 -2.3256  2.1328
 3305SOL     OW21550   0.397   3.019   3.596 -0.3938 -0.3718  0.1473
 3305SOL    HW121551   0.433   3.056   3.516 -0.6034 -2.4907 -0.9306
 3305SOL    HW221552   0.302   3.019   3.583 -0.5613  2.8420  1.2513
 3306SOL     OW21553   3.083   1.653   2.519  0.2611  0.0957 -0.2676
 3306SOL    HW121554   3.000   1.618   2.551  1.2966 -2.1412  0.0093
 3306SOL    HW221555   3.074   1.746   2.535  1.9855 -0.2262  2.5209
 3307SOL     OW21556   2.261   0.702   2.101  0.3575 -0.1504 -0.1110
 3307SOL    HW121557   2.207   0.693   2.180 -0.2047 -2.6441 -0.7646
 3307SOL    HW221558   2.221   0.780   2.063 -0.3500 -0.2922  0.3356
 3308SOL     OW21559   2.981   4.462   5.907 -0.7345 -0.7020 -0.1778
 3308SOL    HW121560   3.009   4.537   5.959 -0.0859  0.6781 -2.5053
 3308SOL    HW221561   2.897   4.497   5.877 -1.3857 -0.8251  1.5312
 3309SOL     OW21562   4.163   1.055   4.943  0.3089  0.1579  0.0495
 3309SOL    HW121563   4.122   1.093   5.020  1.7114 -0.0990  0.9180
 3309SOL    HW221564   4.253   1.049   4.973 -0.7551 -0.8071  3.0064
 3310SOL     OW21565   0.850   2.063   0.573  0.7158  0.1963  0.0505
 3310SOL    HW121566   0.919   2.015   0.526  3.1278  0.8128  2.9490
 3310SOL    HW221567   0.777   2.020   0.528  0.8094  0.2709 -0.1732
 3311SOL     OW21568   3.589   0.543  15.767 -0.2471  0.3803 -0.7532
 3311SOL    HW121569   3.572   0.631  15.798  3.1233  0.6078  0.4817
 3311SOL    HW221570   3.509   0.525  15.718 -0.7549 -3.6323  1.5064
 3312SOL     OW21571   4.575   1.453   3.712  0.2782 -0.1210 -0.5586
 3312SOL    HW121572   4.610   1.477   3.627  3.3349 -1.6069  0.2987
 3312SOL    HW221573   4.484   1.482   3.709  0.5676  0.7698 -0.6979
 3313SOL     OW21574   4.710   3.272   7.401 -0.0134  0.2912  0.1882
 3313SOL    HW121575   4.730   3.328   7.476 -0.7396  1.3095 -0.3741
 3313SOL    HW221576   4.730   3.184   7.433 -1.0643 -0.1670 -0.4078
 3314SOL     OW21577   0.884   4.442   3.740 -0.0867  0.0289  0.3772
 3314SOL    HW121578   0.861   4.385   3.813  2.4652 -0.0946  1.0765
 3314SOL    HW221579   0.797   4.465   3.708 -0.3989 -1.7392 -0.0524
 3315SOL     OW21580   1.905   1.740   3.553  0.3391 -1.0194  0.0041
 3315SOL    HW121581   1.954   1.820   3.533 -3.0808  0.9328 -0.5088
 3315SOL    HW221582   1.941   1.673   3.494 -0.5470  1.0260 -2.8806
 3316SOL     OW21583   2.594   0.203   8.267 -0.5496 -0.0647 -0.1662
 3316SOL    HW121584   2.525   0.265   8.293  0.3658  0.2804  1.4232
 3316SOL    HW221585   2.574   0.129   8.324 -0.1239 -0.4229 -0.4813
 3317SOL     OW21586   0.802   1.441  14.438 -0.4921 -0.2865  0.3709
 3317SOL    HW121587   0.791   1.488  14.355  0.8926 -0.0576  0.3106
 3317SOL    HW221588   0.881   1.482  14.472 -0.4733 -1.1613  1.3999
 3318SOL     OW21589   3.859   3.769   4.240 -0.0654 -1.2260  0.0994
 3318SOL    HW121590   3.792   3.708   4.270 -0.8082 -0.4279  0.0712
 3318SOL    HW221591   3.896   3.795   4.325 -0.9024  0.1392  0.0493
 3319SOL     OW21592   3.412   0.509  15.409 -0.1045 -0.9203 -0.2768
 3319SOL    HW121593   3.419   0.452  15.486 -1.3958 -0.2613  0.3240
 3319SOL    HW221594   3.504   0.509  15.381 -0.3449  2.3478 -1.1053
 3320SOL     OW21595   2.163   4.305  16.274  0.5238  0.1510 -1.0984
 3320SOL    HW121596   2.104   4.233  16.249 -0.9079  0.0268  2.4862
 3320SOL    HW221597   2.241   4.258  16.304  1.5487  1.9069 -1.0567
 3321SOL     OW21598   4.193   4.346  13.228  0.3931 -0.3060  0.1072
 3321SOL    HW121599   4.108   4.389  13.235 -0.1657 -1.0208 -2.3105
 3321SOL    HW221600   4.249   4.407  13.179  1.5506 -2.1590 -0.8818
 3322SOL     OW21601   4.125   2.517   1.132  0.0288 -0.0795  0.3754
 3322SOL    HW121602   4.173   2.457   1.076 -0.5799 -1.2073  1.0428
 3322SOL    HW221603   4.096   2.464   1.207 -0.8018 -1.5490 -0.9959
 3323SOL     OW21604   0.216   1.863  13.824  0.2283 -0.0913 -0.5641
 3323SOL    HW121605   0.286   1.854  13.889  1.1574  0.6414 -1.4660
 3323SOL    HW221606   0.260   1.901  13.748  0.6437 -0.8138 -0.6910
 3324SOL     OW21607   1.893   1.221  10.781 -0.1269  0.0997 -0.0274
 3324SOL    HW121608   1.824   1.191  10.721  0.5144  3.3791 -2.3926
 3324SOL    HW221609   1.933   1.289  10.727 -1.1629 -1.0259 -2.2115
 3325SOL     OW21610   3.369   3.572  10.656 -0.3668  0.5661  0.2937
 3325SOL    HW121611   3.341   3.663  10.653 -1.3345  0.3283  1.5596
 3325SOL    HW221612   3.463   3.588  10.654 -0.2774 -0.2499 -1.8649
 3326SOL     OW21613   3.870   3.289   3.687  0.2869 -0.5284 -0.7785
 3326SOL    HW121614   3.948   3.249   3.726  1.4334  2.2473 -0.2222
 3326SOL    HW221615   3.889   3.382   3.671  2.4238 -0.9004 -0.4135
 3327SOL     OW21616   4.659   2.901   5.008  0.8842 -0.2749  0.2865
 3327SOL    HW121617   4.577   2.855   4.993  0.7964 -0.0853  0.1866
 3327SOL    HW221618   4.708   2.838   5.061  0.5281  1.0122  2.1338
 3328SOL     OW21619   0.354   2.119  13.159 -0.2300 -0.2055  0.8610
 3328SOL    HW121620   0.260   2.125  13.145  0.0407  3.5292  0.5712
 3328SOL    HW221621   0.370   2.057  13.088  0.2817  1.5138 -0.5206
 3329SOL     OW21622   1.663   3.724   3.354  0.3499  0.3356 -0.5345
 3329SOL    HW121623   1.626   3.764   3.276 -1.0373 -0.2804 -0.1916
 3329SOL    HW221624   1.734   3.788   3.360 -0.6004  1.0940  2.5041
 3330SOL     OW21625   3.884   2.642  11.399  0.2683  0.2902  0.9020
 3330SOL    HW121626   3.829   2.708  11.443  1.5922 -0.7360  4.0592
 3330SOL    HW221627   3.958   2.689  11.361  0.3905  0.9563  1.9505
 3331SOL     OW21628   1.320   4.243  13.460 -0.0908 -0.2569 -0.4327
 3331SOL    HW121629   1.250   4.182  13.486  0.2772  0.3599  1.9878
 3331SOL    HW221630   1.309   4.309  13.528  1.1701 -1.3727  0.8539
 3332SOL     OW21631   0.316   3.208  16.810  0.8080 -0.1815  0.0328
 3332SOL    HW121632   0.391   3.238  16.759  0.1951  0.0131 -0.7625
 3332SOL    HW221633   0.250   3.184  16.745  1.6937  0.8533 -1.2247
 3333SOL     OW21634   2.375   0.237  16.816 -0.1635  0.0721  0.2584
 3333SOL    HW121635   2.295   0.208  16.861 -1.0628 -0.4400 -1.6951
 3333SOL    HW221636   2.394   0.323  16.854  1.7172  0.8451 -2.4976
 3334SOL     OW21637   4.703   0.194   2.541  0.3112  0.1195 -0.0103
 3334SOL    HW121638   4.635   0.138   2.504 -2.6883  3.6380  0.2997
 3334SOL    HW221639   0.042   0.148   2.510  0.1549 -0.7125  0.8292
 3335SOL     OW21640   1.050   4.188   7.306 -0.3358 -0.2450 -0.3975
 3335SOL    HW121641   1.007   4.199   7.221 -2.8312 -1.3644  0.6930
 3335SOL    HW221642   1.053   4.093   7.312  1.4993 -0.1283  0.6245
 3336SOL     OW21643   0.236   2.345   3.896  0.6832 -0.3812 -0.7677
 3336SOL    HW121644   0.323   2.371   3.865  0.2993  2.8767  0.8723
 3336SOL    HW221645   0.207   2.433   3.920  1.5838 -0.6090  1.2280
 3337SOL     OW21646   0.244   4.088   7.595  0.0748 -0.3093  0.1911
 3337SOL    HW121647   0.190   4.061   7.669 -0.9211  1.0710 -0.0220
 3337SOL    HW221648   0.214   4.032   7.523  2.8047 -0.8643 -0.4810
 3338SOL     OW21649   4.393   4.187   5.170  0.3231  0.2999  0.4382
 3338SOL    HW121650   4.401   4.101   5.127 -1.6640 -0.4706  1.6324
 3338SOL    HW221651   4.301   4.179   5.195  0.4805  1.3043  1.3266
 3339SOL     OW21652   2.005   0.377   8.069  0.3313 -0.5648  0.0920
 3339SOL    HW121653   2.058   0.394   7.991 -1.4987  0.8917 -0.8460
 3339SOL    HW221654   1.964   0.294   8.046 -0.2720 -0.6491  1.4431
 3340SOL     OW21655   0.276   1.765  16.760 -0.6713  0.4303  0.5264
 3340SOL    HW121656   0.268   1.705  16.686  0.9271  1.8408 -0.7942
 3340SOL    HW221657   0.220   1.724  16.826  1.9760 -0.2832  2.3086
 3341SOL     OW21658   4.499   4.016   8.460  0.0698  0.0457  0.3297
 3341SOL    HW121659   4.564   3.964   8.508  0.7326  1.5132  1.0091
 3341SOL    HW221660   4.447   4.037   8.538  1.3804  1.1139  0.9176
 3342SOL     OW21661   1.645   0.639  12.851 -0.5246 -0.3780 -0.2976
 3342SOL    HW121662   1.716   0.648  12.914 -0.8125  2.1248 -0.3490
 3342SOL    HW221663   1.623   0.731  12.845 -1.1649 -0.5522 -0.6047
 3343SOL     OW21664   2.988   1.816   4.799  0.3496  0.6399  0.4818
 3343SOL    HW121665   3.010   1.728   4.829 -1.7560 -0.4936 -1.3502
 3343SOL    HW221666   2.998   1.869   4.879  1.4548 -0.1529  0.8673
 3344SOL     OW21667   2.658   4.510   7.432  0.1935 -0.1224 -0.2104
 3344SOL    HW121668   2.600   4.549   7.367 -0.3071 -0.4395  0.0411
 3344SOL    HW221669   2.584   4.479   7.485 -1.1003  0.5144 -1.6469
 3345SOL     OW21670   1.814   0.725   5.893  0.2612 -0.1857  0.1611
 3345SOL    HW121671   1.728   0.688   5.910 -0.0293  1.0222  1.2686
 3345SOL    HW221672   1.858   0.640   5.903  0.1648 -0.2343  0.1671
 3346SOL     OW21673   3.347   2.130  15.038  0.5841  0.1869  0.1112
 3346SOL    HW121674   3.434   2.168  15.026 -0.5204  1.4875 -3.6439
 3346SOL    HW221675   3.307   2.211  15.070  0.1787  1.0865 -2.6862
 3347SOL     OW21676   3.449   2.719   5.190 -0.6509 -0.1439 -0.0451
 3347SOL    HW121677   3.520   2.780   5.208 -1.0637 -0.4297  2.4369
 3347SOL    HW221678   3.383   2.735   5.257 -1.7216 -0.8193 -0.9353
 3348SOL     OW21679   2.459   3.444   7.155 -0.6344 -0.0527  0.2124
 3348SOL    HW121680   2.482   3.396   7.076 -0.9579 -0.8954  0.6268
 3348SOL    HW221681   2.367   3.418   7.167 -1.1635  1.4222 -0.5663
 3349SOL     OW21682   3.785   2.818   1.000  0.8977 -0.1586  0.4227
 3349SOL    HW121683   3.742   2.732   0.995 -1.6700  1.1145  0.7469
 3349SOL    HW221684   3.867   2.793   1.042  1.1033 -1.9185 -1.0103
 3350SOL     OW21685   1.730   1.126   6.665 -0.6516 -0.3501 -0.5521
 3350SOL    HW121686   1.746   1.158   6.753 -0.6809 -0.8214 -0.3771
 3350SOL    HW221687   1.658   1.065   6.677 -1.9873  1.0410 -1.4109
 3351SOL     OW21688   2.192   0.754   8.176  0.2144 -0.3545 -0.2307
 3351SOL    HW121689   2.261   0.820   8.184 -0.9076  0.5586  2.0041
 3351SOL    HW221690   2.111   0.788   8.215  0.4777 -0.3548  0.3158
 3352SOL     OW21691   2.206   1.909   2.834 -0.3610 -0.2875  0.2827
 3352SOL    HW121692   2.199   1.853   2.756 -1.6723  0.6119 -0.2631
 3352SOL    HW221693   2.115   1.940   2.834 -0.1387  0.3715 -0.0397
 3353SOL     OW21694   1.210   3.111   4.087  0.8729  0.2121 -0.2158
 3353SOL    HW121695   1.291   3.157   4.065  0.8678 -1.1786 -3.2223
 3353SOL    HW221696   1.172   3.159   4.161 -1.5846 -2.1522  0.0641
 3354SOL     OW21697   1.391   0.912   7.034 -0.0191  0.1472 -0.2067
 3354SOL    HW121698   1.434   0.835   6.999  0.3241  0.1958  0.1095
 3354SOL    HW221699   1.460   0.976   7.016 -1.7550  1.4010 -2.4466
 3355SOL     OW21700   4.396   2.736   8.758  0.2404 -0.4762 -0.2893
 3355SOL    HW121701   4.423   2.755   8.847  0.7813 -0.3030 -0.4923
 3355SOL    HW221702   4.427   2.645   8.751  0.1953 -0.6418  1.8869
 3356SOL     OW21703   0.297   0.086   7.307  0.3166  0.1535  0.7852
 3356SOL    HW121704   0.315   4.731   7.301 -0.6920  0.0888 -1.1334
 3356SOL    HW221705   0.205   0.082   7.282  0.8588  1.4028 -1.3932
 3357SOL     OW21706   4.294   4.513   2.743  0.3523  0.1280 -0.3833
 3357SOL    HW121707   4.313   4.523   2.650  1.4055 -1.5046 -0.3397
 3357SOL    HW221708   4.333   4.593   2.777 -0.4907  0.6147 -0.5547
 3358SOL     OW21709   2.530   3.841   8.995  0.3876 -0.2778 -0.1876
 3358SOL    HW121710   2.497   3.911   9.052 -1.5472 -0.2202 -1.3734
 3358SOL    HW221711   2.470   3.771   9.020 -1.5658  0.7422 -2.0146
 3359SOL     OW21712   0.005   4.044   6.896 -0.0039  0.3752  0.2426
 3359SOL    HW121713   0.074   3.979   6.913  1.3468  1.8938  0.6424
 3359SOL    HW221714   0.054   4.094   6.831 -1.5041 -0.0928 -1.2188
 3360SOL     OW21715   0.830   0.641  12.918  0.6877 -0.5180 -0.5121
 3360SOL    HW121716   0.811   0.569  12.979  3.3401  0.0997  1.0455
 3360SOL    HW221717   0.873   0.697  12.983  0.5283 -1.1301  0.1285
 3361SOL     OW21718   4.350   3.123   2.345 -0.3381  0.1503 -0.2410
 3361SOL    HW121719   4.441   3.093   2.353 -0.7989 -1.4913 -1.2442
 3361SOL    HW221720   4.307   3.098   2.427 -1.0497  1.1927 -0.3089
 3362SOL     OW21721   3.327   3.326  16.659  0.3681 -0.2777  0.1782
 3362SOL    HW121722   3.321   3.421  16.671 -2.0250 -0.3296 -0.6696
 3362SOL    HW221723   3.417   3.310  16.628  0.9894 -0.7100  2.1811
 3363SOL     OW21724   3.673   4.429   7.800 -0.1525  0.0426 -0.4174
 3363SOL    HW121725   3.764   4.460   7.794  0.7332 -2.4702 -0.0926
 3363SOL    HW221726   3.685   4.352   7.745 -0.8800 -0.3009 -0.1013
 3364SOL     OW21727   0.799   2.392  13.518  0.3032  0.5882  0.0602
 3364SOL    HW121728   0.836   2.304  13.508 -0.1715  0.4065 -0.1103
 3364SOL    HW221729   0.708   2.371  13.498  1.0617 -4.4960  1.7859
 3365SOL     OW21730   4.332   4.504   4.488 -0.4059 -0.4799 -0.1242
 3365SOL    HW121731   4.356   4.455   4.567  0.7866  0.4214  0.0650
 3365SOL    HW221732   4.256   4.549   4.526 -0.4752 -1.6332  1.1315
 3366SOL     OW21733   3.672   0.383   1.924 -0.2991  0.5093 -0.3681
 3366SOL    HW121734   3.678   0.309   1.864  0.1133  1.9453 -2.0668
 3366SOL    HW221735   3.602   0.435   1.885 -1.6889 -0.3895  0.9085
 3367SOL     OW21736   1.167   1.743   0.269 -0.1639 -0.2547  0.1537
 3367SOL    HW121737   1.113   1.705   0.199  0.1159 -0.7315  0.1950
 3367SOL    HW221738   1.147   1.692   0.347  0.6960 -1.4386 -0.4023
 3368SOL     OW21739   0.722   1.824   9.133  0.5789  0.3172 -0.7392
 3368SOL    HW121740   0.779   1.872   9.193 -0.3379 -0.1615  0.5106
 3368SOL    HW221741   0.763   1.841   9.048 -1.8219  1.4226 -1.6652
 3369SOL     OW21742   3.405   0.222   7.649  0.1537 -0.6639  0.3206
 3369SOL    HW121743   3.487   0.174   7.636 -0.3342 -0.8824 -2.0526
 3369SOL    HW221744   3.345   0.148   7.641  2.3312 -2.4445  0.5119
 3370SOL     OW21745   1.417   0.583   1.584 -0.2660 -0.7341 -0.1111
 3370SOL    HW121746   1.386   0.529   1.511 -0.4157 -0.7711 -0.0198
 3370SOL    HW221747   1.498   0.536   1.605  0.7581  1.7937  1.5590
 3371SOL     OW21748   1.403   0.152  14.501  0.1411 -0.3637  0.1335
 3371SOL    HW121749   1.449   0.144  14.417 -1.7647  0.4241 -0.9841
 3371SOL    HW221750   1.339   0.218  14.474 -0.2787 -1.1927 -0.9075
 3372SOL     OW21751   3.571   4.574  16.432  0.4918 -0.4307 -0.0951
 3372SOL    HW121752   3.589   4.481  16.446 -0.5488 -0.7935 -1.1926
 3372SOL    HW221753   3.648   4.611  16.475 -0.0783  0.9448 -0.2789
 3373SOL     OW21754   4.570   0.047  12.912 -0.3219 -0.0306  0.2939
 3373SOL    HW121755   4.533   0.094  12.837 -1.2750  0.8827  1.3144
 3373SOL    HW221756   4.542   0.095  12.991  1.1546 -2.2285  2.1352
 3374SOL     OW21757   4.281   4.230  15.521  0.2458  0.3188  0.0674
 3374SOL    HW121758   4.289   4.293  15.449 -1.9244  0.1937 -0.2635
 3374SOL    HW221759   4.195   4.260  15.551 -0.2447 -0.9718 -0.0560
 3375SOL     OW21760   1.690   0.201   5.870  0.2178 -0.3329 -0.2304
 3375SOL    HW121761   1.667   0.231   5.957  1.6104 -2.3262  0.8339
 3375SOL    HW221762   1.622   0.135   5.859  0.0164 -0.1465 -0.0828
 3376SOL     OW21763   4.214   2.574  12.709 -0.2533 -0.2046  0.4580
 3376SOL    HW121764   4.287   2.636  12.709 -0.7743  0.4207 -3.0805
 3376SOL    HW221765   4.256   2.490  12.728 -0.1025 -0.1338  0.4369
 3377SOL     OW21766   0.682   2.047   7.700  0.1670 -0.1257 -0.1357
 3377SOL    HW121767   0.686   2.067   7.794  0.8178  0.1879 -0.2338
 3377SOL    HW221768   0.590   2.057   7.675  0.4385  1.8824 -0.3552
 3378SOL     OW21769   3.965   3.891  10.132  0.1332  0.0786  0.6113
 3378SOL    HW121770   3.880   3.868  10.093  1.1931 -0.7139 -1.2720
 3378SOL    HW221771   3.992   3.961  10.073 -1.0144 -1.6286 -1.9593
 3379SOL     OW21772   3.957   1.706   4.590 -0.2667 -0.2879  0.3628
 3379SOL    HW121773   4.011   1.784   4.572 -0.3372  0.4491  3.2121
 3379SOL    HW221774   3.916   1.731   4.673 -1.0782 -0.8868  0.1423
 3380SOL     OW21775   0.423   1.830  13.989  0.1951 -0.3381  0.1880
 3380SOL    HW121776   0.444   1.793  14.075 -0.7941  2.6206  1.7071
 3380SOL    HW221777   0.503   1.826  13.936  1.4338  0.8277  1.9846
 3381SOL     OW21778   3.511   2.598   9.433  0.7824  0.3938  0.2463
 3381SOL    HW121779   3.539   2.510   9.408  0.2730  0.3757 -0.2647
 3381SOL    HW221780   3.431   2.571   9.477 -0.4655  2.1877 -0.9118
 3382SOL     OW21781   3.436   4.438   7.584 -0.1574  0.1489  0.0830
 3382SOL    HW121782   3.529   4.458   7.594 -0.9800  3.9857  0.0693
 3382SOL    HW221783   3.434   4.375   7.513 -1.0127 -0.7051  0.8578
 3383SOL     OW21784   4.437   0.673   9.197  0.5856 -0.2957  0.1465
 3383SOL    HW121785   4.406   0.673   9.287  1.3031  2.0307  0.4084
 3383SOL    HW221786   4.357   0.709   9.156  0.1022  0.7189  1.9958
 3384SOL     OW21787   1.256   2.620   1.954 -0.4793 -0.3377  0.4411
 3384SOL    HW121788   1.188   2.560   1.922 -0.6808 -0.3683  0.9186
 3384SOL    HW221789   1.236   2.631   2.047 -1.1121  2.5515 -0.0287
 3385SOL     OW21790   1.881   0.872   8.611 -0.2215  0.2174 -0.6972
 3385SOL    HW121791   1.795   0.901   8.581 -0.9602 -0.1624  1.0489
 3385SOL    HW221792   1.900   0.935   8.681 -0.8385  0.8717 -1.1254
 3386SOL     OW21793   1.285   4.112   3.217 -0.3419 -1.0095 -0.2274
 3386SOL    HW121794   1.283   4.191   3.272 -1.0404  0.5475 -2.4990
 3386SOL    HW221795   1.206   4.115   3.163  0.2865 -1.1540 -1.1501
 3387SOL     OW21796   0.019   1.155  13.687 -0.0570 -0.1550 -0.1851
 3387SOL    HW121797   4.664   1.136  13.683  0.0565 -0.6112 -0.7013
 3387SOL    HW221798   0.024   1.247  13.711  0.1611 -0.2215  0.0218
 3388SOL     OW21799   2.553   0.599   4.284  0.0181 -0.2208  0.3587
 3388SOL    HW121800   2.535   0.678   4.334  0.0083 -0.8490  1.3413
 3388SOL    HW221801   2.648   0.594   4.285 -0.0302 -1.9892 -2.2376
 3389SOL     OW21802   4.352   3.552   3.338  0.4218 -0.2619  0.0802
 3389SOL    HW121803   4.383   3.569   3.250 -0.1585  2.0066  0.3007
 3389SOL    HW221804   4.258   3.544   3.319  0.5825  2.1802 -1.7402
 3390SOL     OW21805   2.279   3.844   3.024 -0.1307  0.0655  0.1888
 3390SOL    HW121806   2.253   3.897   3.099 -0.8874 -0.2166  0.1189
 3390SOL    HW221807   2.199   3.794   3.008 -0.2449  0.4821 -0.5358
 3391SOL     OW21808   3.975   1.503   7.571  0.5630 -0.0800  0.2114
 3391SOL    HW121809   3.988   1.558   7.648 -3.0020  0.6611  0.2799
 3391SOL    HW221810   4.068   1.480   7.578  0.5047 -0.5114 -0.3834
 3392SOL     OW21811   4.115   2.197   9.144  0.1016 -0.3864  0.6016
 3392SOL    HW121812   4.076   2.245   9.071  0.7211  0.5643  0.8856
 3392SOL    HW221813   4.051   2.127   9.143  0.4250 -0.6606 -0.7351
 3393SOL     OW21814   3.284   1.678  11.677  0.1435  0.1442  0.3489
 3393SOL    HW121815   3.282   1.587  11.706  0.2054 -0.0489 -0.2544
 3393SOL    HW221816   3.338   1.658  11.601 -0.5196 -0.8035  0.1271
 3394SOL     OW21817   1.205   1.567  13.087  0.4193  0.0706 -0.5864
 3394SOL    HW121818   1.241   1.630  13.149 -0.7940 -0.2588  0.4363
 3394SOL    HW221819   1.256   1.583  13.007  0.3314 -1.9904 -1.0736
 3395SOL     OW21820   0.403   4.600   1.182 -0.3289  0.1960 -0.0352
 3395SOL    HW121821   0.466   4.631   1.247 -1.8447  0.3948  1.3377
 3395SOL    HW221822   0.428   4.508   1.168 -1.7914 -0.1587 -0.3548
 3396SOL     OW21823   0.889   0.375   8.320  0.4529  0.3315 -0.0445
 3396SOL    HW121824   0.910   0.453   8.268 -0.6731  1.6875  1.5573
 3396SOL    HW221825   0.800   0.396   8.349  0.6017  0.1110  0.5504
 3397SOL     OW21826   4.475   0.019   7.766 -0.0492  0.6086 -0.1521
 3397SOL    HW121827   4.486   0.079   7.839 -0.7545  0.0093  0.4364
 3397SOL    HW221828   4.548   4.696   7.774 -0.5571  0.2152  1.2812
 3398SOL     OW21829   0.052   0.037  14.390  0.3662 -0.0399 -0.2387
 3398SOL    HW121830   0.081   4.692  14.426 -1.2453 -0.7497 -0.5809
 3398SOL    HW221831   4.715   0.007  14.341  1.1546  1.6149 -2.4735
 3399SOL     OW21832   0.647   0.964  17.747 -0.4729 -0.0322  0.5267
 3399SOL    HW121833   0.656   0.955  17.652  2.0886 -1.3621  0.8872
 3399SOL    HW221834   0.554   0.955   0.014 -0.2411  1.8349  2.3557
 3400SOL     OW21835   1.099   3.767   2.003 -0.3798  0.5017 -1.2790
 3400SOL    HW121836   1.166   3.772   2.071 -0.3223  1.2189 -1.3953
 3400SOL    HW221837   1.135   3.840   1.953 -1.4081  1.1939 -1.0118
 3401SOL     OW21838   2.985   1.659  13.403 -0.1347  0.0232 -0.1232
 3401SOL    HW121839   2.891   1.659  13.424 -0.3564 -1.5036 -1.1383
 3401SOL    HW221840   2.968   1.615  13.319  1.0428 -0.3503 -0.1639
 3402SOL     OW21841   4.083   0.326   6.074 -0.0616 -0.0793 -0.2914
 3402SOL    HW121842   4.024   0.312   6.148 -0.1257 -0.9451 -0.5087
 3402SOL    HW221843   4.009   0.315   6.014 -0.6699  0.7046  0.3001
 3403SOL     OW21844   3.587   0.052   0.407  0.3563  0.2311 -0.3343
 3403SOL    HW121845   3.553   0.140   0.426 -0.3785 -0.5869  2.1877
 3403SOL    HW221846   3.678   0.075   0.423  0.6822 -1.4323  0.1429
 3404SOL     OW21847   3.950   3.175   8.487  0.2616  0.0506 -0.3711
 3404SOL    HW121848   3.969   3.110   8.555  0.4933 -0.4722 -0.9439
 3404SOL    HW221849   3.881   3.136   8.433 -0.1900 -1.3599  1.2131
 3405SOL     OW21850   1.410   4.077   7.297 -0.4942 -0.1606 -0.7566
 3405SOL    HW121851   1.454   4.000   7.260  0.6610 -0.3788  1.0782
 3405SOL    HW221852   1.349   4.040   7.360  0.5267  1.5691  1.2375
 3406SOL     OW21853   1.548   3.600   8.574  0.3888  0.3493 -0.2334
 3406SOL    HW121854   1.571   3.518   8.617  0.9798 -0.5421 -2.2437
 3406SOL    HW221855   1.453   3.591   8.567  0.4800 -0.3385 -0.5839
 3407SOL     OW21856   3.330   2.411   8.872  0.0681 -0.4886  0.5815
 3407SOL    HW121857   3.258   2.474   8.863  1.1221  0.2571 -2.9383
 3407SOL    HW221858   3.343   2.372   8.785  0.4798 -0.2334  0.5270
 3408SOL     OW21859   2.636   1.728   4.182  0.4165 -0.2859 -0.4212
 3408SOL    HW121860   2.606   1.767   4.100  0.8279  1.6557  0.3428
 3408SOL    HW221861   2.727   1.702   4.169  0.0916 -1.8681  0.4092
 3409SOL     OW21862   1.564   4.624   9.647 -0.3664 -0.5545  0.3060
 3409SOL    HW121863   1.579   4.638   9.741 -2.0424 -0.5710  0.5839
 3409SOL    HW221864   1.470   4.641   9.647 -0.3028 -0.2823 -3.0961
 3410SOL     OW21865   1.656   1.444   2.903  0.0161 -0.2296  0.7105
 3410SOL    HW121866   1.751   1.443   2.895  0.1549  1.3261  2.2580
 3410SOL    HW221867   1.628   1.417   2.815  0.7881 -0.2888  0.4790
 3411SOL     OW21868   4.317   3.605   5.557  0.5893  0.0563 -0.5307
 3411SOL    HW121869   4.344   3.517   5.532  2.1965  0.7309 -1.1618
 3411SOL    HW221870   4.311   3.587   5.651  0.2588 -0.5354 -0.6690
 3412SOL     OW21871   2.705   3.510  12.905  0.3094 -0.1924  0.1167
 3412SOL    HW121872   2.794   3.483  12.884  0.3840  0.4494 -0.4053
 3412SOL    HW221873   2.712   3.604  12.888 -0.7107 -0.3663 -1.2655
 3413SOL     OW21874   3.971   4.489   1.755 -0.6033  0.5165 -0.2241
 3413SOL    HW121875   3.967   4.470   1.662 -0.0884 -2.1341  0.3049
 3413SOL    HW221876   3.923   4.572   1.760 -1.7946 -0.3298  3.0192
 3414SOL     OW21877   4.268   0.081   0.416  0.1205 -0.6316  0.4428
 3414SOL    HW121878   4.292   0.026   0.341  0.5305  1.3664 -0.8772
 3414SOL    HW221879   4.344   0.061   0.470  0.6801  2.4454  0.7739
 3415SOL     OW21880   2.820   3.596   6.186  0.1445 -0.2370  0.3890
 3415SOL    HW121881   2.877   3.669   6.162 -0.6739 -0.1541 -1.3009
 3415SOL    HW221882   2.836   3.548   6.106  1.2503  0.2982  0.2886
 3416SOL     OW21883   2.785   1.458   4.633 -0.6176  0.0329  0.2505
 3416SOL    HW121884   2.837   1.523   4.585  1.4526 -0.5244  1.7709
 3416SOL    HW221885   2.832   1.478   4.714 -0.4361  1.3947 -0.1765
 3417SOL     OW21886   1.061   3.552   6.514  0.9173 -0.4290  0.3996
 3417SOL    HW121887   1.061   3.465   6.473 -2.9966 -0.2141  0.0138
 3417SOL    HW221888   1.149   3.553   6.553 -0.2196 -1.5204  3.0328
 3418SOL     OW21889   1.143   4.093   2.581  0.6996 -0.1892 -0.1665
 3418SOL    HW121890   1.222   4.138   2.551  1.7201 -0.3255  2.2871
 3418SOL    HW221891   1.141   4.142   2.664 -2.1980  1.9816 -1.5047
 3419SOL     OW21892   0.805   2.626  16.764 -0.1116 -0.5963  0.8252
 3419SOL    HW121893   0.844   2.608  16.850 -1.8478 -2.1434  1.3071
 3419SOL    HW221894   0.774   2.716  16.777  0.8648 -0.3152  1.2278
 3420SOL     OW21895   2.600   2.546   1.579  0.4715  0.6985  0.2191
 3420SOL    HW121896   2.690   2.515   1.587  0.6214  1.3707  1.1901
 3420SOL    HW221897   2.605   2.621   1.520 -2.3318 -0.6014 -1.6444
 3421SOL     OW21898   0.348   0.637   1.570 -0.0281 -0.1352  0.8111
 3421SOL    HW121899   0.291   0.684   1.509  1.6166 -0.9705 -1.3611
 3421SOL    HW221900   0.281   0.575   1.598  1.0158 -1.5847  0.1222
 3422SOL     OW21901   3.789   2.033   0.390 -0.0266  0.4728 -0.3331
 3422SOL    HW121902   3.694   2.024   0.378 -0.2608  0.8549  1.2642
 3422SOL    HW221903   3.828   1.958   0.344  2.2603  0.2265  2.0119
 3423SOL     OW21904   0.954   3.309   0.546  0.0166 -0.0254 -0.3914
 3423SOL    HW121905   0.963   3.294   0.640  0.0458 -0.7240 -0.5037
 3423SOL    HW221906   0.928   3.224   0.511 -1.5862  0.3243 -0.0840
 3424SOL     OW21907   0.463   1.982  13.357 -1.0569  0.7971 -0.3410
 3424SOL    HW121908   0.517   1.936  13.292 -0.0422  0.9845  0.3738
 3424SOL    HW221909   0.427   2.044  13.293 -1.3846  0.2067 -0.7325
 3425SOL     OW21910   2.522   1.994   1.741  0.0927  0.3998  0.2940
 3425SOL    HW121911   2.504   2.072   1.689 -0.3769  2.0587  2.9500
 3425SOL    HW221912   2.557   2.039   1.818 -0.6339 -0.7778  1.3156
 3426SOL     OW21913   2.338   4.601  12.020  0.1330 -0.4162 -0.0803
 3426SOL    HW121914   2.401   4.606  12.092  1.3814  0.2539 -1.2069
 3426SOL    HW221915   2.343   4.510  11.992  1.0856 -0.4871  0.3144
 3427SOL     OW21916   2.142   1.703   6.662  0.5553  0.2033  0.5767
 3427SOL    HW121917   2.226   1.700   6.707  0.6084  3.9774  0.7677
 3427SOL    HW221918   2.145   1.613   6.630 -3.2779 -0.1207  1.1328
 3428SOL     OW21919   1.580   2.431   4.822 -0.6355  0.2494  0.0522
 3428SOL    HW121920   1.659   2.395   4.780 -1.2488 -0.1722 -0.7327
 3428SOL    HW221921   1.527   2.449   4.745 -1.2296 -0.0502  0.3952
 3429SOL     OW21922   1.833   1.811   8.614 -0.1556  0.3760 -0.3752
 3429SOL    HW121923   1.740   1.832   8.626 -0.3136 -2.1246  2.7190
 3429SOL    HW221924   1.850   1.866   8.538 -2.5134 -2.9645 -3.3142
 3430SOL     OW21925   1.132   4.619  12.987 -0.1879 -0.2048  0.1437
 3430SOL    HW121926   1.200   4.590  13.049 -0.7089 -1.2812  0.2167
 3430SOL    HW221927   1.112   4.532  12.953  0.2646 -0.2942  0.0953
 3431SOL     OW21928   1.881   3.463   4.144  0.4363 -0.0862  0.0390
 3431SOL    HW121929   1.837   3.488   4.063 -2.4339  0.6219  1.8269
 3431SOL    HW221930   1.804   3.451   4.199 -0.1640  2.6959 -0.2171
 3432SOL     OW21931   0.772   2.784  10.644  0.2959 -0.0271 -0.3108
 3432SOL    HW121932   0.742   2.870  10.615 -0.1013  1.8137  5.6638
 3432SOL    HW221933   0.731   2.760  10.727  2.5231  1.9639  1.3702
 3433SOL     OW21934   0.348   0.917   7.962  0.0487  0.1405  0.0387
 3433SOL    HW121935   0.356   1.005   7.999 -1.0280 -0.7030  2.2869
 3433SOL    HW221936   0.290   0.869   8.021 -0.3878  1.0056  0.3115
 3434SOL     OW21937   0.944   1.561  10.226 -0.1153  0.3233 -0.3616
 3434SOL    HW121938   0.985   1.513  10.297  0.4162  0.0411 -0.8618
 3434SOL    HW221939   1.020   1.571  10.169 -0.5868  3.4767 -0.4747
 3435SOL     OW21940   4.503   2.531   6.407  0.1028  0.0978  0.0735
 3435SOL    HW121941   4.497   2.572   6.493  0.4909 -3.8932  2.0164
 3435SOL    HW221942   4.427   2.473   6.411  1.3190 -1.6455 -1.8311
 3436SOL     OW21943   3.365   4.162   3.083 -0.0550  0.1795  0.0274
 3436SOL    HW121944   3.285   4.191   3.039  1.6263  3.2216 -0.9908
 3436SOL    HW221945   3.344   4.197   3.169 -1.2064 -0.7133  0.1009
 3437SOL     OW21946   0.153   2.650   1.793 -0.4063  0.8396  0.5000
 3437SOL    HW121947   0.160   2.605   1.709 -1.7390 -0.7143  1.2026
 3437SOL    HW221948   0.151   2.571   1.846  3.5224  1.7692  2.0164
 3438SOL     OW21949   4.207   2.596  14.004 -0.0756  0.7934 -0.2934
 3438SOL    HW121950   4.147   2.522  14.002  0.4836  0.3457 -0.3531
 3438SOL    HW221951   4.209   2.619  13.911  0.2063 -0.5708 -0.6185
 3439SOL     OW21952   2.333   3.254   9.364  0.2827  0.2866 -0.4757
 3439SOL    HW121953   2.241   3.239   9.383  0.0296  1.3349 -0.9058
 3439SOL    HW221954   2.360   3.218   9.448  0.2000 -1.1419 -1.0485
 3440SOL     OW21955   0.581   1.580   5.739  0.0654 -0.3706  0.8282
 3440SOL    HW121956   0.526   1.544   5.808 -1.5252 -1.3620 -0.9616
 3440SOL    HW221957   0.535   1.659   5.713 -1.5622 -0.6925  2.7261
 3441SOL     OW21958   2.314   2.677   7.981  0.3170  0.0887 -0.5524
 3441SOL    HW121959   2.399   2.715   7.960  0.4950 -0.0426 -0.0796
 3441SOL    HW221960   2.309   2.606   7.917 -0.4569 -0.1483 -0.2313
 3442SOL     OW21961   3.277   3.191   6.176 -0.0412 -0.3736 -0.1104
 3442SOL    HW121962   3.246   3.102   6.161 -0.9336  0.0684 -0.8664
 3442SOL    HW221963   3.300   3.187   6.269 -1.0545 -1.0381  0.1087
 3443SOL     OW21964   3.642   3.521  10.124 -0.6015 -0.2236 -0.0901
 3443SOL    HW121965   3.608   3.608  10.146 -1.3745 -0.7132  0.6465
 3443SOL    HW221966   3.718   3.544  10.071  0.4654  0.9008  1.8868
 3444SOL     OW21967   0.386   3.580   9.262  0.1478 -0.2543  0.2465
 3444SOL    HW121968   0.382   3.544   9.350 -1.8585  0.9120  0.6378
 3444SOL    HW221969   0.342   3.662   9.285  0.7048 -0.6452  2.6696
 3445SOL     OW21970   0.786   1.817  17.114  0.0120 -0.4339 -0.1027
 3445SOL    HW121971   0.756   1.829  17.024 -2.3998 -0.9871  0.6336
 3445SOL    HW221972   0.716   1.865  17.158  1.4532  0.8194  0.8038
 3446SOL     OW21973   2.898   3.614   7.216  0.3960  0.5969  0.0583
 3446SOL    HW121974   2.884   3.594   7.124 -0.0574 -2.0567  0.7191
 3446SOL    HW221975   2.806   3.617   7.241 -0.1306  0.7701 -1.9030
 3447SOL     OW21976   1.365   3.417   8.055 -0.3074 -0.1959 -0.4452
 3447SOL    HW121977   1.424   3.430   7.981 -0.2377 -1.5647 -0.6290
 3447SOL    HW221978   1.372   3.500   8.102  0.8238 -2.3762  3.2315
 3448SOL     OW21979   1.918   1.289   5.574 -0.2963 -0.3784 -0.1606
 3448SOL    HW121980   1.823   1.297   5.578 -0.3647 -0.1907 -2.1249
 3448SOL    HW221981   1.958   1.265   5.658 -0.4781 -0.5519 -0.1239
 3449SOL     OW21982   4.049   0.544  15.091  0.6967  0.0032 -0.5339
 3449SOL    HW121983   4.125   0.496  15.123 -1.3409 -1.7608  1.6318
 3449SOL    HW221984   3.997   0.480  15.042  1.5667 -0.7939 -0.4238
 3450SOL     OW21985   3.553   4.255   9.392  0.4193 -0.3143 -0.2549
 3450SOL    HW121986   3.612   4.197   9.440  0.9842 -0.1724 -0.7748
 3450SOL    HW221987   3.584   4.231   9.304  0.6629 -0.5207 -0.1121
 3451SOL     OW21988   4.261   3.332   3.673 -0.2017 -0.0480  0.1969
 3451SOL    HW121989   4.219   3.297   3.594  2.0707  0.0035 -1.0223
 3451SOL    HW221990   4.210   3.298   3.746 -1.3683 -0.2331 -0.7020
 3452SOL     OW21991   2.273   0.525   0.802 -0.4296 -0.5125 -0.3435
 3452SOL    HW121992   2.297   0.454   0.862  0.8196  0.4255  0.2933
 3452SOL    HW221993   2.358   0.569   0.794 -0.9237  0.0485 -2.3136
 3453SOL     OW21994   2.183   2.270   4.549  0.1758  0.3065 -0.2361
 3453SOL    HW121995   2.159   2.225   4.468 -1.0936  2.3375 -0.9860
 3453SOL    HW221996   2.277   2.273   4.533  0.3128  0.1532  0.5510
 3454SOL     OW21997   0.147   2.042   8.518  0.0248  0.1847  0.0854
 3454SOL    HW121998   0.153   2.136   8.536 -0.1206  0.1874  0.1185
 3454SOL    HW221999   0.174   2.033   8.427  1.2353 -0.9999  0.5680
 3455SOL     OW22000   0.795   0.242   4.004  0.4724 -0.0042 -0.8959
 3455SOL    HW122001   0.791   0.222   4.097 -3.8506  0.2370 -1.0111
 3455SOL    HW222002   0.703   0.232   3.981  0.3743  0.0630 -0.5342
 3456SOL     OW22003   0.354   3.842   0.896 -0.1360  0.0761 -0.8506
 3456SOL    HW122004   0.368   3.928   0.856  1.6779  0.6956  1.0822
 3456SOL    HW222005   0.392   3.849   0.983  0.0044 -1.2938 -0.8023
 3457SOL     OW22006   4.570   4.113  15.924 -0.2569  0.0682 -0.0033
 3457SOL    HW122007   4.557   4.202  15.892  0.1148 -0.3994 -1.4378
 3457SOL    HW222008   4.562   4.129  16.018  1.6133 -0.9771  0.3408
 3458SOL     OW22009   1.974   3.591   0.290 -0.2483  0.5176  0.2550
 3458SOL    HW122010   2.035   3.618   0.222 -0.3628 -3.3609 -1.3941
 3458SOL    HW222011   1.894   3.559   0.247 -0.7776 -0.4222  1.9420
 3459SOL     OW22012   4.695   2.612   4.188  0.5382 -0.1171 -0.1850
 3459SOL    HW122013   4.607   2.650   4.186  0.1594 -0.8800  1.9424
 3459SOL    HW222014   4.675   2.519   4.186  4.0797 -0.8575 -2.2107
 3460SOL     OW22015   0.276   1.175  17.681 -0.1522 -0.1018  0.4881
 3460SOL    HW122016   0.282   1.267  17.705  3.7505 -0.3539  0.4305
 3460SOL    HW222017   0.221   1.184  17.603 -2.5679 -0.3424  2.1771
 3461SOL     OW22018   4.403   2.917   6.990  0.7205 -0.5455 -0.4873
 3461SOL    HW122019   4.438   2.934   7.077  1.8548 -0.9717 -0.8577
 3461SOL    HW222020   4.309   2.920   7.006  1.0956  1.1786  1.3730
 3462SOL     OW22021   3.058   0.023   7.886 -0.4488  0.1635  0.4057
 3462SOL    HW122022   3.096   4.730   7.968 -0.8302  1.3757  1.0520
 3462SOL    HW222023   2.989   4.697   7.874 -1.7118  1.5598  0.0979
 3463SOL     OW22024   0.212   2.159   2.780  0.0243 -0.1794  0.4901
 3463SOL    HW122025   0.141   2.178   2.841 -2.3693 -1.2107 -1.9646
 3463SOL    HW222026   0.163   2.103   2.720 -0.0978  0.0627  0.3670
 3464SOL     OW22027   1.730   3.507   7.845 -0.8100  0.4189 -0.0488
 3464SOL    HW122028   1.640   3.480   7.864 -1.3797  0.4514 -2.6952
 3464SOL    HW222029   1.783   3.432   7.870 -1.9915  0.3228  2.2210
 3465SOL     OW22030   3.707   4.133   9.758 -0.2269  0.6273 -0.2488
 3465SOL    HW122031   3.767   4.207   9.766  1.4719 -0.7921  0.2111
 3465SOL    HW222032   3.722   4.119   9.664  1.5111  0.9185 -0.0136
 3466SOL     OW22033   2.966   3.851   8.474  0.1963  0.4975 -1.0274
 3466SOL    HW122034   2.985   3.778   8.415 -1.5672  0.5242 -1.6350
 3466SOL    HW222035   2.872   3.847   8.491  0.7519  1.0584  2.0968
 3467SOL     OW22036   0.736   1.835  16.418 -0.2881 -0.0517  0.5378
 3467SOL    HW122037   0.708   1.926  16.419  1.1584  0.4240 -2.0082
 3467SOL    HW222038   0.669   1.796  16.473 -1.6507 -0.5101 -1.4479
 3468SOL     OW22039   0.744   3.296   4.977  0.4044  0.1831  0.3029
 3468SOL    HW122040   0.826   3.323   4.938  1.0921 -0.0143  1.6043
 3468SOL    HW222041   0.693   3.285   4.896  0.2290  0.2617  0.4010
 3469SOL     OW22042   0.338   1.421   3.213 -1.0954  0.1041 -0.2103
 3469SOL    HW122043   0.343   1.444   3.306  2.7131  1.8940 -0.8805
 3469SOL    HW222044   0.381   1.338   3.231  0.2137  0.4522 -1.7135
 3470SOL     OW22045   2.122   4.447   8.452 -0.0351  0.1774  0.4027
 3470SOL    HW122046   2.114   4.388   8.377 -1.9328  1.7349 -0.6033
 3470SOL    HW222047   2.036   4.446   8.494 -0.5242 -0.1750 -0.6253
 3471SOL     OW22048   3.575   2.082  17.299  0.2478  0.0301  0.1240
 3471SOL    HW122049   3.652   2.046  17.343  1.4847  2.2236 -0.2558
 3471SOL    HW222050   3.614   2.120  17.221 -2.0371 -3.1278 -2.5696
 3472SOL     OW22051   4.371   3.987   7.237 -0.7372 -0.4015 -0.2160
 3472SOL    HW122052   4.411   3.986   7.150 -0.6722  3.5795 -0.2427
 3472SOL    HW222053   4.289   4.032   7.214 -0.8259 -0.4176  0.0713
 3473SOL     OW22054   0.996   1.789   4.192 -0.5532 -0.0501  0.0018
 3473SOL    HW122055   1.066   1.724   4.199  0.6224  1.2657  0.4790
 3473SOL    HW222056   0.940   1.759   4.264  1.3831 -1.2028  1.0263
 3474SOL     OW22057   4.409   4.255   4.180 -0.0175  0.5456  0.2453
 3474SOL    HW122058   4.416   4.249   4.275 -1.0122  1.6433  0.3892
 3474SOL    HW222059   4.406   4.165   4.146 -1.6440  1.2993 -1.6535
 3475SOL     OW22060   1.799   1.791   2.848  0.1758  1.1866 -0.3606
 3475SOL    HW122061   1.852   1.753   2.778 -0.3206 -0.4824  0.1678
 3475SOL    HW222062   1.735   1.723   2.866  0.9028  0.5733 -0.1085
 3476SOL     OW22063   3.355   2.766   0.765  0.0359 -0.3859  0.1160
 3476SOL    HW122064   3.366   2.769   0.860 -1.5562  0.3959  0.2844
 3476SOL    HW222065   3.441   2.731   0.740  0.0596 -0.9354  0.9820
 3477SOL     OW22066   1.488   3.301   2.098  0.0951  0.1296 -0.4616
 3477SOL    HW122067   1.511   3.208   2.097 -0.6348 -0.1052  2.9904
 3477SOL    HW222068   1.447   3.303   2.012 -0.1131  0.4184 -0.3562
 3478SOL     OW22069   0.659   4.553   4.055 -0.1386  0.3187  0.4592
 3478SOL    HW122070   0.651   4.572   4.149  0.8455  0.2736  0.5557
 3478SOL    HW222071   0.750   4.582   4.043  0.3920 -2.5186 -2.2205
 3479SOL     OW22072   2.789   1.454  11.130 -0.1290 -0.0196 -0.3742
 3479SOL    HW122073   2.714   1.507  11.103  0.7922  2.0395  1.1229
 3479SOL    HW222074   2.749   1.368  11.117  0.4997 -0.2623 -0.6996
 3480SOL     OW22075   1.605   2.944   8.278 -0.2969 -0.8073 -0.0337
 3480SOL    HW122076   1.671   2.875   8.279 -1.0113 -1.4943  0.0892
 3480SOL    HW222077   1.636   2.995   8.203  0.8218  2.0890  2.4041
 3481SOL     OW22078   4.349   3.956   7.956  0.3838 -0.3936 -0.5767
 3481SOL    HW122079   4.397   3.914   8.027 -1.2557  0.4959  1.0662
 3481SOL    HW222080   4.407   3.944   7.882  1.6549 -0.9126  0.5109
 3482SOL     OW22081   1.548   1.002   1.348  0.0007  0.0789 -0.5334
 3482SOL    HW122082   1.515   0.951   1.274 -0.9919  0.2333 -0.2094
 3482SOL    HW222083   1.489   0.955   1.407  3.4056 -2.7305  0.6326
 3483SOL     OW22084   0.648   2.242  12.010  0.3202  0.3004 -0.0339
 3483SOL    HW122085   0.596   2.316  11.982  0.2175 -0.4387 -1.7633
 3483SOL    HW222086   0.649   2.189  11.930 -0.5351  2.6588 -1.5860
 3484SOL     OW22087   0.118   0.842   4.407 -0.1212 -0.2053  0.1384
 3484SOL    HW122088   0.112   0.759   4.454  1.4189 -0.7011 -0.5798
 3484SOL    HW222089   0.027   0.843   4.376  0.1964 -0.4245 -0.7764
 3485SOL     OW22090   2.841   0.443   7.951  0.1619 -0.5780  0.2831
 3485SOL    HW122091   2.803   0.464   8.035 -0.1562  1.4541 -0.3725
 3485SOL    HW222092   2.928   0.475   7.975  0.4944 -0.1123 -1.4797
 3486SOL     OW22093   1.291   2.680   5.470  0.3912 -0.0948 -0.1390
 3486SOL    HW122094   1.214   2.623   5.461 -0.1870  0.3661  1.8221
 3486SOL    HW222095   1.311   2.673   5.377  1.0237  0.9392 -0.0775
 3487SOL     OW22096   1.114   0.720   2.084  0.5360  0.4065 -0.6264
 3487SOL    HW122097   1.190   0.692   2.033 -0.4508 -0.9668 -1.3129
 3487SOL    HW222098   1.083   0.800   2.042 -0.6656  0.3415  0.1243
 3488SOL     OW22099   3.240   0.324   3.171 -0.8835  0.2892 -0.6186
 3488SOL    HW122100   3.270   0.233   3.162 -0.2156  0.5857 -1.3788
 3488SOL    HW222101   3.260   0.334   3.264 -0.5646 -0.2154 -0.6280
 3489SOL     OW22102   3.857   0.391   0.959  0.4160  0.5253 -0.4587
 3489SOL    HW122103   3.839   0.322   0.895  3.6203 -0.4607 -0.2701
 3489SOL    HW222104   3.828   0.464   0.905 -0.1804 -0.8060 -1.9310
 3490SOL     OW22105   3.731   2.638   3.335 -0.4204 -1.2734 -0.5335
 3490SOL    HW122106   3.779   2.632   3.418  2.9467 -3.5902 -2.6641
 3490SOL    HW222107   3.645   2.663   3.370  0.7745  0.3489  1.2078
 3491SOL     OW22108   3.146   3.353   7.891  0.0011  0.1781  0.0069
 3491SOL    HW122109   3.142   3.436   7.844 -0.3936  1.0668  1.5948
 3491SOL    HW222110   3.057   3.357   7.927  0.7536  0.3052  1.8802
 3492SOL     OW22111   1.056   4.083   4.219  0.4534 -0.1184  0.1893
 3492SOL    HW122112   1.144   4.056   4.247  0.1500 -0.3922  0.8772
 3492SOL    HW222113   1.059   4.178   4.226  2.5174 -0.1208 -0.5950
 3493SOL     OW22114   4.645   3.655   8.272 -0.1803 -0.0951  0.0846
 3493SOL    HW122115   4.563   3.694   8.241 -0.8442 -2.3406 -1.0515
 3493SOL    HW222116   4.709   3.694   8.213 -0.5251 -1.0282 -0.9072
 3494SOL     OW22117   3.187   4.520  10.763 -0.2164 -0.1609  0.0654
 3494SOL    HW122118   3.092   4.505  10.763 -0.4072  1.0343  0.7248
 3494SOL    HW222119   3.201   4.531  10.857  0.6565  0.3332 -0.1281
 3495SOL     OW22120   0.029   1.599   7.627  0.4994  0.5804 -0.7522
 3495SOL    HW122121   0.094   1.584   7.558 -0.0478  4.2758 -2.0444
 3495SOL    HW222122   0.005   1.688   7.601  0.1095  0.6047 -0.3170
 3496SOL     OW22123   4.025   3.053   2.614 -0.7394 -0.8258  0.0855
 3496SOL    HW122124   3.995   3.111   2.545 -2.4369 -0.9006  0.7504
 3496SOL    HW222125   4.119   3.065   2.601 -0.7494 -1.3052 -0.4557
 3497SOL     OW22126   0.933   2.227   8.329  0.1755 -0.3013  0.2070
 3497SOL    HW122127   0.955   2.297   8.267 -0.3499 -1.1190 -0.9029
 3497SOL    HW222128   1.012   2.232   8.382 -1.0915 -1.0193  2.1808
 3498SOL     OW22129   2.127   4.466   2.753 -0.2548 -0.4322  0.0430
 3498SOL    HW122130   2.131   4.376   2.785 -1.9917  0.4213  2.6985
 3498SOL    HW222131   2.207   4.464   2.701 -0.1024  1.2908  0.1963
 3499SOL     OW22132   3.558   3.723   8.831 -0.4787  0.2467 -0.5998
 3499SOL    HW122133   3.480   3.669   8.848 -0.3631  0.4705  0.5966
 3499SOL    HW222134   3.529   3.757   8.746 -1.6298 -1.3543 -0.8630
 3500SOL     OW22135   1.749   4.210  10.485 -0.2352 -0.2237  0.1294
 3500SOL    HW122136   1.799   4.184  10.563  0.6282 -0.6222 -0.5472
 3500SOL    HW222137   1.790   4.292  10.459  0.8229 -1.2364 -1.3948
 3501SOL     OW22138   3.527   2.865   2.232 -0.0844 -0.2164  0.2579
 3501SOL    HW122139   3.537   2.778   2.195 -0.4386 -0.5358  0.9171
 3501SOL    HW222140   3.506   2.856   2.325  1.2139  1.0698  0.6771
 3502SOL     OW22141   3.089   2.388  11.206 -0.5382 -0.1078  0.0155
 3502SOL    HW122142   3.064   2.471  11.246  2.3999 -0.7354  3.1239
 3502SOL    HW222143   3.116   2.418  11.119 -1.0661 -0.7535 -0.3765
 3503SOL     OW22144   0.880   2.327   0.592  0.1467 -0.6570  0.1290
 3503SOL    HW122145   0.955   2.334   0.533 -1.4875  0.4693 -1.8316
 3503SOL    HW222146   0.879   2.231   0.587 -0.9636 -0.6589  0.4019
 3504SOL     OW22147   0.813   3.816   2.455 -0.2308 -0.4691 -0.3227
 3504SOL    HW122148   0.726   3.821   2.414 -0.5245  0.0850  0.3720
 3504SOL    HW222149   0.843   3.906   2.442 -0.0947 -0.2843  1.3154
 3505SOL     OW22150   1.116   2.946   1.921 -0.0319  0.1772 -0.1947
 3505SOL    HW122151   1.201   2.983   1.896 -0.8169  0.7026 -2.0618
 3505SOL    HW222152   1.048   2.967   1.857 -1.3096  0.1292  1.1730
 3506SOL     OW22153   2.985   2.296   8.241  0.4642 -0.3863  0.0606
 3506SOL    HW122154   3.015   2.226   8.182 -3.5102 -1.9785 -0.0695
 3506SOL    HW222155   2.995   2.245   8.321  2.0268 -2.4110 -1.4122
 3507SOL     OW22156   1.998   1.566  11.679  0.0264  0.5683 -0.6597
 3507SOL    HW122157   2.081   1.577  11.724 -0.8908  0.7953  0.9785
 3507SOL    HW222158   1.954   1.649  11.700 -2.7990 -1.3038  0.9042
 3508SOL     OW22159   4.527   2.557   7.934 -0.0884 -0.3110 -0.0316
 3508SOL    HW122160   4.545   2.570   8.027 -2.8523  1.2621  0.2481
 3508SOL    HW222161   4.433   2.545   7.946  0.2094 -0.6847  1.9490
 3509SOL     OW22162   3.205   1.940   6.926 -0.1624 -0.3849 -0.6994
 3509SOL    HW122163   3.211   1.902   6.838  0.7771 -1.0096 -0.3632
 3509SOL    HW222164   3.195   1.857   6.972 -0.6119 -0.0504 -0.1859
 3510SOL     OW22165   0.226   0.513   8.562 -0.1048 -0.0277  0.0031
 3510SOL    HW122166   0.293   0.445   8.561 -1.9342 -1.7977 -1.1575
 3510SOL    HW222167   0.215   0.536   8.654  1.2699  0.1264  0.1304
 3511SOL     OW22168   4.263   2.023   1.183 -0.0946  0.4655  0.1270
 3511SOL    HW122169   4.185   2.011   1.238  0.2090  2.0191  0.9041
 3511SOL    HW222170   4.311   2.099   1.217  2.0817 -0.5861 -0.5593
 3512SOL     OW22171   1.045   4.570   1.401 -0.1828 -0.1070 -0.0804
 3512SOL    HW122172   1.103   4.529   1.337  1.2253  1.1685  0.3690
 3512SOL    HW222173   0.976   4.599   1.340 -2.0396 -0.6197  1.7915
 3513SOL     OW22174   2.882   0.853   0.279 -0.0023 -0.5208 -0.1422
 3513SOL    HW122175   2.940   0.872   0.352  0.0686  0.3696 -0.4239
 3513SOL    HW222176   2.921   0.771   0.251 -1.4905 -0.9453 -1.0048
 3514SOL     OW22177   0.856   3.230   8.437  0.0221  0.8135  0.0958
 3514SOL    HW122178   0.892   3.272   8.359  2.7465  0.2702  1.0535
 3514SOL    HW222179   0.850   3.304   8.497 -1.3560  0.9985 -0.2825
 3515SOL     OW22180   3.197   2.860   1.503  0.4597 -0.2140  0.2411
 3515SOL    HW122181   3.227   2.931   1.560  1.2734 -1.3697  1.2559
 3515SOL    HW222182   3.202   2.897   1.415 -0.1495  0.3061  0.4201
 3516SOL     OW22183   4.439   2.152  10.165 -0.5218 -0.2154  0.0200
 3516SOL    HW122184   4.490   2.217  10.212  0.4578 -0.2937 -0.9423
 3516SOL    HW222185   4.509   2.088  10.155 -1.0493 -0.4724 -1.9863
 3517SOL     OW22186   3.563   3.179   6.290 -0.0639 -0.3176  0.2164
 3517SOL    HW122187   3.555   3.265   6.333 -2.4157 -1.3795  1.8820
 3517SOL    HW222188   3.567   3.205   6.198  0.8528  0.0710  0.3656
 3518SOL     OW22189   4.163   3.053   3.260  0.3291  0.1319 -0.4540
 3518SOL    HW122190   4.097   2.989   3.233  1.7666 -1.3528 -0.4546
 3518SOL    HW222191   4.236   3.000   3.291 -0.3422  0.3830  1.5539
 3519SOL     OW22192   2.125   1.564   0.841  0.3555  0.4938 -0.2028
 3519SOL    HW122193   2.157   1.545   0.753 -0.4699 -0.2538 -0.3446
 3519SOL    HW222194   2.200   1.611   0.876  1.4766  0.0769 -2.0331
 3520SOL     OW22195   3.777   1.163  16.379 -0.1145 -0.9654 -0.1254
 3520SOL    HW122196   3.732   1.220  16.316  0.9856 -2.3057 -2.1149
 3520SOL    HW222197   3.827   1.228  16.428 -2.1282 -1.9419  3.2917
 3521SOL     OW22198   1.253   0.115  17.409 -0.7258 -0.1656 -0.5881
 3521SOL    HW122199   1.220   0.130  17.320  1.0353  2.4765 -0.8040
 3521SOL    HW222200   1.178   0.136  17.464 -0.5191  0.0747 -0.3966
 3522SOL     OW22201   3.665   0.328   4.179 -0.5014  0.1463 -0.3840
 3522SOL    HW122202   3.722   0.377   4.119 -0.0184  0.8634  0.6475
 3522SOL    HW222203   3.702   0.365   4.260 -0.9422  1.0025 -0.5703
 3523SOL     OW22204   0.844   2.442  17.185 -0.3093 -0.3514  0.1518
 3523SOL    HW122205   0.887   2.488  17.112 -0.5126 -1.0545 -0.4106
 3523SOL    HW222206   0.855   2.512  17.249 -2.9553 -0.2787  0.5212
 3524SOL     OW22207   1.517   0.184   2.762 -0.1005 -0.6973 -0.4395
 3524SOL    HW122208   1.462   0.260   2.781  1.7248  0.2355  1.0542
 3524SOL    HW222209   1.607   0.214   2.764 -0.2618 -0.0761 -2.7034
 3525SOL     OW22210   2.071   1.726   1.939 -0.2876  0.1188  0.1410
 3525SOL    HW122211   2.127   1.798   1.913  0.5965 -1.6621 -2.9248
 3525SOL    HW222212   2.015   1.773   2.000 -1.2573 -2.2581  1.1072
 3526SOL     OW22213   1.421   2.355   4.114  0.3532 -0.7062 -0.2308
 3526SOL    HW122214   1.390   2.266   4.102 -1.4650  0.1137 -1.6368
 3526SOL    HW222215   1.483   2.364   4.042  0.2652 -1.6008 -0.4076
 3527SOL     OW22216   1.383   1.283   4.701  0.2571  0.0612  0.4924
 3527SOL    HW122217   1.294   1.285   4.737 -0.4687  3.3007 -1.4748
 3527SOL    HW222218   1.372   1.216   4.632 -0.8555  0.8421 -0.0931
 3528SOL     OW22219   1.524   2.691   7.276  0.2865 -0.0672 -0.7487
 3528SOL    HW122220   1.475   2.694   7.193 -0.6651  1.2014 -0.1395
 3528SOL    HW222221   1.443   2.665   7.320 -0.1592  2.6500 -0.0175
 3529SOL     OW22222   3.549   2.030   3.728 -0.0201 -0.1784  0.1654
 3529SOL    HW122223   3.530   2.086   3.803  0.4927  0.6797 -0.3487
 3529SOL    HW222224   3.636   2.054   3.695  0.4787 -0.2523  1.4277
 3530SOL     OW22225   2.915   4.182   9.383  0.7566 -0.3651  0.0401
 3530SOL    HW122226   3.001   4.184   9.425  0.4132  1.4607  0.6479
 3530SOL    HW222227   2.921   4.264   9.333 -1.5010  0.9502  1.9204
 3531SOL     OW22228   2.400   4.660  15.006  0.1209 -0.5212  0.2547
 3531SOL    HW122229   2.428   4.676  14.915  3.1006  1.1011  1.4595
 3531SOL    HW222230   2.309   4.641  14.983 -0.1880  1.5333 -0.2117
 3532SOL     OW22231   1.221   4.494   2.305  0.3911  0.4814  0.1856
 3532SOL    HW122232   1.313   4.521   2.312  0.3240  0.6666  0.3608
 3532SOL    HW222233   1.196   4.511   2.215 -0.1461  1.5273  0.5306
 3533SOL     OW22234   2.038   1.841   8.175  0.8125  0.7078  0.1621
 3533SOL    HW122235   2.021   1.866   8.266  0.1637 -1.7795  0.7095
 3533SOL    HW222236   1.982   1.764   8.178  1.1471  0.4515 -0.1479
 3534SOL     OW22237   1.393   1.947   8.167 -0.1417 -0.1311 -0.3090
 3534SOL    HW122238   1.355   2.029   8.199  0.3371 -0.7218  1.8053
 3534SOL    HW222239   1.474   1.981   8.129  0.8720 -1.9232  0.2878
 3535SOL     OW22240   0.165   1.711   8.301  0.2846  0.4264 -0.1526
 3535SOL    HW122241   0.247   1.757   8.320  0.0524  0.7711  0.0021
 3535SOL    HW222242   0.092   1.770   8.319  0.4963 -0.1554  2.7111
 3536SOL     OW22243   3.321   4.085  17.176 -0.9504  0.6664  0.1787
 3536SOL    HW122244   3.306   3.992  17.193  2.4022  0.5519  2.6909
 3536SOL    HW222245   3.300   4.114  17.265  1.2745  0.9493  0.6113
 3537SOL     OW22246   0.793   2.251   9.567 -0.3576  0.1961  0.2866
 3537SOL    HW122247   0.728   2.190   9.601 -2.4330  1.0371 -2.2100
 3537SOL    HW222248   0.749   2.336   9.574 -0.5544  0.0409  1.0318
 3538SOL     OW22249   4.152   2.070   0.233 -0.1699 -0.2037  0.1021
 3538SOL    HW122250   4.165   2.052   0.326 -1.0295  2.4604  0.7430
 3538SOL    HW222251   4.162   1.989   0.183  2.8118  0.7455 -0.8115
 3539SOL     OW22252   3.424   3.373   5.542 -0.2543 -0.4606  0.5023
 3539SOL    HW122253   3.330   3.363   5.559  0.5195  2.3075  6.3314
 3539SOL    HW222254   3.448   3.430   5.614  0.3601 -0.0650 -0.0136
 3540SOL     OW22255   3.881   4.510   3.758  0.2483  0.8141 -0.1970
 3540SOL    HW122256   3.972   4.484   3.749 -0.7279 -2.7183 -0.0121
 3540SOL    HW222257   3.834   4.428   3.739  0.5177  0.4066  0.9055
 3541SOL     OW22258   2.451   2.860  16.609 -0.8536  0.6932 -0.1874
 3541SOL    HW122259   2.546   2.858  16.603 -0.6586  0.6376  2.6800
 3541SOL    HW222260   2.409   2.855  16.523 -0.9659  0.0870 -0.0951
 3542SOL     OW22261   3.112   0.954  17.736  0.0890  0.0907 -0.1190
 3542SOL    HW122262   3.117   0.994  17.650  2.3988 -0.5313 -0.2602
 3542SOL    HW222263   3.022   0.974   0.010  0.4291  2.1315 -0.5158
 3543SOL     OW22264   0.755   3.195  16.872  0.0652 -0.4409 -0.2736
 3543SOL    HW122265   0.745   3.290  16.869 -1.8049 -0.6607 -1.3547
 3543SOL    HW222266   0.837   3.177  16.826  0.4511 -0.1568  0.3034
 3544SOL     OW22267   0.342   1.543   1.807  0.0251 -0.2412  0.3227
 3544SOL    HW122268   0.282   1.579   1.873 -0.0546  0.2938 -0.0405
 3544SOL    HW222269   0.299   1.459   1.791 -1.3363  0.8797 -1.8996
 3545SOL     OW22270   0.132   3.628   5.336 -0.0703 -0.0146 -0.2145
 3545SOL    HW122271   0.114   3.634   5.430 -0.1475  2.7530 -0.4105
 3545SOL    HW222272   0.194   3.699   5.321  0.2680 -0.0787  0.8718
 3546SOL     OW22273   3.679   0.353   5.078 -0.2748 -0.0300 -0.1111
 3546SOL    HW122274   3.693   0.426   5.018  1.9795  0.7542  1.3838
 3546SOL    HW222275   3.732   0.370   5.156 -0.3566  2.0510 -0.5179
 3547SOL     OW22276   3.332   1.551   6.446 -0.3516 -0.4070 -0.4449
 3547SOL    HW122277   3.409   1.608   6.443 -1.5566  1.2037 -0.9171
 3547SOL    HW222278   3.363   1.480   6.502  1.4135  1.2336  0.6455
 3548SOL     OW22279   2.547   3.762   4.683  0.8114  0.0608  0.0720
 3548SOL    HW122280   2.491   3.836   4.659  0.3443 -0.6930 -1.1710
 3548SOL    HW222281   2.627   3.807   4.713  0.5577  0.7984 -0.3489
 3549SOL     OW22282   2.834   3.357   6.022 -0.0637 -0.1035 -0.5646
 3549SOL    HW122283   2.878   3.323   6.100 -1.0143  1.8110  0.7954
 3549SOL    HW222284   2.875   3.311   5.949  1.2296 -1.5006  1.0454
 3550SOL     OW22285   3.019   2.505   8.595  0.1634  0.0865 -0.3515
 3550SOL    HW122286   3.053   2.446   8.662 -1.4818  0.1642  0.5543
 3550SOL    HW222287   2.927   2.478   8.599  0.0503  0.3848 -0.9725
 3551SOL     OW22288   1.027   1.665   8.455  0.3784  0.1470 -0.1357
 3551SOL    HW122289   1.055   1.573   8.463 -0.7551 -0.0748  1.3168
 3551SOL    HW222290   1.104   1.719   8.465  0.2341  0.1685  0.8492
 3552SOL     OW22291   0.364   0.537   6.695  0.2273  0.2605  0.0522
 3552SOL    HW122292   0.397   0.564   6.609 -1.5703  2.1265 -0.0319
 3552SOL    HW222293   0.374   0.618   6.744 -2.8319  1.1828 -0.8363
 3553SOL     OW22294   2.336   0.484  10.210  0.6212 -0.6826 -0.1052
 3553SOL    HW122295   2.265   0.420  10.208  2.3267 -2.6047  0.0736
 3553SOL    HW222296   2.383   0.448  10.135 -0.8090 -1.1628 -0.7692
 3554SOL     OW22297   3.675   1.883   9.226  1.0584 -0.1109  0.0304
 3554SOL    HW122298   3.706   1.867   9.136  2.6779 -4.8403  1.4335
 3554SOL    HW222299   3.711   1.971   9.234  0.1172  0.5775 -3.1335
 3555SOL     OW22300   3.971   3.273   9.401 -0.4068 -0.4658 -0.3139
 3555SOL    HW122301   3.899   3.283   9.464 -1.2003 -0.1085 -1.2665
 3555SOL    HW222302   4.042   3.302   9.457  0.5633 -2.9096 -0.3026
 3556SOL     OW22303   3.307   2.149  11.081 -0.2368 -0.3090  0.4244
 3556SOL    HW122304   3.301   2.137  11.175  2.4528 -1.0072  0.5070
 3556SOL    HW222305   3.213   2.143  11.062 -0.4826  0.0092  1.6021
 3557SOL     OW22306   1.987   2.397   8.836  0.0003 -0.1669  0.1192
 3557SOL    HW122307   1.981   2.474   8.780 -1.3018  0.2522  0.8256
 3557SOL    HW222308   1.985   2.322   8.776 -1.5724 -0.2212  0.2413
 3558SOL     OW22309   4.529   1.325   6.246 -0.5009 -0.4574 -0.2384
 3558SOL    HW122310   4.553   1.247   6.295 -0.8430 -0.0045  0.6442
 3558SOL    HW222311   4.493   1.291   6.164  2.2957 -1.6348 -0.9794
 3559SOL     OW22312   2.359   3.713   8.323 -0.1375  0.5507  1.1558
 3559SOL    HW122313   2.343   3.639   8.264 -0.8792  1.6022  0.0514
 3559SOL    HW222314   2.410   3.770   8.266 -1.9243  2.5548  1.5894
 3560SOL     OW22315   2.390   3.262   8.481  0.3048  0.2767 -0.4736
 3560SOL    HW122316   2.480   3.267   8.449  0.9854  1.8781  1.6272
 3560SOL    HW222317   2.380   3.355   8.499 -1.8885 -0.0951  0.1610
 3561SOL     OW22318   0.526   2.667  13.368  0.4361 -0.1587 -0.0901
 3561SOL    HW122319   0.540   2.680  13.461  0.0863 -1.0182  0.0815
 3561SOL    HW222320   0.449   2.610  13.369  0.3517 -0.0205  1.4913
 3562SOL     OW22321   1.093   1.845   7.458 -0.1436 -0.0954 -0.4275
 3562SOL    HW122322   1.072   1.753   7.442 -1.8776  0.0944  0.7749
 3562SOL    HW222323   1.032   1.885   7.397  0.6517  1.5569 -0.1348
 3563SOL     OW22324   3.739   3.835   9.491  0.1951 -0.2445 -0.6650
 3563SOL    HW122325   3.751   3.926   9.461 -1.3536 -0.2664 -1.3684
 3563SOL    HW222326   3.651   3.812   9.461  0.4863  1.0254 -2.4666
 3564SOL     OW22327   0.986   2.757   2.083 -0.4402  0.5831  0.1802
 3564SOL    HW122328   0.974   2.727   1.993  2.2902 -1.8668  0.6460
 3564SOL    HW222329   1.040   2.833   2.064  0.7751 -0.2755  0.2161
 3565SOL     OW22330   3.178   1.251  17.115  0.0009  0.1978  0.6607
 3565SOL    HW122331   3.105   1.313  17.116 -1.5316 -1.6250  0.3977
 3565SOL    HW222332   3.247   1.314  17.139  0.2621 -0.4302  1.5593
 3566SOL     OW22333   4.479   0.699   4.105 -0.2193  0.1443  0.1066
 3566SOL    HW122334   4.554   0.664   4.057  0.8185  0.1424  1.7230
 3566SOL    HW222335   4.417   0.630   4.080 -0.1872 -0.6046  2.0548
 3567SOL     OW22336   4.458   2.912   8.550 -0.1132 -0.6717  0.3228
 3567SOL    HW122337   4.435   2.857   8.625 -2.6868  0.2973  0.2346
 3567SOL    HW222338   4.517   2.861   8.495 -0.4490  2.7201 -3.1777
 3568SOL     OW22339   0.807   3.525  11.340 -0.3561  0.0206  0.2048
 3568SOL    HW122340   0.889   3.556  11.300 -0.6031  0.5811  0.1261
 3568SOL    HW222341   0.811   3.430  11.331  0.2753  0.0144  0.5944
 3569SOL     OW22342   2.924   2.519   7.514  0.0619  0.7321 -0.6393
 3569SOL    HW122343   3.013   2.550   7.532  0.4737 -0.9368  0.1938
 3569SOL    HW222344   2.944   2.429   7.539 -0.6912  0.5340 -0.7565
 3570SOL     OW22345   3.437   2.840   4.796  0.4133  0.4569  0.1010
 3570SOL    HW122346   3.373   2.826   4.726 -1.4606  0.6888  1.7633
 3570SOL    HW222347   3.381   2.866   4.869 -1.5773 -0.1271 -1.2336
 3571SOL     OW22348   2.408   2.567  10.973  0.0905 -0.0170  0.0621
 3571SOL    HW122349   2.429   2.623  10.898  3.9304  1.6577  2.4218
 3571SOL    HW222350   2.488   2.518  10.989  0.5736  1.3371  1.8060
 3572SOL     OW22351   0.328   4.270   4.152  0.4327 -0.2291 -0.0768
 3572SOL    HW122352   0.355   4.181   4.128 -2.1824 -0.6990 -1.2388
 3572SOL    HW222353   0.400   4.280   4.215  1.6419 -3.2675 -0.9699
 3573SOL     OW22354   4.533   2.251   7.895 -0.6993 -0.2740  0.5660
 3573SOL    HW122355   4.489   2.335   7.879 -0.4799 -0.4163 -0.7828
 3573SOL    HW222356   4.470   2.214   7.956 -0.8964 -0.9622 -0.0604
 3574SOL     OW22357   3.379   3.473   3.416 -0.1230  0.1144  0.9946
 3574SOL    HW122358   3.349   3.559   3.386  0.6269 -1.0687 -3.1455
 3574SOL    HW222359   3.413   3.484   3.504 -0.5714  0.8489  1.0790
 3575SOL     OW22360   1.754   4.591   7.033 -0.2483 -0.2660 -0.4112
 3575SOL    HW122361   1.772   4.564   7.123 -2.3427 -0.3343 -0.0100
 3575SOL    HW222362   1.839   4.568   6.993  0.2489 -0.3631  0.7114
 3576SOL     OW22363   2.670   0.839   6.573  0.1078  0.0559 -0.3095
 3576SOL    HW122364   2.659   0.748   6.547  3.2039 -0.7316  1.0477
 3576SOL    HW222365   2.598   0.881   6.527  0.2660 -0.7063 -1.2380
 3577SOL     OW22366   2.626   1.155   0.959 -0.1636 -0.2428 -0.8278
 3577SOL    HW122367   2.552   1.212   0.983  2.3011  2.4317  0.4208
 3577SOL    HW222368   2.684   1.175   1.032 -0.9441  0.9680 -0.5456
 3578SOL     OW22369   4.558   3.819   3.735 -0.1592  0.3284  0.4415
 3578SOL    HW122370   4.487   3.883   3.734  0.0428  0.4801 -2.7380
 3578SOL    HW222371   4.545   3.773   3.819 -0.1156 -0.7067 -0.1150
 3579SOL     OW22372   3.960   2.452   2.472  0.4979 -0.3087  0.2146
 3579SOL    HW122373   3.885   2.425   2.525  0.2155  0.0573  0.0041
 3579SOL    HW222374   4.030   2.433   2.533  0.8889  3.4627  0.9520
 3580SOL     OW22375   0.864   0.844  11.416  0.1798  0.2159  0.1109
 3580SOL    HW122376   0.893   0.753  11.411  1.2122  0.5406  0.1474
 3580SOL    HW222377   0.853   0.862  11.323  0.7721 -0.4546 -0.0885
 3581SOL     OW22378   3.717   1.751  13.319 -0.2326  0.6453  0.4268
 3581SOL    HW122379   3.807   1.776  13.297 -0.3404 -0.1226 -0.8786
 3581SOL    HW222380   3.666   1.798  13.254  1.7413 -0.3093 -1.7846
 3582SOL     OW22381   2.807   1.480   1.024 -0.2086 -0.3783  0.4482
 3582SOL    HW122382   2.753   1.467   1.102  0.6911  1.9023  1.4662
 3582SOL    HW222383   2.763   1.545   0.968 -0.1738 -0.0360  0.8163
 3583SOL     OW22384   2.927   3.979   6.049 -0.0307 -0.1371  0.4214
 3583SOL    HW122385   2.866   4.023   6.110 -0.9416  0.5855 -1.0002
 3583SOL    HW222386   3.008   4.028   6.060 -0.1946  0.6984 -2.1440
 3584SOL     OW22387   2.895   3.520  14.328 -0.2420  0.0874  0.4865
 3584SOL    HW122388   2.804   3.529  14.359 -0.1229  1.7895  0.3731
 3584SOL    HW222389   2.885   3.482  14.241  2.1694 -0.3041  0.3909
 3585SOL     OW22390   1.283   3.046  14.108  0.0360 -0.7590 -0.0163
 3585SOL    HW122391   1.328   3.000  14.037 -0.7359 -0.8528 -0.4355
 3585SOL    HW222392   1.217   2.981  14.131 -2.3327  2.6367  2.6483
 3586SOL     OW22393   1.302   2.972   3.114  0.1672  0.2620  0.3041
 3586SOL    HW122394   1.309   3.068   3.120  0.4828  0.2937 -0.5518
 3586SOL    HW222395   1.393   2.943   3.122  0.2271  0.2908 -0.2542
 3587SOL     OW22396   1.048   2.147   9.593 -0.1662 -0.3013  0.2541
 3587SOL    HW122397   1.103   2.162   9.516  0.2194 -1.2028  0.3548
 3587SOL    HW222398   0.965   2.188   9.569 -0.2995 -1.4708 -1.2886
 3588SOL     OW22399   4.713   4.327   9.258  0.0657  0.2018  0.3554
 3588SOL    HW122400   4.631   4.291   9.226 -0.2455  1.7897 -0.6510
 3588SOL    HW222401   4.680   4.387   9.326 -0.2206 -0.2826  0.6480
 3589SOL     OW22402   0.307   2.833   7.142 -0.8293  0.2047 -0.3139
 3589SOL    HW122403   0.324   2.927   7.129  0.3400  0.0091 -0.1743
 3589SOL    HW222404   0.398   2.816   7.168 -0.4662 -1.5764 -2.7857
 3590SOL     OW22405   1.664   1.225   2.668  0.4753  0.3804  0.2541
 3590SOL    HW122406   1.570   1.212   2.660  0.6110 -0.6069  0.3073
 3590SOL    HW222407   1.693   1.178   2.746  1.4094  0.5155 -0.0076
 3591SOL     OW22408   3.664   0.382   5.962 -0.3362 -0.4455  0.1062
 3591SOL    HW122409   3.599   0.450   5.948 -0.4480 -0.3995  0.8817
 3591SOL    HW222410   3.610   0.312   5.999  0.2492 -1.0406 -0.1603
 3592SOL     OW22411   3.505   2.915  16.021 -0.0257  0.5935 -0.3575
 3592SOL    HW122412   3.437   2.951  15.964  1.0439  1.2338 -1.2287
 3592SOL    HW222413   3.583   2.965  15.996  0.2301  0.4037  0.0663
 3593SOL     OW22414   3.096   3.881   8.839 -0.0572  0.0904 -0.0190
 3593SOL    HW122415   3.003   3.898   8.850  0.1925  1.1180  0.5067
 3593SOL    HW222416   3.114   3.929   8.758  0.4008  0.4347  0.2849
 3594SOL     OW22417   0.362   0.955   2.442  0.3542  0.3434 -0.4439
 3594SOL    HW122418   0.439   0.915   2.483  0.0359  0.5744  0.3771
 3594SOL    HW222419   0.306   0.878   2.449  0.9330  0.0719  1.0149
 3595SOL     OW22420   4.514   2.294   3.847  0.0016  0.0627 -0.3798
 3595SOL    HW122421   4.548   2.210   3.816  2.2606  1.2883 -1.1982
 3595SOL    HW222422   4.566   2.363   3.806 -2.4232  0.9594 -1.9642
 3596SOL     OW22423   3.449   2.186   3.967 -0.1424 -0.1563 -0.6636
 3596SOL    HW122424   3.446   2.245   3.892  0.6842 -1.7553 -1.9291
 3596SOL    HW222425   3.477   2.235   4.044  2.2439 -0.4356 -1.3739
 3597SOL     OW22426   0.495   0.424   1.487 -0.0589 -0.5295 -0.2535
 3597SOL    HW122427   0.493   0.431   1.392  0.4447 -1.9664 -0.3645
 3597SOL    HW222428   0.443   0.503   1.505  0.3487 -0.2398 -0.3430
 3598SOL     OW22429   0.384   2.973   3.852 -0.0637  0.1098 -0.0173
 3598SOL    HW122430   0.426   2.887   3.850 -2.2853 -0.9476 -1.9117
 3598SOL    HW222431   0.368   2.980   3.758  2.0943  1.9914 -0.2673
 3599SOL     OW22432   4.240   4.135   8.633 -0.7715  0.4176  0.3025
 3599SOL    HW122433   4.203   4.165   8.715 -2.9597 -0.5078 -0.3456
 3599SOL    HW222434   4.211   4.202   8.571 -0.9526  0.4817  0.4573
 3600SOL     OW22435   0.052   2.801   4.798 -0.0288  0.2248 -0.6573
 3600SOL    HW122436   4.702   2.790   4.766 -0.5043 -1.9563  1.3998
 3600SOL    HW222437   0.039   2.866   4.868 -0.2529 -0.9300  0.3786
 3601SOL     OW22438   3.145   0.582   8.491  0.1530 -0.9894  0.0577
 3601SOL    HW122439   3.230   0.599   8.452  0.4510  0.7298  1.4374
 3601SOL    HW222440   3.157   0.499   8.536 -1.3493 -0.3344  1.6976
 3602SOL     OW22441   0.899   0.044   4.781  0.1744  0.0725  0.4195
 3602SOL    HW122442   0.885   4.716   4.714  1.9157  0.8859 -0.7731
 3602SOL    HW222443   0.987   0.021   4.812  0.4289  1.3507  0.6428
 3603SOL     OW22444   2.141   2.570  10.784  0.3659  0.0280  0.6096
 3603SOL    HW122445   2.191   2.549  10.705 -1.8116 -1.7985 -0.2780
 3603SOL    HW222446   2.213   2.564  10.847  2.4965 -1.6311 -1.9837
 3604SOL     OW22447   1.762   1.706   5.124 -0.0244  0.4083 -0.1133
 3604SOL    HW122448   1.812   1.787   5.123 -0.0657  0.4519  2.0164
 3604SOL    HW222449   1.759   1.685   5.217 -0.4779  1.7768  0.1728
 3605SOL     OW22450   3.571   2.559   0.748  0.0045 -0.2094  0.3252
 3605SOL    HW122451   3.538   2.530   0.663  0.1448  0.4290  0.0620
 3605SOL    HW222452   3.656   2.516   0.759 -0.3371 -1.3909 -1.6663
 3606SOL     OW22453   4.668   3.518   4.071 -0.3306 -0.4495  0.1834
 3606SOL    HW122454   4.622   3.522   4.155  1.4125  0.0379  1.1075
 3606SOL    HW222455   0.002   3.468   4.105 -1.5303 -0.9706  1.9905
 3607SOL     OW22456   3.333   1.595   7.650 -0.0945  0.3144 -0.1872
 3607SOL    HW122457   3.428   1.587   7.639  0.0389 -1.1019  1.9873
 3607SOL    HW222458   3.318   1.688   7.663 -0.0995  0.0170  2.0306
 3608SOL     OW22459   0.635   2.083  12.845 -0.1496 -1.2097 -0.0944
 3608SOL    HW122460   0.607   2.150  12.783  1.9625 -0.1280  0.1407
 3608SOL    HW222461   0.652   2.128  12.927 -0.7153  0.5906 -0.9572
 3609SOL     OW22462   4.552   2.804   3.614  0.0897 -0.0014 -0.2579
 3609SOL    HW122463   4.589   2.837   3.696 -2.1044 -0.1074  0.7665
 3609SOL    HW222464   4.479   2.865   3.619 -0.9176 -1.2151 -0.1485
 3610SOL     OW22465   4.541   4.286  15.012  0.0899  0.3683  0.1747
 3610SOL    HW122466   4.504   4.242  15.088 -1.0847  1.0932  0.0300
 3610SOL    HW222467   4.456   4.310  14.976  0.5035  0.0823 -0.9921
 3611SOL     OW22468   4.685   1.061   5.507  0.0948 -0.4296 -0.7605
 3611SOL    HW122469   4.694   0.966   5.514  3.3043  0.1845  3.1468
 3611SOL    HW222470   0.034   1.091   5.529 -0.1894 -0.5519  0.5342
 3612SOL     OW22471   1.867   3.776   7.517  0.1749 -0.3687  0.7873
 3612SOL    HW122472   1.868   3.871   7.505 -1.5921 -0.4737 -0.1772
 3612SOL    HW222473   1.952   3.750   7.483  0.6438 -0.2900  1.8885
 3613SOL     OW22474   0.950   1.355  14.794  0.2242  0.1622 -0.1165
 3613SOL    HW122475   1.003   1.389  14.722 -1.1278 -0.2704 -1.3165
 3613SOL    HW222476   0.942   1.436  14.845  2.1454 -1.1624  2.2907
 3614SOL     OW22477   0.065   0.532   6.781  0.0755 -0.2729  0.0383
 3614SOL    HW122478   0.062   0.532   6.685 -1.0463 -2.3220  0.0749
 3614SOL    HW222479   0.155   0.502   6.786  0.1965  0.4303  1.9576
 3615SOL     OW22480   3.693   2.001   7.969  0.5303  0.2175  0.3870
 3615SOL    HW122481   3.717   1.910   7.987 -1.1946 -0.4630 -0.7231
 3615SOL    HW222482   3.629   2.016   8.039 -0.3409  1.1941 -0.6321
 3616SOL     OW22483   3.581   3.146   2.781 -0.6387 -0.1175 -0.4041
 3616SOL    HW122484   3.498   3.107   2.808 -0.3396 -0.8340 -0.5305
 3616SOL    HW222485   3.557   3.239   2.778 -1.1177 -0.1907  1.1400
 3617SOL     OW22486   2.202   0.630  15.076  0.2328  0.3908  0.5917
 3617SOL    HW122487   2.151   0.710  15.062  0.4019  0.8876  2.7824
 3617SOL    HW222488   2.137   0.561  15.085  1.3377 -0.3603  2.8103
 3618SOL     OW22489   1.922   0.943   2.798 -0.3367  0.6033  0.3262
 3618SOL    HW122490   1.999   0.939   2.854 -0.4921  2.6107  0.6874
 3618SOL    HW222491   1.909   1.037   2.814 -0.4949  0.7914 -0.9126
 3619SOL     OW22492   0.496   3.552   1.792  0.5278 -0.3356  0.0808
 3619SOL    HW122493   0.454   3.529   1.875  0.3355  0.6339  0.2538
 3619SOL    HW222494   0.536   3.469   1.766 -1.4172 -0.4366 -2.5559
 3620SOL     OW22495   0.693   2.005   8.546  0.3142  0.4238  0.4270
 3620SOL    HW122496   0.776   1.972   8.579  1.2237 -0.0180 -2.3154
 3620SOL    HW222497   0.691   1.966   8.458  0.6209  1.2600  0.0496
 3621SOL     OW22498   1.043   0.885   6.484 -0.6421  0.4929  0.1257
 3621SOL    HW122499   1.051   0.894   6.579 -1.2917  0.2010  0.2092
 3621SOL    HW222500   0.952   0.914   6.469  0.0140  1.8489 -1.2710
 3622SOL     OW22501   1.273   3.227   0.856 -0.3510  0.3820  0.5169
 3622SOL    HW122502   1.304   3.196   0.941  1.1445  0.2441 -0.0764
 3622SOL    HW222503   1.338   3.295   0.838 -1.8072  1.1377 -1.8344
 3623SOL     OW22504   0.132   3.551   9.154 -0.8939  0.3269  0.5655
 3623SOL    HW122505   0.227   3.557   9.162 -0.8699  2.0091 -0.8899
 3623SOL    HW222506   0.112   3.553   9.248  3.2281  2.0270  1.4134
 3624SOL     OW22507   0.269   3.383   5.310 -0.3398  0.4678 -0.5810
 3624SOL    HW122508   0.356   3.417   5.288 -0.3767  1.3088  0.5625
 3624SOL    HW222509   0.214   3.461   5.311 -0.5892  0.2780  2.3030
 3625SOL     OW22510   3.183   3.623   3.679 -0.0564  0.3375 -0.0821
 3625SOL    HW122511   3.253   3.643   3.616  0.6724  0.8618  0.9090
 3625SOL    HW222512   3.104   3.589   3.636 -0.1640 -0.4975  0.7965
 3626SOL     OW22513   2.869   1.304   7.601 -0.3114  0.1275 -0.2662
 3626SOL    HW122514   2.857   1.237   7.668  1.0000  1.3559  1.2107
 3626SOL    HW222515   2.952   1.282   7.560  0.7412  3.1557  0.2056
 3627SOL     OW22516   3.092   4.626   3.276  0.1736  0.2381  0.1572
 3627SOL    HW122517   3.050   4.582   3.202  0.6096  1.3280 -0.7527
 3627SOL    HW222518   3.102   4.555   3.339 -1.1887 -0.5507 -0.5205
 3628SOL     OW22519   1.979   4.353   5.467  0.6690 -0.0067 -0.6260
 3628SOL    HW122520   1.962   4.371   5.559 -1.0984 -3.6290 -0.2197
 3628SOL    HW222521   2.068   4.385   5.454  0.4149  0.5125 -1.1275
 3629SOL     OW22522   4.114   2.847   9.908 -0.1647  0.5872  0.0900
 3629SOL    HW122523   4.025   2.819   9.887  0.1427  0.1700 -0.6434
 3629SOL    HW222524   4.157   2.781   9.854 -0.1259  1.3224 -0.7945
 3630SOL     OW22525   1.344   3.964   7.905 -0.0215  0.6118 -0.2549
 3630SOL    HW122526   1.426   3.960   7.855  0.1230  1.1403 -0.0666
 3630SOL    HW222527   1.362   4.047   7.950  0.3085  0.0828  0.5930
 3631SOL     OW22528   1.083   2.983   5.976 -0.0721 -0.2637  0.4989
 3631SOL    HW122529   1.067   2.900   6.019  0.7492 -0.2571  0.8240
 3631SOL    HW222530   1.002   3.012   5.935  0.7958  1.3484 -0.0988
 3632SOL     OW22531   0.704   1.322   7.916 -0.4294  0.0032  0.6072
 3632SOL    HW122532   0.785   1.284   7.950  0.7097  1.9686  0.1248
 3632SOL    HW222533   0.640   1.271   7.966  1.8492 -2.6933  0.7663
 3633SOL     OW22534   0.679   3.665   3.664  0.1885 -0.2315 -0.1878
 3633SOL    HW122535   0.689   3.723   3.589 -2.6499  0.9446  0.3523
 3633SOL    HW222536   0.744   3.597   3.644  0.5315 -0.9753  3.3865
 3634SOL     OW22537   0.940   3.287  17.118 -0.3617 -0.1000  0.0884
 3634SOL    HW122538   0.918   3.235  17.041 -1.3475 -1.8867  1.5837
 3634SOL    HW222539   0.948   3.376  17.083  0.1917 -0.4561 -0.6857
 3635SOL     OW22540   3.674   1.802   1.643  0.3348 -0.5069 -0.4021
 3635SOL    HW122541   3.709   1.719   1.611  1.3085 -0.6139  0.9440
 3635SOL    HW222542   3.588   1.769   1.666  0.3532 -0.4833 -0.2992
 3636SOL     OW22543   1.652   0.382  12.749  0.5560 -0.5215 -0.4195
 3636SOL    HW122544   1.640   0.462  12.801  0.2858 -0.7027 -0.2040
 3636SOL    HW222545   1.739   0.355  12.780  0.6481  1.1307  0.7887
 3637SOL     OW22546   3.416   2.092   6.375  0.3035 -0.7115  0.4834
 3637SOL    HW122547   3.465   2.136   6.305  0.4674 -2.3360 -0.4130
 3637SOL    HW222548   3.396   2.013   6.325 -0.2882 -0.3843  0.1957
 3638SOL     OW22549   2.169   3.893  10.649 -0.0628  0.3705 -0.2418
 3638SOL    HW122550   2.076   3.874  10.636 -0.1565  1.1963 -0.7400
 3638SOL    HW222551   2.178   3.862  10.739 -1.4929  0.2514 -0.1410
 3639SOL     OW22552   1.374   0.242  12.332  0.1250 -0.2583 -0.3631
 3639SOL    HW122553   1.410   0.299  12.265  1.0061  2.7681  2.6884
 3639SOL    HW222554   1.394   0.285  12.415  3.1990 -1.7899 -0.3184
 3640SOL     OW22555   3.739   3.190  13.153  0.3993  0.5502 -0.3707
 3640SOL    HW122556   3.644   3.179  13.148  0.5602 -0.9269 -0.1006
 3640SOL    HW222557   3.748   3.251  13.080  0.8621 -0.7721 -1.4241
 3641SOL     OW22558   0.162   2.415   7.372  0.5237 -0.0753  0.5271
 3641SOL    HW122559   0.125   2.470   7.303  1.8225  1.4266  1.0280
 3641SOL    HW222560   0.226   2.369   7.318 -0.3830  0.1385 -0.7150
 3642SOL     OW22561   4.520   0.532  13.468  0.2993 -0.9142 -0.2439
 3642SOL    HW122562   4.478   0.571  13.545 -2.9007 -1.5654 -1.6624
 3642SOL    HW222563   4.573   0.461  13.505 -0.2136 -1.7164 -1.0592
 3643SOL     OW22564   4.653   1.203   8.984  0.1715 -0.1367 -0.0319
 3643SOL    HW122565   4.644   1.265   8.912  0.8268  0.1707  0.1557
 3643SOL    HW222566   0.006   1.180   8.992 -0.0522 -0.7213  0.8977
 3644SOL     OW22567   4.012   2.586   9.211 -0.3317  0.4877  0.1552
 3644SOL    HW122568   4.100   2.590   9.250 -0.9464 -1.0056  1.7047
 3644SOL    HW222569   4.029   2.557   9.122  1.1246  0.5796  0.3997
 3645SOL     OW22570   2.246   2.632   0.225 -0.2681 -0.2787  0.6044
 3645SOL    HW122571   2.199   2.596   0.150  1.4581 -1.0217 -0.1166
 3645SOL    HW222572   2.303   2.697   0.183  0.9560 -1.3173  0.6794
 3646SOL     OW22573   3.096   4.385   3.425 -0.0404  0.0633 -0.2420
 3646SOL    HW122574   3.006   4.354   3.436 -0.0286 -0.1056 -0.6277
 3646SOL    HW222575   3.145   4.376   3.506 -0.9972 -0.3054  0.2913
 3647SOL     OW22576   0.157   1.344   5.266 -0.2514  0.3650 -0.2422
 3647SOL    HW122577   0.169   1.436   5.240  0.2812 -0.2280 -2.0763
 3647SOL    HW222578   0.170   1.353   5.360 -1.3826  0.9019 -0.1389
 3648SOL     OW22579   0.213   3.740   7.790  0.4405 -0.6443 -0.5850
 3648SOL    HW122580   0.207   3.681   7.866  1.2169 -0.2246 -0.1935
 3648SOL    HW222581   0.287   3.796   7.813 -0.6869  0.9783 -0.9632
 3649SOL     OW22582   0.889   2.610  11.449 -0.2338  0.1453  0.2309
 3649SOL    HW122583   0.891   2.703  11.424 -1.8259  0.4343  1.2094
 3649SOL    HW222584   0.922   2.572  11.367  0.8773  0.9818  0.2937
 3650SOL     OW22585   0.363   2.547   7.166 -0.0155  0.3026 -0.2515
 3650SOL    HW122586   0.446   2.590   7.144 -1.4881  2.7683 -1.0028
 3650SOL    HW222587   0.308   2.625   7.168  0.0791  0.3905 -0.9892
 3651SOL     OW22588   1.805   1.411   1.407 -0.3357  0.6556  0.2434
 3651SOL    HW122589   1.879   1.429   1.349 -1.4366 -0.6442 -1.5778
 3651SOL    HW222590   1.839   1.335   1.453 -2.2589  0.9450  2.1395
 3652SOL     OW22591   1.003   3.545   3.833 -0.2656 -0.1044 -0.0683
 3652SOL    HW122592   1.045   3.493   3.764  1.7504 -0.9915  1.8580
 3652SOL    HW222593   0.971   3.475   3.889 -1.2579 -1.0186 -1.7835
 3653SOL     OW22594   0.071   3.013   5.361  0.2350 -0.1304 -0.2376
 3653SOL    HW122595   0.005   2.947   5.338  1.0748 -0.6949 -1.0223
 3653SOL    HW222596   0.057   3.079   5.293  3.3594 -0.4349 -1.1529
 3654SOL     OW22597   0.275   0.233   4.471 -0.3654  0.2119  0.2163
 3654SOL    HW122598   0.327   0.290   4.414  0.5026 -0.2028  0.5926
 3654SOL    HW222599   0.256   0.162   4.410 -1.7917 -0.5957  1.6296
 3655SOL     OW22600   1.106   3.207   2.096 -0.0126  0.2407  0.3135
 3655SOL    HW122601   1.165   3.135   2.071 -1.1012  0.3593 -2.6273
 3655SOL    HW222602   1.059   3.223   2.014 -0.1983 -1.2613  0.1183
 3656SOL     OW22603   3.583   3.163  10.413  0.7362  0.0814  0.2404
 3656SOL    HW122604   3.664   3.131  10.453 -0.7126  0.1247  3.2087
 3656SOL    HW222605   3.519   3.165  10.484  1.9778 -0.5462  1.3719
 3657SOL     OW22606   0.014   4.344   9.847  0.5330  0.4264 -0.0310
 3657SOL    HW122607   4.694   4.418   9.862 -0.1274 -0.6637  2.8053
 3657SOL    HW222608   0.094   4.398   9.850  0.5695  0.4488 -1.2930
 3658SOL     OW22609   1.192   3.333   7.455 -0.2149 -0.8213 -0.1760
 3658SOL    HW122610   1.214   3.341   7.547  1.0224 -2.3756 -0.3465
 3658SOL    HW222611   1.156   3.245   7.449 -0.6709 -0.5253 -1.8228
 3659SOL     OW22612   3.136   4.676   5.374  0.0305 -0.9414  0.6969
 3659SOL    HW122613   3.215   4.710   5.416  0.4844 -1.6508  0.4164
 3659SOL    HW222614   3.155   4.677   5.280 -1.1612  2.3328  0.4607
 3660SOL     OW22615   0.713   1.288  14.670 -0.5962  0.7037  0.7613
 3660SOL    HW122616   0.718   1.349  14.597  0.3361 -0.2691 -0.0012
 3660SOL    HW222617   0.798   1.306  14.710  0.1907 -0.5460 -0.3276
 3661SOL     OW22618   3.088   3.061  17.599  0.0257 -0.0364  0.2142
 3661SOL    HW122619   3.181   3.078  17.616 -0.5014  1.6827  1.3353
 3661SOL    HW222620   3.078   2.966  17.593 -2.5197  0.4774 -3.4725
 3662SOL     OW22621   1.445   3.230   6.975  0.0112  0.0725 -0.0187
 3662SOL    HW122622   1.496   3.151   6.959  1.9101  1.1593  0.6567
 3662SOL    HW222623   1.392   3.188   7.043  1.4859 -1.1307  0.3828
 3663SOL     OW22624   0.008   3.950   4.863  0.3385  0.6573 -0.4696
 3663SOL    HW122625   0.098   3.941   4.896  0.8371 -0.7210 -2.2423
 3663SOL    HW222626   0.012   4.032   4.815  0.2726  1.1763  0.4073
 3664SOL     OW22627   2.297   3.798  16.362 -0.1346  0.0516 -0.3364
 3664SOL    HW122628   2.319   3.705  16.358  0.6439  0.3117 -2.0942
 3664SOL    HW222629   2.222   3.796  16.421  0.6893 -0.4959  0.6922
 3665SOL     OW22630   3.021   3.165   7.194 -0.3097  0.5173 -0.4089
 3665SOL    HW122631   3.073   3.240   7.165  0.0783  1.0276  1.5997
 3665SOL    HW222632   2.938   3.202   7.224  1.2274  1.6307  2.4598
 3666SOL     OW22633   1.591   4.436  13.703 -0.4749  0.5202 -0.6213
 3666SOL    HW122634   1.613   4.499  13.771 -1.3101  1.0348 -0.8248
 3666SOL    HW222635   1.614   4.481  13.622  1.4435 -0.2249 -0.5069
 3667SOL     OW22636   1.282   2.725   7.608  0.0054  0.0175 -0.2393
 3667SOL    HW122637   1.216   2.731   7.677  0.4431 -0.9916  0.2694
 3667SOL    HW222638   1.354   2.703   7.667  0.1220 -0.9310 -0.7363
 3668SOL     OW22639   4.308   2.878   2.170 -0.5465 -0.3291 -0.0672
 3668SOL    HW122640   4.219   2.908   2.190 -0.6725 -0.2852 -0.6991
 3668SOL    HW222641   4.332   2.824   2.245 -0.5199 -2.6933 -1.7943
 3669SOL     OW22642   4.568   0.317   6.434  0.2401  0.6410  0.0754
 3669SOL    HW122643   4.501   0.359   6.380 -0.9510 -0.5792  0.5750
 3669SOL    HW222644   4.576   0.227   6.402  0.9998 -0.0714  2.2575
 3670SOL     OW22645   0.666   2.649   8.267 -0.2546 -0.2845  0.0578
 3670SOL    HW122646   0.755   2.618   8.286 -0.8785 -1.2584  1.3791
 3670SOL    HW222647   0.633   2.698   8.342 -1.7245  1.3920 -1.6661
 3671SOL     OW22648   1.267   2.112   5.189 -0.0154 -0.2774 -0.0753
 3671SOL    HW122649   1.237   2.152   5.107 -0.1363 -3.5916 -1.6933
 3671SOL    HW222650   1.284   2.185   5.247  0.1427 -0.8999  0.6597
 3672SOL     OW22651   0.575   3.574   3.075  0.2631  0.1956 -0.1393
 3672SOL    HW122652   0.618   3.560   3.159  0.2631 -1.4292 -0.4162
 3672SOL    HW222653   0.607   3.501   3.023 -0.3187  0.3454 -0.7121
 3673SOL     OW22654   0.567   2.869  10.938 -0.1455  0.1570  0.3089
 3673SOL    HW122655   0.639   2.891  10.996 -1.2653  1.8272  1.0890
 3673SOL    HW222656   0.593   2.787  10.896 -0.2608 -0.4012  1.3503
 3674SOL     OW22657   3.451   3.635   9.615  0.2969 -0.7612 -0.8185
 3674SOL    HW122658   3.385   3.686   9.662  0.8551 -0.5562 -0.2516
 3674SOL    HW222659   3.513   3.632   9.688 -1.0757  0.3548  0.3896
 3675SOL     OW22660   1.555   4.587  13.293 -0.0701  0.0791 -0.1787
 3675SOL    HW122661   1.541   4.681  13.306  0.6279  0.3247 -1.2716
 3675SOL    HW222662   1.626   4.577  13.357  0.1105  0.5684 -0.3001
 3676SOL     OW22663   0.952   3.432   6.961  0.6131 -0.3187  0.3449
 3676SOL    HW122664   0.910   3.346   6.954 -1.3171  0.4676  2.1131
 3676SOL    HW222665   0.955   3.430   7.057 -0.2778 -3.2690  0.3026
 3677SOL     OW22666   1.579   4.277   6.887 -0.3751 -0.3691 -0.2352
 3677SOL    HW122667   1.623   4.297   6.805  2.7715  1.1750  1.8435
 3677SOL    HW222668   1.650   4.269   6.950  0.4573  0.3822 -1.0947
 3678SOL     OW22669   3.573   2.919   9.611 -0.1950  0.3028  0.1250
 3678SOL    HW122670   3.518   2.986   9.570 -0.6707 -2.0549 -3.0924
 3678SOL    HW222671   3.636   2.902   9.541 -0.8126  3.3210 -1.1865
 3679SOL     OW22672   2.969   2.542   2.580  0.0659 -0.4873  0.5269
 3679SOL    HW122673   2.894   2.598   2.596  0.2727 -0.0209 -0.1246
 3679SOL    HW222674   2.922   2.462   2.557 -1.9604  0.6060  0.9557
 3680SOL     OW22675   4.134   3.748   5.405  0.1230  0.0395 -0.1861
 3680SOL    HW122676   4.191   3.700   5.464 -1.2016 -1.4197 -0.0879
 3680SOL    HW222677   4.194   3.733   5.332  2.0340 -0.3151  1.4723
 3681SOL     OW22678   0.121   1.610   4.664 -0.3035  0.0529 -0.0375
 3681SOL    HW122679   0.137   1.516   4.673 -0.9063 -0.3038 -2.7961
 3681SOL    HW222680   0.027   1.612   4.677  0.2285 -0.7817  3.9484
 3682SOL     OW22681   1.309   2.550   5.796  0.8083 -0.0504 -0.0771
 3682SOL    HW122682   1.222   2.519   5.820  1.2572 -2.3274 -1.4215
 3682SOL    HW222683   1.299   2.523   5.704 -1.9672 -0.0475  0.2253
 3683SOL     OW22684   1.733   0.259  10.117  0.0660 -0.5318  0.3930
 3683SOL    HW122685   1.755   0.352  10.102  3.4094 -1.0390  2.0858
 3683SOL    HW222686   1.667   0.248  10.049  1.3652  2.6150 -1.3711
 3684SOL     OW22687   0.547   2.802   8.507 -0.2079 -0.6203 -0.3253
 3684SOL    HW122688   0.547   2.898   8.512 -3.5604 -0.6460 -0.1228
 3684SOL    HW222689   0.628   2.773   8.550 -0.4948 -0.2357  0.4805
 3685SOL     OW22690   3.721   4.605  12.924  0.3494 -0.0196  0.4173
 3685SOL    HW122691   3.796   4.646  12.968  0.3810  0.4300 -0.0510
 3685SOL    HW222692   3.656   4.594  12.992  2.2176 -0.6953  2.0999
 3686SOL     OW22693   2.000   2.554  13.516  0.4231  0.3364 -0.4564
 3686SOL    HW122694   2.094   2.548  13.535  0.3328  1.0427  0.2444
 3686SOL    HW222695   1.964   2.532  13.602  1.3723 -1.5187 -0.5358
 3687SOL     OW22696   2.456   0.134   4.815  0.0844  0.3493  0.7189
 3687SOL    HW122697   2.367   0.104   4.801  0.8814 -1.6840 -0.0055
 3687SOL    HW222698   2.485   0.074   4.884 -0.6654  0.6142  1.2678
 3688SOL     OW22699   4.715   0.332   5.409 -0.2912  0.2374 -1.0378
 3688SOL    HW122700   4.631   0.292   5.429  0.1963  0.3696  1.2579
 3688SOL    HW222701   4.694   0.413   5.362 -2.3281 -1.8407 -3.7236
 3689SOL     OW22702   3.199   4.066   9.246  0.6430  0.7832 -0.4268
 3689SOL    HW122703   3.192   4.118   9.326  1.1920 -0.2417  0.2854
 3689SOL    HW222704   3.287   4.030   9.255 -0.0724 -0.3010  2.1582
 3690SOL     OW22705   3.723   1.566  12.222  0.3361  0.2164 -0.2444
 3690SOL    HW122706   3.739   1.633  12.288  0.7814  2.0660 -2.2209
 3690SOL    HW222707   3.666   1.501  12.263  1.6834 -1.7739 -1.5683
 3691SOL     OW22708   3.924   1.226   4.747  0.1336 -0.5721 -0.2485
 3691SOL    HW122709   3.999   1.243   4.804 -0.0189  1.0540 -0.5586
 3691SOL    HW222710   3.947   1.284   4.675 -0.9928 -2.2034 -1.9150
 3692SOL     OW22711   0.817   1.541   7.490  0.1545  0.4821  0.1031
 3692SOL    HW122712   0.862   1.605   7.544 -0.0553 -0.6201  1.5759
 3692SOL    HW222713   0.810   1.593   7.410 -1.8568  0.3271  0.1767
 3693SOL     OW22714   2.085   3.971  13.887 -0.1311 -0.4198  0.1690
 3693SOL    HW122715   2.148   3.998  13.954 -0.1422 -2.2151  0.8894
 3693SOL    HW222716   2.127   4.009  13.811 -1.6117  0.2684 -0.3187
 3694SOL     OW22717   1.021   3.950  11.512 -0.4587 -0.7211  0.0165
 3694SOL    HW122718   1.022   3.982  11.602  0.7396 -0.5293 -0.0696
 3694SOL    HW222719   1.030   3.854  11.513 -0.1548 -0.6730  1.2440
 3695SOL     OW22720   3.877   2.096   4.422  0.1748  0.5179  0.1521
 3695SOL    HW122721   3.888   2.041   4.344  0.2333 -1.8430  1.8279
 3695SOL    HW222722   3.951   2.063   4.473 -1.3842 -0.2511  1.9040
 3696SOL     OW22723   1.388   3.247  10.151  0.2318 -0.6339  0.4194
 3696SOL    HW122724   1.446   3.222  10.224 -0.1600  1.1302  1.3370
 3696SOL    HW222725   1.450   3.278  10.085 -1.2445 -1.3296 -1.2764
 3697SOL     OW22726   4.218   0.470   4.537  0.4959 -0.4202 -0.1584
 3697SOL    HW122727   4.307   0.434   4.545  0.1756 -1.4892 -1.5158
 3697SOL    HW222728   4.189   0.453   4.448 -1.1564 -0.0377  0.3058
 3698SOL     OW22729   0.621   1.738   3.716  0.6751 -0.1847 -0.3832
 3698SOL    HW122730   0.545   1.797   3.717  0.2791 -0.7031  0.9436
 3698SOL    HW222731   0.571   1.656   3.717 -1.5947  1.1932 -0.5368
 3699SOL     OW22732   3.278   2.369   7.792 -0.3240  0.0445 -0.1529
 3699SOL    HW122733   3.296   2.303   7.726 -3.1918 -1.7613  0.8636
 3699SOL    HW222734   3.365   2.405   7.808  0.5863 -2.3396  0.3228
 3700SOL     OW22735   2.069   2.159   0.019  0.1259 -0.6698  0.2430
 3700SOL    HW122736   2.059   2.196   0.107 -0.0183  0.4210 -0.2401
 3700SOL    HW222737   1.997   2.203  17.729  0.2148 -0.2355  0.5362
 3701SOL     OW22738   0.075   4.385   4.059 -0.2277  0.2604 -0.0317
 3701SOL    HW122739   0.041   4.364   4.146  3.3933 -0.1935  1.2851
 3701SOL    HW222740   0.165   4.358   4.077 -0.5411 -1.1169 -0.5141
 3702SOL     OW22741   0.784   3.828   7.491 -0.3578  0.0169  0.5360
 3702SOL    HW122742   0.865   3.879   7.486 -1.0159  1.1270  1.2057
 3702SOL    HW222743   0.775   3.822   7.586  0.0656 -0.8252  0.5228
 3703SOL     OW22744   0.252   3.363   7.089 -0.0212  0.5137  0.1858
 3703SOL    HW122745   0.211   3.398   7.168  1.8721 -0.6601  1.6974
 3703SOL    HW222746   0.286   3.442   7.047  0.1122  0.9143  1.0615
 3704SOL     OW22747   4.036   2.268   7.368  0.2047 -0.2589  0.0045
 3704SOL    HW122748   4.025   2.315   7.285 -0.0652 -0.6500 -0.1779
 3704SOL    HW222749   4.049   2.341   7.429 -0.7954  0.1006 -0.2173
 3705SOL     OW22750   1.512   1.242   8.942 -0.2822  0.5616  0.3856
 3705SOL    HW122751   1.457   1.321   8.945 -1.9107 -0.5327 -0.3315
 3705SOL    HW222752   1.457   1.175   8.984 -0.9188 -0.9001 -2.7667
 3706SOL     OW22753   1.970   3.996   9.117  0.0095  0.0806 -0.1458
 3706SOL    HW122754   2.047   3.945   9.091  2.2684  2.0947  2.5382
 3706SOL    HW222755   2.005   4.051   9.187 -1.2000  0.4325  0.1737
 3707SOL     OW22756   1.412   1.657   3.544 -0.3846  0.8348  0.2826
 3707SOL    HW122757   1.478   1.726   3.538 -0.0128  0.4598  0.0958
 3707SOL    HW222758   1.405   1.643   3.639 -0.7677  0.9224  0.2685
 3708SOL     OW22759   3.724   2.834  10.521  0.3298 -0.9744  0.0821
 3708SOL    HW122760   3.708   2.905  10.584  1.1540 -0.0193 -0.7928
 3708SOL    HW222761   3.707   2.755  10.572 -2.4411 -0.2629  0.2429
 3709SOL     OW22762   0.703   4.046   8.220 -0.1055 -0.0878 -0.2439
 3709SOL    HW122763   0.698   4.026   8.127  0.2843  0.7871 -0.4493
 3709SOL    HW222764   0.608   4.059   8.227  0.3276  2.7285  0.1837
 3710SOL     OW22765   0.748   1.537   9.960  0.0388 -0.2710 -0.1798
 3710SOL    HW122766   0.780   1.572   9.877  0.7824 -0.5037 -0.0001
 3710SOL    HW222767   0.667   1.587   9.961 -1.0817 -2.1267  3.4707
 3711SOL     OW22768   3.125   0.971   8.215 -0.2881  0.1647 -0.6526
 3711SOL    HW122769   3.135   0.988   8.121 -0.9650  2.6396 -0.2568
 3711SOL    HW222770   3.209   0.954   8.257  0.2732  0.1900 -1.7747
 3712SOL     OW22771   3.817   4.008   1.396  0.2997 -0.0221  0.6398
 3712SOL    HW122772   3.771   3.998   1.313  1.7121 -1.6182  0.0551
 3712SOL    HW222773   3.759   4.078   1.425 -1.0222 -1.2915  1.0537
 3713SOL     OW22774   3.828   0.330   1.524  0.2811 -0.2085  0.7518
 3713SOL    HW122775   3.922   0.319   1.543  0.4558  3.8147  2.3088
 3713SOL    HW222776   3.838   0.358   1.433 -0.5740  0.7904  0.9585
 3714SOL     OW22777   0.044   0.596   7.784  0.1499 -0.2109 -0.6549
 3714SOL    HW122778   0.136   0.586   7.760 -0.2213  0.5358 -2.3965
 3714SOL    HW222779   0.040   0.590   7.880  0.0559  3.0701 -0.4541
 3715SOL     OW22780   4.415   1.748   5.641 -0.2738 -0.0295  0.1760
 3715SOL    HW122781   4.507   1.737   5.619 -0.1248  0.4621  0.5538
 3715SOL    HW222782   4.397   1.840   5.624  1.0280 -0.1713 -1.9064
 3716SOL     OW22783   2.472   4.392   8.183 -0.0028 -0.4817  0.4204
 3716SOL    HW122784   2.417   4.441   8.122 -0.6391 -0.5145  0.9627
 3716SOL    HW222785   2.465   4.306   8.140  0.5738  1.4593 -3.5107
 3717SOL     OW22786   0.319   4.247   0.153 -0.0134  0.1313  0.4815
 3717SOL    HW122787   0.274   4.190   0.090  0.2485 -0.5647  0.9163
 3717SOL    HW222788   0.359   4.305   0.089 -2.1714  1.6536  0.4995
 3718SOL     OW22789   0.287   0.352   8.100  0.3335 -0.7502  0.3537
 3718SOL    HW122790   0.378   0.325   8.114  0.1360 -1.4029  0.3617
 3718SOL    HW222791   0.241   0.271   8.122  1.2780 -0.9013  1.7806
 3719SOL     OW22792   4.376   0.676   5.204  0.1674 -0.6149 -0.0864
 3719SOL    HW122793   4.285   0.707   5.201  0.3602 -0.2307 -2.0870
 3719SOL    HW222794   4.419   0.761   5.213 -1.0289  0.2110 -1.9526
 3720SOL     OW22795   0.161   0.662   6.000  0.0259  0.1127  0.4238
 3720SOL    HW122796   0.250   0.694   6.013 -0.2434  0.8645  0.4233
 3720SOL    HW222797   0.174   0.580   6.047 -0.0018  0.2933  0.7504
 3721SOL     OW22798   2.567   3.112   8.081  0.7716  0.0996  0.1867
 3721SOL    HW122799   2.501   3.065   8.030  3.0248 -1.1569 -1.5900
 3721SOL    HW222800   2.648   3.079   8.042  1.2233 -1.0222  2.0514
 3722SOL     OW22801   2.623   4.172   4.114 -0.1679  0.3393 -0.9430
 3722SOL    HW122802   2.642   4.238   4.047  0.1591  2.4589  1.2591
 3722SOL    HW222803   2.714   4.151   4.135 -0.8862 -0.1981  1.6372
 3723SOL     OW22804   3.327   3.409   7.456  0.4189 -0.3979 -0.4943
 3723SOL    HW122805   3.365   3.456   7.382 -0.0143  2.4714  1.0757
 3723SOL    HW222806   3.238   3.443   7.441  0.6969  0.6721  0.2360
 3724SOL     OW22807   1.831   3.204  12.463 -0.4490  0.2222  0.1686
 3724SOL    HW122808   1.925   3.197  12.478 -0.8058 -1.9374  1.4410
 3724SOL    HW222809   1.814   3.291  12.501  0.1514  0.5438 -0.2971
 3725SOL     OW22810   2.032   3.533   9.212 -0.1975  0.2321  0.1833
 3725SOL    HW122811   1.972   3.603   9.186  0.2306  1.0323  1.3626
 3725SOL    HW222812   2.037   3.539   9.307  0.5550 -0.8109  0.2027
 3726SOL     OW22813   0.386   0.622   4.123 -0.1438 -0.2528  0.8277
 3726SOL    HW122814   0.342   0.706   4.117 -0.7517 -0.6220  0.0447
 3726SOL    HW222815   0.350   0.574   4.048  1.0112 -1.5581  1.1054
 3727SOL     OW22816   2.011   0.155   1.829 -0.0840 -0.5368  0.2408
 3727SOL    HW122817   1.953   0.187   1.897  2.2416 -1.2886  2.5777
 3727SOL    HW222818   2.013   0.230   1.770 -1.1531 -0.1853  0.6709
 3728SOL     OW22819   3.543   1.296   5.895  0.0676  0.0029  0.0611
 3728SOL    HW122820   3.512   1.385   5.912 -2.0048 -0.1904 -2.8379
 3728SOL    HW222821   3.484   1.245   5.951 -0.2997  1.5016  1.0629
 3729SOL     OW22822   2.275   4.438  14.658  0.2283  0.0538 -0.5547
 3729SOL    HW122823   2.182   4.461  14.657 -0.0468 -1.0590 -0.9687
 3729SOL    HW222824   2.300   4.510  14.717  2.3862 -1.3480  0.2669
 3730SOL     OW22825   1.912   0.284   2.070 -0.2768  0.1145 -0.5143
 3730SOL    HW122826   1.951   0.319   2.150 -1.8879  1.5618 -0.3596
 3730SOL    HW222827   1.892   0.369   2.031 -1.1082  0.3188  0.3520
 3731SOL     OW22828   1.986   0.029   7.698  0.0795  0.2860 -0.2196
 3731SOL    HW122829   1.948   4.683   7.674  0.9490 -0.0152 -0.5317
 3731SOL    HW222830   2.068   4.733   7.732  0.7684  0.6774 -1.4829
 3732SOL     OW22831   3.196   3.366   7.102 -0.0964  0.1590 -0.2705
 3732SOL    HW122832   3.275   3.326   7.066  0.3669  1.5985 -0.8535
 3732SOL    HW222833   3.239   3.439   7.148 -0.2115 -0.0341  0.1451
 3733SOL     OW22834   1.309   3.259   5.208  0.3114  0.1702  0.0266
 3733SOL    HW122835   1.394   3.279   5.167  0.0407  0.6491 -0.3118
 3733SOL    HW222836   1.307   3.164   5.206 -2.2401  0.1974  1.8407
 3734SOL     OW22837   1.120   4.712   9.385  0.5213 -0.0878  0.0570
 3734SOL    HW122838   1.104   0.056   9.338 -0.8531 -0.2051  0.3197
 3734SOL    HW222839   1.214   4.698   9.382  0.0026 -2.8700 -3.7460
 3735SOL     OW22840   2.481   3.900   1.798 -0.5373 -0.1288  0.0560
 3735SOL    HW122841   2.540   3.835   1.837 -1.4175 -0.3858  0.9598
 3735SOL    HW222842   2.438   3.936   1.875  2.0076  2.0319  0.4773
 3736SOL     OW22843   1.245   2.071  10.676 -0.0917  0.4505 -0.0408
 3736SOL    HW122844   1.299   2.091  10.753  0.3106  0.3089 -0.2825
 3736SOL    HW222845   1.160   2.063  10.720 -0.7057 -1.3918 -1.6111
 3737SOL     OW22846   2.902   4.240   2.638 -0.2178  0.1173 -0.5572
 3737SOL    HW122847   2.911   4.205   2.726 -1.1833  0.0510 -0.4894
 3737SOL    HW222848   2.830   4.189   2.601  0.4203 -1.0948 -0.1374
 3738SOL     OW22849   4.019   0.887   7.230 -0.9084  0.0003  0.0905
 3738SOL    HW122850   4.046   0.950   7.164  1.1886  0.2490  1.1710
 3738SOL    HW222851   4.094   0.836   7.262 -1.2176  0.5166  1.6423
 3739SOL     OW22852   0.723   1.911   8.298 -0.1639  0.6334 -0.4718
 3739SOL    HW122853   0.802   1.898   8.245 -1.4142  1.1617 -2.4171
 3739SOL    HW222854   0.658   1.874   8.238 -0.7981  1.4524 -0.2783
 3740SOL     OW22855   1.123   2.198   4.738 -0.3541 -0.4575  0.0869
 3740SOL    HW122856   1.131   2.140   4.663 -4.8529  1.0287 -1.5301
 3740SOL    HW222857   1.069   2.269   4.704  0.1294 -0.3477 -0.4572
 3741SOL     OW22858   4.713   1.464   2.427  0.1575  0.5311 -0.3199
 3741SOL    HW122859   0.058   1.425   2.452 -0.4442 -0.8951 -0.5454
 3741SOL    HW222860   4.723   1.480   2.333 -0.8674  2.8876 -0.0403
 3742SOL     OW22861   2.068   1.465   3.954 -0.0425  0.0420  0.6596
 3742SOL    HW122862   2.129   1.538   3.943  0.2098 -0.5298 -1.8890
 3742SOL    HW222863   2.004   1.503   3.893 -0.0303 -0.6499  0.2149
 3743SOL     OW22864   2.014   4.214  13.260  0.0009 -0.3491 -0.8446
 3743SOL    HW122865   2.014   4.119  13.251  0.0692 -0.5367  1.0640
 3743SOL    HW222866   2.090   4.223  13.317 -0.8121 -0.6647  0.3043
 3744SOL     OW22867   2.185   0.250   2.923 -0.4617 -0.3081  0.3135
 3744SOL    HW122868   2.237   0.310   2.870  1.3461  0.6488  3.1636
 3744SOL    HW222869   2.251   0.194   2.965 -0.2793  2.3267  3.5602
 3745SOL     OW22870   0.911   4.688   2.296  0.3437  0.1855  0.6186
 3745SOL    HW122871   0.844   0.004   2.257  1.2529  1.1188  0.3908
 3745SOL    HW222872   0.983   4.699   2.235  0.1574 -1.6652  0.0503
 3746SOL     OW22873   2.764   1.899  14.077 -0.2918  0.2419 -0.3657
 3746SOL    HW122874   2.799   1.834  14.017  3.1844 -0.2623  2.1868
 3746SOL    HW222875   2.770   1.974  14.018  0.8226 -0.6342 -1.3765
 3747SOL     OW22876   0.125   1.851   3.410 -0.3009 -0.8807  0.0844
 3747SOL    HW122877   0.087   1.937   3.428  1.3281 -0.2984  0.7448
 3747SOL    HW222878   0.174   1.861   3.328 -0.2552 -2.3212 -0.0693
 3748SOL     OW22879   0.445   4.249   4.928 -0.2095  0.4757  0.0793
 3748SOL    HW122880   0.363   4.270   4.885  0.6416 -1.4999 -2.5697
 3748SOL    HW222881   0.460   4.329   4.977 -2.3535  1.4594 -0.8839
 3749SOL     OW22882   0.518   0.592   8.593 -0.6807 -0.2109 -0.3287
 3749SOL    HW122883   0.607   0.572   8.623 -0.5402 -0.6123 -1.0137
 3749SOL    HW222884   0.525   0.624   8.503  2.7785  1.0819  0.3877
 3750SOL     OW22885   0.768   4.100  16.162  0.1278 -0.5481 -0.1557
 3750SOL    HW122886   0.681   4.061  16.167  0.5739 -1.3527  1.1727
 3750SOL    HW222887   0.790   4.117  16.071  0.3301  0.1154  0.0164
 3751SOL     OW22888   3.078   1.695   3.533 -0.0426 -0.5040  0.6407
 3751SOL    HW122889   3.173   1.685   3.527 -0.1023 -1.3047  0.9528
 3751SOL    HW222890   3.074   1.781   3.576  0.6785 -0.5868  0.8863
 3752SOL     OW22891   2.667   0.882   8.454 -0.6292 -0.2100 -0.5621
 3752SOL    HW122892   2.720   0.936   8.513 -0.9748  0.6510 -1.0407
 3752SOL    HW222893   2.741   0.837   8.414 -1.9714 -1.8981 -1.1288
 3753SOL     OW22894   1.074   0.579   6.982  0.1094  0.1988 -0.0204
 3753SOL    HW122895   1.116   0.621   7.057  0.6456 -0.8266  0.2502
 3753SOL    HW222896   0.984   0.606   7.002 -0.3736  0.2802 -2.4000
 3754SOL     OW22897   2.560   3.624   6.520 -0.6794 -0.0253  0.5792
 3754SOL    HW122898   2.572   3.534   6.547  0.3800 -0.2514 -0.6423
 3754SOL    HW222899   2.651   3.652   6.519 -0.3199 -1.2254 -2.5084
 3755SOL     OW22900   0.018   3.776  17.098 -1.0727  0.2191  0.1915
 3755SOL    HW122901   0.095   3.720  17.106 -0.2668  1.8578  4.0168
 3755SOL    HW222902   0.020   3.803  17.006 -1.0611  0.8474  0.3784
 3756SOL     OW22903   1.560   3.260  11.284  0.2043  0.1697 -0.6058
 3756SOL    HW122904   1.539   3.167  11.289  2.5033 -0.2786  0.8685
 3756SOL    HW222905   1.508   3.290  11.210 -1.1136 -2.5223 -0.7679
 3757SOL     OW22906   2.519   3.435   2.506 -0.1528  0.0038 -0.1106
 3757SOL    HW122907   2.590   3.377   2.534 -2.4668 -2.6085  0.2441
 3757SOL    HW222908   2.506   3.479   2.589 -2.7788  0.7058 -0.9049
 3758SOL     OW22909   4.426   2.553   4.190 -0.1445  0.0459 -0.2653
 3758SOL    HW122910   4.464   2.468   4.211  2.0981  0.8545 -0.9789
 3758SOL    HW222911   4.338   2.526   4.165 -0.3824  0.3487  0.2564
 3759SOL     OW22912   3.003   0.229   0.790 -0.7163 -0.1541 -0.0088
 3759SOL    HW122913   3.074   0.176   0.826 -0.2449 -0.1904 -1.0043
 3759SOL    HW222914   3.023   0.316   0.825 -2.2156 -0.6652  2.1535
 3760SOL     OW22915   1.753   3.179   6.521  0.2548  0.0795  0.0401
 3760SOL    HW122916   1.698   3.220   6.588 -1.3778  0.6244 -1.6245
 3760SOL    HW222917   1.839   3.212   6.547  1.1747 -1.8412 -0.5946
 3761SOL     OW22918   2.551   1.909   1.482  0.4668  0.5123  0.1355
 3761SOL    HW122919   2.575   1.927   1.573  0.0870 -2.0840  0.7488
 3761SOL    HW222920   2.492   1.837   1.506  1.1728 -1.0466 -2.8221
 3762SOL     OW22921   3.087   4.370   8.758 -0.0856 -0.6068 -0.1623
 3762SOL    HW122922   2.998   4.342   8.780  0.2438 -0.4186  1.4123
 3762SOL    HW222923   3.130   4.335   8.837 -0.4916  3.3944  1.8531
 3763SOL     OW22924   3.049   3.407   6.612  0.2203  0.5236 -0.5046
 3763SOL    HW122925   3.012   3.360   6.686  1.7634 -1.3716 -0.9257
 3763SOL    HW222926   3.102   3.338   6.572 -1.2737 -0.7291 -0.3113
 3764SOL     OW22927   0.424   1.729   7.150 -0.0802 -0.0893  0.5905
 3764SOL    HW122928   0.359   1.728   7.220 -0.2665 -0.3933  0.4151
 3764SOL    HW222929   0.372   1.694   7.077 -1.1689  1.1454  0.7835
 3765SOL     OW22930   4.628   2.044   3.848  0.0348  0.3813  0.0410
 3765SOL    HW122931   4.565   1.985   3.889 -1.6429  2.9033  1.1512
 3765SOL    HW222932   4.662   1.990   3.777  1.5134 -0.3436  1.3151
 3766SOL     OW22933   3.575   2.196   5.862  0.2771  0.0355  0.0256
 3766SOL    HW122934   3.533   2.110   5.858  0.3328  0.0147 -0.0877
 3766SOL    HW222935   3.664   2.167   5.880 -0.0924 -1.4523 -0.5314
 3767SOL     OW22936   1.448   1.282  14.975  0.7332  0.2662  0.4858
 3767SOL    HW122937   1.393   1.212  14.940 -1.0231  0.4966  2.8346
 3767SOL    HW222938   1.435   1.355  14.915 -0.9573  0.2260  0.8129
 3768SOL     OW22939   0.061   2.764   2.434 -0.2254  0.1991 -0.0378
 3768SOL    HW122940   0.100   2.830   2.377 -1.0138 -0.0712 -0.8888
 3768SOL    HW222941   0.133   2.703   2.451 -1.0353 -0.5074  0.8228
 3769SOL     OW22942   3.802   3.565  15.798  0.1372  0.3991  0.5428
 3769SOL    HW122943   3.722   3.604  15.835  0.7696  0.4937  1.8317
 3769SOL    HW222944   3.810   3.604  15.711 -2.7536 -0.8771 -0.3023
 3770SOL     OW22945   4.216   2.391   4.127 -0.3277  0.3685 -0.4873
 3770SOL    HW122946   4.247   2.335   4.198 -3.8473 -2.8952 -1.5486
 3770SOL    HW222947   4.128   2.406   4.162 -0.4760 -0.7945 -0.3441
 3771SOL     OW22948   2.872   2.942  10.457 -0.2033 -0.7737  0.4840
 3771SOL    HW122949   2.848   3.035  10.452 -0.9751 -1.0516 -1.0620
 3771SOL    HW222950   2.920   2.947  10.539 -1.6127  1.0090  1.2086
 3772SOL     OW22951   0.844   0.670   9.042  0.2718 -0.1870 -0.4352
 3772SOL    HW122952   0.778   0.738   9.030  0.9844  0.4338 -0.8204
 3772SOL    HW222953   0.866   0.676   9.135  2.1082  0.8640 -0.9406
 3773SOL     OW22954   2.306   3.106  13.726 -0.5175 -0.0656  0.0739
 3773SOL    HW122955   2.233   3.058  13.686 -0.6677  0.1489  0.0891
 3773SOL    HW222956   2.347   3.134  13.644  1.5504 -0.1711  1.0774
 3774SOL     OW22957   3.071   0.108   8.484 -0.7334  0.4418  0.1097
 3774SOL    HW122958   3.022   0.048   8.428  1.0600 -1.9965  1.1519
 3774SOL    HW222959   3.017   0.100   8.562  0.6924  2.1771  1.2622
 3775SOL     OW22960   3.156   4.132   2.493 -0.0104 -0.3801  0.3282
 3775SOL    HW122961   3.091   4.190   2.531  0.3287 -0.8211  1.5693
 3775SOL    HW222962   3.135   4.045   2.526 -1.2454 -0.9392 -1.8810
 3776SOL     OW22963   0.307   1.814   4.547 -0.6915 -0.3507  0.0032
 3776SOL    HW122964   0.280   1.803   4.638  0.4108 -3.2467  0.0007
 3776SOL    HW222965   0.259   1.742   4.505 -0.0594 -0.3420 -0.7372
 3777SOL     OW22966   0.597   2.939   6.142 -0.4671 -0.0784 -0.4315
 3777SOL    HW122967   0.558   2.855   6.164  0.6637 -0.8414 -1.3916
 3777SOL    HW222968   0.573   3.001   6.212  0.1039  0.3912 -0.6525
 3778SOL     OW22969   0.310   1.099   4.710 -0.1031  0.2358  0.2595
 3778SOL    HW122970   0.277   1.039   4.778 -1.9938  0.4558 -0.4481
 3778SOL    HW222971   0.379   1.149   4.753  1.2381 -0.9477 -0.5319
 3779SOL     OW22972   2.042   4.163   4.918 -0.4947  0.8902  0.5971
 3779SOL    HW122973   2.129   4.163   4.877 -1.0378  2.3279 -0.5765
 3779SOL    HW222974   1.993   4.093   4.874  0.9770 -0.6480  1.4255
 3780SOL     OW22975   3.074   1.028  15.011  0.3627  0.5619 -0.2543
 3780SOL    HW122976   3.038   1.075  15.086 -0.1016 -0.6104  0.2673
 3780SOL    HW222977   3.147   0.978  15.049  0.1124 -1.1178 -1.9730
 3781SOL     OW22978   2.439   0.895   6.458 -0.3347 -0.7631  0.4597
 3781SOL    HW122979   2.347   0.872   6.446 -0.4972  1.4997 -2.6492
 3781SOL    HW222980   2.474   0.884   6.369 -1.1241 -0.5743  0.1215
 3782SOL     OW22981   1.578   4.014   2.121  0.1706 -0.1534  0.3655
 3782SOL    HW122982   1.501   4.020   2.065  1.0475  0.7861 -0.7322
 3782SOL    HW222983   1.590   3.923   2.096  0.5035  0.3492 -1.2816
 3783SOL     OW22984   0.331   0.309   8.832  0.4511 -0.3152  0.5372
 3783SOL    HW122985   0.243   0.277   8.813 -0.2026  0.6422  1.9944
 3783SOL    HW222986   0.328   0.323   8.926 -0.6814  0.0668  0.4418
 3784SOL     OW22987   2.848   2.699   6.309  0.4766  0.6841  0.2071
 3784SOL    HW122988   2.791   2.736   6.377 -0.6044  1.1119 -0.9353
 3784SOL    HW222989   2.938   2.707   6.341  1.0077 -1.6485 -0.6544
 3785SOL     OW22990   0.603   0.275  17.134  0.2435  0.3456  0.1171
 3785SOL    HW122991   0.551   0.301  17.210 -0.7683 -0.2322 -0.3834
 3785SOL    HW222992   0.661   0.208  17.170  3.0981  1.5290 -2.2553
 3786SOL     OW22993   1.801   3.485   0.135  0.0094 -0.8802  0.1862
 3786SOL    HW122994   1.706   3.479   0.136 -0.0682 -0.0019 -1.6071
 3786SOL    HW222995   1.807   3.407   0.079  0.6396 -1.4977  1.1210
 3787SOL     OW22996   3.931   0.333   9.461 -0.1397 -0.3012  0.6934
 3787SOL    HW122997   4.005   0.282   9.494 -0.4639 -0.0302  1.8469
 3787SOL    HW222998   3.951   0.416   9.504  2.6291 -1.5526  1.8377
 3788SOL     OW22999   0.229   0.087   2.484  0.0678  0.2433  0.2586
 3788SOL    HW123000   0.261   0.128   2.404 -1.4352 -1.1079 -1.0627
 3788SOL    HW223001   0.305   0.094   2.542  0.4089 -1.5899  0.0324
 3789SOL     OW23002   3.655   2.132  10.474  0.0382  0.7706 -0.5734
 3789SOL    HW123003   3.629   2.203  10.416 -1.8707  0.9962  0.5294
 3789SOL    HW223004   3.687   2.193  10.540  0.0233  0.2285 -0.0616
 3790SOL     OW23005   3.493   3.313  16.100 -0.2786 -0.0204  0.2863
 3790SOL    HW123006   3.559   3.287  16.035 -0.0069 -0.2342  0.6473
 3790SOL    HW223007   3.550   3.364  16.157 -1.1295  3.7971 -2.2689
 3791SOL     OW23008   0.495   2.829  15.547  0.2413  0.0798 -0.0110
 3791SOL    HW123009   0.457   2.749  15.583  0.3302  0.2360  0.4289
 3791SOL    HW223010   0.432   2.842  15.476 -0.3665 -2.0380  0.1288
 3792SOL     OW23011   4.144   3.667  11.987  0.1122 -0.1582 -0.1887
 3792SOL    HW123012   4.144   3.759  12.013 -1.9918 -0.1270 -0.2398
 3792SOL    HW223013   4.171   3.627  12.069 -1.3515  0.5240  0.6259
 3793SOL     OW23014   4.426   3.009   3.346 -0.6149  0.3108 -0.2000
 3793SOL    HW123015   4.452   3.034   3.435  0.3729 -0.6188 -0.2196
 3793SOL    HW223016   4.505   3.012   3.293 -2.0401 -0.3843 -2.3753
 3794SOL     OW23017   3.078   3.746   6.052  0.8261 -0.2592  0.7652
 3794SOL    HW123018   3.017   3.819   6.037  1.7005 -0.1066 -2.0141
 3794SOL    HW223019   3.116   3.756   6.139 -1.5458 -0.1540  1.7867
 3795SOL     OW23020   4.684   2.879   8.090  0.2531  0.0196 -0.1380
 3795SOL    HW123021   4.679   2.974   8.104 -2.1995 -0.2202  0.6175
 3795SOL    HW223022   4.596   2.853   8.118 -0.3303  0.2452 -1.7529
 3796SOL     OW23023   2.926   1.319   9.174 -0.3176 -0.0561 -0.4312
 3796SOL    HW123024   2.833   1.324   9.151 -0.6060  0.1318  0.7641
 3796SOL    HW223025   2.955   1.372   9.100 -0.4167 -0.2146 -0.5820
 3797SOL     OW23026   4.707   4.341   4.291 -0.5567 -0.4144 -0.0808
 3797SOL    HW123027   0.033   4.338   4.361 -0.6653 -1.1569 -0.0139
 3797SOL    HW223028   4.632   4.306   4.339 -1.7649  0.6991 -1.1606
 3798SOL     OW23029   3.048   2.694   0.966 -0.5062  0.3780 -0.5345
 3798SOL    HW123030   3.101   2.614   0.973 -1.7791 -0.1819  2.3910
 3798SOL    HW223031   3.046   2.701   0.870  2.5831  0.3046 -0.6040
 3799SOL     OW23032   2.435   1.571   3.857  0.1440  0.2278 -0.0524
 3799SOL    HW123033   2.358   1.627   3.862 -1.0736 -1.4678  0.5137
 3799SOL    HW223034   2.513   1.624   3.867  0.2175 -0.1540  1.5216
 3800SOL     OW23035   3.196   2.090   1.109  0.3556  0.4232 -0.6646
 3800SOL    HW123036   3.202   2.123   1.020  2.4406  1.2172 -0.2244
 3800SOL    HW223037   3.102   2.085   1.129  0.2940 -1.5227 -1.4076
 3801SOL     OW23038   2.383   2.962   6.945 -0.0537 -0.6634 -0.4320
 3801SOL    HW123039   2.292   2.933   6.956 -0.1903  0.5911  1.6525
 3801SOL    HW223040   2.424   2.912   7.016 -1.0571  0.8250  1.2037
 3802SOL     OW23041   3.201   4.407   2.940 -0.5393 -0.3106  0.0775
 3802SOL    HW123042   3.139   4.479   2.937 -1.7752 -1.3427  0.7283
 3802SOL    HW223043   3.155   4.331   2.904  1.8470 -1.7551  0.0477
 3803SOL     OW23044   0.511   2.539  17.588 -0.0420  0.4206  0.0110
 3803SOL    HW123045   0.430   2.534  17.639  0.0819 -0.4436  0.1127
 3803SOL    HW223046   0.478   2.525  17.499 -0.7297  1.8702  0.0205
 3804SOL     OW23047   2.092   0.931   3.836  0.4321 -0.0790  0.4678
 3804SOL    HW123048   2.164   0.873   3.858 -2.0644 -2.6952  1.7520
 3804SOL    HW223049   2.081   0.990   3.911  1.2259  0.3874  0.2121
 3805SOL     OW23050   3.498   3.496   8.206  0.0740  0.3934  0.2131
 3805SOL    HW123051   3.561   3.566   8.187 -0.5713  0.3137 -2.2729
 3805SOL    HW223052   3.501   3.497   8.301 -1.9279 -3.6499  0.2826
 3806SOL     OW23053   3.927   0.729   8.951 -0.0480  0.4608  0.2264
 3806SOL    HW123054   3.889   0.759   8.869 -1.2516  1.9743  1.3238
 3806SOL    HW223055   3.860   0.672   8.989 -1.5395  1.0613 -1.5591
 3807SOL     OW23056   2.929   4.667   3.623  0.1417 -0.8794  0.1734
 3807SOL    HW123057   2.935   4.659   3.528 -0.3729  0.5048  0.0152
 3807SOL    HW223058   3.022   4.680   3.640 -0.0035 -0.3660  0.5833
 3808SOL     OW23059   2.492   2.500   7.212  0.5437  0.1248  0.3987
 3808SOL    HW123060   2.467   2.410   7.233  0.4273 -0.4432 -2.2495
 3808SOL    HW223061   2.583   2.514   7.240  0.6174  0.0923  0.1724
 3809SOL     OW23062   1.610   1.829   3.516  0.2126 -0.2204  0.3396
 3809SOL    HW123063   1.619   1.904   3.456 -2.4037  0.2526  0.5095
 3809SOL    HW223064   1.693   1.839   3.562  1.7197  1.1175 -2.6760
 3810SOL     OW23065   0.435   1.127   0.561  0.3304  0.5680 -0.0329
 3810SOL    HW123066   0.512   1.106   0.509 -0.0748 -0.3497 -0.2661
 3810SOL    HW223067   0.402   1.038   0.569  0.8473  0.2590 -1.3769
 3811SOL     OW23068   0.908   2.583   7.104  0.2427 -0.3708  0.4378
 3811SOL    HW123069   0.871   2.670   7.095  1.3210  0.1651  1.3051
 3811SOL    HW223070   0.837   2.534   7.061 -1.4961  0.4119  2.4381
 3812SOL     OW23071   0.499   2.748   0.952  0.4032 -0.0537  0.0270
 3812SOL    HW123072   0.543   2.696   1.020 -0.7649  0.8018  1.4493
 3812SOL    HW223073   0.467   2.679   0.894  0.7608 -0.5888  0.4621
 3813SOL     OW23074   1.157   0.727  17.402  0.5517  0.1882  0.4082
 3813SOL    HW123075   1.243   0.760  17.426  0.0480  1.1990  0.8338
 3813SOL    HW223076   1.115   0.796  17.453 -0.4546 -0.9843  1.1651
 3814SOL     OW23077   1.585   4.636   6.814  0.4129  0.0102 -0.4155
 3814SOL    HW123078   1.614   4.589   6.893 -2.2744  0.8740  1.1018
 3814SOL    HW223079   1.505   4.585   6.799 -0.0911  0.8396 -0.5406
 3815SOL     OW23080   3.286   4.048   8.978  0.3623 -0.2945 -0.2149
 3815SOL    HW123081   3.216   3.998   8.934  1.5863 -0.5430 -1.8802
 3815SOL    HW223082   3.266   4.027   9.069  1.9817  1.2130  0.4660
 3816SOL     OW23083   2.967   2.268   4.524  0.7907  0.5061  0.3868
 3816SOL    HW123084   2.923   2.185   4.542 -0.2804  0.8277 -0.7705
 3816SOL    HW223085   3.042   2.262   4.583  2.5802 -0.1150 -1.9478
 3817SOL     OW23086   1.075   3.551   2.520  0.4882  0.5315  0.9741
 3817SOL    HW123087   1.039   3.566   2.433  1.2100  2.1684  0.9483
 3817SOL    HW223088   1.053   3.632   2.566  0.6807  1.4753 -0.5831
 3818SOL     OW23089   1.793   1.981  17.664  0.2542  0.3654  0.0352
 3818SOL    HW123090   1.802   2.074  17.643  0.3784  0.2859 -0.2671
 3818SOL    HW223091   1.875   1.948  17.628  0.0079  0.8284 -0.9443
 3819SOL     OW23092   2.189   3.441   7.128  0.3027 -0.8839  0.5145
 3819SOL    HW123093   2.247   3.485   7.066 -1.6796  0.9280 -0.0618
 3819SOL    HW223094   2.205   3.354   7.092  0.9047 -0.5707  0.0335
 3820SOL     OW23095   1.752   2.907   6.469 -0.3285  0.8934 -1.0256
 3820SOL    HW123096   1.755   2.916   6.373 -1.1358  2.3178 -0.9162
 3820SOL    HW223097   1.773   2.995   6.499  0.1281 -0.1521  1.7243
 3821SOL     OW23098   2.750   2.645  13.455 -0.7299  0.2483 -0.4520
 3821SOL    HW123099   2.703   2.661  13.537 -0.3671 -0.9387 -0.0116
 3821SOL    HW223100   2.684   2.646  13.386 -2.3083 -0.4304  1.0292
 3822SOL     OW23101   4.649   1.179   7.218  0.1037 -0.2538 -0.5181
 3822SOL    HW123102   4.703   1.102   7.202  0.7886 -0.1918  1.4995
 3822SOL    HW223103   4.650   1.223   7.133 -0.8008 -1.1733 -1.0121
 3823SOL     OW23104   4.516   0.683   1.910 -0.5647 -0.2038 -0.1424
 3823SOL    HW123105   4.595   0.737   1.911  0.2532 -1.3475 -2.3442
 3823SOL    HW223106   4.467   0.720   1.983  1.5446  1.3708  0.4982
 3824SOL     OW23107   3.894   1.790   8.028  0.5731 -0.1086 -0.3541
 3824SOL    HW123108   3.938   1.803   7.944 -1.0786  1.4894 -0.9677
 3824SOL    HW223109   3.860   1.700   8.026 -0.1017  0.1330  0.0017
 3825SOL     OW23110   2.724   1.619  13.513 -0.6448 -0.3318 -0.3268
 3825SOL    HW123111   2.682   1.654  13.592  1.2032 -0.0698  0.5382
 3825SOL    HW223112   2.655   1.558  13.487 -1.0669 -0.3733  0.8590
 3826SOL     OW23113   1.657   3.767   2.349 -0.3114 -0.2840 -0.4516
 3826SOL    HW123114   1.608   3.688   2.325 -0.0478 -0.3015 -0.9194
 3826SOL    HW223115   1.726   3.763   2.283 -0.0506  0.6933 -0.2305
 3827SOL     OW23116   3.861   1.783   0.178  0.0044 -0.1730 -0.3282
 3827SOL    HW123117   3.770   1.757   0.194  0.1910 -0.5137  0.1852
 3827SOL    HW223118   3.914   1.729   0.236  2.5244  1.8820 -0.7268
 3828SOL     OW23119   2.528   1.221   1.293  0.8966  0.1747  0.4827
 3828SOL    HW123120   2.616   1.211   1.258  0.8274  1.7934 -0.1168
 3828SOL    HW223121   2.471   1.148   1.268  0.9850  0.2389  0.1074
 3829SOL     OW23122   2.853   3.026   9.745  0.1883 -0.2457  0.1300
 3829SOL    HW123123   2.887   3.012   9.657  2.8288 -1.5319  1.3745
 3829SOL    HW223124   2.919   3.074   9.794 -0.1890  2.6735 -2.1991
 3830SOL     OW23125   3.334   0.093  12.631 -0.1789  0.5557  0.0052
 3830SOL    HW123126   3.311   0.136  12.713 -0.7962  1.1479 -0.4787
 3830SOL    HW223127   3.360   0.006  12.661 -0.2708  0.3674 -0.4532
 3831SOL     OW23128   4.128   4.519   5.305  0.2886 -0.0497  0.0883
 3831SOL    HW123129   4.077   4.565   5.372  1.1840 -1.9162  2.0514
 3831SOL    HW223130   4.059   4.478   5.254  0.3950 -0.9142  0.6338
 3832SOL     OW23131   0.982   3.295   0.824 -0.5590 -0.0285 -0.3410
 3832SOL    HW123132   1.070   3.258   0.822 -0.1882  0.7678  1.2650
 3832SOL    HW223133   1.003   3.366   0.885  1.9694  0.0825 -1.3233
 3833SOL     OW23134   1.683   3.480   5.996  0.6981 -0.0720  0.4991
 3833SOL    HW123135   1.612   3.542   5.982 -0.2576 -1.1335  0.6890
 3833SOL    HW223136   1.756   3.542   5.993  1.9679 -1.6432 -1.1300
 3834SOL     OW23137   0.209   1.261   2.467  0.0262 -0.3466  0.1152
 3834SOL    HW123138   0.282   1.252   2.528 -1.1435 -2.5572  1.1888
 3834SOL    HW223139   0.241   1.322   2.400 -0.2943  2.9642  2.9775
 3835SOL     OW23140   3.550   0.078   2.716  0.0690 -0.0294 -0.7367
 3835SOL    HW123141   3.506   4.736   2.693 -0.6647  1.0949 -3.2491
 3835SOL    HW223142   3.640   0.068   2.686 -0.8898 -3.8951 -2.2493
 3836SOL     OW23143   1.593   2.113   6.609  0.4629  0.0134 -0.6776
 3836SOL    HW123144   1.538   2.145   6.681  0.6117 -0.0314 -0.5452
 3836SOL    HW223145   1.538   2.145   6.537  0.8101  0.1442 -0.8894
 3837SOL     OW23146   1.883   1.173   5.173 -0.0144 -0.4953 -0.6155
 3837SOL    HW123147   1.937   1.152   5.097 -1.3538 -2.2368 -1.0882
 3837SOL    HW223148   1.795   1.162   5.136  0.0869 -0.5447 -0.8398
 3838SOL     OW23149   3.377   3.395   6.036 -0.3023 -0.0551  0.3074
 3838SOL    HW123150   3.290   3.395   5.996  0.2322  0.7953 -0.8496
 3838SOL    HW223151   3.363   3.314   6.085  1.2117 -0.1248  0.6154
 3839SOL     OW23152   4.160   3.467   6.452 -0.0458  0.0826 -0.1706
 3839SOL    HW123153   4.226   3.454   6.383 -0.0385 -1.7965  0.1986
 3839SOL    HW223154   4.114   3.383   6.454 -0.2425  0.2080  0.5752
 3840SOL     OW23155   2.736   2.979  13.202 -0.3408  0.2257 -0.2172
 3840SOL    HW123156   2.672   2.933  13.147  1.4727  0.0674 -2.2334
 3840SOL    HW223157   2.726   3.065  13.159 -2.1640 -0.3590 -0.9745
 3841SOL     OW23158   2.905   3.669  17.122 -0.1863  0.2948 -0.0769
 3841SOL    HW123159   2.810   3.662  17.132 -0.1949 -2.4797 -2.1326
 3841SOL    HW223160   2.943   3.618  17.193  0.0867  1.8433  0.8940
 3842SOL     OW23161   2.781   2.083   2.792  0.2483  0.2742 -0.0513
 3842SOL    HW123162   2.863   2.070   2.841 -0.1234  0.6537  0.6669
 3842SOL    HW223163   2.748   1.994   2.783  1.1276  0.0107 -0.7057
 3843SOL     OW23164   4.528   2.553   2.966  0.6518 -0.0557 -0.6613
 3843SOL    HW123165   4.554   2.627   3.020  0.8125  0.0105 -0.8297
 3843SOL    HW223166   4.435   2.566   2.947  0.0866 -2.2845  0.5826
 3844SOL     OW23167   2.256   0.827   5.534 -0.4489  0.2674  0.0315
 3844SOL    HW123168   2.161   0.840   5.537 -0.2862  1.5573 -0.3557
 3844SOL    HW223169   2.290   0.909   5.499  1.4737 -0.6596 -0.2927
 3845SOL     OW23170   0.819   3.386   8.677 -0.4632 -0.4190  0.6325
 3845SOL    HW123171   0.765   3.365   8.753  0.9216 -1.8485  1.2296
 3845SOL    HW223172   0.883   3.450   8.709 -0.6033 -0.3195  0.7121
 3846SOL     OW23173   2.392   0.970   5.136  0.0290 -0.5077  0.1851
 3846SOL    HW123174   2.364   0.964   5.228  0.8839  0.0621  0.4850
 3846SOL    HW223175   2.331   0.916   5.085 -0.3399 -0.2905  0.3958
 3847SOL     OW23176   4.565   0.489   8.812 -0.2414  0.2293 -0.4836
 3847SOL    HW123177   4.508   0.530   8.747  1.9825  1.5305 -1.6170
 3847SOL    HW223178   4.585   0.561   8.872  0.8735 -2.2836  2.1721
 3848SOL     OW23179   3.592   0.696  11.893 -0.6840  0.0547 -0.2961
 3848SOL    HW123180   3.525   0.700  11.962 -1.2132 -1.9782 -0.7000
 3848SOL    HW223181   3.649   0.770  11.913  0.0880 -0.7912  0.6387
 3849SOL     OW23182   3.259   0.246   8.327  0.2902  0.0956 -0.3834
 3849SOL    HW123183   3.193   0.185   8.360  1.4068 -1.0692 -0.2861
 3849SOL    HW223184   3.211   0.275   8.250  0.3711  0.4917 -0.2838
 3850SOL     OW23185   3.933   4.092   6.770 -0.2835 -0.3130  0.1649
 3850SOL    HW123186   3.927   3.997   6.757 -2.3362 -0.1238 -0.3080
 3850SOL    HW223187   4.028   4.102   6.775 -0.1226 -1.4004 -0.7356
 3851SOL     OW23188   0.091   4.276  11.340 -0.2335 -0.9225 -0.0178
 3851SOL    HW123189   0.002   4.247  11.319 -0.2555 -0.7846 -0.1172
 3851SOL    HW223190   0.085   4.368  11.313  0.6698 -0.8033  0.1919
 3852SOL     OW23191   4.057   0.762   4.014  0.2538  0.4298 -0.9625
 3852SOL    HW123192   4.134   0.727   3.968 -1.0809 -1.8392 -1.4414
 3852SOL    HW223193   4.061   0.849   3.975  0.5667  0.9410  0.1991
 3853SOL     OW23194   4.344   1.067   7.775 -0.6564  0.6557  0.4946
 3853SOL    HW123195   4.380   1.097   7.692  0.8570 -0.3138  0.7964
 3853SOL    HW223196   4.251   1.056   7.754 -0.4128 -2.8166  1.1314
 3854SOL     OW23197   4.390   0.654  13.672  0.2175 -0.2962 -0.3307
 3854SOL    HW123198   4.324   0.718  13.643  1.2621  0.6178 -0.6653
 3854SOL    HW223199   4.357   0.620  13.755  0.3928  0.5513  0.0945
 3855SOL     OW23200   1.580   2.404   8.078  0.1252  0.8420 -0.2828
 3855SOL    HW123201   1.634   2.435   8.005 -0.7743 -0.3747 -1.4581
 3855SOL    HW223202   1.498   2.399   8.030 -0.7186  0.3156  1.2185
 3856SOL     OW23203   2.489   4.417   7.203  0.7155  0.4251  0.4224
 3856SOL    HW123204   2.463   4.334   7.164  2.0906 -0.6052  1.7215
 3856SOL    HW223205   2.453   4.479   7.139 -0.6495 -1.9567 -1.0874
 3857SOL     OW23206   1.146   1.556   2.588  0.3352 -0.0578  0.2898
 3857SOL    HW123207   1.061   1.539   2.630  0.5093  1.4745  1.2841
 3857SOL    HW223208   1.168   1.647   2.610  2.4196 -0.8200  1.3379
 3858SOL     OW23209   1.551   2.149   4.482  0.7300  0.0148  0.0620
 3858SOL    HW123210   1.529   2.116   4.569  0.2098 -1.8042 -0.7535
 3858SOL    HW223211   1.599   2.231   4.496 -1.9127  0.9455  3.5245
 3859SOL     OW23212   1.353   3.462  11.446 -0.1712 -0.3488 -0.2274
 3859SOL    HW123213   1.285   3.456  11.378  1.2337  1.1187 -1.7422
 3859SOL    HW223214   1.436   3.438  11.405 -0.3802 -1.8881  0.2467
 3860SOL     OW23215   2.954   3.064   1.378  0.0910 -0.4556 -0.0632
 3860SOL    HW123216   2.981   3.020   1.298 -1.7290 -1.6046 -0.0546
 3860SOL    HW223217   2.885   3.118   1.340 -0.4539 -0.7770  0.4651
 3861SOL     OW23218   4.332   4.427   6.064  0.1980 -0.2718  0.3269
 3861SOL    HW123219   4.278   4.417   6.142  0.8950 -1.6987  0.6209
 3861SOL    HW223220   4.421   4.402   6.091  0.3895  0.3737  0.2936
 3862SOL     OW23221   3.998   4.685   5.481 -0.7068 -0.1037 -0.5494
 3862SOL    HW123222   3.967   4.737   5.555 -0.2018  0.5923 -0.8281
 3862SOL    HW223223   3.923   4.707   5.427  0.7974  1.8476 -1.8636
 3863SOL     OW23224   3.132   4.075   4.058 -0.0206 -0.2901  0.2185
 3863SOL    HW123225   3.201   4.062   4.124  0.8158  0.3269 -0.5254
 3863SOL    HW223226   3.183   4.065   3.977  1.2911  2.8912  0.6480
 3864SOL     OW23227   0.040   4.284  10.204  0.1391 -0.1544 -0.2343
 3864SOL    HW123228   0.095   4.356  10.236  1.7513 -1.6883  0.4428
 3864SOL    HW223229   0.024   4.289  10.110 -0.3169  1.6396 -0.0651
 3865SOL     OW23230   3.401   3.650   4.464  0.1400 -0.2043  0.4167
 3865SOL    HW123231   3.393   3.731   4.514  0.2271 -0.0190  0.1313
 3865SOL    HW223232   3.420   3.585   4.532  1.0640 -1.2007 -0.8033
 3866SOL     OW23233   3.686   4.713  13.390 -0.2885 -0.9722  0.3855
 3866SOL    HW123234   3.714   0.065  13.400 -0.0831 -0.9398 -0.4596
 3866SOL    HW223235   3.760   4.667  13.428 -0.3812 -3.2545 -2.2011
 3867SOL     OW23236   2.668   4.655   6.131  0.1102  0.1690  0.3667
 3867SOL    HW123237   2.694   0.002   6.164 -0.1495  0.9346 -1.4162
 3867SOL    HW223238   2.715   4.660   6.047  0.1320  3.8824  0.5965
 3868SOL     OW23239   4.556   4.491  12.580 -0.1299  0.1872 -0.1460
 3868SOL    HW123240   4.648   4.517  12.577  0.1686 -1.0966 -2.5173
 3868SOL    HW223241   4.534   4.514  12.671  1.3363  0.5809  0.1153
 3869SOL     OW23242   0.917   2.633   5.592 -0.1809  0.0822  0.5906
 3869SOL    HW123243   0.933   2.715   5.640  1.1702 -0.8573  1.7371
 3869SOL    HW223244   0.951   2.660   5.506  0.7891  1.7681  1.4934
 3870SOL     OW23245   0.807   4.154   1.258  0.1114  0.6545 -0.4500
 3870SOL    HW123246   0.876   4.216   1.281 -0.4267  1.2057 -0.3304
 3870SOL    HW223247   0.736   4.197   1.306 -0.2986  0.5999 -1.0154
 3871SOL     OW23248   0.577   0.954   8.609  0.2436 -0.0346  0.3492
 3871SOL    HW123249   0.654   0.972   8.662 -1.6221  1.2968  2.6358
 3871SOL    HW223250   0.511   0.952   8.679  0.8315  1.4601  0.9416
 3872SOL     OW23251   0.450   4.663   1.609 -0.2881  0.1161 -0.4585
 3872SOL    HW123252   0.361   4.682   1.639 -0.4683  2.8071 -2.7454
 3872SOL    HW223253   0.468   4.588   1.665 -1.9971  0.4111  0.5094
 3873SOL     OW23254   1.375   0.187   9.573  0.5074 -0.5052 -0.0341
 3873SOL    HW123255   1.325   0.269   9.568 -0.7137 -1.2360  0.0926
 3873SOL    HW223256   1.310   0.126   9.537  0.4779  0.1795 -1.1446
 3874SOL     OW23257   0.015   2.418   2.321  0.7416 -0.5361 -0.3654
 3874SOL    HW123258   4.675   2.463   2.350  2.1965  0.2917  2.2282
 3874SOL    HW223259   4.725   2.330   2.347  1.1607 -0.7549 -0.6318
 3875SOL     OW23260   1.914   0.115   1.221  0.9420  0.3628  0.9776
 3875SOL    HW123261   1.898   0.208   1.206  0.7847  0.1120 -0.3330
 3875SOL    HW223262   1.874   0.108   1.308 -0.9193  2.6263  0.2700
 3876SOL     OW23263   1.904   4.641   3.871 -0.4788  0.5426 -0.3675
 3876SOL    HW123264   1.981   4.594   3.836 -0.3812 -0.6307  1.4254
 3876SOL    HW223265   1.917   4.637   3.965 -1.1227  1.3311 -0.2540
 3877SOL     OW23266   3.573   0.702   2.295 -0.5240 -0.2965  0.0599
 3877SOL    HW123267   3.594   0.781   2.246 -2.9944  0.7568  0.7036
 3877SOL    HW223268   3.518   0.658   2.231  0.0451 -0.9144 -0.0119
 3878SOL     OW23269   2.703   0.191   9.086 -0.4212 -0.3146 -0.2167
 3878SOL    HW123270   2.727   0.252   9.016 -1.9723 -0.5687 -0.9622
 3878SOL    HW223271   2.708   0.257   9.155  2.7153 -0.7972  0.0014
 3879SOL     OW23272   0.441   4.069   8.239  0.2951  0.3951  0.5720
 3879SOL    HW123273   0.430   4.064   8.334 -1.0827  2.4583  0.5268
 3879SOL    HW223274   0.401   4.153   8.218  2.7385  1.8989  1.8356
 3880SOL     OW23275   3.837   4.617   4.629 -0.3792 -0.5061 -0.3232
 3880SOL    HW123276   3.872   4.528   4.623 -0.7906 -0.6876 -0.0574
 3880SOL    HW223277   3.887   4.641   4.706 -0.2317  0.3516 -0.6856
 3881SOL     OW23278   3.842   0.805  15.300 -0.1638  0.7347 -0.2133
 3881SOL    HW123279   3.932   0.835  15.288  0.5006 -1.6420 -1.2614
 3881SOL    HW223280   3.843   0.785  15.394  1.9003 -1.6003 -0.7168
 3882SOL     OW23281   4.207   1.360  14.193  0.7349  0.0273 -0.0173
 3882SOL    HW123282   4.168   1.437  14.153  0.6074 -0.5561 -1.0242
 3882SOL    HW223283   4.238   1.402  14.273 -1.6440 -0.8194  1.3463
 3883SOL     OW23284   3.388   2.771   9.222  0.4493 -0.3316 -0.3269
 3883SOL    HW123285   3.354   2.702   9.278 -0.6574  2.2075  2.0957
 3883SOL    HW223286   3.472   2.730   9.197  1.2916  0.1045  1.8066
 3884SOL     OW23287   2.510   1.240   2.239  0.1640  0.1356 -0.0352
 3884SOL    HW123288   2.452   1.184   2.291 -2.4532  1.9701 -0.9384
 3884SOL    HW223289   2.588   1.187   2.254  2.2463  3.0093 -0.7323
 3885SOL     OW23290   3.157   1.557   1.364 -0.1867  0.1559  1.0586
 3885SOL    HW123291   3.222   1.604   1.417  1.2580  0.3996 -0.9185
 3885SOL    HW223292   3.119   1.627   1.312  1.6940 -0.2405 -0.8612
 3886SOL     OW23293   2.108   0.666   7.666 -0.3735  0.1409  0.2107
 3886SOL    HW123294   2.111   0.738   7.604 -1.2454 -0.7157 -0.8358
 3886SOL    HW223295   2.070   0.694   7.750  0.3400  0.0362  0.5694
 3887SOL     OW23296   1.406   1.143   7.630 -0.3021 -0.2053  0.3925
 3887SOL    HW123297   1.475   1.075   7.630 -2.7187 -2.6543  0.7344
 3887SOL    HW223298   1.332   1.083   7.636 -1.7310  1.6951  1.6303
 3888SOL     OW23299   3.590   0.894   1.774  1.0464 -0.3212 -0.3601
 3888SOL    HW123300   3.632   0.921   1.692 -0.6797  1.3550 -0.6789
 3888SOL    HW223301   3.514   0.952   1.779  1.5814  0.1940  1.8663
 3889SOL     OW23302   0.010   0.373   1.490 -0.3241 -0.1415 -0.1915
 3889SOL    HW123303   0.011   0.369   1.394  1.1611 -2.9215 -0.0844
 3889SOL    HW223304   4.667   0.327   1.506  0.2120  0.0270  3.0350
 3890SOL     OW23305   3.837   0.107   4.474 -0.5207 -0.2187  0.0053
 3890SOL    HW123306   3.763   0.085   4.419 -1.8854  1.0666  1.3066
 3890SOL    HW223307   3.860   0.023   4.514  2.2755  0.0574 -0.9863
 3891SOL     OW23308   2.965   2.248   4.227  0.3566 -0.1964 -0.4721
 3891SOL    HW123309   2.898   2.307   4.192 -0.8576 -1.2275  0.1553
 3891SOL    HW223310   2.942   2.238   4.319  1.5029 -0.0394 -0.1658
 3892SOL     OW23311   2.594   2.361  15.436  0.1652  0.5120  0.4479
 3892SOL    HW123312   2.597   2.423  15.508  1.1121 -0.3316  1.1295
 3892SOL    HW223313   2.534   2.291  15.462 -0.6114 -0.5079 -3.9778
 3893SOL     OW23314   0.343   2.919   8.814  0.5407 -1.0048 -0.0934
 3893SOL    HW123315   0.408   2.989   8.811  1.3119 -1.6521  1.5296
 3893SOL    HW223316   0.279   2.966   8.869 -0.1451 -3.1987  0.9990
 3894SOL     OW23317   1.905   0.496   9.168  0.7636 -0.3787 -0.5517
 3894SOL    HW123318   1.899   0.502   9.073 -1.1828  3.8206 -0.1534
 3894SOL    HW223319   1.833   0.548   9.203  1.1409 -0.7706  0.7879
 3895SOL     OW23320   0.659   2.694   5.640 -0.0712  0.1248  0.3335
 3895SOL    HW123321   0.676   2.787   5.624  0.9631 -0.0457  0.4406
 3895SOL    HW223322   0.744   2.662   5.611 -0.0799 -2.0104  2.6446
 3896SOL     OW23323   0.469   3.837   5.612  0.1873 -0.2435 -0.2837
 3896SOL    HW123324   0.548   3.891   5.612  0.9907 -1.3974  1.6066
 3896SOL    HW223325   0.407   3.891   5.564  0.1726  0.9744  1.0932
 3897SOL     OW23326   0.805   4.000  14.956 -0.2337  0.9721 -0.2598
 3897SOL    HW123327   0.732   3.940  14.939  0.0068  0.5714  0.1062
 3897SOL    HW223328   0.803   4.018  15.049 -1.3833  2.1407 -0.5169
 3898SOL     OW23329   3.506   3.981  16.384  0.5000  0.1646  0.3709
 3898SOL    HW123330   3.580   3.980  16.444 -0.2601  0.8472  1.3264
 3898SOL    HW223331   3.453   4.055  16.415  1.0081 -0.0620  1.7890
 3899SOL     OW23332   3.929   1.792   9.059  0.1296 -0.1401  0.2569
 3899SOL    HW123333   3.914   1.886   9.070  0.4275  0.2219 -2.4569
 3899SOL    HW223334   4.005   1.790   9.001 -0.4650 -1.3497 -0.4626
 3900SOL     OW23335   1.460   4.191  15.732  0.0131 -0.0647  0.2237
 3900SOL    HW123336   1.549   4.156  15.740 -0.5447 -1.0449  2.1123
 3900SOL    HW223337   1.460   4.259  15.665 -0.5786 -0.2388  0.0469
 3901SOL     OW23338   3.766   2.367   2.867 -0.3630 -0.0718  0.1179
 3901SOL    HW123339   3.831   2.301   2.892  2.4189  2.3809 -0.6685
 3901SOL    HW223340   3.737   2.404   2.950 -1.3983 -0.8956  0.1200
 3902SOL     OW23341   2.397   4.498   0.425  0.7086 -0.1141  0.0889
 3902SOL    HW123342   2.339   4.495   0.501  1.8669 -3.6676  0.8294
 3902SOL    HW223343   2.435   4.585   0.417 -0.1595  0.2782  0.1951
 3903SOL     OW23344   1.584   3.414   6.331 -0.4805 -0.0592 -0.0317
 3903SOL    HW123345   1.618   3.359   6.261 -2.4714 -1.6658  0.2662
 3903SOL    HW223346   1.500   3.437   6.292 -0.3599 -0.6865 -0.6609
 3904SOL     OW23347   4.140   1.080   4.281 -0.1189 -0.1425 -0.0797
 3904SOL    HW123348   4.078   1.051   4.348  2.0493 -0.3195  1.8401
 3904SOL    HW223349   4.198   1.005   4.292  0.0334  0.2611  1.7710
 3905SOL     OW23350   4.403   3.865   3.323 -0.1933 -0.1322 -0.4857
 3905SOL    HW123351   4.313   3.854   3.294  0.1486 -2.8933 -0.4745
 3905SOL    HW223352   4.408   3.960   3.311 -1.6225 -0.4537 -3.5934
 3906SOL     OW23353   1.919   4.050   8.272 -0.2263 -0.1995  0.0637
 3906SOL    HW123354   1.878   4.136   8.265  0.5785  0.0003 -2.1635
 3906SOL    HW223355   1.863   4.000   8.332  0.0850 -0.4928  0.1061
 3907SOL     OW23356   3.154   4.612   5.113 -0.5461  0.0546 -0.1556
 3907SOL    HW123357   3.182   4.686   5.060  2.0279 -0.5819  0.3294
 3907SOL    HW223358   3.090   4.568   5.058  0.5643 -0.5567 -0.9476
 3908SOL     OW23359   3.838   3.131   5.362 -0.0327  0.0137 -0.3286
 3908SOL    HW123360   3.826   3.163   5.273  0.2614 -3.6561 -1.6876
 3908SOL    HW223361   3.799   3.203   5.412 -0.9879 -0.9459  0.2988
 3909SOL     OW23362   3.825   3.285   4.675 -0.4664 -0.2878  0.0615
 3909SOL    HW123363   3.818   3.360   4.617  2.0104 -0.0531  0.0654
 3909SOL    HW223364   3.894   3.233   4.633  1.1275 -0.2479  2.6551
 3910SOL     OW23365   3.828   0.397   4.383 -0.3287  0.4088 -0.2982
 3910SOL    HW123366   3.846   0.489   4.404 -0.6632  0.3256  0.3639
 3910SOL    HW223367   3.857   0.349   4.461 -2.2099 -0.3223 -0.0498
 3911SOL     OW23368   4.098   3.866   9.217 -0.0940  0.4022  0.0500
 3911SOL    HW123369   4.148   3.830   9.144 -1.1880 -1.4957  0.2347
 3911SOL    HW223370   4.076   3.781   9.255  1.4934  0.3227  0.7729
 3912SOL     OW23371   4.433   3.891  14.937 -0.0331  0.2202 -0.5707
 3912SOL    HW123372   4.433   3.801  14.970 -1.4085 -0.0420 -1.2816
 3912SOL    HW223373   4.457   3.893  14.844  1.1876  2.8277 -0.2108
 3913SOL     OW23374   2.806   2.915  17.681  0.0219 -0.4337  0.0373
 3913SOL    HW123375   2.750   2.898  17.605 -0.3064  0.0876  0.1625
 3913SOL    HW223376   2.850   2.832  17.699  1.1908  0.1713  0.0214
 3914SOL     OW23377   2.049   1.838   7.388  0.2832  0.3508  0.5238
 3914SOL    HW123378   2.131   1.849   7.339  0.4516  0.3389  0.8011
 3914SOL    HW223379   2.068   1.894   7.463  2.1197 -0.3364  0.5685
 3915SOL     OW23380   4.079   0.846  15.659  0.5318 -0.2251 -0.3123
 3915SOL    HW123381   4.132   0.863  15.737 -1.1702 -1.1236  1.0206
 3915SOL    HW223382   4.131   0.876  15.584  0.3568  1.9795  0.4360
 3916SOL     OW23383   1.466   0.674  17.208 -0.3709 -0.5203  0.5232
 3916SOL    HW123384   1.451   0.610  17.277  0.1269 -0.7614  0.4063
 3916SOL    HW223385   1.526   0.621  17.156 -1.1522 -0.3158 -0.5915
 3917SOL     OW23386   2.494   2.609   2.823  0.1460  0.0106  0.2174
 3917SOL    HW123387   2.493   2.516   2.848  0.1493  0.3627  1.5495
 3917SOL    HW223388   2.499   2.609   2.728  0.0061  0.7884  0.2135
 3918SOL     OW23389   4.484   0.147   8.354  0.3146 -0.5330 -0.0638
 3918SOL    HW123390   4.395   0.113   8.366  0.5158 -1.2516 -0.6251
 3918SOL    HW223391   4.499   0.182   8.442 -0.3673 -0.1193 -0.1158
 3919SOL     OW23392   4.504   0.312   5.614  0.1601 -0.3786 -0.2795
 3919SOL    HW123393   4.517   0.217   5.624 -0.4338 -0.4683 -0.3766
 3919SOL    HW223394   4.416   0.313   5.652 -0.5191 -0.9795 -1.8052
 3920SOL     OW23395   0.150   0.066   6.299 -0.2968 -0.2955 -0.0000
 3920SOL    HW123396   0.168   0.150   6.340  1.6670 -0.9677  0.4948
 3920SOL    HW223397   0.212   0.015   6.351  1.0323  2.0689  0.7273
 3921SOL     OW23398   4.434   0.488   6.242 -0.1321  0.3470  0.1858
 3921SOL    HW123399   4.417   0.484   6.148  0.3865 -1.3300  0.1494
 3921SOL    HW223400   4.345   0.463   6.269  0.3954 -0.7687  0.9186
 3922SOL     OW23401   1.689   0.529  17.481  0.3770  0.1989 -0.2355
 3922SOL    HW123402   1.594   0.533  17.493  0.2427  3.7992 -2.5470
 3922SOL    HW223403   1.724   0.606  17.526  2.2259 -0.1804 -1.0398
 3923SOL     OW23404   0.321   0.900   1.020 -0.4650  0.0246  0.1136
 3923SOL    HW123405   0.320   0.806   1.034  1.6244 -0.0234  0.0158
 3923SOL    HW223406   0.400   0.913   0.967 -1.5712 -0.3046 -1.5641
 3924SOL     OW23407   1.525   1.652   3.821 -0.6010  0.2667 -0.8691
 3924SOL    HW123408   1.607   1.691   3.851 -1.6933  2.1234 -0.2549
 3924SOL    HW223409   1.532   1.557   3.824  2.9923  0.5006 -2.1696
 3925SOL     OW23410   0.015   4.210   2.937 -0.1240 -0.3834 -0.2260
 3925SOL    HW123411   0.005   4.300   2.968  0.6576 -0.0682 -0.8661
 3925SOL    HW223412   0.070   4.170   3.004  1.8848  1.9577 -0.4740
 3926SOL     OW23413   4.662   4.357  16.574 -0.1509  0.4854 -0.3093
 3926SOL    HW123414   4.698   4.342  16.487 -0.1035  0.0424 -0.2135
 3926SOL    HW223415   4.738   4.386  16.625  1.3595 -0.9070 -1.7683
 3927SOL     OW23416   2.444   3.080  12.891 -0.2883 -0.4682  0.3292
 3927SOL    HW123417   2.435   3.094  12.797  1.5669  0.1713  0.2452
 3927SOL    HW223418   2.499   3.154  12.918  0.0641 -0.3014 -0.8451
 3928SOL     OW23419   4.704   3.547   6.616  0.3622 -0.1152 -0.1375
 3928SOL    HW123420   4.626   3.495   6.595  0.6096 -0.7284  0.4792
 3928SOL    HW223421   0.020   3.525   6.540  1.7726  0.8889  0.5872
 3929SOL     OW23422   4.068   2.609   3.456  0.0567  0.4710 -0.0454
 3929SOL    HW123423   4.088   2.661   3.378  2.0725  0.1603  0.2648
 3929SOL    HW223424   4.156   2.618   3.494  0.4673 -1.7721 -0.4406
 3930SOL     OW23425   1.390   3.747  11.878 -0.8230 -0.5127  0.0611
 3930SOL    HW123426   1.479   3.768  11.850 -1.3100  2.3078  0.6389
 3930SOL    HW223427   1.357   3.673  11.826  0.5921 -1.0560 -0.0418
 3931SOL     OW23428   1.479   2.288   5.899  0.2771 -0.6655 -0.4247
 3931SOL    HW123429   1.510   2.375   5.924  1.9131 -1.4765  0.3824
 3931SOL    HW223430   1.557   2.242   5.930 -1.6275 -1.8505  2.5527
 3932SOL     OW23431   3.928   0.764  14.984  0.6850  0.4839  0.5166
 3932SOL    HW123432   3.984   0.703  15.031 -1.0180  0.8140  2.9913
 3932SOL    HW223433   3.846   0.717  14.965  0.5132  0.3020  1.7280
 3933SOL     OW23434   2.420   3.840  13.950  0.6433 -0.3069 -0.0690
 3933SOL    HW123435   2.382   3.753  13.962  0.3655 -0.1326  0.3209
 3933SOL    HW223436   2.412   3.859  13.857  1.5220  3.0541  0.5584
 3934SOL     OW23437   3.777   3.666   3.481 -0.0477  0.1026  0.2341
 3934SOL    HW123438   3.717   3.593   3.467  0.4241 -0.0842 -0.7834
 3934SOL    HW223439   3.833   3.648   3.557  1.0549  2.1722 -0.0883
 3935SOL     OW23440   3.017   1.496   7.954 -0.6516 -0.1605 -0.1701
 3935SOL    HW123441   3.109   1.469   7.958  0.0475  1.9647 -1.6681
 3935SOL    HW223442   3.019   1.568   8.017  1.3356 -0.9828  0.7131
 3936SOL     OW23443   3.605   4.221  13.917  0.4482  0.7003  0.7152
 3936SOL    HW123444   3.677   4.195  13.859  0.3085  3.5319 -0.6904
 3936SOL    HW223445   3.526   4.185  13.878  0.6662  1.0186 -0.0181
 3937SOL     OW23446   2.318   1.464  17.588  0.0832  0.2868  0.0110
 3937SOL    HW123447   2.227   1.459  17.558  0.9239  0.1595 -2.5118
 3937SOL    HW223448   2.311   1.542  17.643 -0.4995 -0.4904  1.0269
 3938SOL     OW23449   2.699   3.645  10.964 -0.0022 -0.2007  0.0899
 3938SOL    HW123450   2.698   3.682  11.052 -0.0281  0.8580 -0.3525
 3938SOL    HW223451   2.638   3.707  10.922  0.4284  0.5635  0.5898
 3939SOL     OW23452   2.973   3.475  12.877 -0.1710 -0.4772  0.4951
 3939SOL    HW123453   3.013   3.501  12.794 -3.3923  0.3557 -0.7879
 3939SOL    HW223454   3.038   3.417  12.917 -1.4687 -2.6035 -0.4827
 3940SOL     OW23455   3.130   2.586   8.875  0.2107 -0.3318 -0.1673
 3940SOL    HW123456   3.115   2.679   8.886  0.0016 -0.1122 -2.4200
 3940SOL    HW223457   3.041   2.552   8.861 -0.2963 -0.1403  2.6152
 3941SOL     OW23458   2.621   3.517  14.272  0.3812 -0.2061 -0.3481
 3941SOL    HW123459   2.533   3.480  14.262  0.6016 -0.7772 -0.1502
 3941SOL    HW223460   2.604   3.609  14.253  0.1117 -0.1468  0.1857
 3942SOL     OW23461   0.944   0.650   5.612  1.3835  0.0537  0.3679
 3942SOL    HW123462   0.944   0.658   5.516  0.6588  2.6791  0.5881
 3942SOL    HW223463   0.944   0.738   5.649 -0.1850  0.1984  0.0164
 3943SOL     OW23464   1.902   2.314   9.097 -0.4866 -0.1760 -0.0216
 3943SOL    HW123465   1.861   2.235   9.063 -0.1691  1.0848 -3.3493
 3943SOL    HW223466   1.935   2.345   9.013 -3.1949 -0.1277 -1.0373
 3944SOL     OW23467   1.665   4.454   5.781  0.3759  0.0163  0.4265
 3944SOL    HW123468   1.581   4.498   5.798  0.7242  1.4489 -1.5270
 3944SOL    HW223469   1.672   4.372   5.830 -0.1185 -0.2121  0.1217
 3945SOL     OW23470   4.732   0.680   3.440  0.2834 -0.5061 -0.5172
 3945SOL    HW123471   0.031   0.597   3.469 -0.8747 -1.0582 -0.5774
 3945SOL    HW223472   0.068   0.739   3.442 -0.4738  0.4998 -1.3542
 3946SOL     OW23473   4.085   2.680   2.350  0.0585 -0.1868 -0.3161
 3946SOL    HW123474   4.055   2.609   2.408 -1.3132 -1.2102 -2.3165
 3946SOL    HW223475   4.180   2.681   2.360 -0.0804  1.8499  0.8150
 3947SOL     OW23476   0.618   1.038   1.567  0.3330  0.7367  0.4174
 3947SOL    HW123477   0.532   1.077   1.583 -0.4483 -0.3930 -1.0148
 3947SOL    HW223478   0.643   1.047   1.659 -0.5188 -0.2235  0.7560
 3948SOL     OW23479   1.739   0.319   2.699 -0.0715  0.3385 -0.0456
 3948SOL    HW123480   1.723   0.383   2.630 -1.1210 -0.2761 -0.3725
 3948SOL    HW223481   1.813   0.361   2.742  0.0655  0.3971 -0.3406
 3949SOL     OW23482   2.055   0.653   4.916  0.1540  0.1640 -0.0273
 3949SOL    HW123483   2.125   0.704   4.874  0.2246 -2.5279 -3.2443
 3949SOL    HW223484   2.074   0.660   5.009  2.7168 -0.8352 -0.4703
 3950SOL     OW23485   1.475   0.861   1.066 -0.0688  0.2720  0.9337
 3950SOL    HW123486   1.552   0.861   1.009 -1.5887 -0.4353 -1.1312
 3950SOL    HW223487   1.426   0.926   1.015 -0.7205 -1.5493 -0.7716
 3951SOL     OW23488   0.442   0.127   4.234  0.0272 -0.3336  0.1585
 3951SOL    HW123489   0.500   0.124   4.310  1.0179  0.9271 -0.5616
 3951SOL    HW223490   0.405   0.039   4.242  1.0101 -0.5800  1.9596
 3952SOL     OW23491   3.412   1.826   5.029  0.1620  0.1730  0.4601
 3952SOL    HW123492   3.497   1.783   5.030  0.5837  0.9616 -0.6145
 3952SOL    HW223493   3.375   1.794   4.946 -0.7437 -2.9558  2.0696
 3953SOL     OW23494   0.208   2.656   4.264  0.1943 -0.1510 -0.0519
 3953SOL    HW123495   0.198   2.749   4.282  0.4492 -0.4472  1.6578
 3953SOL    HW223496   0.114   2.641   4.275  0.2149 -0.8373 -0.8338
 3954SOL     OW23497   4.429   0.485  16.758  0.3068  0.0247  0.0670
 3954SOL    HW123498   4.439   0.580  16.764  0.8983  0.0343 -1.1429
 3954SOL    HW223499   4.442   0.467  16.664  0.8988  0.9369 -0.0264
 3955SOL     OW23500   4.510   3.744   1.227 -0.1884  0.1341  0.1796
 3955SOL    HW123501   4.418   3.756   1.204  0.8444  4.6590 -1.7734
 3955SOL    HW223502   4.509   3.772   1.318  1.0293  1.8009 -0.3078
 3956SOL     OW23503   0.355   2.930   5.398  0.1673  0.1802  0.1015
 3956SOL    HW123504   0.300   2.891   5.466 -1.3133 -0.4929 -1.4743
 3956SOL    HW223505   0.280   2.977   5.361  1.0970  0.2214 -1.7424
 3957SOL     OW23506   3.403   0.901   8.226 -0.0874  0.3681  0.2630
 3957SOL    HW123507   3.470   0.942   8.280  1.2392 -2.6660  0.8831
 3957SOL    HW223508   3.429   0.920   8.136 -0.1440 -1.5856 -0.1511
 3958SOL     OW23509   4.136   4.293   4.794 -0.0898  0.3280 -0.4262
 3958SOL    HW123510   4.057   4.291   4.740 -0.4581 -2.6186  0.2102
 3958SOL    HW223511   4.096   4.313   4.878  3.1836  1.0976  0.9435
 3959SOL     OW23512   0.125   2.984  16.891  0.3843  0.1857  0.1333
 3959SOL    HW123513   0.066   3.034  16.836  0.3047  0.1839  0.2169
 3959SOL    HW223514   0.109   2.893  16.864  1.3504  0.4448 -1.3101
 3960SOL     OW23515   1.917   3.490   1.531 -0.0191 -0.0380  0.4122
 3960SOL    HW123516   2.009   3.462   1.535  0.0552  0.4242  1.8884
 3960SOL    HW223517   1.879   3.427   1.470 -0.9721  1.5414 -0.6022
 3961SOL     OW23518   3.994   3.617   8.707 -0.0545  0.0524 -0.0882
 3961SOL    HW123519   3.971   3.530   8.739 -1.4073  0.7533  0.8215
 3961SOL    HW223520   4.055   3.656   8.769 -0.1987 -1.5150  1.0151
 3962SOL     OW23521   3.917   1.053   5.873 -0.1302  0.1674  0.0123
 3962SOL    HW123522   3.887   1.019   5.789 -0.6085  0.0458  0.2271
 3962SOL    HW223523   4.000   1.006   5.876 -0.5204 -0.7434 -3.0437
 3963SOL     OW23524   3.357   2.190   7.583 -0.2396 -0.2627 -0.5899
 3963SOL    HW123525   3.437   2.221   7.540  0.3913 -1.7785 -0.5166
 3963SOL    HW223526   3.290   2.202   7.516 -0.0981  0.0070 -0.6849
 3964SOL     OW23527   3.857   1.852   4.803 -0.4357 -0.3560  0.0979
 3964SOL    HW123528   3.909   1.831   4.880 -0.1193  3.2499  0.8794
 3964SOL    HW223529   3.856   1.943   4.832  2.2516  0.0927 -1.2687
 3965SOL     OW23530   2.197   1.021  16.863 -0.7997  0.2357  0.1210
 3965SOL    HW123531   2.207   1.067  16.779  0.0215  1.0047  0.6444
 3965SOL    HW223532   2.135   0.953  16.835 -0.6302  0.0066  0.2990
 3966SOL     OW23533   2.298   3.576   6.513  0.1901 -0.9337 -0.3015
 3966SOL    HW123534   2.249   3.644   6.560  0.1830 -0.2293 -1.3264
 3966SOL    HW223535   2.390   3.600   6.520 -0.4188  1.3147 -0.0276
 3967SOL     OW23536   4.710   1.583   3.504  0.0734  0.0555  0.1239
 3967SOL    HW123537   0.015   1.657   3.463  1.0373  0.1833  1.3996
 3967SOL    HW223538   4.619   1.607   3.488  0.3910  0.3134 -1.3675
 3968SOL     OW23539   4.075   1.954   1.414 -0.1458  0.6425  0.0659
 3968SOL    HW123540   3.995   1.935   1.464 -0.3264 -1.1026 -0.8894
 3968SOL    HW223541   4.088   2.048   1.428 -1.0020  0.3877  2.6407
 3969SOL     OW23542   3.844   4.152   5.667  0.1744  0.2160  0.5473
 3969SOL    HW123543   3.930   4.120   5.695 -0.3056  0.0874  1.8830
 3969SOL    HW223544   3.833   4.113   5.581  2.6807  0.2422  0.2299
 3970SOL     OW23545   4.709   4.126  15.671 -0.0519 -0.0570 -0.0462
 3970SOL    HW123546   4.649   4.142  15.597  1.5015 -1.5083 -1.6331
 3970SOL    HW223547   4.656   4.157  15.744  0.2981 -1.5780  0.8376
 3971SOL     OW23548   1.972   0.551  14.655 -0.2093 -0.1182  0.0042
 3971SOL    HW123549   1.971   0.469  14.605  0.0128 -0.1772  0.0975
 3971SOL    HW223550   1.931   0.615  14.596  0.0957  0.1289  0.0597
 3972SOL     OW23551   3.759   3.334   9.585  0.0795  0.2638 -0.1132
 3972SOL    HW123552   3.673   3.349   9.546 -0.5823  2.5972  2.2657
 3972SOL    HW223553   3.760   3.243   9.614 -0.7054  0.0426 -0.7771
 3973SOL     OW23554   3.485   2.218  12.523  0.1191  0.1059 -0.2455
 3973SOL    HW123555   3.426   2.151  12.556 -0.4158  1.2649  1.1253
 3973SOL    HW223556   3.507   2.271  12.600 -1.0039  0.0030  0.1350
 3974SOL     OW23557   4.376   3.708   1.976 -0.0563  0.0710 -0.8492
 3974SOL    HW123558   4.469   3.687   1.976 -0.0442  0.1127 -0.1405
 3974SOL    HW223559   4.337   3.674   2.057  0.5448  0.2530 -0.4818
 3975SOL     OW23560   0.578   2.997  16.803 -0.0621  0.2927 -0.3843
 3975SOL    HW123561   0.635   3.073  16.815  0.3784  0.1591 -1.5705
 3975SOL    HW223562   0.502   3.042  16.765 -0.1812  2.0665  1.9569
 3976SOL     OW23563   0.708   3.045   6.825 -0.3070 -0.0255 -0.4377
 3976SOL    HW123564   0.625   3.055   6.872 -0.6734 -0.9829 -0.8837
 3976SOL    HW223565   0.676   3.097   6.751 -0.4095  0.8232  0.1958
 3977SOL     OW23566   2.938   3.179   5.434  0.3741  0.2055 -0.2638
 3977SOL    HW123567   2.844   3.188   5.448  0.2931  0.9442 -1.2937
 3977SOL    HW223568   2.964   3.133   5.514 -0.7082  0.6545  0.3466
 3978SOL     OW23569   2.551   1.137   3.244 -0.3575 -0.3859  0.1788
 3978SOL    HW123570   2.551   1.213   3.303 -2.6992 -0.8988  0.8503
 3978SOL    HW223571   2.641   1.105   3.250  0.6670  2.0801 -1.8607
 3979SOL     OW23572   0.431   0.324   6.877 -0.3192  0.2389 -0.0030
 3979SOL    HW123573   0.396   0.405   6.839  0.6694  0.3021 -0.7731
 3979SOL    HW223574   0.362   0.265   6.848 -2.1626  2.2314  0.3120
 3980SOL     OW23575   2.659   4.630   4.192  0.6341  0.0018 -0.3450
 3980SOL    HW123576   2.744   4.589   4.208  0.7390  0.1652 -0.4935
 3980SOL    HW223577   2.676   4.708   4.140  0.0726 -0.1674 -0.7755
 3981SOL     OW23578   4.631   2.723   2.644 -0.2055  0.2737  0.2866
 3981SOL    HW123579   4.680   2.700   2.565  0.9243  3.3550  0.0868
 3981SOL    HW223580   4.696   2.733   2.714  0.1390  2.5243 -0.3320
 3982SOL     OW23581   2.118   0.635   7.220  0.4516 -0.0201  0.3341
 3982SOL    HW123582   2.096   0.574   7.290  0.1800 -0.2127  0.0808
 3982SOL    HW223583   2.070   0.588   7.152  0.2161  0.4253  0.1911
 3983SOL     OW23584   2.735   1.445   3.937 -0.3621 -0.0035  0.4347
 3983SOL    HW123585   2.685   1.369   3.907 -1.9139  1.2861 -0.2557
 3983SOL    HW223586   2.671   1.512   3.961 -0.2777  1.4387 -3.2998
 3984SOL     OW23587   1.366   1.810   2.145 -0.4978 -0.3086  0.5358
 3984SOL    HW123588   1.397   1.900   2.143 -1.1387 -0.0538  1.9244
 3984SOL    HW223589   1.428   1.778   2.211  2.2489 -1.0898 -2.4571
 3985SOL     OW23590   0.485   3.737  14.436 -0.2830  0.3652 -0.3588
 3985SOL    HW123591   0.462   3.737  14.343  1.4961  0.1275 -0.7954
 3985SOL    HW223592   0.401   3.710  14.474 -0.1249  0.2593 -0.0824
 3986SOL     OW23593   3.439   0.565  10.370 -0.0638  0.5856  0.5020
 3986SOL    HW123594   3.365   0.600  10.321 -0.2296 -0.4487  0.0188
 3986SOL    HW223595   3.398   0.541  10.453 -1.3582  0.0060 -0.3162
 3987SOL     OW23596   0.319   4.304   2.958  0.1283  0.4167 -0.6495
 3987SOL    HW123597   0.336   4.368   3.027 -0.2169 -0.1127 -0.0790
 3987SOL    HW223598   0.275   4.369   2.903 -0.5994 -0.6195 -1.2930
 3988SOL     OW23599   2.418   0.547   1.583 -0.4043  0.0593  0.5274
 3988SOL    HW123600   2.371   0.570   1.503  0.3749  2.3496  0.7103
 3988SOL    HW223601   2.480   0.478   1.560  0.6181  1.8562 -2.1202
 3989SOL     OW23602   3.188   1.325   5.331 -0.4511 -0.6812  0.0467
 3989SOL    HW123603   3.198   1.384   5.406 -0.5461 -0.1349 -0.3695
 3989SOL    HW223604   3.095   1.312   5.344 -0.9099  3.2026  0.6195
 3990SOL     OW23605   4.109   1.380   7.950  0.5669 -0.4124  0.0115
 3990SOL    HW123606   4.161   1.440   8.004 -0.0422  1.2352 -1.2194
 3990SOL    HW223607   4.140   1.411   7.864 -0.4863 -2.2518 -1.0318
 3991SOL     OW23608   3.973   1.726   7.745  0.1515  0.3166  0.3197
 3991SOL    HW123609   3.892   1.757   7.706  0.0761  0.0465  0.2604
 3991SOL    HW223610   4.039   1.762   7.685 -1.3561  0.5314 -1.1852
 3992SOL     OW23611   1.343   2.936   6.533  0.1860  0.1574  0.2352
 3992SOL    HW123612   1.279   3.007   6.539 -0.1962 -0.2685  1.0550
 3992SOL    HW223613   1.377   2.943   6.444 -4.1903 -2.6974 -1.6408
 3993SOL     OW23614   1.748   0.849   7.978  0.9031 -0.5626 -0.3291
 3993SOL    HW123615   1.783   0.892   8.056  0.9524 -2.4530  0.6760
 3993SOL    HW223616   1.801   0.770   7.988 -0.2964 -1.2136  0.8260
 3994SOL     OW23617   1.119   2.440   0.170 -0.1105  0.5200  0.6720
 3994SOL    HW123618   1.198   2.463   0.121 -0.9263  1.0268 -0.4021
 3994SOL    HW223619   1.046   2.486   0.129 -0.5599  0.6050  1.5574
 3995SOL     OW23620   2.104   0.600   2.902 -0.1023  0.1238  0.1457
 3995SOL    HW123621   2.054   0.519   2.892  1.0913 -1.1899  4.9349
 3995SOL    HW223622   2.052   0.635   2.975 -0.3956 -0.7644  0.3612
 3996SOL     OW23623   3.517   1.680   8.655 -0.1389 -0.1406  0.2069
 3996SOL    HW123624   3.605   1.680   8.617 -0.9262 -1.6776 -1.5904
 3996SOL    HW223625   3.520   1.604   8.714  1.7464  0.1274  0.4502
 3997SOL     OW23626   0.099   0.616   4.537  0.3879 -0.2230  0.1855
 3997SOL    HW123627   0.100   0.534   4.587  0.2145 -0.6214 -0.4676
 3997SOL    HW223628   0.028   0.588   4.478  1.8424 -1.2596 -1.0702
 3998SOL     OW23629   3.849   1.956   3.640 -0.8175 -0.0769 -0.2355
 3998SOL    HW123630   3.878   1.956   3.732  0.8356  0.1219 -0.7677
 3998SOL    HW223631   3.868   1.866   3.614 -0.9879  0.5803 -2.5823
 3999SOL     OW23632   2.924   4.379   1.146 -0.0052 -0.0479  0.0377
 3999SOL    HW123633   2.979   4.348   1.219  0.9748  2.1389  0.2420
 3999SOL    HW223634   2.946   4.323   1.072 -1.9494 -2.8099  1.5488
 4000SOL     OW23635   2.243   1.712  10.203  0.5835  0.0842  0.1677
 4000SOL    HW123636   2.176   1.773  10.236  2.1299  2.6874 -1.5366
 4000SOL    HW223637   2.297   1.774  10.155 -0.7328 -0.9467 -2.6693
 4001SOL     OW23638   3.162   4.410  15.059  0.4404  0.1727  0.0504
 4001SOL    HW123639   3.253   4.378  15.063 -0.1296 -1.1908  1.7416
 4001SOL    HW223640   3.170   4.449  14.972  0.6437  0.4819  0.2073
 4002SOL     OW23641   3.628   3.490  15.430 -0.7269 -0.5180  0.0583
 4002SOL    HW123642   3.565   3.513  15.498 -1.2371  2.0185 -1.2374
 4002SOL    HW223643   3.621   3.396  15.419 -0.2290 -0.7461  1.6746
 4003SOL     OW23644   2.298   0.034   3.236  0.2383 -0.0523 -0.5576
 4003SOL    HW123645   2.283   4.679   3.227 -1.9494  0.2769 -0.3784
 4003SOL    HW223646   2.327   0.056   3.147 -1.4887  0.9783 -0.8595
 4004SOL     OW23647   3.168   1.657   7.039  0.3511 -0.2055  0.1043
 4004SOL    HW123648   3.185   1.631   6.948  0.0735 -0.2567  0.0672
 4004SOL    HW223649   3.253   1.654   7.083  0.1720  0.0690  0.4651
 4005SOL     OW23650   0.663   4.232   1.684  0.2328 -1.1103 -0.1207
 4005SOL    HW123651   0.730   4.267   1.743 -0.1111 -2.8224  1.2822
 4005SOL    HW223652   0.595   4.205   1.746  2.2517  1.4772  3.2625
 4006SOL     OW23653   0.631   4.529   7.906 -0.1448  0.0093  0.1135
 4006SOL    HW123654   0.606   4.585   7.979 -0.6999 -2.0106  1.4658
 4006SOL    HW223655   0.581   4.568   7.834 -0.8356 -1.1948 -0.0609
 4007SOL     OW23656   3.387   2.925   6.042  0.1547 -0.4473 -0.0758
 4007SOL    HW123657   3.479   2.920   6.069 -1.1295 -2.0434  3.8853
 4007SOL    HW223658   3.346   2.866   6.105 -4.2266  1.7591 -0.8486
 4008SOL     OW23659   2.392   3.473   0.305 -0.0958  0.0988  0.0392
 4008SOL    HW123660   2.335   3.492   0.380 -1.8253 -0.7054 -1.0639
 4008SOL    HW223661   2.324   3.429   0.255 -0.9436 -0.5104  1.7137
 4009SOL     OW23662   0.577   4.591   3.302 -0.0093 -0.3710 -0.1506
 4009SOL    HW123663   0.589   4.496   3.308  0.0911 -0.3573 -0.1378
 4009SOL    HW223664   0.665   4.630   3.302  1.0143 -2.6725 -1.0082
 4010SOL     OW23665   0.596   0.898   0.666  0.4647 -0.5966  0.5842
 4010SOL    HW123666   0.504   0.889   0.641  0.5354  0.3881 -0.0047
 4010SOL    HW223667   0.589   0.928   0.756 -1.2631  2.5618 -0.6122
 4011SOL     OW23668   1.946   0.019   5.612  0.0316  0.2267  0.3300
 4011SOL    HW123669   1.899   4.726   5.688  0.5787 -0.5575  0.3397
 4011SOL    HW223670   2.031   0.042   5.649  0.2945  1.2264 -0.9058
 4012SOL     OW23671   1.590   0.705   8.814 -0.2832 -0.0718 -0.2622
 4012SOL    HW123672   1.583   0.788   8.863 -0.3248 -1.0661  1.4109
 4012SOL    HW223673   1.506   0.696   8.769 -1.2223 -0.5490  1.6094
 4013SOL     OW23674   4.541   3.580   9.265  0.0618 -0.0807  0.3196
 4013SOL    HW123675   4.519   3.530   9.344 -0.9104 -1.6665 -0.9615
 4013SOL    HW223676   4.532   3.503   9.209  1.6863  0.8195 -1.1632
 4014SOL     OW23677   4.695   3.449   3.766 -0.6044  0.0843 -0.4238
 4014SOL    HW123678   4.699   3.478   3.857  1.2902 -1.1013 -0.1190
 4014SOL    HW223679   4.606   3.413   3.767 -1.0078  1.0724 -0.6751
 4015SOL     OW23680   1.618   2.938   2.899 -0.2482 -0.0723 -0.0439
 4015SOL    HW123681   1.612   2.950   2.994 -1.1882  0.0806 -0.1267
 4015SOL    HW223682   1.610   2.843   2.899  3.5066 -0.3953  0.3142
 4016SOL     OW23683   4.496   1.065  16.135 -0.5637 -0.3283 -0.2332
 4016SOL    HW123684   4.508   1.109  16.218 -4.1959  0.5986 -0.1875
 4016SOL    HW223685   4.410   1.096  16.105 -1.2021  0.5473  2.5067
 4017SOL     OW23686   1.742   1.128   4.236 -0.1480 -0.2425 -0.3287
 4017SOL    HW123687   1.796   1.197   4.196 -2.1644  0.8683 -1.1217
 4017SOL    HW223688   1.690   1.184   4.293 -0.3374 -1.7247  0.9600
 4018SOL     OW23689   1.812   0.025   6.123  1.4701  0.6965  0.3069
 4018SOL    HW123690   1.868   0.095   6.088  1.8417  1.8020  3.1327
 4018SOL    HW223691   1.758   0.069   6.189  2.6099 -2.0414  3.0519
 4019SOL     OW23692   1.374   2.277  15.641 -0.0993 -0.5432 -0.1207
 4019SOL    HW123693   1.301   2.339  15.644 -0.2885 -0.8438  1.4135
 4019SOL    HW223694   1.444   2.343  15.639 -0.0883 -0.5331  0.7936
 4020SOL     OW23695   2.528   2.161  10.770 -0.0258  0.0072  0.2366
 4020SOL    HW123696   2.445   2.166  10.723  0.6036  2.8804 -0.5252
 4020SOL    HW223697   2.585   2.157  10.694 -0.3953  0.8754 -0.0820
 4021SOL     OW23698   1.933   0.849   6.598  0.0499 -0.1978  0.2120
 4021SOL    HW123699   1.904   0.906   6.527  0.8693  1.6141  1.3087
 4021SOL    HW223700   1.849   0.813   6.625  0.3753 -1.6313 -0.7143
 4022SOL     OW23701   2.000   1.173  17.019  0.2966  0.3171 -0.4045
 4022SOL    HW123702   2.094   1.188  17.024  0.1458  0.3596  2.6691
 4022SOL    HW223703   1.992   1.080  16.998 -1.2274  0.5891 -1.0119
 4023SOL     OW23704   1.338   3.168   4.876 -0.1498 -0.1151 -0.1766
 4023SOL    HW123705   1.381   3.215   4.947 -1.6994  1.1819 -0.0869
 4023SOL    HW223706   1.284   3.231   4.829 -2.8057 -1.1159  1.5606
 4024SOL     OW23707   3.710   0.259   9.000  0.2920  0.9266 -0.2135
 4024SOL    HW123708   3.771   0.297   9.063  3.0951 -1.5436 -1.4547
 4024SOL    HW223709   3.736   0.167   9.000  0.1953  0.8979  1.2025
 4025SOL     OW23710   3.939   3.527   9.580  0.5286  0.8668  0.4751
 4025SOL    HW123711   3.871   3.463   9.598  1.6806 -0.2838  0.7179
 4025SOL    HW223712   3.957   3.562   9.667 -2.1024  2.5992  0.2998
 4026SOL     OW23713   2.957   0.265   7.128  0.0895  0.3366  0.0822
 4026SOL    HW123714   2.901   0.281   7.204  2.1676 -1.2557  1.9459
 4026SOL    HW223715   2.970   0.170   7.132  2.7018  0.7467  1.2693
 4027SOL     OW23716   4.230   2.031   6.877 -0.2332 -0.0453 -0.1918
 4027SOL    HW123717   4.154   1.972   6.872 -0.3108 -0.0286  0.8138
 4027SOL    HW223718   4.254   2.019   6.969 -0.0168  1.1638 -0.1025
 4028SOL     OW23719   3.610   0.263   1.675  0.2029  0.3214 -0.1233
 4028SOL    HW123720   3.679   0.317   1.637  1.2265 -0.2970  0.8625
 4028SOL    HW223721   3.633   0.174   1.648 -1.4879 -0.7233  1.9300
 4029SOL     OW23722   1.764   3.260   6.166 -0.8232  0.4271 -0.0196
 4029SOL    HW123723   1.843   3.295   6.207  0.0454  0.2197 -1.5149
 4029SOL    HW223724   1.749   3.322   6.095  3.3319 -0.8071 -1.9715
 4030SOL     OW23725   1.390   0.947   8.585  0.1505 -0.1854  0.0758
 4030SOL    HW123726   1.354   0.866   8.621  1.8798 -0.6548  0.7744
 4030SOL    HW223727   1.351   1.013   8.643  0.2446 -1.0404  1.1313
 4031SOL     OW23728   1.895   4.141   3.532 -0.2038  0.1198  0.2803
 4031SOL    HW123729   1.844   4.207   3.578 -1.7893  0.5860 -2.1636
 4031SOL    HW223730   1.909   4.081   3.606  0.9017 -2.1986 -1.7827
 4032SOL     OW23731   0.767   0.780  17.029  0.3113 -0.1460 -0.0909
 4032SOL    HW123732   0.861   0.770  17.010  1.0143 -0.8157  3.8305
 4032SOL    HW223733   0.767   0.737  17.114 -0.0480  1.2155  0.5843
 4033SOL     OW23734   0.655   3.002   4.151  0.5679 -0.3739 -0.7657
 4033SOL    HW123735   0.592   2.990   4.222  1.3756  0.3908  0.0877
 4033SOL    HW223736   0.705   2.921   4.144  0.5465 -0.1570 -3.1698
 4034SOL     OW23737   2.341   2.308   1.888  0.0494 -0.3948  0.1369
 4034SOL    HW123738   2.416   2.285   1.944  0.9900  0.4264 -0.7829
 4034SOL    HW223739   2.375   2.389   1.851 -2.0829  0.8368  0.9339
 4035SOL     OW23740   4.315   0.328   8.533 -0.1184  0.1347 -0.1993
 4035SOL    HW123741   4.303   0.376   8.615  1.4161 -3.8335  2.3863
 4035SOL    HW223742   4.342   0.400   8.477 -2.7060 -0.1595 -1.8149
 4036SOL     OW23743   2.520   0.405   5.559 -0.1348  0.6626 -0.9846
 4036SOL    HW123744   2.497   0.436   5.647 -1.2328 -0.3012 -0.9244
 4036SOL    HW223745   2.612   0.386   5.573 -0.3498  1.1343  1.0275
 4037SOL     OW23746   3.178   1.881   6.012 -0.3874 -0.1702 -0.0053
 4037SOL    HW123747   3.136   1.808   5.966  0.6861 -1.6869  1.4340
 4037SOL    HW223748   3.227   1.838   6.082 -0.9586  0.8063  1.0091
 4038SOL     OW23749   4.544   3.179  13.337 -0.7049  0.5338  0.0366
 4038SOL    HW123750   4.529   3.169  13.243 -0.7389 -1.7448  0.2951
 4038SOL    HW223751   4.639   3.167  13.340 -0.8677 -1.5972 -2.9571
 4039SOL     OW23752   3.442   3.279   4.513  0.1049 -0.2705  0.4506
 4039SOL    HW123753   3.473   3.253   4.600  0.6636  0.6438  0.5282
 4039SOL    HW223754   3.422   3.204   4.458 -0.1264  0.5531 -0.6030
 4040SOL     OW23755   3.913   4.273   9.269 -0.0300  0.2057  0.8681
 4040SOL    HW123756   3.982   4.338   9.276 -0.9049  1.0771  1.2512
 4040SOL    HW223757   3.841   4.322   9.230 -0.1053 -0.3211  0.3445
 4041SOL     OW23758   2.883   2.720   4.276  0.0466  0.0095 -0.0671
 4041SOL    HW123759   2.795   2.706   4.311 -0.5752  0.3432 -1.4855
 4041SOL    HW223760   2.920   2.659   4.340  4.0498  2.0611 -0.4529
 4042SOL     OW23761   1.941   3.740  15.667  0.4452  0.1377 -0.0012
 4042SOL    HW123762   1.869   3.762  15.726  0.2944  0.4278 -0.2892
 4042SOL    HW223763   2.015   3.783  15.710 -0.6708  0.1814  1.8882
 4043SOL     OW23764   3.213   1.918   1.976  0.2906  0.4212  0.0434
 4043SOL    HW123765   3.221   1.844   1.916  0.0845  0.7659 -0.4056
 4043SOL    HW223766   3.130   1.896   2.020  0.1467 -0.5577 -0.7141
 4044SOL     OW23767   3.390   2.035   9.120  0.6626 -0.3049 -0.1427
 4044SOL    HW123768   3.324   2.084   9.070  0.2405  0.8353  1.5442
 4044SOL    HW223769   3.459   2.033   9.054  1.9565 -1.6562  1.2545
 4045SOL     OW23770   1.988   1.980   8.450  0.1052 -0.0046  0.2202
 4045SOL    HW123771   1.992   2.075   8.437 -1.2280 -0.2514 -2.0289
 4045SOL    HW223772   2.076   1.960   8.482 -0.4593 -0.6980  1.3527
 4046SOL     OW23773   0.220   1.362  12.047  0.2858 -0.3848  0.3809
 4046SOL    HW123774   0.125   1.346  12.045  0.2732 -0.4359  1.5932
 4046SOL    HW223775   0.225   1.349  12.141  1.5243  1.4782  0.5570
 4047SOL     OW23776   0.857   2.734   5.350  0.2382 -0.3372  0.3052
 4047SOL    HW123777   0.789   2.770   5.293 -1.2486 -1.1412  1.5688
 4047SOL    HW223778   0.834   2.787   5.427 -2.3690  0.3907 -0.9690
 4048SOL     OW23779   0.938   3.602   7.897 -0.4828 -0.1838  0.0335
 4048SOL    HW123780   0.903   3.663   7.962  2.9188  1.1038  0.6041
 4048SOL    HW223781   0.893   3.522   7.925 -1.0230  0.6759  1.6476
 4049SOL     OW23782   2.220   3.425   2.915 -0.1013  0.2134 -0.0455
 4049SOL    HW123783   2.178   3.339   2.921 -0.3187  0.2519 -1.0551
 4049SOL    HW223784   2.238   3.448   3.006  0.7841  2.2968 -0.7594
 4050SOL     OW23785   1.178   1.289   0.296 -0.1471 -0.3235 -0.5713
 4050SOL    HW123786   1.142   1.203   0.321 -0.1050 -0.5505 -1.2947
 4050SOL    HW223787   1.256   1.293   0.351 -1.4483 -0.5178  1.3117
 4051SOL     OW23788   1.423   3.104   4.616 -1.0824 -0.3447 -0.0598
 4051SOL    HW123789   1.369   3.124   4.693  0.4746 -1.8202  1.4087
 4051SOL    HW223790   1.359   3.078   4.550  0.3103 -1.2320 -1.0676
 4052SOL     OW23791   0.856   3.710   4.621  0.6483 -0.2623 -0.2803
 4052SOL    HW123792   0.821   3.701   4.709  0.1189 -0.2189 -0.4867
 4052SOL    HW223793   0.775   3.723   4.571  1.3061  1.9106 -0.8083
 4053SOL     OW23794   3.670   0.061   4.748  0.8312 -0.5662 -0.0034
 4053SOL    HW123795   3.720   4.736   4.698 -0.2417 -1.0951 -0.4137
 4053SOL    HW223796   3.606   0.090   4.683  0.8118  2.2266  1.2305
 4054SOL     OW23797   0.772   2.220   6.377  0.6067 -0.2572 -0.6191
 4054SOL    HW123798   0.695   2.163   6.372  1.2650 -1.4010  2.2498
 4054SOL    HW223799   0.837   2.160   6.340 -1.2805 -2.7935  0.1657
 4055SOL     OW23800   4.645   4.309   5.562 -0.1634  0.1065  0.3940
 4055SOL    HW123801   4.739   4.326   5.556  0.2358 -1.4848  1.9659
 4055SOL    HW223802   4.609   4.357   5.487 -1.7025 -1.7567 -0.0666
 4056SOL     OW23803   2.024   3.691   3.091  0.2606  0.3483  0.8760
 4056SOL    HW123804   1.960   3.760   3.103  0.0487 -0.1577  2.7306
 4056SOL    HW223805   2.003   3.639   3.169 -2.4233 -0.3119 -0.3028
 4057SOL     OW23806   4.522   2.194   2.315 -0.8543  0.2951 -0.3444
 4057SOL    HW123807   4.450   2.178   2.378  0.3054 -1.5954  0.5197
 4057SOL    HW223808   4.460   2.209   2.244 -2.8385 -0.0334  1.3086
 4058SOL     OW23809   2.839   3.283   4.332 -0.2001 -0.0663  0.0309
 4058SOL    HW123810   2.893   3.332   4.271 -0.2138 -2.6487 -2.0279
 4058SOL    HW223811   2.761   3.336   4.316  0.3153  0.5399 -0.4753
 4059SOL     OW23812   2.459   3.838   3.409 -0.0027 -0.0242  0.2951
 4059SOL    HW123813   2.489   3.901   3.476  0.3884  0.3027 -0.1856
 4059SOL    HW223814   2.365   3.854   3.403  0.0211 -0.0430 -0.1172
 4060SOL     OW23815   0.978   3.198  16.654  0.5672  0.1856 -0.1054
 4060SOL    HW123816   1.010   3.288  16.662 -0.1072  0.5974 -1.9742
 4060SOL    HW223817   1.058   3.152  16.629  0.5341  0.9082 -1.5604
 4061SOL     OW23818   4.086   3.947  11.152 -0.1591  0.4742  0.1163
 4061SOL    HW123819   4.174   3.937  11.116 -0.8165  0.7539 -1.5991
 4061SOL    HW223820   4.101   4.030  11.198 -2.9325  1.1146 -0.1373
 4062SOL     OW23821   3.041   3.171   4.964  0.2497 -0.2898  0.1253
 4062SOL    HW123822   3.068   3.173   4.872 -0.3071 -0.3528 -0.0388
 4062SOL    HW223823   3.116   3.204   5.014 -0.0624 -0.5815  0.7670
 4063SOL     OW23824   3.966   1.153   8.817  0.0258 -0.0356  0.1523
 4063SOL    HW123825   3.922   1.150   8.902  0.1416 -0.7650  0.1874
 4063SOL    HW223826   3.909   1.091   8.771  0.6289 -0.1282 -0.4734
 4064SOL     OW23827   3.251   4.279   4.804 -0.1143 -0.6323 -0.0881
 4064SOL    HW123828   3.186   4.347   4.782  0.1315 -0.4159 -0.1537
 4064SOL    HW223829   3.283   4.261   4.716 -1.5669  0.1603 -0.7816
 4065SOL     OW23830   3.341   3.036   6.618 -0.3558  0.5451 -0.2234
 4065SOL    HW123831   3.274   3.004   6.557 -1.0854 -1.5613  1.6784
 4065SOL    HW223832   3.333   2.970   6.686 -1.8942  0.4054 -0.5337
 4066SOL     OW23833   1.681   0.451   6.443  0.0091  0.1350 -0.0104
 4066SOL    HW123834   1.742   0.495   6.502  1.3216  0.2620 -1.4648
 4066SOL    HW223835   1.719   0.481   6.360  1.6425 -1.8776  0.0048
 4067SOL     OW23836   1.699   4.111   0.574  0.6057  0.2949 -0.1717
 4067SOL    HW123837   1.732   4.043   0.516 -0.2429  0.3737 -0.7425
 4067SOL    HW223838   1.648   4.071   0.645 -0.4739  0.0803 -1.0669
 4068SOL     OW23839   1.480   3.091   3.984  0.1068  0.8397  0.3154
 4068SOL    HW123840   1.559   3.079   4.037 -0.2889 -0.3670  0.6303
 4068SOL    HW223841   1.495   3.174   3.939 -0.9419  0.3855 -0.8619
 4069SOL     OW23842   1.828   1.327   3.671 -0.5839  0.3321  0.3596
 4069SOL    HW123843   1.764   1.397   3.664 -0.2878  0.4680 -1.0235
 4069SOL    HW223844   1.816   1.274   3.592 -2.6473  0.0373  0.8723
 4070SOL     OW23845   0.522   1.662   4.814  0.1410  0.8225  0.2835
 4070SOL    HW123846   0.475   1.743   4.833 -0.3686  0.0007  2.5141
 4070SOL    HW223847   0.528   1.628   4.903 -0.2269  1.5310  0.5793
 4071SOL     OW23848   1.480   1.858  16.646  0.2018 -0.0802 -0.0297
 4071SOL    HW123849   1.385   1.862  16.655 -0.1183 -2.1351 -2.3518
 4071SOL    HW223850   1.488   1.893  16.557 -0.4809  0.8870  0.2864
 4072SOL     OW23851   3.321   0.569   3.970 -0.1267  0.2357 -0.0768
 4072SOL    HW123852   3.304   0.582   4.064  2.7386  1.2524  0.3200
 4072SOL    HW223853   3.239   0.567   3.921 -0.7744  0.2202  1.0106
 4073SOL     OW23854   1.060   2.179   2.831 -0.4893  0.1791 -0.5140
 4073SOL    HW123855   1.042   2.123   2.755  1.2890 -1.5180  0.3115
 4073SOL    HW223856   1.018   2.260   2.801 -0.4484  0.6743  0.7861
 4074SOL     OW23857   2.789   3.198  10.079  0.1945  0.5370  0.4590
 4074SOL    HW123858   2.855   3.234  10.139 -1.2231 -0.7223  2.7538
 4074SOL    HW223859   2.799   3.104  10.095 -1.8436  0.2127 -0.1391
 4075SOL     OW23860   2.975   2.376   0.960  0.1718 -0.8115 -0.1242
 4075SOL    HW123861   2.924   2.424   1.025  1.6290 -0.1942  0.5497
 4075SOL    HW223862   2.943   2.413   0.878 -2.4067  0.8406  1.6380
 4076SOL     OW23863   1.183   3.891   4.705 -0.1127  0.1163 -0.0684
 4076SOL    HW123864   1.145   3.902   4.618 -0.6755 -0.6047  0.0822
 4076SOL    HW223865   1.232   3.972   4.717 -1.7826  1.1945 -0.6369
 4077SOL     OW23866   2.194   4.117  16.648 -0.6636  0.2625 -0.1778
 4077SOL    HW123867   2.152   4.033  16.628  0.6914 -0.8601  1.6768
 4077SOL    HW223868   2.287   4.095  16.661 -0.1848  0.5864 -3.0365
 4078SOL     OW23869   4.407   2.101   3.388 -0.0186  0.5485 -0.2828
 4078SOL    HW123870   4.391   2.156   3.312 -0.3930  1.8957  0.7816
 4078SOL    HW223871   4.370   2.153   3.459 -0.6204 -0.1160 -0.1055
 4079SOL     OW23872   1.911   0.217   6.406 -0.3153  0.3001 -0.4621
 4079SOL    HW123873   1.933   0.302   6.445  3.8891 -0.8815 -0.3194
 4079SOL    HW223874   1.899   0.162   6.483 -0.1851  1.3588  0.3163
 4080SOL     OW23875   0.019   0.537  16.587 -0.7818  0.1486  0.5166
 4080SOL    HW123876   0.048   0.567  16.501 -2.1161  0.7976  0.2874
 4080SOL    HW223877   4.698   0.467  16.560  0.9108 -1.2176  0.3332
 4081SOL     OW23878   4.099   4.277   5.825  0.0893 -0.4431  0.3301
 4081SOL    HW123879   4.192   4.255   5.824  0.2469  0.2964 -1.4896
 4081SOL    HW223880   4.075   4.224   5.901 -1.5817  0.8254  0.6874
 4082SOL     OW23881   3.860   1.444   6.315  0.5465 -0.2478 -0.3864
 4082SOL    HW123882   3.887   1.361   6.276  0.7278 -0.5082  0.2941
 4082SOL    HW223883   3.926   1.494   6.266  1.4099  0.6922  1.7331
 4083SOL     OW23884   4.511   3.079   3.025  0.3803  0.2255  0.7370
 4083SOL    HW123885   4.543   3.107   2.940  1.0377 -3.0065 -0.1002
 4083SOL    HW223886   4.529   3.160   3.072  1.8993 -0.2711  1.0388
 4084SOL     OW23887   0.342   2.016  16.486  0.6601  0.1866  0.5910
 4084SOL    HW123888   0.348   2.007  16.581 -0.8775 -1.3011  0.5534
 4084SOL    HW223889   0.363   1.926  16.461 -1.3235 -0.3516  0.8199
 4085SOL     OW23890   1.027   1.525  14.154 -0.0335  0.1294  0.4411
 4085SOL    HW123891   1.113   1.564  14.136 -1.6062  3.2614 -0.2622
 4085SOL    HW223892   1.017   1.462  14.083 -1.5084 -0.4740  1.1796
 4086SOL     OW23893   0.333   3.802   8.560  0.3928  0.5833 -0.5491
 4086SOL    HW123894   0.399   3.871   8.568  2.6608 -2.0394  3.0248
 4086SOL    HW223895   0.253   3.836   8.600  0.2488 -0.2209 -0.1627
 4087SOL     OW23896   3.872   4.298   2.952 -0.1493  0.8942  0.3695
 4087SOL    HW123897   3.840   4.380   2.915 -1.1993  1.0015  1.5252
 4087SOL    HW223898   3.820   4.297   3.032  1.5832  1.0177  1.4755
 4088SOL     OW23899   2.052   3.197   2.923 -0.5823  0.0735  0.6040
 4088SOL    HW123900   2.004   3.208   3.004  2.2793 -0.3139  2.3614
 4088SOL    HW223901   2.087   3.108   2.930  0.2169  0.5082  2.1564
 4089SOL     OW23902   2.621   2.451  10.525 -0.4686  0.3085 -0.0544
 4089SOL    HW123903   2.679   2.508  10.474 -0.5345  1.9362  1.6970
 4089SOL    HW223904   2.639   2.480  10.614  2.0460  1.1069 -0.8227
 4090SOL     OW23905   2.052   0.942   9.173  0.5269  0.4220 -0.1681
 4090SOL    HW123906   2.037   1.022   9.225 -2.1682 -1.6836  2.2849
 4090SOL    HW223907   2.141   0.917   9.199  0.3826 -0.6741 -0.7535
 4091SOL     OW23908   2.421   2.085  11.022 -0.4911 -0.7378 -0.2130
 4091SOL    HW123909   2.402   2.001  10.981  1.7660 -1.6270  0.5453
 4091SOL    HW223910   2.458   2.127  10.943 -0.3094 -3.0819 -1.3611
 4092SOL     OW23911   2.925   0.249   7.758  0.0532  0.0809 -0.6677
 4092SOL    HW123912   2.985   0.185   7.797  0.9455  1.5766  0.4112
 4092SOL    HW223913   2.892   0.309   7.825  2.5468  1.0679 -0.3246
 4093SOL     OW23914   0.636   4.320   1.979 -0.1854 -0.0784 -0.7770
 4093SOL    HW123915   0.691   4.344   2.054 -3.1905  1.4989  0.9084
 4093SOL    HW223916   0.677   4.235   1.960  1.9598  1.3801 -2.7349
 4094SOL     OW23917   0.288   4.321   1.488 -0.5987  0.0819 -0.5139
 4094SOL    HW123918   0.287   4.243   1.543 -1.8209 -0.9862 -2.0265
 4094SOL    HW223919   0.381   4.334   1.471 -0.5047  0.9599  0.7249
 4095SOL     OW23920   4.043   2.156   2.613  0.1631  0.2143  0.4391
 4095SOL    HW123921   3.981   2.089   2.587  0.4723  0.5049 -1.0353
 4095SOL    HW223922   3.983   2.221   2.650  3.6666  4.6449 -1.6194
 4096SOL     OW23923   2.437   0.932   2.740 -0.0909  0.1650  0.3392
 4096SOL    HW123924   2.416   0.841   2.761  3.3446 -0.6650  0.2668
 4096SOL    HW223925   2.475   0.965   2.822  0.5958 -2.5089  1.1156
 4097SOL     OW23926   2.955   4.515   4.507 -0.0308 -0.0064  0.0050
 4097SOL    HW123927   3.003   4.481   4.582 -0.8774 -2.2242 -0.4587
 4097SOL    HW223928   2.903   4.579   4.556 -0.2981 -0.0032 -0.2799
 4098SOL     OW23929   2.971   3.554  10.056  0.3222 -0.4457 -0.1142
 4098SOL    HW123930   2.942   3.625  10.113  4.5065  0.5953  0.6804
 4098SOL    HW223931   3.055   3.537  10.099  0.7212 -0.0652 -0.7412
 4099SOL     OW23932   3.103   0.528   4.184 -0.3393  0.3761  0.1604
 4099SOL    HW123933   3.019   0.518   4.229  0.0446 -3.2028  0.0650
 4099SOL    HW223934   3.105   0.444   4.140 -0.7486 -0.2909  1.4131
 4100SOL     OW23935   2.626   3.590   0.375  0.2386  0.2229 -0.3857
 4100SOL    HW123936   2.559   3.528   0.348  1.5625 -2.4029  2.3469
 4100SOL    HW223937   2.585   3.638   0.447  1.5017 -3.0319  2.5264
 4101SOL     OW23938   1.001   0.756   0.651 -0.1562 -0.4116  0.0905
 4101SOL    HW123939   1.046   0.722   0.574 -0.1421  1.5068 -0.7625
 4101SOL    HW223940   0.926   0.788   0.601 -1.1595 -1.6181  0.8306
 4102SOL     OW23941   2.103   3.901   4.508  0.3017  0.2632  0.2033
 4102SOL    HW123942   2.075   3.812   4.488  0.4216  0.5835 -1.3833
 4102SOL    HW223943   2.197   3.896   4.489  0.1083 -1.6598 -0.2547
 4103SOL     OW23944   4.728   0.355   8.497  0.5947  0.5950 -0.2671
 4103SOL    HW123945   0.059   0.418   8.514  0.4808  0.2560  1.4522
 4103SOL    HW223946   4.656   0.413   8.472  0.8710  0.9319 -0.2772
 4104SOL     OW23947   2.557   0.487   8.467 -0.0975 -0.0804 -0.5322
 4104SOL    HW123948   2.476   0.444   8.439  0.5854 -2.9974  2.0153
 4104SOL    HW223949   2.521   0.576   8.463 -1.0558 -0.3703  1.4279
 4105SOL     OW23950   0.698   0.329   4.956  0.2112  0.0577  0.2601
 4105SOL    HW123951   0.738   0.333   5.043 -1.9853  3.1898  1.1182
 4105SOL    HW223952   0.726   0.411   4.915  2.6795 -1.1212 -0.4142
 4106SOL     OW23953   0.638   0.577   6.505 -0.4266 -0.0805  0.0360
 4106SOL    HW123954   0.651   0.568   6.600 -0.3965 -1.7877 -0.1460
 4106SOL    HW223955   0.720   0.540   6.475 -0.6199  0.1403 -0.7480
 4107SOL     OW23956   3.674   3.079  10.674 -0.2186 -0.5576  0.0377
 4107SOL    HW123957   3.715   3.045  10.753 -2.9115 -0.0661  1.6398
 4107SOL    HW223958   3.585   3.094  10.703  0.7593  0.8202  2.2800
 4108SOL     OW23959   1.723   1.531   1.055  0.4235 -0.2891  0.2585
 4108SOL    HW123960   1.818   1.544   1.052  0.4336 -0.7024 -1.5706
 4108SOL    HW223961   1.703   1.617   1.092 -0.8190  0.2501 -1.6486
 4109SOL     OW23962   2.286   0.825   7.084 -0.3922  0.1804 -0.3764
 4109SOL    HW123963   2.223   0.759   7.113 -0.1199 -0.7577 -1.9203
 4109SOL    HW223964   2.329   0.772   7.016  0.4464  0.0502  0.2610
 4110SOL     OW23965   3.739   2.906   7.759 -0.4741  0.0068  0.3743
 4110SOL    HW123966   3.710   2.951   7.680  0.1343  0.3948  0.3701
 4110SOL    HW223967   3.820   2.955   7.773 -1.3428  1.6794 -0.5773
 4111SOL     OW23968   0.966   1.261  15.598 -0.5113 -0.4802 -0.1736
 4111SOL    HW123969   1.016   1.232  15.521  1.2645 -1.6696  1.4364
 4111SOL    HW223970   0.896   1.197  15.604 -0.0318 -1.0210 -0.3376
 4112SOL     OW23971   2.326   0.468  11.450 -0.3157  0.0495 -0.2754
 4112SOL    HW123972   2.272   0.469  11.529 -0.5307  3.6411 -0.4907
 4112SOL    HW223973   2.280   0.542  11.413  2.3331  0.9961 -1.6914
 4113SOL     OW23974   3.165   2.513   5.150 -0.3468 -0.3614  0.4333
 4113SOL    HW123975   3.252   2.474   5.139  0.2248  0.4405  2.1854
 4113SOL    HW223976   3.149   2.480   5.238  3.9368 -0.4743  1.1983
 4114SOL     OW23977   0.878   2.768   8.835 -0.1000  0.0995 -0.4219
 4114SOL    HW123978   0.793   2.726   8.844 -0.5177  0.9555 -0.3076
 4114SOL    HW223979   0.908   2.739   8.921 -0.6840 -3.0744 -1.3082
 4115SOL     OW23980   2.044   3.606   9.470 -0.4972 -0.3133 -0.2661
 4115SOL    HW123981   2.117   3.573   9.521  0.0092  0.3483 -0.5671
 4115SOL    HW223982   2.024   3.685   9.520 -1.7091  0.0309 -1.2697
 4116SOL     OW23983   4.343   3.353   6.279  0.6410 -0.1669  0.4140
 4116SOL    HW123984   4.437   3.373   6.276  1.0301 -2.2493 -0.8035
 4116SOL    HW223985   4.317   3.378   6.191  1.3341  2.0573  0.8286
 4117SOL     OW23986   1.188   3.286  12.636 -0.0270  0.6309 -0.0481
 4117SOL    HW123987   1.195   3.234  12.716  0.9157  2.8143  1.2923
 4117SOL    HW223988   1.269   3.336  12.647  0.6804 -0.5191  0.0449
 4118SOL     OW23989   0.323   3.723   2.937  0.2529 -0.2240 -0.3961
 4118SOL    HW123990   0.280   3.656   2.884 -0.4128 -0.7929  0.8645
 4118SOL    HW223991   0.397   3.676   2.975 -1.7848 -1.9360  1.3668
 4119SOL     OW23992   3.818   0.384   4.645 -0.3897  0.6160  0.5995
 4119SOL    HW123993   3.904   0.414   4.673 -0.4820  0.4285  1.0939
 4119SOL    HW223994   3.817   0.294   4.678 -1.0429  0.3030 -0.2908
 4120SOL     OW23995   0.522   1.191  12.857  0.0662  0.2844  0.0369
 4120SOL    HW123996   0.488   1.183  12.768 -0.3893 -1.6025  0.3759
 4120SOL    HW223997   0.497   1.109  12.900  0.7420  0.4311  0.6966
 4121SOL     OW23998   3.744   2.471  15.804  0.0274 -0.6686 -0.0725
 4121SOL    HW123999   3.657   2.436  15.785 -0.5282 -0.2440  1.6970
 4121SOL    HW224000   3.793   2.391  15.783 -1.7970 -1.8167  0.0380
 4122SOL     OW24001   0.793   1.963   9.372  0.1418  0.0898  0.6355
 4122SOL    HW124002   0.745   1.982   9.452 -0.4342  2.7816 -0.3364
 4122SOL    HW224003   0.801   2.052   9.337  0.9033 -1.0049 -1.9670
 4123SOL     OW24004   4.301   2.439   1.906 -0.1794  0.0932  0.3842
 4123SOL    HW124005   4.224   2.382   1.896 -0.4726  0.2889  1.4779
 4123SOL    HW224006   4.318   2.468   1.816  0.6168  3.1846  1.5336
 4124SOL     OW24007   0.246   4.264   1.946  0.1727  0.2300  0.5662
 4124SOL    HW124008   0.218   4.253   2.037  0.9092 -0.3875  0.7253
 4124SOL    HW224009   0.173   4.312   1.907  0.1884  1.6965  2.3484
 4125SOL     OW24010   0.260   3.690  14.607 -0.6970 -0.2055 -0.1144
 4125SOL    HW124011   0.212   3.759  14.562  2.7999  1.7247 -0.8361
 4125SOL    HW224012   0.192   3.646  14.658 -0.6090 -0.2943 -0.0721
 4126SOL     OW24013   0.142   2.834  15.678  0.1946  0.1056 -0.0549
 4126SOL    HW124014   0.196   2.789  15.613  0.2798  0.9906 -0.5816
 4126SOL    HW224015   0.180   2.919  15.661 -2.6406  1.5944  1.0021
 4127SOL     OW24016   3.175   3.048  13.990  0.2366 -0.2647  0.1477
 4127SOL    HW124017   3.090   3.068  14.029 -0.9915  0.1310 -2.7016
 4127SOL    HW224018   3.224   3.008  14.061  1.8467  1.7267  0.1507
 4128SOL     OW24019   4.643   1.085  12.173  0.5509 -0.4063 -0.1793
 4128SOL    HW124020   4.680   0.998  12.180  0.0397 -0.7193 -1.5334
 4128SOL    HW224021   4.625   1.109  12.264  3.8366 -0.5479  0.5311
 4129SOL     OW24022   1.857   3.652   6.838  0.1358 -0.1495 -0.1824
 4129SOL    HW124023   1.798   3.717   6.799  0.1821 -0.1511 -0.2547
 4129SOL    HW224024   1.793   3.581   6.851  0.9400 -0.7485  0.5106
 4130SOL     OW24025   1.073   4.388   8.381 -0.2417 -0.0822  0.4129
 4130SOL    HW124026   1.037   4.374   8.468 -0.9763 -0.2495  0.0858
 4130SOL    HW224027   1.006   4.345   8.327 -1.0101  2.2176 -0.4502
 4131SOL     OW24028   3.624   3.980   4.972  0.0090  0.1793  0.0179
 4131SOL    HW124029   3.568   4.049   5.009  0.7655 -0.6247  2.7081
 4131SOL    HW224030   3.570   3.902   4.971 -1.6304  1.3484 -1.3277
 4132SOL     OW24031   1.860   2.486  12.369 -0.7653 -0.1258  0.3812
 4132SOL    HW124032   1.783   2.502  12.424 -2.7127  0.6834 -2.5449
 4132SOL    HW224033   1.917   2.560  12.388 -0.8479 -0.3158  1.3703
 4133SOL     OW24034   1.642   0.159   9.634 -0.1326  0.3786 -0.1507
 4133SOL    HW124035   1.558   0.184   9.597 -0.5662  0.5164  0.9283
 4133SOL    HW224036   1.626   0.065   9.640 -0.9998  0.4922 -0.7155
 4134SOL     OW24037   0.571   1.115  10.812  0.0491 -0.2026 -0.2756
 4134SOL    HW124038   0.547   1.205  10.833 -1.5161 -0.7889  0.3679
 4134SOL    HW224039   0.664   1.111  10.836  0.4626  2.0645 -1.4068
 4135SOL     OW24040   0.193   3.418   8.050 -0.9199 -0.3125  0.4854
 4135SOL    HW124041   0.231   3.368   7.979 -0.1499 -1.9656  2.0490
 4135SOL    HW224042   0.134   3.363   8.103  0.0137 -1.2221  0.5789
 4136SOL     OW24043   3.060   3.373   4.130 -0.2459 -0.1990 -0.0860
 4136SOL    HW124044   3.086   3.351   4.040 -0.7141  2.9649 -0.9901
 4136SOL    HW224045   3.135   3.364   4.189 -0.3787 -1.1552 -0.0743
 4137SOL     OW24046   2.734   1.297  16.418  0.1464  0.0200 -0.3077
 4137SOL    HW124047   2.696   1.335  16.497 -0.3381 -0.0470 -0.5098
 4137SOL    HW224048   2.658   1.250  16.385 -0.2429  1.2839 -1.2220
 4138SOL     OW24049   1.932   2.847   8.405  0.4742  0.3693 -0.6584
 4138SOL    HW124050   2.027   2.842   8.419  0.3806  0.8666  0.1085
 4138SOL    HW224051   1.916   2.939   8.424  2.6887  0.3207  1.4982
 4139SOL     OW24052   0.137   4.603  16.544 -0.8267  0.1199 -0.2485
 4139SOL    HW124053   0.230   4.595  16.520 -1.1014 -1.5637 -0.7014
 4139SOL    HW224054   0.145   4.616  16.638  0.6612  0.3056 -0.3990
 4140SOL     OW24055   2.841   3.244   9.236 -0.2106 -0.5162 -0.2475
 4140SOL    HW124056   2.746   3.252   9.237 -0.2006 -0.0795 -2.0086
 4140SOL    HW224057   2.864   3.304   9.165 -0.6852 -0.9778 -0.7938
 4141SOL     OW24058   3.747   0.794   6.441 -0.0585 -0.1134  0.1426
 4141SOL    HW124059   3.842   0.791   6.456  0.5574  2.4443 -3.2705
 4141SOL    HW224060   3.748   0.881   6.401  1.3092 -0.9083 -1.5594
 4142SOL     OW24061   1.677   0.157   8.337  0.1989 -0.0110  0.0241
 4142SOL    HW124062   1.772   0.158   8.343  0.2599 -0.4869 -0.8086
 4142SOL    HW224063   1.669   0.166   8.242  0.7857  1.6964  0.1348
 4143SOL     OW24064   4.408   0.317   2.039  0.1968 -0.2422 -0.4562
 4143SOL    HW124065   4.488   0.273   2.068  0.4999  0.4681 -0.2133
 4143SOL    HW224066   4.430   0.324   1.946  1.4565  1.8344  0.0019
 4144SOL     OW24067   1.232   4.356  14.810  0.6005  0.2765 -0.2966
 4144SOL    HW124068   1.294   4.428  14.819 -1.3949  1.5491  3.2097
 4144SOL    HW224069   1.185   4.368  14.893 -1.1342  1.3356 -1.4328
 4145SOL     OW24070   3.197   0.592  10.234  0.3713  0.6959  0.0375
 4145SOL    HW124071   3.172   0.501  10.221  0.3574  0.8084 -0.7124
 4145SOL    HW224072   3.108   0.626  10.226 -0.2601 -0.9026  0.3524
 4146SOL     OW24073   1.045   0.187  17.618 -0.3107 -0.1446  0.0812
 4146SOL    HW124074   0.992   0.136  17.679  1.7792 -2.5749 -0.1078
 4146SOL    HW224075   0.971   0.240  17.589  1.5039  1.0132 -2.4314
 4147SOL     OW24076   2.032   3.504   8.740 -0.3937  0.1021 -0.0861
 4147SOL    HW124077   2.034   3.583   8.686 -0.3459  1.3688  1.7651
 4147SOL    HW224078   1.951   3.510   8.790  1.2727  2.6224  2.3742
 4148SOL     OW24079   2.737   4.680   3.837 -0.1951  1.2207  0.3391
 4148SOL    HW124080   2.795   4.734   3.892  1.1511  1.2428 -1.1115
 4148SOL    HW224081   2.795   4.674   3.762  0.9030  1.1213  1.1885
 4149SOL     OW24082   1.077   2.347   8.122  0.6840  0.4085 -0.2234
 4149SOL    HW124083   1.067   2.437   8.155  2.0004  0.7351 -0.7430
 4149SOL    HW224084   1.044   2.352   8.032  0.7839 -1.5005 -0.3684
 4150SOL     OW24085   0.330   2.554   4.858 -0.3506 -0.6694  0.0451
 4150SOL    HW124086   0.275   2.477   4.852  0.5551 -1.2638 -0.6365
 4150SOL    HW224087   0.297   2.606   4.932 -0.1985  0.4956 -0.6983
 4151SOL     OW24088   0.968   1.943   7.845 -0.3376  0.5023 -0.2586
 4151SOL    HW124089   0.952   2.015   7.784 -2.2752 -1.1473 -1.6691
 4151SOL    HW224090   1.057   1.970   7.868  0.1441 -0.4691 -1.0005
 4152SOL     OW24091   3.822   3.541   7.934 -0.1915 -0.3014  0.1424
 4152SOL    HW124092   3.768   3.462   7.940  1.4827 -1.3999  0.7539
 4152SOL    HW224093   3.894   3.523   7.994 -0.5488 -0.4824  0.5169
 4153SOL     OW24094   2.023   2.693  17.424  0.0453 -0.1663 -0.1838
 4153SOL    HW124095   1.962   2.642  17.478  1.4526 -0.9864  0.6145
 4153SOL    HW224096   1.961   2.759  17.392 -2.1766 -1.6337  1.1239
 4154SOL     OW24097   2.454   0.727   8.339  0.1690 -0.3325 -0.9379
 4154SOL    HW124098   2.534   0.764   8.377  0.1038 -0.4129 -0.7270
 4154SOL    HW224099   2.439   0.788   8.266  0.1333 -1.3628 -1.7932
 4155SOL     OW24100   1.092   2.470   7.657  0.1084  0.1374  0.3978
 4155SOL    HW124101   1.183   2.457   7.628 -0.2867  0.3229 -0.8959
 4155SOL    HW224102   1.054   2.383   7.669 -1.8672  0.4458 -3.9729
 4156SOL     OW24103   2.811   3.510   2.276  0.0649 -0.0220  0.6532
 4156SOL    HW124104   2.886   3.507   2.217 -0.5827  0.5810 -0.2036
 4156SOL    HW224105   2.798   3.418   2.298  0.5067 -0.1080  0.5486
 4157SOL     OW24106   0.453   3.853   1.150 -0.1965  0.6521  0.2693
 4157SOL    HW124107   0.542   3.852   1.114 -0.5059 -2.0564 -0.4039
 4157SOL    HW224108   0.455   3.800   1.230 -3.7429  0.9863  0.5506
 4158SOL     OW24109   3.941   0.582   7.206  0.3218 -0.5227  0.4558
 4158SOL    HW124110   3.973   0.672   7.206 -2.0588  0.3199 -0.9496
 4158SOL    HW224111   3.914   0.577   7.298 -2.0933  1.4566 -0.1131
 4159SOL     OW24112   0.558   1.529  16.737 -0.2775  0.2902  0.4636
 4159SOL    HW124113   0.618   1.510  16.665  1.7496  1.7812  1.7709
 4159SOL    HW224114   0.553   1.438  16.767  1.3776 -0.7300 -2.3115
 4160SOL     OW24115   1.857   1.592   4.225 -0.3342  0.0753 -0.2941
 4160SOL    HW124116   1.863   1.687   4.216 -1.6898  0.3618  1.8737
 4160SOL    HW224117   1.767   1.574   4.196 -0.5407 -1.7184  1.4504
 4161SOL     OW24118   4.625   0.181   5.122 -0.4092  0.0283 -0.3166
 4161SOL    HW124119   4.699   0.120   5.131 -0.9206 -0.1176  2.9029
 4161SOL    HW224120   4.554   0.136   5.167  0.9182  1.2429  3.0512
 4162SOL     OW24121   1.386   1.608   5.819  0.1416 -0.3231  0.1728
 4162SOL    HW124122   1.310   1.549   5.830  0.1928 -0.3708  0.2717
 4162SOL    HW224123   1.341   1.676   5.869  1.6490  1.5139 -0.9912
 4163SOL     OW24124   2.118   2.281   2.450 -0.5836  0.7400 -0.4852
 4163SOL    HW124125   2.128   2.185   2.452  1.4588  1.0120  1.9447
 4163SOL    HW224126   2.152   2.301   2.362  1.1001  0.0689  0.0105
 4164SOL     OW24127   1.828   4.677   5.840 -0.7018  1.0596  0.5831
 4164SOL    HW124128   1.806   4.726   5.920  0.5810  0.3275  1.3758
 4164SOL    HW224129   1.743   4.632   5.836 -0.0153 -0.2762  1.2063
 4165SOL     OW24130   0.020   0.477   2.209  0.0304 -0.1866  0.7580
 4165SOL    HW124131   4.726   0.394   2.174  2.2031 -1.0107  0.6657
 4165SOL    HW224132   4.720   0.499   2.294 -1.6956 -2.4709  0.5447
 4166SOL     OW24133   4.333   3.646  14.390 -0.0469  0.6586 -0.2937
 4166SOL    HW124134   4.295   3.657  14.303 -0.5534  1.3751  0.0126
 4166SOL    HW224135   4.249   3.643  14.436  0.4323  1.3563  0.6286
 4167SOL     OW24136   0.130   3.431   2.137  0.4788 -0.8105  0.0562
 4167SOL    HW124137   0.157   3.380   2.060  1.3937 -0.5139  0.1863
 4167SOL    HW224138   0.137   3.522   2.109  1.0465 -1.0467 -0.5597
 4168SOL     OW24139   0.780   1.478  11.627 -0.0987  0.1035 -0.2360
 4168SOL    HW124140   0.800   1.384  11.623 -2.4924 -0.5463  2.9432
 4168SOL    HW224141   0.690   1.484  11.660  0.2632  0.5112  0.6984
 4169SOL     OW24142   3.531   2.112   2.040 -0.3693  0.0700 -0.4278
 4169SOL    HW124143   3.581   2.030   2.043  1.5867  1.3369  1.6361
 4169SOL    HW224144   3.493   2.111   1.952 -0.6490 -0.1029 -0.3047
 4170SOL     OW24145   2.651   0.570   4.768 -0.4738 -0.0369 -0.1477
 4170SOL    HW124146   2.699   0.508   4.823  0.0922 -0.4996 -1.1563
 4170SOL    HW224147   2.718   0.639   4.780  0.1408 -0.9213  1.5300
 4171SOL     OW24148   3.971   4.664   4.313  0.1157 -0.4943  0.5619
 4171SOL    HW124149   3.955   4.619   4.230 -0.6136  2.7847 -1.0569
 4171SOL    HW224150   3.953   0.016   4.291 -1.4055 -0.6044  1.3797
 4172SOL     OW24151   0.851   3.602   4.889  0.2850 -0.0195  0.0679
 4172SOL    HW124152   0.938   3.637   4.909 -0.6026  1.8885  0.5835
 4172SOL    HW224153   0.888   3.518   4.862  0.8428  0.2613 -0.0392
 4173SOL     OW24154   1.206   0.787   8.826 -0.0944 -0.2534 -0.5393
 4173SOL    HW124155   1.208   0.775   8.921  0.5663  1.1414 -0.3777
 4173SOL    HW224156   1.240   0.705   8.790  1.1292 -0.2828  0.6755
 4174SOL     OW24157   1.457   0.498  13.032  0.0542 -0.7716 -0.4994
 4174SOL    HW124158   1.422   0.409  13.043 -0.1076 -0.5282  0.8690
 4174SOL    HW224159   1.452   0.513  12.937  0.6196  1.5210 -0.1552
 4175SOL     OW24160   2.475   0.196   2.728 -0.4553  0.4697 -0.2779
 4175SOL    HW124161   2.474   0.170   2.636  1.4822 -0.8466  0.0650
 4175SOL    HW224162   2.566   0.172   2.745 -0.0286  2.2423 -0.0442
 4176SOL     OW24163   1.755   3.034   3.458  0.3450  0.6718  0.0534
 4176SOL    HW124164   1.799   3.043   3.542 -3.7041 -1.3118  2.3767
 4176SOL    HW224165   1.678   2.980   3.474  0.5524  0.4345  0.2531
 4177SOL     OW24166   0.726   1.176   2.508  0.0734  0.0303  0.2033
 4177SOL    HW124167   0.760   1.119   2.577 -0.0444 -1.0238 -0.6180
 4177SOL    HW224168   0.633   1.182   2.528  0.2758 -1.1584  1.4673
 4178SOL     OW24169   3.241   1.970   5.735 -0.2938  0.4255 -0.3725
 4178SOL    HW124170   3.156   1.945   5.698 -1.4998  0.1437  2.5699
 4178SOL    HW224171   3.212   1.992   5.824  2.4320 -1.0300  0.8967
 4179SOL     OW24172   1.764   1.314   0.908  0.3448  0.4419  0.1420
 4179SOL    HW124173   1.710   1.256   0.962 -0.0949  1.3475  0.6845
 4179SOL    HW224174   1.735   1.399   0.943  1.1959  0.9180 -0.3206
 4180SOL     OW24175   2.128   1.976   4.598  0.6827 -0.4830 -0.1613
 4180SOL    HW124176   2.207   1.937   4.561  2.0322  1.2476  0.8816
 4180SOL    HW224177   2.171   2.055   4.632 -0.4230  0.3216 -0.6347
 4181SOL     OW24178   2.128   0.436   7.819 -0.1878  0.5194 -0.0604
 4181SOL    HW124179   2.204   0.388   7.786 -1.1765  0.0761 -1.6858
 4181SOL    HW224180   2.136   0.519   7.773 -2.2400  1.1016  0.6179
 4182SOL     OW24181   1.530   1.892   0.252 -0.3265 -0.3664 -0.0368
 4182SOL    HW124182   1.598   1.861   0.193 -0.7358  0.3406 -0.8785
 4182SOL    HW224183   1.575   1.903   0.336 -1.8614  0.2280  0.7237
 4183SOL     OW24184   2.510   0.941   4.784  0.5749  0.2561 -0.2953
 4183SOL    HW124185   2.557   0.921   4.865  0.4037  0.4651 -0.1463
 4183SOL    HW224186   2.567   1.005   4.741  1.8245  0.7341  2.0405
 4184SOL     OW24187   2.330   1.323   5.402 -0.5247 -0.3626 -0.4056
 4184SOL    HW124188   2.362   1.411   5.383 -0.9748  0.0857  0.8625
 4184SOL    HW224189   2.238   1.337   5.379  0.0758 -0.8953 -3.1372
 4185SOL     OW24190   2.701   2.194  17.515  0.3128 -0.0332 -0.3556
 4185SOL    HW124191   2.614   2.206  17.479 -0.2227 -1.6990  0.4020
 4185SOL    HW224192   2.749   2.255  17.459  0.1001  3.6085  3.4128
 4186SOL     OW24193   3.293   1.860   7.466 -0.1342 -0.3607  0.3011
 4186SOL    HW124194   3.302   1.947   7.429  0.8134 -0.2901  0.7083
 4186SOL    HW224195   3.214   1.828   7.422 -0.4437 -0.1033  0.6609
 4187SOL     OW24196   3.259   0.768  11.279 -0.3108 -0.5107 -0.0457
 4187SOL    HW124197   3.180   0.822  11.289 -0.2718 -0.1892 -1.3254
 4187SOL    HW224198   3.250   0.707  11.351  0.9074 -0.5122  0.1064
 4188SOL     OW24199   3.442   1.382   8.226 -0.2790 -0.2734 -0.1142
 4188SOL    HW124200   3.364   1.370   8.280  2.1351 -1.2284  3.1701
 4188SOL    HW224201   3.431   1.474   8.202  1.1184 -0.2105 -0.5183
 4189SOL     OW24202   3.872   1.752  11.533 -0.3359 -0.1525  0.1725
 4189SOL    HW124203   3.968   1.748  11.541 -0.3273 -1.1109 -0.3557
 4189SOL    HW224204   3.863   1.770  11.440  0.3887 -1.2618 -0.1149
 4190SOL     OW24205   1.494   3.200  11.913 -0.0899  0.1107 -0.6111
 4190SOL    HW124206   1.470   3.270  11.852  0.8357  0.8372 -0.1489
 4190SOL    HW224207   1.426   3.205  11.981 -0.1030  0.9299 -0.6807
 4191SOL     OW24208   2.195   0.305   2.522 -0.5191 -0.7371  0.2899
 4191SOL    HW124209   2.188   0.268   2.434  0.3218 -0.6517  0.1888
 4191SOL    HW224210   2.159   0.234   2.576 -1.2717 -0.7484 -0.2291
 4192SOL     OW24211   1.041   2.408   9.301 -0.5854 -0.2221  0.3211
 4192SOL    HW124212   1.125   2.367   9.324 -0.1525  1.1848  1.2703
 4192SOL    HW224213   1.043   2.469   9.376  1.8711  1.5140 -1.1284
 4193SOL     OW24214   4.343   0.356   9.248  0.0497 -0.1413  0.6657
 4193SOL    HW124215   4.391   0.363   9.166 -2.8385 -0.7293 -1.0739
 4193SOL    HW224216   4.395   0.408   9.309  0.6481  1.2567 -1.0389
 4194SOL     OW24217   0.064   3.978   7.805  0.0848 -0.3429  0.3743
 4194SOL    HW124218   0.024   3.979   7.892 -1.8056  2.1227 -0.5078
 4194SOL    HW224219   0.117   3.899   7.816 -0.5637 -0.1876  4.6167
 4195SOL     OW24220   0.608   3.133   3.918  0.2531  0.5735  0.2693
 4195SOL    HW124221   0.610   3.106   4.009  1.6441 -1.2811 -0.3269
 4195SOL    HW224222   0.541   3.078   3.879  0.9917 -0.0800 -0.0680
 4196SOL     OW24223   4.384   4.734   9.481  0.1766 -0.4172 -0.4394
 4196SOL    HW124224   4.442   4.678   9.429 -0.2648  0.9753 -2.4584
 4196SOL    HW224225   4.421   4.710   9.565  1.6822  1.0973 -0.6629
 4197SOL     OW24226   1.850   3.766   4.892 -0.2274  0.3210  0.0388
 4197SOL    HW124227   1.812   3.847   4.926 -2.2285  0.6016 -2.8579
 4197SOL    HW224228   1.820   3.769   4.801  1.5370 -0.3451 -0.5808
 4198SOL     OW24229   3.887   0.903   7.775 -0.4267  0.0630 -1.0207
 4198SOL    HW124230   3.824   0.881   7.843  0.7994  0.4575  0.2469
 4198SOL    HW224231   3.829   0.933   7.704 -0.4520 -1.3075 -1.5780
 4199SOL     OW24232   0.770   2.203  10.005 -0.3275  0.3832  0.2354
 4199SOL    HW124233   0.780   2.132  10.069  0.3717 -0.0971 -0.4036
 4199SOL    HW224234   0.749   2.154   9.925 -0.4157 -3.2440  2.4577
 4200SOL     OW24235   3.149   3.396  12.097  0.4804  0.2587 -0.3098
 4200SOL    HW124236   3.244   3.396  12.104  0.3635 -1.1893  1.2122
 4200SOL    HW224237   3.120   3.305  12.094  0.4805  0.3269 -2.6952
 4201SOL     OW24238   3.830   2.018   0.036 -0.3535 -0.3869 -0.3584
 4201SOL    HW124239   3.911   2.014  17.740 -0.0519  0.5520  0.0649
 4201SOL    HW224240   3.847   1.945   0.096 -1.3540  0.4799  0.9898
 4202SOL     OW24241   2.725   2.011   4.284 -0.2139  0.7825 -0.4690
 4202SOL    HW124242   2.629   2.005   4.290 -0.1616 -1.7097 -2.0311
 4202SOL    HW224243   2.743   2.007   4.190  0.3635  1.3717 -0.3839
 4203SOL     OW24244   4.005   3.264  10.524  0.2701 -0.4548 -1.1391
 4203SOL    HW124245   3.959   3.271  10.440 -0.9751 -1.4717 -0.5499
 4203SOL    HW224246   4.096   3.276  10.496 -0.0009  0.4288 -1.6352
 4204SOL     OW24247   0.911   1.059   4.664 -0.0143  0.1323 -0.4554
 4204SOL    HW124248   0.938   1.080   4.574  0.3492  0.1217 -0.3492
 4204SOL    HW224249   0.855   1.135   4.679  1.0948  0.4614  1.9718
 4205SOL     OW24250   1.556   4.173   5.838 -0.2327  0.0660  0.1468
 4205SOL    HW124251   1.638   4.206   5.875 -0.1255 -0.5839  0.5047
 4205SOL    HW224252   1.556   4.080   5.861  0.5716  0.9044  3.4882
 4206SOL     OW24253   3.193   2.448   6.740 -0.0561  0.2125 -0.7862
 4206SOL    HW124254   3.239   2.371   6.774 -0.4443  0.5566  0.4973
 4206SOL    HW224255   3.220   2.433   6.649  1.6832  0.5792 -0.3311
 4207SOL     OW24256   2.073   1.206   8.666  0.3368 -0.7108  0.5151
 4207SOL    HW124257   2.021   1.200   8.587 -0.5020  1.3341  0.9038
 4207SOL    HW224258   2.055   1.296   8.695 -0.7976 -1.2256  1.4169
 4208SOL     OW24259   4.619   1.243   3.029 -0.5319 -0.0082  0.6615
 4208SOL    HW124260   4.587   1.154   3.044 -1.4813  0.2687  0.2868
 4208SOL    HW224261   4.655   1.232   2.940 -0.8573  0.1038  0.5150
 4209SOL     OW24262   2.799   1.757   3.437 -0.7692  0.9678  0.3219
 4209SOL    HW124263   2.817   1.828   3.497  0.8874  0.2112  0.7052
 4209SOL    HW224264   2.844   1.798   3.363 -1.7919  1.1165 -0.2216
 4210SOL     OW24265   0.453   4.003  15.195 -0.6754 -0.0303 -0.7607
 4210SOL    HW124266   0.472   3.974  15.106 -1.5092 -2.0455 -0.2895
 4210SOL    HW224267   0.436   4.096  15.179  1.7194  0.4826 -0.3315
 4211SOL     OW24268   1.240   3.801   0.292  0.3573 -0.2074  0.6121
 4211SOL    HW124269   1.163   3.857   0.304 -0.6374 -1.2353 -0.9555
 4211SOL    HW224270   1.201   3.735   0.235 -1.6063  1.6277 -0.1681
 4212SOL     OW24271   3.108   0.419   8.840 -0.5144 -0.0952 -0.3732
 4212SOL    HW124272   3.141   0.416   8.750 -2.3278 -1.8709 -0.9941
 4212SOL    HW224273   3.175   0.372   8.889 -0.3268  0.3248 -0.2260
 4213SOL     OW24274   1.397   0.321   1.137 -0.0228 -0.1538  0.0783
 4213SOL    HW124275   1.399   0.417   1.128  0.0120 -0.2884 -1.3103
 4213SOL    HW224276   1.450   0.303   1.215  1.6672  1.2430 -0.7512
 4214SOL     OW24277   2.878   1.502   3.479 -0.3201  0.2000  0.4567
 4214SOL    HW124278   2.815   1.574   3.494  1.1172  1.7022 -0.7338
 4214SOL    HW224279   2.958   1.548   3.503  0.3821 -0.0888 -1.3512
 4215SOL     OW24280   1.239   2.170  13.561  0.5460 -0.9985 -0.1213
 4215SOL    HW124281   1.200   2.087  13.588 -0.5169 -0.5968 -0.4386
 4215SOL    HW224282   1.221   2.225  13.637  2.0709  1.5207 -1.5765
 4216SOL     OW24283   0.520   4.030   3.760 -0.2111  1.1733  0.0093
 4216SOL    HW124284   0.532   4.000   3.670  3.1430  0.1520  0.7943
 4216SOL    HW224285   0.568   4.113   3.764 -0.8418  1.6284 -1.9675
 4217SOL     OW24286   4.500   3.298   9.748  0.5178  0.3619 -0.2569
 4217SOL    HW124287   4.573   3.236   9.754 -0.0388 -0.0309  2.4215
 4217SOL    HW224288   4.448   3.272   9.824  1.3555 -0.0849  0.1697
 4218SOL     OW24289   3.301   2.921   5.013  0.2265 -0.1187  0.0972
 4218SOL    HW124290   3.208   2.922   4.991  0.4879  0.8268 -0.9728
 4218SOL    HW224291   3.298   2.892   5.104  1.0390 -1.4852 -0.2989
 4219SOL     OW24292   3.072   0.169   4.716 -0.1866  0.2878 -0.1352
 4219SOL    HW124293   3.054   0.263   4.708  0.1269  0.4331  0.8947
 4219SOL    HW224294   3.000   0.136   4.664 -0.0607  0.7947 -0.6320
 4220SOL     OW24295   3.909   1.292  16.582  0.3885  0.6237 -0.6738
 4220SOL    HW124296   3.829   1.330  16.619  0.8885  0.6774  0.3467
 4220SOL    HW224297   3.981   1.329  16.633  0.8499 -0.7370 -0.3228
 4221SOL     OW24298   0.775   4.108   1.963  0.0464  0.3647 -0.4071
 4221SOL    HW124299   0.790   4.057   2.042 -0.2815 -0.2693 -0.7527
 4221SOL    HW224300   0.839   4.075   1.900  0.6410  0.7897 -0.0217
 4222SOL     OW24301   3.162   1.113  12.138  0.0676  0.3674  1.0110
 4222SOL    HW124302   3.108   1.176  12.090 -1.2021 -0.4347  1.3912
 4222SOL    HW224303   3.149   1.138  12.229 -0.5623  0.5923  0.8577
 4223SOL     OW24304   0.617   2.365   3.010  0.6539 -0.1500  0.2111
 4223SOL    HW124305   0.631   2.285   2.960 -1.3409 -0.6237  0.4075
 4223SOL    HW224306   0.557   2.333   3.077  0.1310  0.9218  0.2530
 4224SOL     OW24307   0.731   0.833   4.873  0.5500 -0.3573  0.4841
 4224SOL    HW124308   0.660   0.885   4.908 -0.1156 -1.4137  0.7094
 4224SOL    HW224309   0.713   0.820   4.780 -0.7894 -1.8001  0.9521
 4225SOL     OW24310   0.282   0.237   1.445 -0.2144  0.3544 -0.2535
 4225SOL    HW124311   0.349   0.275   1.502  0.7833 -3.4936  1.0844
 4225SOL    HW224312   0.198   0.275   1.471  0.3610 -0.7487  3.1604
 4226SOL     OW24313   4.485   4.335  12.315 -0.2350  0.6684  0.1921
 4226SOL    HW124314   4.502   4.388  12.392 -0.3939  0.0814  0.6331
 4226SOL    HW224315   4.495   4.249  12.356  1.7020 -0.0113 -1.6753
 4227SOL     OW24316   0.355   1.851   2.304 -0.5616 -0.3583  0.0898
 4227SOL    HW124317   0.438   1.811   2.329 -1.4603 -1.8465  0.6682
 4227SOL    HW224318   0.386   1.904   2.230  0.7024 -2.0310 -0.5662
 4228SOL     OW24319   2.747   2.119  13.686 -0.0478  0.2681 -0.0684
 4228SOL    HW124320   2.796   2.038  13.702 -2.0934 -1.1291 -0.9771
 4228SOL    HW224321   2.804   2.182  13.731 -0.0254  0.3973 -0.2793
 4229SOL     OW24322   3.111   0.207   4.347 -0.0003  0.1236 -0.2901
 4229SOL    HW124323   3.020   0.211   4.376  1.2831 -2.3727  4.0601
 4229SOL    HW224324   3.144   0.293   4.370 -0.1286 -0.0784  0.6566
 4230SOL     OW24325   2.387   3.901   8.096  0.4628 -0.0612 -0.1974
 4230SOL    HW124326   2.365   3.838   8.028  2.7057 -0.4534 -0.5692
 4230SOL    HW224327   2.308   3.954   8.092  0.8783  0.5622 -0.2806
 4231SOL     OW24328   1.142   0.570   4.909 -0.9453  0.0073  0.4267
 4231SOL    HW124329   1.073   0.635   4.892  0.2906  0.4770 -2.7703
 4231SOL    HW224330   1.094   0.487   4.911  1.1953 -1.2097  0.9207
 4232SOL     OW24331   2.863   4.106   8.292  0.2124 -0.3388  0.3041
 4232SOL    HW124332   2.858   4.193   8.251  0.1205 -0.6381 -0.3163
 4232SOL    HW224333   2.929   4.104   8.361 -1.0576 -0.4919  1.5258
 4233SOL     OW24334   3.350   3.590   6.521  0.3971  0.3163 -0.1273
 4233SOL    HW124335   3.354   3.634   6.606 -1.3987  0.1356  0.0532
 4233SOL    HW224336   3.262   3.608   6.486  0.4481 -2.0446 -1.4691
 4234SOL     OW24337   0.743   2.241  15.681 -0.2930 -0.6534 -0.0994
 4234SOL    HW124338   0.760   2.153  15.715  2.5726 -0.8309 -1.9927
 4234SOL    HW224339   0.776   2.242  15.591  0.4953  0.6346  0.2121
 4235SOL     OW24340   1.904   2.109   6.194  0.1208  0.2588  0.3357
 4235SOL    HW124341   1.989   2.069   6.179 -0.5348 -0.9921 -0.0098
 4235SOL    HW224342   1.888   2.109   6.289  0.9665  0.8426  0.4758
 4236SOL     OW24343   4.295   2.748  17.605 -1.1304  0.3879  0.3752
 4236SOL    HW124344   4.215   2.791  17.637 -1.2052  0.2136  0.4264
 4236SOL    HW224345   4.319   2.703  17.686  0.8772 -0.4819 -0.6992
 4237SOL     OW24346   0.442   0.288   5.034 -0.0030  0.2358  0.2657
 4237SOL    HW124347   0.486   0.230   5.096 -0.8678 -0.2463  0.4308
 4237SOL    HW224348   0.523   0.312   4.989  1.0768 -1.7519  1.1491
 4238SOL     OW24349   4.267   2.943   6.550  0.2496 -0.9674  0.0490
 4238SOL    HW124350   4.220   2.948   6.633  0.4798 -0.6273  0.1569
 4238SOL    HW224351   4.225   2.871   6.504  1.8594 -0.4739 -2.2150
 4239SOL     OW24352   2.520   1.474   8.680  0.0710  0.0987  0.2500
 4239SOL    HW124353   2.470   1.555   8.696  1.3897  0.2452  3.5290
 4239SOL    HW224354   2.466   1.417   8.734 -0.8227 -1.8977 -2.7552
 4240SOL     OW24355   0.174   4.561   7.368 -0.0780  0.8774 -0.1939
 4240SOL    HW124356   0.122   4.488   7.335  0.8417  0.0679  0.1317
 4240SOL    HW224357   0.265   4.531   7.370 -0.2430  0.3687 -0.5158
 4241SOL     OW24358   1.399   1.974   5.728 -0.0494 -0.2290  0.1072
 4241SOL    HW124359   1.395   1.969   5.633  1.8083  2.9355 -0.1434
 4241SOL    HW224360   1.368   2.064   5.741  0.7201 -0.0555  0.7583
 4242SOL     OW24361   1.587   2.599   2.113  0.0061  0.3250 -0.1949
 4242SOL    HW124362   1.502   2.611   2.070 -0.6830  1.1000  1.3585
 4242SOL    HW224363   1.625   2.687   2.102  1.0981  0.1004  1.7814
 4243SOL     OW24364   4.209   0.052   5.821 -0.0880  0.4281 -0.3622
 4243SOL    HW124365   4.168   0.007   5.896 -1.3959  1.7801 -0.2785
 4243SOL    HW224366   4.233   4.716   5.766  2.5952  0.2901  0.9953
 4244SOL     OW24367   2.268   1.608  11.752 -0.2650  0.3324 -0.0413
 4244SOL    HW124368   2.317   1.529  11.732 -1.4450 -0.4309  0.0557
 4244SOL    HW224369   2.338   1.657  11.795  0.1058 -0.9361  0.7992
 4245SOL     OW24370   4.395   4.323   4.693 -0.0794  0.3593  0.4738
 4245SOL    HW124371   4.306   4.300   4.720  0.4902 -0.4669  1.6243
 4245SOL    HW224372   4.441   4.305   4.775 -0.0193  1.4898  0.6885
 4246SOL     OW24373   4.158   1.713   1.300 -0.1916  0.0241  0.1878
 4246SOL    HW124374   4.154   1.790   1.358  0.2537  1.2228 -1.3781
 4246SOL    HW224375   4.215   1.652   1.346  2.9608  0.8002 -2.6982
 4247SOL     OW24376   4.639   0.799   5.768 -0.2297 -0.3761  0.1498
 4247SOL    HW124377   4.716   0.832   5.723  0.8502 -0.7007  1.7669
 4247SOL    HW224378   4.622   0.716   5.722  0.6004 -1.4237  1.7369
 4248SOL     OW24379   0.048   2.336   3.671 -0.0264 -0.1652  0.6007
 4248SOL    HW124380   0.053   2.422   3.631  1.3234 -0.5246  0.0127
 4248SOL    HW224381   0.138   2.321   3.697  0.0851 -0.5116  0.0105
 4249SOL     OW24382   2.382   2.558   6.345 -0.7111  0.1163 -0.1981
 4249SOL    HW124383   2.354   2.640   6.384  0.7752  1.1098 -1.1980
 4249SOL    HW224384   2.406   2.583   6.255 -0.8868 -3.6631 -1.2961
 4250SOL     OW24385   3.396   2.664   4.532  0.3711 -0.1836 -0.1055
 4250SOL    HW124386   3.312   2.620   4.535  0.2620  0.1840  2.1901
 4250SOL    HW224387   3.413   2.656   4.438  0.3863 -0.0783 -0.1119
 4251SOL     OW24388   3.272   0.295   2.221 -0.0027 -0.2655 -0.0851
 4251SOL    HW124389   3.232   0.209   2.206 -1.6500  0.0572  2.5220
 4251SOL    HW224390   3.236   0.340   2.145  0.3356  0.2078  0.0373
 4252SOL     OW24391   3.564   4.160   7.173 -0.1531 -0.2305 -0.4635
 4252SOL    HW124392   3.593   4.100   7.242  0.5923  2.4498  1.5265
 4252SOL    HW224393   3.591   4.112   7.094 -0.4238 -0.5645 -0.3531
 4253SOL     OW24394   3.856   2.541  14.665 -0.0568 -0.0761  0.4791
 4253SOL    HW124395   3.921   2.476  14.694 -0.4059  0.6253  2.7583
 4253SOL    HW224396   3.900   2.599  14.602 -1.1854  0.2941  0.0331
 4254SOL     OW24397   4.473   3.236   8.312 -0.0970  0.5613 -0.1649
 4254SOL    HW124398   4.493   3.314   8.364  1.0262  0.7264 -0.8484
 4254SOL    HW224399   4.402   3.190   8.357  1.4655  1.0528  2.7508
 4255SOL     OW24400   4.115   1.875  13.909 -0.4474 -0.4792 -0.3583
 4255SOL    HW124401   4.176   1.899  13.978 -2.8264  1.1049  1.1763
 4255SOL    HW224402   4.169   1.873  13.830  0.4365 -1.6252  0.2698
 4256SOL     OW24403   4.140   4.679   7.417 -0.1217  0.2063  0.0226
 4256SOL    HW124404   4.193   4.679   7.496 -0.7828 -2.4615  0.4523
 4256SOL    HW224405   4.052   4.660   7.449  1.2831 -1.9084  2.6490
 4257SOL     OW24406   3.863   4.158  12.188  0.4080  0.2495  0.4253
 4257SOL    HW124407   3.800   4.190  12.123 -0.2368  0.2293  1.0390
 4257SOL    HW224408   3.903   4.088  12.136  0.8974  0.7989  0.0761
 4258SOL     OW24409   2.249   3.488  13.556 -0.2932 -0.0650  0.1792
 4258SOL    HW124410   2.181   3.420  13.552  0.8568 -1.2195  0.1551
 4258SOL    HW224411   2.248   3.549  13.483 -3.7939 -1.0329 -0.5930
 4259SOL     OW24412   4.019   2.917   9.567 -0.0104  0.0769  0.0504
 4259SOL    HW124413   4.064   2.844   9.609 -0.5977 -0.0144  0.5218
 4259SOL    HW224414   4.084   2.951   9.506 -0.2497 -2.2193 -1.4725
 4260SOL     OW24415   1.268   1.829   8.455 -0.1066 -0.2094 -0.1213
 4260SOL    HW124416   1.333   1.787   8.400 -0.0443 -0.3298  0.0421
 4260SOL    HW224417   1.231   1.902   8.405  3.0426  1.1087 -0.4766
 4261SOL     OW24418   2.352   4.064  16.400  0.1198  0.3767  1.4616
 4261SOL    HW124419   2.310   3.981  16.377  0.3888  0.9370 -1.0484
 4261SOL    HW224420   2.425   4.042  16.458  0.4124 -0.2597  0.8563
 4262SOL     OW24421   4.384   2.330  12.614  0.4088  0.2783  0.1063
 4262SOL    HW124422   4.435   2.387  12.556  1.4751  0.6372  1.4003
 4262SOL    HW224423   4.304   2.323  12.562  1.1903 -0.1391 -1.0417
 4263SOL     OW24424   4.575   3.679   9.785  0.1977 -0.0514  0.5846
 4263SOL    HW124425   4.639   3.648   9.722 -0.0028  0.6036  0.0632
 4263SOL    HW224426   4.565   3.770   9.759 -0.2930 -1.1340 -3.0461
 4264SOL     OW24427   3.169   4.654   4.310  0.4240 -0.1463  0.2936
 4264SOL    HW124428   3.103   4.723   4.304 -0.4025 -0.9667 -0.0143
 4264SOL    HW224429   3.209   4.673   4.395  0.3487 -0.6849  0.4459
 4265SOL     OW24430   0.504   2.289   5.532  0.0954 -0.3966  0.7062
 4265SOL    HW124431   0.542   2.375   5.515  2.4577 -1.8690 -1.3838
 4265SOL    HW224432   0.557   2.227   5.484  0.9245  2.6409 -2.3364
 4266SOL     OW24433   3.226   2.224   3.657  0.3756  0.4264  0.4867
 4266SOL    HW124434   3.219   2.184   3.570 -2.0700  1.9667 -0.0286
 4266SOL    HW224435   3.215   2.147   3.713 -1.1312  0.4204  0.1893
 4267SOL     OW24436   4.290   3.647   7.580 -0.8541 -0.0808 -0.5379
 4267SOL    HW124437   4.353   3.684   7.519 -0.2678 -1.5516 -0.8356
 4267SOL    HW224438   4.264   3.730   7.620  0.8908  0.0514  0.3197
 4268SOL     OW24439   2.922   1.445   3.125  0.6252  0.4100 -0.4945
 4268SOL    HW124440   2.834   1.478   3.105 -0.1208 -2.2800 -1.7325
 4268SOL    HW224441   2.966   1.499   3.059 -0.1155  0.9861 -0.5165
 4269SOL     OW24442   0.229   4.342   0.838 -0.8828 -0.4420 -0.6554
 4269SOL    HW124443   0.245   4.368   0.929 -2.9787 -1.2375 -0.0758
 4269SOL    HW224444   0.185   4.417   0.799  0.8082  0.2578 -1.2222
 4270SOL     OW24445   1.704   0.791  15.664 -0.5964  0.3719 -0.0513
 4270SOL    HW124446   1.781   0.811  15.717  0.2057 -0.0566 -1.0628
 4270SOL    HW224447   1.636   0.857  15.680  0.9664  2.0551 -0.4224
 4271SOL     OW24448   3.441   4.629   2.555 -0.9438  0.4327 -0.2452
 4271SOL    HW124449   3.528   4.644   2.517 -0.6555 -1.8234 -0.4548
 4271SOL    HW224450   3.434   4.539   2.524  1.2850 -0.7089  2.5099
 4272SOL     OW24451   2.089   3.980   6.496 -0.7522 -0.2508 -0.1039
 4272SOL    HW124452   2.033   3.965   6.420 -0.2589 -1.9439 -0.1146
 4272SOL    HW224453   2.160   4.018   6.444 -1.1506 -0.2629 -0.6583
 4273SOL     OW24454   2.431   2.235   5.977 -0.0529 -0.0408  0.3183
 4273SOL    HW124455   2.478   2.187   6.045  0.6880  0.6267  0.2835
 4273SOL    HW224456   2.460   2.196   5.894  1.0995  0.2493  0.5832
 4274SOL     OW24457   4.553   2.757   8.986  0.4768  0.3512 -0.2164
 4274SOL    HW124458   4.646   2.742   9.006 -0.0135 -1.2540  0.8729
 4274SOL    HW224459   4.548   2.844   9.024  1.1483  0.3499 -0.1186
 4275SOL     OW24460   4.702   1.210   3.771 -0.2353 -0.5680 -0.5220
 4275SOL    HW124461   4.664   1.292   3.740  0.5435 -1.1824 -3.0652
 4275SOL    HW224462   0.038   1.188   3.716 -0.6913 -2.3802 -0.4206
 4276SOL     OW24463   3.013   1.648   8.756  0.0007  0.4519 -0.1256
 4276SOL    HW124464   3.101   1.610   8.755 -0.4325 -0.5445 -1.5200
 4276SOL    HW224465   2.985   1.633   8.666 -0.3313  0.7245 -0.0634
 4277SOL     OW24466   3.514   0.630   4.353 -0.0638  0.1010 -0.2624
 4277SOL    HW124467   3.438   0.658   4.303  0.1681  0.4251 -0.4365
 4277SOL    HW224468   3.587   0.666   4.303  0.3150  0.6389  0.6681
 4278SOL     OW24469   0.320   0.569  15.040 -0.4736 -0.3685  0.1234
 4278SOL    HW124470   0.320   0.660  15.009 -0.9480 -0.8228 -1.2054
 4278SOL    HW224471   0.383   0.539  14.974 -0.1797  0.0666  0.2068
 4279SOL     OW24472   0.196   4.269   7.352 -0.2032 -0.2321  0.0118
 4279SOL    HW124473   0.113   4.251   7.309  0.9639 -0.4609 -2.1488
 4279SOL    HW224474   0.185   4.238   7.442 -1.1827  0.2026  0.0432
 4280SOL     OW24475   0.506   0.902   5.050  0.2227  0.5178 -0.5896
 4280SOL    HW124476   0.435   0.848   5.015 -0.8522  0.8431  1.0763
 4280SOL    HW224477   0.475   0.923   5.138  0.8747  2.0747 -0.7308
 4281SOL     OW24478   1.720   4.234   6.655  0.3408  0.4538  0.2590
 4281SOL    HW124479   1.725   4.210   6.562  0.8859  1.5421  0.0072
 4281SOL    HW224480   1.794   4.181   6.684 -0.6879 -0.9052  0.3951
 4282SOL     OW24481   3.261   1.485   9.062  0.0484 -0.3809  0.4934
 4282SOL    HW124482   3.306   1.502   9.144 -2.0887 -1.1316  1.8161
 4282SOL    HW224483   3.333   1.502   9.001  0.1723  0.6264  0.9223
 4283SOL     OW24484   4.608   2.155   9.133  0.0701 -0.3772  0.5725
 4283SOL    HW124485   4.514   2.166   9.121  0.1949 -0.3250 -0.3592
 4283SOL    HW224486   4.611   2.104   9.214 -1.0820  2.3900  2.3433
 4284SOL     OW24487   4.378   2.251   1.288  0.4848 -0.1116 -0.4811
 4284SOL    HW124488   4.344   2.293   1.367  0.7275  0.2168 -0.5542
 4284SOL    HW224489   4.463   2.221   1.320  0.8750  2.8202  1.1977
 4285SOL     OW24490   4.430   2.432   5.364 -0.0290  0.0189  0.4085
 4285SOL    HW124491   4.355   2.373   5.368  3.1022 -3.9349  0.2919
 4285SOL    HW224492   4.480   2.414   5.443  1.9594 -0.2601 -0.9324
 4286SOL     OW24493   3.943   1.560   1.075  0.0943 -0.0071 -0.2222
 4286SOL    HW124494   4.025   1.567   1.026  0.9011  1.7755  1.3956
 4286SOL    HW224495   3.975   1.506   1.147  0.6531 -0.0659 -0.5108
 4287SOL     OW24496   0.965   2.777  12.982  0.0296  0.5071  0.4827
 4287SOL    HW124497   0.945   2.867  13.009  1.6035  1.0037 -0.0335
 4287SOL    HW224498   0.907   2.731  13.043  1.5073  0.3774  1.7714
 4288SOL     OW24499   1.357   2.474   2.982  0.4530 -0.9373 -0.0578
 4288SOL    HW124500   1.281   2.467   3.041  1.4376  1.5796  1.5070
 4288SOL    HW224501   1.391   2.385   2.976  0.4616 -0.8182 -1.8688
 4289SOL     OW24502   0.289   4.441  13.397 -0.2062 -0.3648 -0.4399
 4289SOL    HW124503   0.243   4.460  13.479  0.8236  0.7660 -0.1226
 4289SOL    HW224504   0.217   4.415  13.340 -0.6883 -1.8707  0.8541
 4290SOL     OW24505   0.714   3.463  14.816 -0.0594  0.2403 -0.4010
 4290SOL    HW124506   0.683   3.472  14.726 -0.9252 -0.8886 -0.2045
 4290SOL    HW224507   0.781   3.530  14.826  0.9067 -0.6997 -0.5895
 4291SOL     OW24508   1.578   3.034  13.466  1.0463 -0.0688  0.1280
 4291SOL    HW124509   1.603   3.099  13.532  1.9071 -0.0694 -0.1961
 4291SOL    HW224510   1.612   2.957  13.511  0.5827 -1.4962 -1.9827
 4292SOL     OW24511   0.458   3.970   3.028 -0.0103  0.3230  0.0960
 4292SOL    HW124512   0.418   3.888   3.001  3.7040 -1.9155  1.3246
 4292SOL    HW224513   0.432   3.961   3.120 -0.5040 -1.8980 -0.2725
 4293SOL     OW24514   0.943   1.859   1.609 -0.3494 -0.2641 -0.0202
 4293SOL    HW124515   0.972   1.812   1.531 -0.0659 -0.1766  0.0343
 4293SOL    HW224516   0.853   1.829   1.624 -0.3627 -0.2583 -0.0894
 4294SOL     OW24517   2.167   3.196   9.956  0.7218  0.4469  0.6440
 4294SOL    HW124518   2.161   3.236  10.043  0.1527  0.4558  0.5962
 4294SOL    HW224519   2.109   3.251   9.904  0.6070 -0.4380 -0.1554
 4295SOL     OW24520   4.354   2.694   4.560  0.0401 -0.4259 -0.4941
 4295SOL    HW124521   4.265   2.690   4.595  0.7735  0.5265  1.4806
 4295SOL    HW224522   4.337   2.750   4.484  0.0627 -0.1528 -0.2960
 4296SOL     OW24523   4.684   3.072   7.131 -0.1280  0.1366 -0.2535
 4296SOL    HW124524   4.719   2.983   7.131  0.5506  0.3942  0.8515
 4296SOL    HW224525   0.006   3.112   7.069  1.0177  1.1140  1.4994
 4297SOL     OW24526   3.113   2.750  10.083 -0.4971  0.1294  0.0545
 4297SOL    HW124527   3.081   2.817  10.023  0.6369  0.8693  0.2618
 4297SOL    HW224528   3.204   2.777  10.097  0.1859 -0.8676 -2.4059
 4298SOL     OW24529   0.236   1.336   4.329 -0.1867 -1.2425  0.0167
 4298SOL    HW124530   0.153   1.288   4.327 -1.5451  1.0557  0.8645
 4298SOL    HW224531   0.306   1.275   4.309 -0.7646 -1.8547 -0.1201
 4299SOL     OW24532   0.395   4.491   2.638 -0.1046  0.5745  0.4966
 4299SOL    HW124533   0.401   4.570   2.585  2.1325  0.9018  1.2702
 4299SOL    HW224534   0.488   4.479   2.653 -0.0625  0.7295  0.3441
 4300SOL     OW24535   0.083   0.319  17.699  0.6085 -0.3320 -0.2463
 4300SOL    HW124536   0.018   0.249  17.688  1.1093 -0.8778  0.3475
 4300SOL    HW224537   0.113   0.299   0.033 -0.4205 -1.8638 -0.2467
 4301SOL     OW24538   0.819   4.657   5.867 -0.2903  0.4472  0.0853
 4301SOL    HW124539   0.877   4.714   5.817 -1.9948  0.3490 -1.9973
 4301SOL    HW224540   0.883   4.603   5.914 -0.3471  0.9044  0.6903
 4302SOL     OW24541   0.906   3.036   0.551 -0.5231  0.3613 -0.6042
 4302SOL    HW124542   0.979   3.048   0.612 -0.1751 -0.8623 -0.7930
 4302SOL    HW224543   0.848   2.985   0.607  1.5305 -1.2312  0.0504
 4303SOL     OW24544   1.786   3.659   9.124 -0.2079  0.1215 -0.0069
 4303SOL    HW124545   1.744   3.651   9.210 -0.0545  2.1188  0.2584
 4303SOL    HW224546   1.739   3.731   9.083 -0.9536  0.2346  1.0379
 4304SOL     OW24547   3.708   2.302   6.980  0.1290  0.5528 -0.1097
 4304SOL    HW124548   3.792   2.290   7.025  0.8456  1.2142 -1.2866
 4304SOL    HW224549   3.643   2.294   7.050 -1.1067  1.9758 -1.0954
 4305SOL     OW24550   4.494   3.465   8.454  0.2350 -0.0563 -0.2986
 4305SOL    HW124551   4.414   3.506   8.488  0.6085 -0.1520  0.7015
 4305SOL    HW224552   4.526   3.526   8.387  1.3492 -0.7961 -0.4296
 4306SOL     OW24553   0.489   0.220  14.833  0.7731 -0.0139  0.2649
 4306SOL    HW124554   0.511   0.132  14.803  2.5381  1.6160 -3.2493
 4306SOL    HW224555   0.393   0.220  14.830  0.8444  0.0751 -1.8410
 4307SOL     OW24556   4.112   2.672   4.264  0.5767 -0.1349  0.3510
 4307SOL    HW124557   4.065   2.588   4.269  0.1449 -0.0027 -1.3330
 4307SOL    HW224558   4.125   2.684   4.169 -0.5324  3.1922  0.6184
 4308SOL     OW24559   2.795   2.945  10.191 -0.8181  0.0340 -0.1705
 4308SOL    HW124560   2.800   2.858  10.152 -2.9670 -0.1974  0.0500
 4308SOL    HW224561   2.848   2.936  10.270 -1.3181 -0.3696  0.1201
 4309SOL     OW24562   3.094   1.232   8.137  0.5775 -0.3316 -0.0313
 4309SOL    HW124563   3.119   1.306   8.193 -0.6022  0.7630 -0.9387
 4309SOL    HW224564   3.115   1.165   8.202  0.4592  0.4815  0.8469
 4310SOL     OW24565   1.087   2.027   2.582 -0.0861 -0.3332  0.3025
 4310SOL    HW124566   0.998   2.005   2.553  0.1728 -0.3170 -0.5235
 4310SOL    HW224567   1.110   1.947   2.628 -2.4636 -2.3028 -1.9252
 4311SOL     OW24568   0.245   2.299   7.076 -0.6367  0.0511 -0.7206
 4311SOL    HW124569   0.168   2.318   7.023 -0.6558 -0.1749 -0.7731
 4311SOL    HW224570   0.284   2.387   7.080  1.5784 -0.9052 -0.9365
 4312SOL     OW24571   3.460   2.587   9.792 -0.3793 -0.1900 -0.1168
 4312SOL    HW124572   3.497   2.558   9.876  0.0090 -0.4106 -0.3641
 4312SOL    HW224573   3.483   2.515   9.733 -2.3037  0.0129 -1.1088
 4313SOL     OW24574   2.487   1.357   6.223  0.5326 -0.5279  0.3230
 4313SOL    HW124575   2.501   1.451   6.226 -3.8972  0.0884  1.3711
 4313SOL    HW224576   2.437   1.345   6.304  1.2528 -1.1397  0.6833
 4314SOL     OW24577   4.691   3.444   1.493 -0.2042 -0.0157 -0.2887
 4314SOL    HW124578   4.732   3.467   1.410 -2.7333  0.8498 -1.2867
 4314SOL    HW224579   4.596   3.434   1.480 -0.5669  1.7241  1.0709
 4315SOL     OW24580   2.445   1.687   8.866  0.0540  0.4455 -0.7047
 4315SOL    HW124581   2.435   1.721   8.955 -0.9916  2.1777 -1.4826
 4315SOL    HW224582   2.461   1.596   8.889 -0.9956  0.7969  1.3654
 4316SOL     OW24583   3.778   4.724   3.588  0.7364  0.6511 -0.4877
 4316SOL    HW124584   3.856   4.715   3.534 -0.0456  3.4474 -2.0869
 4316SOL    HW224585   3.792   4.665   3.662  0.7541 -0.3605 -1.3087
 4317SOL     OW24586   2.269   4.241   7.588 -0.0453 -0.0848  0.9182
 4317SOL    HW124587   2.270   4.295   7.509  0.9106  1.3730  1.9285
 4317SOL    HW224588   2.277   4.316   7.646  0.6453  2.1287 -1.9986
 4318SOL     OW24589   3.229   4.038   8.645 -0.4267 -0.0412  0.2500
 4318SOL    HW124590   3.263   4.123   8.620  0.2259 -0.2589  0.3967
 4318SOL    HW224591   3.174   4.005   8.575 -0.7918 -0.6002  0.7957
 4319SOL     OW24592   4.573   2.767   7.739  0.0662 -0.9342  0.3059
 4319SOL    HW124593   4.516   2.839   7.766 -0.4870 -1.5524  0.7851
 4319SOL    HW224594   4.565   2.708   7.814  0.1979  2.5290  3.0389
 4320SOL     OW24595   1.586   0.937   7.770  0.4062  0.0802 -0.7872
 4320SOL    HW124596   1.640   1.014   7.753  0.0185  1.3878  3.9810
 4320SOL    HW224597   1.647   0.895   7.830 -0.8146  0.4695  0.7113
 4321SOL     OW24598   1.147   4.585   2.564  0.3596  0.2423 -0.2696
 4321SOL    HW124599   1.091   4.507   2.559 -1.1772  1.5011 -2.4094
 4321SOL    HW224600   1.195   4.586   2.482  0.3126  2.1120 -0.2710
 4322SOL     OW24601   1.357   1.313   1.719  0.0784 -0.4425  0.4161
 4322SOL    HW124602   1.307   1.237   1.688  0.2087  0.0398 -0.9827
 4322SOL    HW224603   1.392   1.347   1.636 -2.1356 -1.6406 -1.0269
 4323SOL     OW24604   0.816   1.186   1.413 -0.0249  0.1428 -0.3824
 4323SOL    HW124605   0.745   1.148   1.465  0.8506  0.0349  0.7382
 4323SOL    HW224606   0.765   1.181   1.332 -0.7012  0.1394  0.0403
 4324SOL     OW24607   3.334   0.600   9.934 -0.0435 -0.2650  0.7153
 4324SOL    HW124608   3.291   0.517   9.955  0.6199 -1.0367 -0.9555
 4324SOL    HW224609   3.282   0.653   9.994 -1.1154 -1.1831  0.5921
 4325SOL     OW24610   3.641   4.522   2.970  0.1685 -0.1332 -0.1697
 4325SOL    HW124611   3.571   4.551   3.028 -0.0483  0.8597 -0.9417
 4325SOL    HW224612   3.593   4.453   2.924  0.8934 -1.0928  0.5036
 4326SOL     OW24613   3.326   4.467   8.995  0.0777 -0.1034 -0.4685
 4326SOL    HW124614   3.239   4.439   9.023  1.0402  0.3054  3.0492
 4326SOL    HW224615   3.344   4.405   8.925 -1.6021 -0.1228 -0.8817
 4327SOL     OW24616   2.642   2.327   1.882 -0.5213 -0.1109  0.2726
 4327SOL    HW124617   2.651   2.297   1.792  0.9701 -0.4033  0.5174
 4327SOL    HW224618   2.730   2.336   1.917 -0.0591  1.9080 -1.4186
 4328SOL     OW24619   4.431   3.010   7.259 -0.5210  0.2094 -0.0910
 4328SOL    HW124620   4.494   3.061   7.310 -1.3309 -1.2598  2.3595
 4328SOL    HW224621   4.442   2.921   7.292  0.3728 -0.1464 -1.3745
 4329SOL     OW24622   4.540   3.351   9.152 -0.2668 -0.2881  0.4625
 4329SOL    HW124623   4.498   3.280   9.201  1.0160 -1.0762  0.4284
 4329SOL    HW224624   4.631   3.323   9.166  0.3572  2.9265  2.8907
 4330SOL     OW24625   3.021   0.789  15.211 -0.6421 -0.2264  0.0092
 4330SOL    HW124626   2.955   0.850  15.243 -2.1835 -1.8219 -0.0975
 4330SOL    HW224627   3.081   0.853  15.174 -0.1226 -1.0331 -0.5492
 4331SOL     OW24628   3.863   4.700   7.373 -0.4312  0.2541 -0.6001
 4331SOL    HW124629   3.845   4.714   7.280  0.4904 -1.3130 -1.0092
 4331SOL    HW224630   3.865   0.055   7.392 -0.2651  0.2459 -0.5754
 4332SOL     OW24631   2.908   1.583   5.855 -0.1962 -0.1869 -0.1970
 4332SOL    HW124632   2.925   1.658   5.797 -2.4144 -0.2061 -0.8541
 4332SOL    HW224633   2.827   1.541   5.826 -0.3422  0.5876 -0.9047
 4333SOL     OW24634   1.983   3.060   3.692  0.2394  0.7140 -0.1849
 4333SOL    HW124635   2.033   3.120   3.748 -2.6810  2.0314  1.0015
 4333SOL    HW224636   1.903   3.053   3.744  0.6100  1.3903  0.4744
 4334SOL     OW24637   2.682   1.285   7.381 -0.3146  0.1965 -0.0592
 4334SOL    HW124638   2.632   1.220   7.331  0.0653 -0.6342  0.6413
 4334SOL    HW224639   2.741   1.230   7.432  0.6619  1.4971  0.1993
 4335SOL     OW24640   3.052   2.767   4.068  0.7879 -0.4474 -0.1117
 4335SOL    HW124641   3.043   2.711   3.991 -2.1243 -1.0299  0.6476
 4335SOL    HW224642   2.980   2.748   4.128  1.6239 -4.2771 -0.2975
 4336SOL     OW24643   3.995   2.343  14.787 -0.1657 -0.0006  0.2298
 4336SOL    HW124644   4.030   2.372  14.871  0.2987 -1.4007  0.5196
 4336SOL    HW224645   3.921   2.290  14.818 -0.3992  0.0930 -0.1628
 4337SOL     OW24646   2.023   4.446  13.732 -0.0912 -0.2954 -0.0388
 4337SOL    HW124647   2.106   4.470  13.772 -0.9596 -0.7428  2.0154
 4337SOL    HW224648   1.992   4.534  13.713  1.4943 -0.0854 -1.6074
 4338SOL     OW24649   0.289   4.247   6.358  0.5359  0.7876  0.3804
 4338SOL    HW124650   0.276   4.342   6.357 -1.5450  0.4928 -1.1943
 4338SOL    HW224651   0.197   4.226   6.371  0.3842  0.2465 -1.4902
 4339SOL     OW24652   4.331   1.691  14.137 -0.5430 -0.6569 -0.9260
 4339SOL    HW124653   4.334   1.783  14.109 -0.1724 -0.5865 -0.6521
 4339SOL    HW224654   4.389   1.697  14.212  0.9690 -0.1775 -2.1164
 4340SOL     OW24655   1.449   1.899  17.720  0.7343  0.5094 -0.5891
 4340SOL    HW124656   1.367   1.944  17.697 -0.4527 -1.7406 -0.6977
 4340SOL    HW224657   1.445   1.906   0.061 -0.0668 -0.2496 -0.5708
 4341SOL     OW24658   3.848   4.342   8.963 -0.0548 -0.1340 -0.4684
 4341SOL    HW124659   3.936   4.377   8.953 -0.6239  2.2691  2.8350
 4341SOL    HW224660   3.865   4.269   9.023 -0.9537 -0.2639 -0.3678
 4342SOL     OW24661   1.325   1.321  10.404 -0.1012  0.1518  0.0847
 4342SOL    HW124662   1.409   1.367  10.397  1.6413 -2.9559  0.7170
 4342SOL    HW224663   1.342   1.284  10.491  1.4271 -1.5160 -0.9298
 4343SOL     OW24664   1.523   1.002   2.429 -0.1733  0.0245  0.1275
 4343SOL    HW124665   1.440   1.034   2.395 -0.9210 -1.3217  0.6996
 4343SOL    HW224666   1.514   1.031   2.520 -3.1062  2.4672 -0.9384
 4344SOL     OW24667   3.548   3.199   8.589 -0.0258  0.0928 -0.0963
 4344SOL    HW124668   3.488   3.201   8.664  2.7777  1.2411  2.1179
 4344SOL    HW224669   3.490   3.207   8.514  0.3721 -0.2845 -0.4455
 4345SOL     OW24670   1.039   4.128   0.524  0.0376  0.7518  0.3698
 4345SOL    HW124671   0.947   4.128   0.496 -0.5441 -1.7721  2.2455
 4345SOL    HW224672   1.057   4.114   0.431  0.3142  0.2636  0.4967
 4346SOL     OW24673   1.307   1.882  14.797 -0.5631 -0.2890 -0.0620
 4346SOL    HW124674   1.390   1.892  14.843 -0.0915 -2.1467 -0.5112
 4346SOL    HW224675   1.257   1.928  14.864 -0.4100  1.7351 -1.3500
 4347SOL     OW24676   3.432   2.772   2.492  0.1157 -0.3575  0.0003
 4347SOL    HW124677   3.483   2.691   2.500  1.1636  0.1929 -1.0876
 4347SOL    HW224678   3.343   2.742   2.475 -0.0108 -0.9707  1.7692
 4348SOL     OW24679   4.218   3.732   2.563 -0.3910 -0.2578 -0.5670
 4348SOL    HW124680   4.161   3.794   2.610 -0.2045 -1.9910  1.9520
 4348SOL    HW224681   4.159   3.708   2.491 -1.4858 -0.0927  0.2694
 4349SOL     OW24682   2.789   3.347   7.528  0.2964  0.0869 -0.1366
 4349SOL    HW124683   2.783   3.280   7.595 -0.0115  0.2702  0.0199
 4349SOL    HW224684   2.872   3.394   7.540 -1.1629  1.5131  4.4886
 4350SOL     OW24685   0.925   4.106   6.485 -0.4645 -0.0105  0.2138
 4350SOL    HW124686   0.830   4.098   6.474 -0.0172 -0.2493 -3.5606
 4350SOL    HW224687   0.942   4.114   6.579 -0.8097 -1.0837  0.3646
 4351SOL     OW24688   3.082   0.825   8.590 -0.5398 -0.0963 -0.6247
 4351SOL    HW124689   3.095   0.745   8.540  2.6302 -0.5057  0.8487
 4351SOL    HW224690   3.075   0.786   8.677  0.6787 -1.8736 -1.3129
 4352SOL     OW24691   3.089   2.802   8.590 -0.0995 -0.3187 -0.3395
 4352SOL    HW124692   3.053   2.722   8.629  1.5419  0.4203  2.6600
 4352SOL    HW224693   3.017   2.824   8.531  0.3708  1.0180 -0.4120
 4353SOL     OW24694   3.858   2.008   6.476  0.1353 -0.0764 -0.7372
 4353SOL    HW124695   3.891   2.051   6.555 -0.3760  1.8257 -1.5443
 4353SOL    HW224696   3.935   1.955   6.454 -0.1054 -0.6971 -0.0790
 4354SOL     OW24697   2.967   0.174  17.345  0.1563 -0.1173  0.4664
 4354SOL    HW124698   2.975   0.255  17.396  0.2739 -0.2431  0.6480
 4354SOL    HW224699   2.874   0.174  17.320  0.5343 -0.6773 -0.9221
 4355SOL     OW24700   0.227   2.605   3.947  0.1443 -0.0064  0.1922
 4355SOL    HW124701   0.159   2.616   4.014 -0.9483 -2.2640 -0.5411
 4355SOL    HW224702   0.298   2.655   3.986  0.0825  1.4292 -1.5287
 4356SOL     OW24703   4.622   4.260   9.612 -0.1758  0.0783 -0.5494
 4356SOL    HW124704   4.633   4.291   9.702  0.0442  1.8209 -1.1801
 4356SOL    HW224705   4.532   4.231   9.595 -0.5243  2.0116 -2.0348
 4357SOL     OW24706   2.989   2.694   6.062 -0.0248 -0.4964 -0.0614
 4357SOL    HW124707   2.944   2.657   6.139 -0.3238 -1.0714 -0.5100
 4357SOL    HW224708   3.074   2.651   6.068  1.5882  2.8155  0.6308
 4358SOL     OW24709   3.240   0.058  12.375 -0.1540  0.8825 -0.1928
 4358SOL    HW124710   3.280   0.081  12.459 -1.1764  1.4694  0.1314
 4358SOL    HW224711   3.233   0.148  12.341 -0.2692  0.6991 -0.6522
 4359SOL     OW24712   1.528   0.436   2.464 -0.2198 -0.2555  0.1494
 4359SOL    HW124713   1.475   0.496   2.516 -0.1145 -1.2958  1.4519
 4359SOL    HW224714   1.611   0.484   2.463 -1.6499  2.1787 -1.0276
 4360SOL     OW24715   3.608   1.049   9.104 -0.7218 -0.3528  0.5813
 4360SOL    HW124716   3.573   0.960   9.102 -0.7193 -0.3292 -0.4218
 4360SOL    HW224717   3.702   1.036   9.115 -1.0358 -2.2440  1.1610
 4361SOL     OW24718   1.649   3.446   6.854 -0.5281  0.0558  0.2103
 4361SOL    HW124719   1.611   3.401   6.779 -0.6667  0.7942 -0.1551
 4361SOL    HW224720   1.577   3.451   6.917  0.0978  0.1132  0.9153
 4362SOL     OW24721   0.584   3.522   4.443  0.0001  0.0146  0.4618
 4362SOL    HW124722   0.582   3.468   4.364 -1.3592  0.4724  0.1932
 4362SOL    HW224723   0.547   3.604   4.411 -1.3761 -0.8773 -0.2241
 4363SOL     OW24724   4.311   4.245   8.018  0.5040  0.0641  0.5690
 4363SOL    HW124725   4.388   4.290   7.984  1.2707 -1.8972 -0.3274
 4363SOL    HW224726   4.338   4.159   7.985 -0.2520  0.1197 -0.1891
 4364SOL     OW24727   4.113   2.212   4.719 -0.4392 -0.3748  0.3592
 4364SOL    HW124728   4.079   2.255   4.798  2.8377  1.7375  0.6487
 4364SOL    HW224729   4.112   2.279   4.650  0.0720  1.4439  2.1008
 4365SOL     OW24730   0.470   2.808   2.349  0.7814  0.0137 -0.4894
 4365SOL    HW124731   0.496   2.819   2.257 -0.6724  3.2103 -0.5273
 4365SOL    HW224732   0.512   2.724   2.367  0.5639  0.0694  0.2629
 4366SOL     OW24733   4.284   0.707   5.981 -0.3579 -0.3569 -0.2236
 4366SOL    HW124734   4.312   0.730   5.892  0.6564  0.8882  0.4243
 4366SOL    HW224735   4.315   0.619   6.002  1.1443  0.3100  0.2834
 4367SOL     OW24736   4.046   1.491   4.148  0.3475 -1.0942 -0.4359
 4367SOL    HW124737   3.996   1.464   4.225 -1.7032 -2.2474 -2.1819
 4367SOL    HW224738   4.071   1.407   4.111 -1.5841 -1.1389 -1.6367
 4368SOL     OW24739   1.123   2.684   7.855  0.2114  0.0192 -0.1654
 4368SOL    HW124740   1.042   2.711   7.899  0.2992  1.2138 -0.7397
 4368SOL    HW224741   1.096   2.625   7.784 -2.0483  0.0921  0.6187
 4369SOL     OW24742   4.719   1.239  13.970  0.7447  0.4027  0.1941
 4369SOL    HW124743   0.036   1.278  14.038  0.6074  0.8544  0.0518
 4369SOL    HW224744   0.034   1.263  13.894 -1.7232 -0.1304 -1.7014
 4370SOL     OW24745   3.672   2.099   7.536 -0.0252 -0.4756  0.0345
 4370SOL    HW124746   3.703   2.184   7.568 -1.3750 -0.6614  1.8289
 4370SOL    HW224747   3.653   2.121   7.445  0.0802 -0.9369 -0.0967
 4371SOL     OW24748   3.352   3.669   1.947 -0.0077  0.5859  0.0553
 4371SOL    HW124749   3.409   3.687   2.022 -1.3333 -0.1614  1.2430
 4371SOL    HW224750   3.343   3.575   1.962 -0.5942  0.4266 -1.2506
 4372SOL     OW24751   2.632   1.733   7.337  1.0465 -0.2994 -0.4548
 4372SOL    HW124752   2.596   1.656   7.381 -1.8650  1.0435 -0.4837
 4372SOL    HW224753   2.724   1.707   7.335  0.9118 -0.9548  2.8693
 4373SOL     OW24754   4.177   4.056  15.223 -0.0558  0.1443 -0.2588
 4373SOL    HW124755   4.129   4.079  15.303 -1.6928 -2.9322 -0.3671
 4373SOL    HW224756   4.122   3.987  15.187 -0.1590 -0.0752  0.3197
 4374SOL     OW24757   3.226   4.535   7.101 -0.1951 -0.1021  0.1885
 4374SOL    HW124758   3.320   4.517   7.096 -0.4242 -0.4478 -2.4402
 4374SOL    HW224759   3.193   4.453   7.065  2.2087 -1.1177  0.3369
 4375SOL     OW24760   0.787   0.933  11.171  0.3013  0.2538  0.1872
 4375SOL    HW124761   0.769   0.963  11.082 -0.4931  1.7595  0.8701
 4375SOL    HW224762   0.819   0.844  11.152 -2.7108  0.1199 -4.2247
 4376SOL     OW24763   1.187   2.903  15.818 -0.4011  0.6258  0.1604
 4376SOL    HW124764   1.240   2.982  15.828 -0.4391  0.8456 -1.4769
 4376SOL    HW224765   1.145   2.937  15.739  0.4605 -0.0922 -0.6108
 4377SOL     OW24766   1.968   1.494   7.784  0.2658 -0.4514  0.6972
 4377SOL    HW124767   1.987   1.416   7.732  0.2244 -0.3204  0.4861
 4377SOL    HW224768   2.019   1.491   7.865 -1.1660 -1.1762  1.5748
 4378SOL     OW24769   2.710   3.468   5.346  0.3644 -0.0506 -0.3614
 4378SOL    HW124770   2.659   3.546   5.366 -0.7455 -0.9353  0.2371
 4378SOL    HW224771   2.706   3.423   5.430 -0.8505  0.5944 -0.0812
 4379SOL     OW24772   0.217   4.173   5.217 -0.0146 -0.0345  0.0595
 4379SOL    HW124773   0.192   4.110   5.149  0.3554 -0.0218 -0.0889
 4379SOL    HW224774   0.239   4.120   5.294 -0.2444  1.9080  1.4566
 4380SOL     OW24775   4.609   1.555  15.087  0.5683  0.2930  0.5055
 4380SOL    HW124776   4.688   1.567  15.140  1.6549  0.6415 -1.1769
 4380SOL    HW224777   4.571   1.643  15.080  0.3714  0.1396 -0.3338
 4381SOL     OW24778   3.275   4.141  17.470 -0.0113 -0.2821 -0.2420
 4381SOL    HW124779   3.222   4.220  17.463 -0.1024 -0.2578  0.8251
 4381SOL    HW224780   3.240   4.102  17.549  2.6072 -0.7525  0.6953
 4382SOL     OW24781   0.396   2.042  10.138 -0.2696  0.1062 -0.1741
 4382SOL    HW124782   0.310   2.004  10.122  0.5133 -1.0067 -1.7825
 4382SOL    HW224783   0.377   2.127  10.177  0.1472  0.8903 -1.6822
 4383SOL     OW24784   1.542   2.845   8.800 -0.1723 -0.3656  0.1289
 4383SOL    HW124785   1.537   2.752   8.777  2.4277 -0.1415 -1.3335
 4383SOL    HW224786   1.635   2.868   8.796 -1.1794  3.3126 -2.0450
 4384SOL     OW24787   0.099   0.070   2.874 -0.5832  0.2829 -0.4944
 4384SOL    HW124788   0.130   0.059   2.964  0.8191 -0.4444 -1.0571
 4384SOL    HW224789   0.108   4.717   2.851  0.5944 -0.0264  1.1820
 4385SOL     OW24790   2.199   4.212   5.700  0.3191 -0.1967  0.0069
 4385SOL    HW124791   2.178   4.282   5.762 -0.6434  0.5404 -1.1518
 4385SOL    HW224792   2.130   4.225   5.635  0.5026 -1.7768 -0.4916
 4386SOL     OW24793   1.607   2.392  17.514  0.2673  0.3280  0.0336
 4386SOL    HW124794   1.563   2.385  17.429 -2.0656  0.8232  1.1927
 4386SOL    HW224795   1.586   2.309  17.555 -1.0349  0.5871 -0.1229
 4387SOL     OW24796   4.085   4.017   1.517 -0.2301  0.1452 -0.0274
 4387SOL    HW124797   4.006   3.999   1.466  0.7485 -2.1331 -0.7417
 4387SOL    HW224798   4.148   4.007   1.446 -0.3574  0.3383 -0.1679
 4388SOL     OW24799   1.835   3.893   1.939  0.0922 -0.2160 -0.1434
 4388SOL    HW124800   1.890   3.860   2.010 -0.4448  0.5372  0.6163
 4388SOL    HW224801   1.880   3.972   1.908  2.1748 -2.4493 -2.7697
 4389SOL     OW24802   4.101   2.219   3.410 -0.2188  0.0108 -0.5120
 4389SOL    HW124803   4.084   2.313   3.407  1.0124  0.3245  2.3767
 4389SOL    HW224804   4.126   2.211   3.502 -1.2585 -3.4049 -0.5427
 4390SOL     OW24805   2.536   2.534   5.326  0.0911  0.3560  0.2601
 4390SOL    HW124806   2.577   2.579   5.252 -0.4603  1.2879  0.5277
 4390SOL    HW224807   2.534   2.444   5.294  3.1834 -0.3427  2.0070
 4391SOL     OW24808   0.739   4.350   7.600  0.0894  0.8460  0.1785
 4391SOL    HW124809   0.742   4.282   7.668 -0.8180  0.6201 -0.0062
 4391SOL    HW224810   0.647   4.338   7.578  0.4408 -0.6435 -0.4225
 4392SOL     OW24811   3.236   0.319   8.583 -0.1750 -0.6404 -0.1187
 4392SOL    HW124812   3.179   0.242   8.576  0.4983 -1.1164 -0.4899
 4392SOL    HW224813   3.269   0.318   8.493 -0.0582 -0.0584 -0.0805
 4393SOL     OW24814   0.539   3.589  12.888  0.3381  0.0540 -0.0961
 4393SOL    HW124815   0.590   3.526  12.837  0.5636  1.1544 -1.2402
 4393SOL    HW224816   0.458   3.541  12.906 -0.0329  1.0427  0.8906
 4394SOL     OW24817   0.541   1.468   4.605  0.4302 -0.6422 -0.1596
 4394SOL    HW124818   0.531   1.528   4.679  1.8638  0.1027 -0.5745
 4394SOL    HW224819   0.532   1.532   4.535  0.9686  0.4128  0.7388
 4395SOL     OW24820   3.874   2.111  14.901  0.1620  0.1739 -0.0870
 4395SOL    HW124821   3.819   2.053  14.953 -0.7489  1.6211  0.5678
 4395SOL    HW224822   3.965   2.087  14.918  0.1509  0.0819 -0.1584
 4396SOL     OW24823   1.525   2.571   5.059  0.1388 -0.0242  0.4121
 4396SOL    HW124824   1.558   2.530   4.979  0.9876 -0.2519  0.8727
 4396SOL    HW224825   1.581   2.521   5.118  1.9481  1.1469 -0.2844
 4397SOL     OW24826   2.667   4.341   0.944  0.1703 -0.1091 -0.0049
 4397SOL    HW124827   2.715   4.260   0.958 -0.5516 -0.2155  1.9703
 4397SOL    HW224828   2.677   4.384   1.030 -0.0731  2.0938 -1.0779
 4398SOL     OW24829   0.207   0.493   3.931 -0.3323  0.3549  0.5191
 4398SOL    HW124830   0.238   0.409   3.966  0.9303 -0.7249 -3.1876
 4398SOL    HW224831   0.156   0.467   3.855  0.0849 -0.6391  0.5780
 4399SOL     OW24832   2.980   2.684   1.526  0.0899 -0.1451  0.6842
 4399SOL    HW124833   3.030   2.763   1.505 -1.7911  0.4847 -1.3788
 4399SOL    HW224834   2.960   2.652   1.438 -0.4346  2.1215  0.0019
 4400SOL     OW24835   0.278   4.536   3.736  0.1728  0.2148  0.0597
 4400SOL    HW124836   0.315   4.461   3.783  0.6815  0.4040 -0.0335
 4400SOL    HW224837   0.352   4.596   3.743  0.0785  0.4239 -0.8785
 4401SOL     OW24838   1.854   1.378   8.048  0.8018 -0.0733  0.3540
 4401SOL    HW124839   1.791   1.433   8.003  1.4250  0.0035 -0.4313
 4401SOL    HW224840   1.803   1.305   8.084  2.2705 -0.7591  1.0626
 4402SOL     OW24841   0.041   4.410   1.864 -0.0754  0.2833  0.1569
 4402SOL    HW124842   0.076   4.430   1.777  0.7617 -4.9677 -0.6856
 4402SOL    HW224843   4.696   4.455   1.853 -0.6561 -1.0675 -0.9020
 4403SOL     OW24844   0.754   2.277   8.515 -0.4556 -0.3310  0.1988
 4403SOL    HW124845   0.805   2.248   8.440  1.6098  0.5474  1.2723
 4403SOL    HW224846   0.700   2.200   8.536  2.8631 -2.7407 -0.0976
 4404SOL     OW24847   0.137   1.620   0.736  0.5923  0.2111  0.3261
 4404SOL    HW124848   0.072   1.592   0.801 -1.7848  0.7269 -1.8455
 4404SOL    HW224849   0.096   1.582   0.658 -1.1347  1.1686  0.7646
 4405SOL     OW24850   1.870   4.288   2.721  0.0465  0.5502  0.3760
 4405SOL    HW124851   1.837   4.226   2.656 -2.7108 -0.0704  2.3712
 4405SOL    HW224852   1.849   4.373   2.682 -3.1021  0.0609  1.0099
 4406SOL     OW24853   1.709   3.814   6.436 -0.2812  0.0558  0.3973
 4406SOL    HW124854   1.741   3.748   6.373  1.3101  1.6884 -0.5027
 4406SOL    HW224855   1.647   3.868   6.388  0.6054 -1.5387 -2.5889
 4407SOL     OW24856   1.472   4.082  16.869  0.3261 -1.0123 -0.2006
 4407SOL    HW124857   1.459   4.120  16.782 -0.7084  0.0826  0.4223
 4407SOL    HW224858   1.567   4.085  16.876  0.3144  0.4148 -0.6743
 4408SOL     OW24859   3.766   4.095   2.647 -0.8426  0.5411  0.4460
 4408SOL    HW124860   3.754   4.021   2.707 -0.1730 -0.0266 -0.1232
 4408SOL    HW224861   3.674   4.121   2.639 -0.7970  0.9795  1.3668
 4409SOL     OW24862   1.501   3.713  17.557 -0.0100  0.0604  0.2201
 4409SOL    HW124863   1.467   3.801  17.543  0.4811  0.2526  0.2362
 4409SOL    HW224864   1.595   3.732  17.553 -0.1474  0.1759 -2.5056
 4410SOL     OW24865   2.005   0.966  10.753  0.0210 -0.2670  0.0458
 4410SOL    HW124866   1.954   0.951  10.673  0.1404  0.3416 -0.1458
 4410SOL    HW224867   1.974   1.056  10.762  0.7496  0.0315 -0.4046
 4411SOL     OW24868   3.552   0.259   8.439  0.0818  0.2828  0.1947
 4411SOL    HW124869   3.564   0.219   8.353  2.3323  1.9835 -0.2579
 4411SOL    HW224870   3.471   0.216   8.470  0.5976 -2.1666 -1.8122
 4412SOL     OW24871   1.557   1.958  16.411  0.4652 -0.1334  0.0518
 4412SOL    HW124872   1.559   1.885  16.349  1.4465 -0.6795  0.7108
 4412SOL    HW224873   1.647   1.989  16.420 -0.2184  1.9594 -0.3104
 4413SOL     OW24874   4.408   3.922   5.108  0.2303  0.3460  0.0880
 4413SOL    HW124875   4.394   3.902   5.201  2.8867 -0.5551  0.2945
 4413SOL    HW224876   4.336   3.868   5.075  1.7936 -1.3282 -0.6026
 4414SOL     OW24877   0.400   3.326   9.688 -0.0752  1.0186 -0.6528
 4414SOL    HW124878   0.469   3.367   9.741  0.8060 -2.7585  1.1310
 4414SOL    HW224879   0.329   3.306   9.750 -0.2710 -0.2860 -1.3214
 4415SOL     OW24880   1.958   4.338  16.479  0.8139 -0.1844 -0.0160
 4415SOL    HW124881   1.912   4.406  16.428 -0.1228  0.0302  1.1296
 4415SOL    HW224882   2.034   4.332  16.422 -0.5715 -0.0465 -1.8991
 4416SOL     OW24883   2.870   1.517   7.350  0.0760  0.5123 -0.1905
 4416SOL    HW124884   2.805   1.477   7.408 -0.8003  4.3270  1.4831
 4416SOL    HW224885   2.952   1.487   7.389 -0.3317 -1.4849 -0.8764
 4417SOL     OW24886   2.520   4.431   7.678 -0.3822  0.4489  0.3058
 4417SOL    HW124887   2.593   4.421   7.740  0.4082 -0.7949 -0.8371
 4417SOL    HW224888   2.545   4.351   7.632 -0.1502  1.1908 -0.8642
 4418SOL     OW24889   1.072   3.371   5.275  0.2489 -0.2748  0.1910
 4418SOL    HW124890   0.998   3.412   5.232  0.8832  0.8094  0.1544
 4418SOL    HW224891   1.123   3.330   5.205 -2.5336  0.9055 -2.5301
 4419SOL     OW24892   4.417   3.955  12.326 -0.0350  0.4434  0.6085
 4419SOL    HW124893   4.453   3.867  12.325 -0.1696  0.3974 -0.3754
 4419SOL    HW224894   4.480   4.002  12.381 -0.5282  3.6924 -1.5636
 4420SOL     OW24895   4.070   0.827   6.114  0.4837 -0.2611  0.2183
 4420SOL    HW124896   4.156   0.796   6.084 -0.2795 -3.6252  1.4286
 4420SOL    HW224897   4.095   0.897   6.174  1.5866 -0.3366 -0.1528
 4421SOL     OW24898   4.005   2.718   2.901  0.2645 -0.2219 -0.1398
 4421SOL    HW124899   4.015   2.723   2.806 -0.3261  3.7818 -0.0231
 4421SOL    HW224900   3.917   2.754   2.911  0.4758  0.2491  0.0562
 4422SOL     OW24901   4.732   2.852   4.444 -0.4441  0.3801  0.0304
 4422SOL    HW124902   0.064   2.896   4.489 -0.7780  2.1008 -1.1214
 4422SOL    HW224903   4.656   2.890   4.487 -0.1725  1.0213 -0.0574
 4423SOL     OW24904   2.928   2.061   1.179 -0.1045  0.5080 -0.0937
 4423SOL    HW124905   2.889   1.987   1.133 -0.1666 -0.3689  1.3616
 4423SOL    HW224906   2.851   2.117   1.190 -1.7715 -1.7073 -0.6208
 4424SOL     OW24907   1.065   2.852  16.826  0.2605  0.7566  0.1502
 4424SOL    HW124908   0.970   2.851  16.830  0.2801 -0.6226  0.2275
 4424SOL    HW224909   1.080   2.942  16.857  2.9230 -0.3981  2.1792
 4425SOL     OW24910   1.057   3.222   9.081 -0.3452  0.3650  0.5298
 4425SOL    HW124911   1.051   3.160   9.008  1.6967 -0.0917  0.7421
 4425SOL    HW224912   1.143   3.192   9.112 -0.2087 -1.5234 -1.7009
 4426SOL     OW24913   1.163   2.306   2.239  0.1438  0.0846  0.1653
 4426SOL    HW124914   1.104   2.303   2.314  0.8758 -0.0380  0.7316
 4426SOL    HW224915   1.095   2.318   2.173  2.1585  2.8807 -1.4209
 4427SOL     OW24916   0.933   3.586   2.269  0.1134  0.5555  0.1898
 4427SOL    HW124917   0.922   3.575   2.175 -0.9802  1.7268  0.1875
 4427SOL    HW224918   0.869   3.653   2.290 -0.9687  0.6863 -3.6775
 4428SOL     OW24919   2.844   2.116  11.637 -0.0543 -0.1277 -0.8647
 4428SOL    HW124920   2.798   2.174  11.697 -2.2291 -1.7522 -0.9833
 4428SOL    HW224921   2.838   2.033  11.683  1.1478 -0.5121 -1.3939
 4429SOL     OW24922   1.661   0.123   4.126  0.8137 -0.1454 -0.2017
 4429SOL    HW124923   1.724   0.148   4.058 -0.2817 -0.9807 -1.5231
 4429SOL    HW224924   1.638   0.209   4.161 -0.7885 -0.6722  0.0316
 4430SOL     OW24925   3.961   1.247  10.679 -0.0344 -0.7898 -0.0473
 4430SOL    HW124926   4.001   1.334  10.673 -0.1581 -0.6357  1.5202
 4430SOL    HW224927   3.942   1.225  10.587  1.3457 -1.7217 -0.1036
 4431SOL     OW24928   1.534   4.352  10.717  0.1615 -0.1942 -0.5135
 4431SOL    HW124929   1.624   4.323  10.730  0.2381  0.7845  1.1791
 4431SOL    HW224930   1.515   4.405  10.795 -2.1278 -1.0133 -0.4941
 4432SOL     OW24931   1.095   2.916   7.247 -0.2189 -0.1659  0.0609
 4432SOL    HW124932   1.136   2.907   7.162 -0.6014  1.3036 -0.2767
 4432SOL    HW224933   1.159   2.886   7.311  0.5224  0.2219 -0.5068
 4433SOL     OW24934   2.152   1.554   7.336  0.5419  0.1752  0.0809
 4433SOL    HW124935   2.090   1.627   7.329  1.4178  1.1075  2.1275
 4433SOL    HW224936   2.137   1.509   7.253 -0.9607  2.0030 -0.6334
 4434SOL     OW24937   2.093   3.251   5.110  0.0575 -0.5943  0.0032
 4434SOL    HW124938   2.023   3.301   5.068  1.4440  1.0908 -0.2880
 4434SOL    HW224939   2.159   3.311   5.076  0.2423 -0.3943  0.7146
 4435SOL     OW24940   3.971   2.398   5.803 -0.1111  0.2262  0.1310
 4435SOL    HW124941   4.041   2.381   5.740 -0.7081 -1.5618 -0.0595
 4435SOL    HW224942   3.923   2.464   5.752  1.9198  0.2420 -1.7609
 4436SOL     OW24943   3.371   0.677   8.391 -0.2867 -0.0978  0.2503
 4436SOL    HW124944   3.424   0.609   8.349  0.2344  1.0208 -0.9147
 4436SOL    HW224945   3.371   0.749   8.328  0.6658 -0.9253 -0.7171
 4437SOL     OW24946   0.187   1.999   5.622 -0.1786 -0.2129  0.5893
 4437SOL    HW124947   0.184   2.084   5.666  0.7060 -0.2433  0.7077
 4437SOL    HW224948   0.214   2.019   5.533 -0.8765  0.7796  0.6044
 4438SOL     OW24949   0.915   0.466   3.103  0.3382 -1.0222  0.1683
 4438SOL    HW124950   0.946   0.376   3.109 -1.0996 -1.7559 -3.5899
 4438SOL    HW224951   0.828   0.459   3.144 -0.1435 -0.4479 -0.7564
 4439SOL     OW24952   4.288   3.054   2.601  0.0573 -0.4390  0.2294
 4439SOL    HW124953   4.311   2.969   2.638 -0.3511 -1.1199 -1.0813
 4439SOL    HW224954   4.356   3.110   2.639  0.4126 -1.4806  1.1330
 4440SOL     OW24955   0.434   3.181   5.116 -0.1826 -0.1344 -0.4709
 4440SOL    HW124956   0.387   3.203   5.035 -0.2187 -2.9222 -1.2257
 4440SOL    HW224957   0.480   3.261   5.140  0.4070 -1.2849  2.2504
 4441SOL     OW24958   2.748   2.787   7.077  0.4027  0.1967 -0.3047
 4441SOL    HW124959   2.776   2.796   7.168  0.9638  1.3194 -0.5955
 4441SOL    HW224960   2.657   2.761   7.095  0.4290 -0.3912 -1.0159
 4442SOL     OW24961   3.623   0.408  13.261 -0.3816  0.3693 -0.1653
 4442SOL    HW124962   3.686   0.468  13.222  0.2342  0.2550  0.6638
 4442SOL    HW224963   3.543   0.453  13.232  0.3750  0.2517 -2.4317
 4443SOL     OW24964   3.207   0.814   7.590  0.1704 -0.2566 -0.1900
 4443SOL    HW124965   3.174   0.898   7.558 -0.9703 -0.3189  0.8263
 4443SOL    HW224966   3.194   0.753   7.517 -3.2846  1.3561 -0.9079
 4444SOL     OW24967   0.639   0.942   2.045 -0.4992 -0.8662  0.2964
 4444SOL    HW124968   0.545   0.951   2.061 -0.0806 -0.1405  2.3628
 4444SOL    HW224969   0.683   0.997   2.110 -2.3405  0.8379  0.0888
 4445SOL     OW24970   1.775   4.279   1.221  0.7738  0.6442 -0.3686
 4445SOL    HW124971   1.705   4.275   1.156  0.3384  1.4220  0.0442
 4445SOL    HW224972   1.814   4.192   1.220  0.0149  0.2876  0.8388
 4446SOL     OW24973   2.620   1.874   8.676  0.4695 -0.3142 -0.1150
 4446SOL    HW124974   2.555   1.810   8.704  1.4054 -1.5931 -0.8845
 4446SOL    HW224975   2.577   1.960   8.683  0.5041 -0.3433  0.4272
 4447SOL     OW24976   4.433   2.977  10.084  0.1014  0.4774 -0.3453
 4447SOL    HW124977   4.491   3.052  10.097 -0.7769  1.3088 -1.2070
 4447SOL    HW224978   4.479   2.915  10.028 -2.6314 -3.1059  1.3785
 4448SOL     OW24979   4.121   3.142   8.223 -0.0310  0.0795  0.5060
 4448SOL    HW124980   4.094   3.228   8.255  2.0975  1.3951 -1.2107
 4448SOL    HW224981   4.174   3.106   8.294 -0.8729  0.3849  1.2801
 4449SOL     OW24982   3.224   4.711   6.181  0.8786  0.4141  0.6544
 4449SOL    HW124983   3.264   4.626   6.161 -0.6319 -0.3783  1.0014
 4449SOL    HW224984   3.227   4.710   6.277 -0.0814 -1.3107  0.6802
 4450SOL     OW24985   3.868   1.760   3.449  0.7017  0.3076  0.6395
 4450SOL    HW124986   3.807   1.703   3.495  0.6014 -0.0535  0.0578
 4450SOL    HW224987   3.836   1.764   3.359  2.8412 -0.5474 -0.1661
 4451SOL     OW24988   4.672   0.144   3.975 -0.0703  0.6084 -0.5413
 4451SOL    HW124989   4.713   0.076   3.923  1.8763  0.4896  1.1571
 4451SOL    HW224990   4.646   0.210   3.911 -0.8373  0.2738 -0.5725
 4452SOL     OW24991   0.616   2.175   3.280 -0.1251  0.6340  0.2751
 4452SOL    HW124992   0.676   2.220   3.339 -1.2720 -0.0517  1.9331
 4452SOL    HW224993   0.545   2.238   3.273 -1.2517 -0.5269  1.1234
 4453SOL     OW24994   2.062   2.548   4.214 -0.3600 -0.5714  0.1836
 4453SOL    HW124995   2.073   2.640   4.238 -1.6281 -0.0935 -1.0777
 4453SOL    HW224996   1.979   2.541   4.168 -0.8499 -0.2348  1.0266
 4454SOL     OW24997   4.063   4.337   6.539  0.3023 -0.0345 -0.5113
 4454SOL    HW124998   4.014   4.414   6.568 -0.3393 -0.5802 -0.1345
 4454SOL    HW224999   3.984   4.285   6.524  0.7589 -1.1657  0.9858
 4455SOL     OW25000   4.707   2.156   5.352  0.1323  0.3440  0.0232
 4455SOL    HW125001   0.005   2.193   5.432  0.5120 -2.4191  1.1211
 4455SOL    HW225002   4.723   2.234   5.299 -0.0214  0.3040 -0.0806
 4456SOL     OW25003   2.892   4.478   0.413  0.1017 -0.5941 -0.0158
 4456SOL    HW125004   2.945   4.547   0.453 -0.6396  0.2505 -0.5011
 4456SOL    HW225005   2.882   4.410   0.480 -3.8192  1.4847  1.4980
 4457SOL     OW25006   1.403   0.932  14.826  0.2483 -0.0759 -0.4641
 4457SOL    HW125007   1.412   1.020  14.789 -2.2476  0.0388 -0.8064
 4457SOL    HW225008   1.315   0.916  14.792 -0.1618 -1.6131  1.2899
 4458SOL     OW25009   4.236   1.540   2.633  0.0574 -0.9348  0.0618
 4458SOL    HW125010   4.174   1.483   2.679 -0.8407  0.9670  1.2207
 4458SOL    HW225011   4.308   1.542   2.696  0.3060  1.0853 -0.2656
 4459SOL     OW25012   1.097   0.006   3.057 -0.1626  0.0638 -0.0055
 4459SOL    HW125013   1.073   0.064   3.129 -0.8517  0.1589 -0.3086
 4459SOL    HW225014   1.186   0.033   3.033 -0.0511 -0.9619 -0.7809
 4460SOL     OW25015   2.086   3.767   6.987 -0.2135  0.2557 -0.1201
 4460SOL    HW125016   2.018   3.701   6.975  1.5123 -1.4773 -0.2163
 4460SOL    HW225017   2.160   3.706   6.982  0.2434  0.8897 -1.1725
 4461SOL     OW25018   1.778   0.652  12.616  0.7021 -0.2544 -0.2772
 4461SOL    HW125019   1.737   0.720  12.564  2.6239  0.4265 -0.8862
 4461SOL    HW225020   1.732   0.653  12.700  1.9606  1.6977  0.3750
 4462SOL     OW25021   2.326   0.089   7.252 -0.1714  0.1177  0.3033
 4462SOL    HW125022   2.290   0.001   7.239  0.3958  0.0993 -1.2061
 4462SOL    HW225023   2.388   0.087   7.325 -0.4801  2.2628  0.6166
 4463SOL     OW25024   1.311   3.815   2.180 -0.3525  0.2673  0.0783
 4463SOL    HW125025   1.317   3.761   2.258  0.5372 -1.0426 -0.9000
 4463SOL    HW225026   1.395   3.811   2.134 -0.5375 -1.3327 -0.1057
 4464SOL     OW25027   0.182   3.505   3.343  0.1971 -0.3406  0.6771
 4464SOL    HW125028   0.179   3.509   3.439  1.4033 -2.5306  0.7966
 4464SOL    HW225029   0.265   3.459   3.351  1.1888  1.4694  0.8605
 4465SOL     OW25030   2.965   3.635  12.274  0.2340 -0.0513  0.3438
 4465SOL    HW125031   2.981   3.651  12.181 -1.3402  1.7798  0.3894
 4465SOL    HW225032   2.908   3.558  12.274  1.1262 -0.7031  0.2423
 4466SOL     OW25033   3.896   0.717   5.471  0.4361  0.7216 -0.1348
 4466SOL    HW125034   3.848   0.765   5.538 -1.9178 -0.0720 -1.2779
 4466SOL    HW225035   3.876   0.758   5.388  1.7018  0.1546 -0.7307
 4467SOL     OW25036   0.913   4.539  11.448  0.2456 -0.6387  0.1509
 4467SOL    HW125037   0.850   4.520  11.517 -0.1339 -2.6169 -0.7378
 4467SOL    HW225038   0.925   4.634  11.456  0.2592 -0.8590  2.5447
 4468SOL     OW25039   4.213   1.145   8.447 -0.8911 -0.1840 -0.1223
 4468SOL    HW125040   4.252   1.232   8.450  0.2228 -0.5990 -2.8268
 4468SOL    HW225041   4.124   1.167   8.473 -0.4383  0.0131  1.2901
 4469SOL     OW25042   1.144   1.483   3.192 -0.7711  0.0673  0.4665
 4469SOL    HW125043   1.226   1.437   3.171  1.5021  2.5439  4.0962
 4469SOL    HW225044   1.165   1.564   3.145 -0.2718  1.6470  3.4799
 4470SOL     OW25045   3.506   0.499  16.249  0.0300 -0.6066 -0.0665
 4470SOL    HW125046   3.583   0.509  16.193 -0.4663 -3.9284 -1.3229
 4470SOL    HW225047   3.456   0.429  16.207  3.0036 -3.0497  0.5092
 4471SOL     OW25048   1.674   0.974   8.466  0.4803  0.3089  0.3791
 4471SOL    HW125049   1.710   1.030   8.396  1.1391  0.4165  0.8080
 4471SOL    HW225050   1.580   0.962   8.455  0.4263  1.6519 -0.6166
 4472SOL     OW25051   1.673   2.252   2.786  0.2198 -0.2164 -0.2223
 4472SOL    HW125052   1.624   2.256   2.704  0.7226  1.0706 -0.4641
 4472SOL    HW225053   1.646   2.162   2.803 -0.1345  0.1944  1.3888
 4473SOL     OW25054   1.646   1.861   6.954  0.0124  0.2130  0.5071
 4473SOL    HW125055   1.648   1.773   6.992 -1.4894 -0.3503 -0.7098
 4473SOL    HW225056   1.619   1.844   6.864  1.5809  0.2618  0.0290
 4474SOL     OW25057   3.809   0.944  12.492  0.2421 -0.8703 -0.3263
 4474SOL    HW125058   3.820   1.025  12.542 -1.8333 -0.0463 -1.1812
 4474SOL    HW225059   3.713   0.949  12.488  0.2464  0.9339  1.6949
 4475SOL     OW25060   2.909   2.963   8.423 -0.5730 -0.6412  0.5010
 4475SOL    HW125061   2.820   2.955   8.387 -0.2530  1.3484 -0.7363
 4475SOL    HW225062   2.964   2.959   8.345 -1.4689 -2.8825 -0.0277
 4476SOL     OW25063   2.591   2.336   8.260  0.2397  0.3558  0.0554
 4476SOL    HW125064   2.590   2.378   8.174  0.3799 -1.8397 -1.0364
 4476SOL    HW225065   2.629   2.252   8.232 -2.2563 -0.1412 -1.9004
 4477SOL     OW25066   0.683   4.656   7.443 -0.1849  0.0829  0.1436
 4477SOL    HW125067   0.700   4.603   7.365 -1.5209 -0.9479  0.5453
 4477SOL    HW225068   0.753   4.718   7.425  0.6295 -1.5014 -2.2466
 4478SOL     OW25069   0.305   1.512  16.965 -0.8764 -0.1427 -0.1165
 4478SOL    HW125070   0.338   1.468  16.887 -0.1082  0.2736 -0.0303
 4478SOL    HW225071   0.222   1.549  16.936 -0.4761 -0.1407 -1.2710
 4479SOL     OW25072   0.989   4.537   6.303  0.4489  0.2521  0.1673
 4479SOL    HW125073   0.917   4.487   6.263  1.4626 -0.4345 -0.8037
 4479SOL    HW225074   0.988   4.530   6.398 -0.5309 -0.9214  0.0767
 4480SOL     OW25075   2.906   1.953   1.620 -0.2630  0.1800 -0.0999
 4480SOL    HW125076   2.919   1.878   1.562  0.9044 -0.2604  0.7135
 4480SOL    HW225077   2.907   1.917   1.709 -0.6880  1.5714  0.4735
 4481SOL     OW25078   3.311   0.234  10.286 -0.6083 -0.1724 -0.4474
 4481SOL    HW125079   3.365   0.173  10.336 -2.3668 -2.3183 -1.1420
 4481SOL    HW225080   3.379   0.297  10.266 -0.2941 -0.0125  1.1080
 4482SOL     OW25081   1.236   1.456   2.351 -0.0817 -0.1098  0.3842
 4482SOL    HW125082   1.192   1.501   2.423 -0.5286  1.6876 -1.0280
 4482SOL    HW225083   1.186   1.484   2.274  2.6517  1.0407 -0.9495
 4483SOL     OW25084   0.273   1.279   1.943 -0.1592  0.0094  0.2040
 4483SOL    HW125085   0.285   1.184   1.944 -3.5336 -0.4141  0.0575
 4483SOL    HW225086   0.339   1.309   2.006 -0.5740  1.0995  0.1208
 4484SOL     OW25087   2.711   0.588   2.729 -0.1059  0.5081 -0.2452
 4484SOL    HW125088   2.683   0.498   2.709 -0.3884  0.5166  0.0929
 4484SOL    HW225089   2.798   0.588   2.768 -0.6928  0.9606  1.0759
 4485SOL     OW25090   3.336   4.503   6.651  0.1485 -0.3403  0.1243
 4485SOL    HW125091   3.317   4.544   6.736  0.4239 -2.0755  1.0131
 4485SOL    HW225092   3.268   4.536   6.593 -1.3191 -0.2029  1.9181
 4486SOL     OW25093   1.301   4.238   5.900  0.1984  0.4561 -0.2547
 4486SOL    HW125094   1.291   4.284   5.984  0.4031 -0.5417  0.3209
 4486SOL    HW225095   1.394   4.216   5.904  0.3439  1.1800  0.2677
 4487SOL     OW25096   3.803   3.180   5.112 -0.9941 -0.2491 -0.5518
 4487SOL    HW125097   3.725   3.157   5.061 -0.6103 -1.4124 -0.6204
 4487SOL    HW225098   3.856   3.240   5.059  1.9558 -2.2681  0.1524
 4488SOL     OW25099   3.340   2.937   8.383 -0.1141 -0.0177 -0.1440
 4488SOL    HW125100   3.361   2.897   8.468 -2.1166 -0.6912  0.0189
 4488SOL    HW225101   3.254   2.897   8.384 -1.1065  2.0978 -1.1883
 4489SOL     OW25102   2.106   1.037   1.055  0.0630  0.1974 -0.6918
 4489SOL    HW125103   2.057   1.063   1.133  0.5235 -2.5874  0.5218
 4489SOL    HW225104   2.073   1.098   0.989 -1.9975  0.5695  0.6757
 4490SOL     OW25105   3.128   3.030   4.153 -0.5750 -0.6712 -0.0295
 4490SOL    HW125106   3.109   2.943   4.117 -2.0400  0.7994 -2.8509
 4490SOL    HW225107   3.042   3.044   4.191  0.5419  0.8420  1.9403
 4491SOL     OW25108   4.152   4.293   8.427  0.4446  0.0246 -0.4193
 4491SOL    HW125109   4.173   4.214   8.376  0.8075 -0.6910  0.8603
 4491SOL    HW225110   4.074   4.299   8.371  0.5270  0.4762 -0.4831
 4492SOL     OW25111   1.777   2.422   8.241  0.2529  0.3465  0.2220
 4492SOL    HW125112   1.692   2.422   8.197 -0.3847 -0.3300  1.4413
 4492SOL    HW225113   1.821   2.385   8.165 -0.2729 -0.6653  0.4111
 4493SOL     OW25114   1.987   0.862   5.551 -0.1412  0.5641 -0.1899
 4493SOL    HW125115   1.944   0.927   5.495  0.4983  1.6272  0.5633
 4493SOL    HW225116   1.975   0.796   5.483  1.7460 -3.0034  2.9534
 4494SOL     OW25117   1.406   3.615   0.400  0.5749 -0.3553  0.3113
 4494SOL    HW125118   1.334   3.674   0.380 -0.2083 -1.0228  1.1524
 4494SOL    HW225119   1.436   3.653   0.483 -0.8007  0.6655  0.3242
 4495SOL     OW25120   4.235   2.275   3.880  0.4094  0.6082 -0.7019
 4495SOL    HW125121   4.224   2.318   3.965 -1.3116 -1.8237  0.3000
 4495SOL    HW225122   4.331   2.267   3.879  0.4586  0.6696  2.3073
 4496SOL     OW25123   4.192   4.190   8.926  0.2081 -0.4981  0.6655
 4496SOL    HW125124   4.190   4.284   8.941 -0.0946 -0.0790 -1.9901
 4496SOL    HW225125   4.133   4.161   8.995 -0.3935 -2.0094 -0.4818
 4497SOL     OW25126   2.606   0.213  16.646 -0.1299 -0.1970  0.9720
 4497SOL    HW125127   2.526   0.221  16.699 -0.7825 -0.5272  0.0399
 4497SOL    HW225128   2.588   0.251  16.560 -0.3189 -2.1213  0.1693
 4498SOL     OW25129   1.850   3.126   5.153 -0.5915  0.1787 -0.0777
 4498SOL    HW125130   1.881   3.049   5.200  1.5782  0.2292 -1.4238
 4498SOL    HW225131   1.921   3.145   5.092 -2.1897  2.7531 -1.1587
 4499SOL     OW25132   2.040   1.050   7.158 -0.2645  0.5452 -0.2630
 4499SOL    HW125133   2.112   1.050   7.095  0.1419  1.5146  0.2103
 4499SOL    HW225134   2.063   0.966   7.199  0.7109  2.1258  2.4717
 4500SOL     OW25135   3.924   2.050  10.923  0.2632 -0.2893 -0.0700
 4500SOL    HW125136   3.973   1.971  10.946  0.1383 -0.0139  1.1803
 4500SOL    HW225137   3.910   2.034  10.830  0.5855  2.1889 -0.5469
 4501SOL     OW25138   4.582   1.173   3.375 -0.3298 -0.1318 -0.5114
 4501SOL    HW125139   4.500   1.215   3.347 -0.6057  0.8505  1.7793
 4501SOL    HW225140   4.649   1.232   3.344 -0.1556 -0.1959 -0.2590
 4502SOL     OW25141   1.631   0.449  11.363  0.3847  0.2350 -0.7138
 4502SOL    HW125142   1.696   0.468  11.431 -1.9219  1.7924  1.0733
 4502SOL    HW225143   1.553   0.481  11.408  0.4001  0.2046 -0.6645
 4503SOL     OW25144   2.043   1.963  10.620  0.1088 -0.2586 -0.0187
 4503SOL    HW125145   1.977   2.033  10.614 -0.2536 -0.7208 -1.4972
 4503SOL    HW225146   2.120   2.017  10.637  2.2144 -3.1551 -0.3566
 4504SOL     OW25147   1.251   4.301   7.603  0.2317  0.1233  0.0439
 4504SOL    HW125148   1.224   4.351   7.680  3.2166  1.7005  0.0883
 4504SOL    HW225149   1.197   4.342   7.536 -1.9039  1.4707  2.6011
 4505SOL     OW25150   3.604   3.754   8.303  0.2883 -0.4109  0.2429
 4505SOL    HW125151   3.623   3.741   8.395 -0.4169  3.0196  0.8980
 4505SOL    HW225152   3.686   3.796   8.276  0.0264  1.1635  1.9162
 4506SOL     OW25153   1.338   3.676   2.417 -0.1442  0.5655  0.3476
 4506SOL    HW125154   1.361   3.591   2.453 -0.2938  1.6200  2.9570
 4506SOL    HW225155   1.278   3.702   2.487 -0.8288  1.0245 -0.3979
 4507SOL     OW25156   0.664   1.725  13.269 -0.1137  0.1458 -0.2467
 4507SOL    HW125157   0.571   1.703  13.256 -0.4095  2.7736 -2.5087
 4507SOL    HW225158   0.672   1.805  13.217  3.1920 -1.4897 -2.2306
 4508SOL     OW25159   1.529   4.375  11.936 -0.0363 -0.4440  0.5032
 4508SOL    HW125160   1.589   4.381  11.861 -0.6356  1.4436  0.1683
 4508SOL    HW225161   1.594   4.365  12.006 -0.8395  0.3115  1.3544
 4509SOL     OW25162   4.054   3.915   3.951 -0.2207  0.0340 -0.7803
 4509SOL    HW125163   3.998   3.841   3.974  1.3438 -0.7888  0.3669
 4509SOL    HW225164   4.120   3.875   3.895  1.3006  2.0171 -0.4209
 4510SOL     OW25165   0.898   3.984   4.713  0.0387  0.4428 -0.4264
 4510SOL    HW125166   0.890   3.906   4.658 -1.8003 -1.4054  2.4658
 4510SOL    HW225167   0.839   4.050   4.676 -2.1441 -0.5250  1.2914
 4511SOL     OW25168   4.285   3.139   4.437  0.2687 -0.0961  0.0433
 4511SOL    HW125169   4.359   3.082   4.459  1.1333  1.0631  0.1416
 4511SOL    HW225170   4.255   3.116   4.349 -0.1392 -0.0835  0.1821
 4512SOL     OW25171   3.556   1.698   0.614 -0.0373  0.2807  0.2195
 4512SOL    HW125172   3.625   1.637   0.589  1.3003  2.4186 -1.3394
 4512SOL    HW225173   3.491   1.633   0.641  0.3294 -0.5948 -1.0486
 4513SOL     OW25174   4.405   0.211   2.393  0.0168 -0.2544 -0.3559
 4513SOL    HW125175   4.312   0.206   2.374  0.0375 -0.4924 -0.3861
 4513SOL    HW225176   4.426   0.121   2.417 -1.4519 -0.0519  1.7532
 4514SOL     OW25177   1.624   0.720  14.788 -0.0264  0.4914  0.2075
 4514SOL    HW125178   1.551   0.773  14.756 -1.5995 -1.2650  0.8862
 4514SOL    HW225179   1.586   0.633  14.793 -2.0943  1.2675 -2.2362
 4515SOL     OW25180   3.087   1.812   4.147 -0.1992  0.4012 -0.0206
 4515SOL    HW125181   3.123   1.878   4.207 -1.2320 -0.8252  1.9749
 4515SOL    HW225182   3.027   1.875   4.108 -1.3954  0.2196  1.5373
 4516SOL     OW25183   3.406   0.345  17.343 -0.0202  0.1452  0.1004
 4516SOL    HW125184   3.345   0.416  17.322 -2.7781 -2.4387 -0.5450
 4516SOL    HW225185   3.364   0.286  17.281  0.1532 -0.9402  1.0181
 4517SOL     OW25186   3.687   1.687   5.158 -0.0686  0.3008 -0.1649
 4517SOL    HW125187   3.674   1.594   5.138 -1.4524  0.2872  0.8129
 4517SOL    HW225188   3.624   1.692   5.229 -0.2338 -0.0346 -0.2856
 4518SOL     OW25189   1.527   2.975   6.907  0.1905 -0.0399  0.1861
 4518SOL    HW125190   1.520   2.921   6.828 -1.6568 -0.5183  0.6872
 4518SOL    HW225191   1.611   2.958   6.951 -0.1672  1.0772  1.2868
 4519SOL     OW25192   3.336   0.474   5.086  0.4729  0.1652 -0.1474
 4519SOL    HW125193   3.354   0.395   5.137  2.0304  0.8157  0.2930
 4519SOL    HW225194   3.248   0.449   5.059  0.8829 -1.4423 -0.0232
 4520SOL     OW25195   3.019   0.997   5.496  0.0930 -0.2559  0.1081
 4520SOL    HW125196   3.019   0.906   5.526 -0.4111  0.0952  1.1662
 4520SOL    HW225197   2.936   0.998   5.449 -0.1142 -0.9363  0.4654
 4521SOL     OW25198   2.600   1.345  16.950  0.2737 -0.5216 -0.4249
 4521SOL    HW125199   2.590   1.422  17.006 -0.4111 -0.0052 -1.2613
 4521SOL    HW225200   2.673   1.298  16.991 -0.3087 -0.7193  0.3995
 4522SOL     OW25201   0.089   3.715   0.879  0.4039 -0.4271 -0.8146
 4522SOL    HW125202   0.034   3.765   0.939 -1.4524  1.1577 -3.8469
 4522SOL    HW225203   0.170   3.763   0.897  0.6681 -0.6350 -1.4622
 4523SOL     OW25204   2.616   2.341  14.603 -0.4293  0.3727  0.3918
 4523SOL    HW125205   2.597   2.253  14.571  0.5914  0.5434 -0.6735
 4523SOL    HW225206   2.711   2.340  14.610 -0.2963 -0.0332 -1.4736
 4524SOL     OW25207   0.709   1.062   1.806 -0.6018  0.2753  0.0766
 4524SOL    HW125208   0.802   1.048   1.788  0.1090  1.4976  2.6759
 4524SOL    HW225209   0.705   1.017   1.890  1.2736 -1.7971 -0.9465
 4525SOL     OW25210   2.197   1.911   4.280 -0.2410  0.4681 -0.2081
 4525SOL    HW125211   2.201   1.820   4.251 -0.4904 -0.2327  1.9133
 4525SOL    HW225212   2.287   1.935   4.261  0.1316 -0.4135  0.4059
 4526SOL     OW25213   3.467   1.782   6.522 -0.3984  0.4816  0.3627
 4526SOL    HW125214   3.484   1.799   6.615  0.9185 -1.7963  0.5346
 4526SOL    HW225215   3.540   1.826   6.480  0.2886 -1.0233 -0.0243
 4527SOL     OW25216   2.803   3.362   8.743 -0.5525 -0.0969 -0.7068
 4527SOL    HW125217   2.723   3.310   8.745 -0.9316  0.6591  2.7669
 4527SOL    HW225218   2.853   3.303   8.686 -1.5057 -0.5351 -1.0969
 4528SOL     OW25219   4.395   3.937   4.764  0.9447  0.6785 -0.0462
 4528SOL    HW125220   4.449   4.011   4.792 -0.1047  1.2760  0.3875
 4528SOL    HW225221   4.309   3.979   4.756  0.7850  0.7512  2.1255
 4529SOL     OW25222   3.070   4.113   4.964 -0.1858 -0.4220  0.1903
 4529SOL    HW125223   3.039   4.190   5.012  0.9120 -0.1851  0.5181
 4529SOL    HW225224   3.134   4.160   4.910 -0.1455  1.2638  1.6821
 4530SOL     OW25225   2.188   2.985   3.310  0.4114 -0.0817  0.3558
 4530SOL    HW125226   2.102   3.013   3.281  0.8652  1.3050  0.3747
 4530SOL    HW225227   2.222   3.065   3.351 -1.2947  1.4250 -1.1779
 4531SOL     OW25228   3.872   1.159   6.139  0.2868 -0.2800  0.3463
 4531SOL    HW125229   3.965   1.172   6.123  0.8128 -2.9075  1.2596
 4531SOL    HW225230   3.845   1.130   6.051 -0.2868 -0.4757  0.5869
 4532SOL     OW25231   1.633   3.529   5.638 -0.1377  0.8879  0.6775
 4532SOL    HW125232   1.598   3.445   5.668 -0.6235  1.8227  2.7835
 4532SOL    HW225233   1.616   3.520   5.544 -2.0686  0.8413  1.0339
 4533SOL     OW25234   1.810   1.951   4.769  0.4339 -0.1834  0.0125
 4533SOL    HW125235   1.853   2.032   4.796 -0.0168 -0.4107  1.3987
 4533SOL    HW225236   1.733   1.971   4.822  1.5561  2.2453  0.7400
 4534SOL     OW25237   3.849   4.021  12.751  0.3523 -0.5325  0.0959
 4534SOL    HW125238   3.860   4.014  12.656 -1.3076 -1.5893 -0.0109
 4534SOL    HW225239   3.827   4.114  12.755 -1.1438 -0.8579 -0.3296
 4535SOL     OW25240   2.850   2.911   5.523  0.4969  0.0136  0.4628
 4535SOL    HW125241   2.886   2.965   5.593  1.3543  1.9754 -1.4857
 4535SOL    HW225242   2.917   2.844   5.538  1.1500  0.5722  0.0063
 4536SOL     OW25243   4.078   3.254  12.311  0.3449 -0.1641 -0.0504
 4536SOL    HW125244   4.157   3.208  12.340  0.0348  0.4181  1.7485
 4536SOL    HW225245   4.074   3.265  12.216 -0.3555  2.3269  0.2608
 4537SOL     OW25246   3.179   1.377   8.417 -0.1516 -0.0432  0.4965
 4537SOL    HW125247   3.097   1.331   8.397  0.6023 -1.1408 -0.0560
 4537SOL    HW225248   3.195   1.357   8.509 -1.5762 -2.4359  0.2225
 4538SOL     OW25249   3.839   0.645   6.195 -0.5921 -0.0701  0.2011
 4538SOL    HW125250   3.912   0.683   6.145 -1.5985  0.3524 -0.9579
 4538SOL    HW225251   3.810   0.725   6.239  0.6554  0.9999 -0.9072
 4539SOL     OW25252   2.932   4.088   2.318  0.2154  0.9101  0.3205
 4539SOL    HW125253   2.905   4.020   2.256  0.6236  1.0698 -0.0343
 4539SOL    HW225254   2.922   4.032   2.396 -1.3873 -0.0870 -0.5997
 4540SOL     OW25255   4.649   0.726  10.977  0.3368  0.1202 -0.3378
 4540SOL    HW125256   4.559   0.737  11.007  0.6209  2.1597 -0.2521
 4540SOL    HW225257   4.696   0.806  11.001  1.3247 -1.2744  2.4848
 4541SOL     OW25258   1.371   1.717  10.197  0.8342 -0.4592  0.3029
 4541SOL    HW125259   1.314   1.700  10.272  0.1063  0.1125 -0.1229
 4541SOL    HW225260   1.406   1.804  10.214  0.8719 -0.8720  2.3491
 4542SOL     OW25261   0.489   2.509   8.706 -0.1499 -0.3896 -0.4971
 4542SOL    HW125262   0.450   2.440   8.761  1.3757 -0.1167  0.9138
 4542SOL    HW225263   0.411   2.563   8.694  0.3502  0.7934  1.7164
 4543SOL     OW25264   3.221   3.068  10.126 -0.2427  0.2103  0.1475
 4543SOL    HW125265   3.291   3.106  10.072  1.3076 -0.0524  1.9783
 4543SOL    HW225266   3.258   2.982  10.143 -1.7022 -0.4546 -0.0754
 4544SOL     OW25267   3.491   4.388   9.631 -0.0240 -0.1629  0.3226
 4544SOL    HW125268   3.503   4.326   9.559  2.7143 -0.9403  1.4210
 4544SOL    HW225269   3.515   4.472   9.592 -1.2898  1.0218  2.1058
 4545SOL     OW25270   2.620   2.253   2.895  0.1073 -0.0058 -0.2629
 4545SOL    HW125271   2.655   2.182   2.841  1.4075 -0.7876  1.5874
 4545SOL    HW225272   2.699   2.279   2.943  1.0545 -1.3607 -1.0740
 4546SOL     OW25273   0.035   3.663  15.612  0.0402  0.3028  0.1343
 4546SOL    HW125274   4.716   3.649  15.537  0.2994  0.7728 -0.1557
 4546SOL    HW225275   4.729   3.737  15.654 -0.4356 -0.8565  1.6548
 4547SOL     OW25276   4.508   3.646  10.628  0.6830  0.3620  0.8938
 4547SOL    HW125277   4.440   3.707  10.658  0.5211 -0.0056  1.2676
 4547SOL    HW225278   4.573   3.663  10.695 -0.0614 -0.9775  1.9375
 4548SOL     OW25279   3.166   1.408  15.003 -0.4379 -0.5336 -0.0999
 4548SOL    HW125280   3.240   1.349  14.993  0.5438  0.7686 -0.4868
 4548SOL    HW225281   3.130   1.383  15.089  2.4277  0.8880  1.5228
 4549SOL     OW25282   3.866   0.708   4.407 -0.4816  0.1421 -0.5223
 4549SOL    HW125283   3.826   0.733   4.490 -1.1860  0.1770 -0.8741
 4549SOL    HW225284   3.807   0.730   4.335 -1.1364  2.2271  0.6692
 4550SOL     OW25285   0.221   3.851   6.867 -0.1158  0.4065 -0.0119
 4550SOL    HW125286   0.304   3.861   6.913 -0.8558  0.5669  1.3133
 4550SOL    HW225287   0.208   3.758   6.853 -2.3688  1.3075 -3.7916
 4551SOL     OW25288   4.001   2.178   6.674 -0.1444 -0.7695 -0.2084
 4551SOL    HW125289   3.947   2.174   6.753 -0.0793 -1.5578 -0.2057
 4551SOL    HW225290   4.089   2.165   6.711 -0.7798  1.7625  2.1747
 4552SOL     OW25291   3.514   2.651  14.983 -0.0920  0.0922 -0.0104
 4552SOL    HW125292   3.450   2.705  14.937  1.2628  1.0438 -0.8014
 4552SOL    HW225293   3.572   2.624  14.911 -2.2804 -1.7041 -1.1008
 4553SOL     OW25294   1.245   4.729   7.575  0.0343  0.1871  0.0165
 4553SOL    HW125295   1.208   0.062   7.626  0.6193 -1.3354  2.6128
 4553SOL    HW225296   1.179   4.731   7.506 -1.3074  0.6365  1.3061
 4554SOL     OW25297   0.721   0.623  10.928 -0.1034 -0.1477 -0.0083
 4554SOL    HW125298   0.770   0.621  10.845 -0.4956  0.7245 -0.2602
 4554SOL    HW225299   0.659   0.551  10.924 -0.1778 -0.1393  1.0332
 4555SOL     OW25300   0.514   3.854   5.105 -0.0232 -0.3315  0.1983
 4555SOL    HW125301   0.573   3.928   5.094  0.9501 -1.0118  0.8393
 4555SOL    HW225302   0.549   3.793   5.040 -2.4152 -1.5713  0.0847
 4556SOL     OW25303   2.646   0.490  14.909  0.0513  0.2113  0.0867
 4556SOL    HW125304   2.624   0.575  14.870 -0.4132  0.7956  1.6172
 4556SOL    HW225305   2.559   0.457  14.931  0.1268 -0.1676 -0.1926
 4557SOL     OW25306   2.292   1.145   3.616 -0.0243  0.1684  0.7073
 4557SOL    HW125307   2.233   1.170   3.687 -0.3092 -2.0719  1.2699
 4557SOL    HW225308   2.355   1.216   3.606  0.0229  0.0227  0.0076
 4558SOL     OW25309   0.642   2.008   0.280  0.0847 -0.2898  0.3394
 4558SOL    HW125310   0.729   1.983   0.248  0.1556  2.6656 -1.8060
 4558SOL    HW225311   0.590   1.990   0.202  2.5230 -2.8046 -0.7251
 4559SOL     OW25312   4.495   2.829   9.828 -0.6430 -0.1043  0.0530
 4559SOL    HW125313   4.424   2.766   9.815 -2.1892  2.1464 -2.2178
 4559SOL    HW225314   4.569   2.786   9.784 -0.2741  1.1971 -0.6022
 4560SOL     OW25315   0.813   4.600   8.310 -0.3466 -0.1108 -0.4130
 4560SOL    HW125316   0.850   4.632   8.228 -0.3535 -1.2061 -0.8348
 4560SOL    HW225317   0.763   4.675   8.341 -0.1876  0.2644 -1.0559
 4561SOL     OW25318   3.026   0.191   6.455  0.2987  0.7285  0.1015
 4561SOL    HW125319   2.973   0.249   6.400  1.9201 -0.3153 -2.5865
 4561SOL    HW225320   3.082   0.245   6.511  1.1965 -0.4353  0.3307
 4562SOL     OW25321   2.571   1.190   6.817  0.0516  0.7161  0.1866
 4562SOL    HW125322   2.490   1.173   6.768 -0.4237  0.3532  1.1095
 4562SOL    HW225323   2.532   1.228   6.895  2.4115 -1.3187  2.3690
 4563SOL     OW25324   2.947   1.456   2.035 -0.3281  0.7057  0.1742
 4563SOL    HW125325   2.910   1.513   2.102  1.2235  1.8635  0.0386
 4563SOL    HW225326   2.883   1.480   1.969 -1.7045 -1.0947  0.8699
 4564SOL     OW25327   4.593   0.844   4.339 -0.0234  0.1223 -0.3885
 4564SOL    HW125328   4.578   0.775   4.275 -4.0980  0.0882  0.5807
 4564SOL    HW225329   4.538   0.807   4.408 -0.5387 -0.8618 -1.3393
 4565SOL     OW25330   1.721   2.323   8.488  0.5256  0.3680 -0.4116
 4565SOL    HW125331   1.763   2.369   8.416 -0.9492  0.0154 -1.4896
 4565SOL    HW225332   1.627   2.331   8.473  0.1847  2.3806  2.8099
 4566SOL     OW25333   1.109   4.529   2.050 -0.3316  0.1729  0.6459
 4566SOL    HW125334   1.020   4.501   2.071 -1.1408  0.1570 -2.8130
 4566SOL    HW225335   1.095   4.614   2.008  2.3966  0.9326  1.2809
 4567SOL     OW25336   4.156   3.501   2.999  0.0404 -0.0458  0.3533
 4567SOL    HW125337   4.160   3.411   3.032 -3.5416  0.2316  1.4390
 4567SOL    HW225338   4.211   3.495   2.921 -0.4432  0.0398  0.0080
 4568SOL     OW25339   1.038   2.536  11.216 -0.5569 -0.5032  0.1961
 4568SOL    HW125340   1.076   2.618  11.186  1.3877 -1.4416  0.1024
 4568SOL    HW225341   1.113   2.481  11.240  0.2663 -0.0466 -1.3192
 4569SOL     OW25342   1.848   1.256   7.196  0.1365  0.6981 -0.1750
 4569SOL    HW125343   1.924   1.198   7.189 -0.5338 -0.3700  1.3246
 4569SOL    HW225344   1.801   1.207   7.264  1.4026  1.0751  0.9809
 4570SOL     OW25345   0.248   2.955   2.331  0.0435 -0.7432  0.2118
 4570SOL    HW125346   0.335   2.918   2.347 -0.0541 -1.7371 -1.5520
 4570SOL    HW225347   0.257   3.021   2.262  0.3725 -1.2181 -0.1965
 4571SOL     OW25348   1.940   3.338   4.524  0.1717  0.5469 -0.3654
 4571SOL    HW125349   1.847   3.354   4.540  0.0486  0.6146 -1.1205
 4571SOL    HW225350   1.975   3.282   4.593 -1.9024 -1.2749 -0.7750
 4572SOL     OW25351   1.098   3.260   5.753  0.3214 -0.1724 -0.2788
 4572SOL    HW125352   1.082   3.204   5.678 -3.6238 -0.2806  0.6454
 4572SOL    HW225353   1.193   3.275   5.755  0.5173 -1.5524  0.7063
 4573SOL     OW25354   3.067   2.538   5.619 -0.4893  0.5421  0.2171
 4573SOL    HW125355   3.124   2.506   5.689 -1.0073  0.6396  0.6808
 4573SOL    HW225356   2.999   2.582   5.668 -0.3549 -0.9780  1.7576
 4574SOL     OW25357   0.834   1.377   8.353  0.1334 -0.4422 -0.1524
 4574SOL    HW125358   0.780   1.438   8.404  1.4237 -0.4102  1.1875
 4574SOL    HW225359   0.814   1.291   8.390 -0.2945  0.0293  0.7246
 4575SOL     OW25360   2.714   0.763   7.342 -0.3800 -0.1524 -0.2003
 4575SOL    HW125361   2.682   0.698   7.280  0.9221 -1.3925  0.4195
 4575SOL    HW225362   2.632   0.782   7.386 -1.3688  1.7860 -2.8396
 4576SOL     OW25363   1.678   0.481  17.219  0.3935 -0.2131 -0.0686
 4576SOL    HW125364   1.681   0.506  17.311  0.7098  0.6222 -0.2997
 4576SOL    HW225365   1.620   0.406  17.228 -2.4753  2.0135 -0.0581
 4577SOL     OW25366   3.009   0.914  14.108  0.4479  0.5676 -0.2586
 4577SOL    HW125367   3.041   0.948  14.192 -0.5900 -3.5001  1.7821
 4577SOL    HW225368   2.927   0.963  14.102  0.6380  0.8123 -0.9159
 4578SOL     OW25369   2.612   3.784   7.906 -0.1660 -0.2306 -0.2745
 4578SOL    HW125370   2.556   3.815   7.977  0.2562  0.2006 -0.1322
 4578SOL    HW225371   2.545   3.735   7.859  0.3004  0.3730 -1.5565
 4579SOL     OW25372   2.523   2.853   8.512 -0.3895  0.0634  0.0644
 4579SOL    HW125373   2.579   2.859   8.589 -2.2659 -2.1334  1.6132
 4579SOL    HW225374   2.548   2.925   8.455 -0.2177  0.0153  0.0810
 4580SOL     OW25375   3.023   1.467  17.136  0.5260 -0.0646 -0.1990
 4580SOL    HW125376   2.978   1.516  17.205  3.3431  0.7559  1.0496
 4580SOL    HW225377   3.065   1.530  17.077  1.6594 -0.4239  0.2249
 4581SOL     OW25378   2.892   2.245   2.086 -0.6005 -0.4952  0.1627
 4581SOL    HW125379   2.918   2.192   2.161  1.6041  0.0453 -0.2359
 4581SOL    HW225380   2.970   2.235   2.032 -0.9743  1.4792 -0.7467
 4582SOL     OW25381   0.635   0.126   0.369 -0.1654 -0.1072 -0.1471
 4582SOL    HW125382   0.570   0.165   0.428  1.5130  0.4260  1.3680
 4582SOL    HW225383   0.702   0.195   0.364 -1.4208  1.1092 -0.2171
 4583SOL     OW25384   2.780   0.521   6.761  0.2783  0.2695  0.1770
 4583SOL    HW125385   2.740   0.596   6.804 -1.0853 -1.3300  1.7224
 4583SOL    HW225386   2.775   0.452   6.827  0.5842 -0.9672 -1.0880
 4584SOL     OW25387   2.623   4.647   0.616  0.5611  0.2998 -0.0925
 4584SOL    HW125388   2.669   4.674   0.695 -0.0615  0.4888  0.2100
 4584SOL    HW225389   2.633   4.552   0.619 -0.0201  0.1909 -1.4212
 4585SOL     OW25390   3.823   3.756  10.394  0.5097  0.3746  0.4150
 4585SOL    HW125391   3.866   3.674  10.370  1.5833  0.1619  3.1003
 4585SOL    HW225392   3.890   3.795  10.450  1.3826 -1.0204  0.3486
 4586SOL     OW25393   2.085   0.836  12.016 -0.0027  0.1272 -0.0764
 4586SOL    HW125394   2.120   0.782  12.087  0.7899  3.4915  2.1361
 4586SOL    HW225395   1.991   0.842  12.033 -0.0714 -2.3401  0.3711
 4587SOL     OW25396   3.631   2.660   9.182  0.2732 -0.0417  0.5801
 4587SOL    HW125397   3.697   2.729   9.176  0.0121  0.0444 -1.3896
 4587SOL    HW225398   3.617   2.642   9.275 -1.4975 -0.2055  0.2921
 4588SOL     OW25399   3.102   3.311   3.869  0.1308 -0.1025 -0.1726
 4588SOL    HW125400   3.113   3.352   3.783 -0.1080 -0.1207 -0.2111
 4588SOL    HW225401   3.161   3.236   3.862 -1.4628 -1.3784  0.2100
 4589SOL     OW25402   3.258   0.403  11.102 -0.2686  0.1202 -0.0988
 4589SOL    HW125403   3.300   0.343  11.164 -0.1173  0.4588  0.1220
 4589SOL    HW225404   3.191   0.442  11.158  0.2267 -0.1504  0.6764
 4590SOL     OW25405   1.133   0.219   5.048  0.3453  0.3806  0.1824
 4590SOL    HW125406   1.222   0.247   5.026 -0.1582  1.7013 -0.1830
 4590SOL    HW225407   1.132   0.129   5.017  0.7993  0.8319 -1.1244
 4591SOL     OW25408   0.853   2.071   5.856 -0.2487 -0.2832  0.1065
 4591SOL    HW125409   0.853   2.128   5.933  0.6208 -1.2884  0.8625
 4591SOL    HW225410   0.942   2.079   5.820  0.2803 -0.0495  1.4589
 4592SOL     OW25411   4.145   3.757  10.329  0.1267 -0.9019 -0.3724
 4592SOL    HW125412   4.072   3.794  10.279  1.0718  1.2140 -0.2051
 4592SOL    HW225413   4.212   3.825  10.314  0.6151 -1.1948  0.5037
 4593SOL     OW25414   2.742   2.250   5.886  0.0656 -0.0293 -0.1219
 4593SOL    HW125415   2.657   2.214   5.911  0.3681 -0.6988 -0.0591
 4593SOL    HW225416   2.711   2.310   5.818 -2.4336 -2.3503 -1.0643
 4594SOL     OW25417   2.491   0.413  14.250 -0.1532  0.3352  0.9448
 4594SOL    HW125418   2.479   0.435  14.158  1.4604 -1.0064  0.4132
 4594SOL    HW225419   2.470   0.500  14.285 -1.2430  0.1105  0.8520
 4595SOL     OW25420   2.154   4.292   2.370  0.6176  0.4402 -0.6826
 4595SOL    HW125421   2.196   4.253   2.293 -1.5023 -1.3747 -0.9120
 4595SOL    HW225422   2.195   4.236   2.435  1.5495  1.0903 -0.7067
 4596SOL     OW25423   3.223   0.493   0.799  0.5948 -0.0780  0.3840
 4596SOL    HW125424   3.317   0.478   0.792  0.5525  0.1296 -0.5668
 4596SOL    HW225425   3.213   0.526   0.710  0.1384 -0.7916  0.1740
 4597SOL     OW25426   3.879   2.944   4.538 -0.0578 -0.1873  0.0070
 4597SOL    HW125427   3.918   3.030   4.552 -0.0814 -0.3125  0.8554
 4597SOL    HW225428   3.792   2.945   4.579  0.2303 -0.3889  0.6281
 4598SOL     OW25429   4.014   3.180   4.507 -0.1725  0.2227  0.2024
 4598SOL    HW125430   4.004   3.247   4.438  1.2358  2.1007  1.8237
 4598SOL    HW225431   4.105   3.151   4.508  0.5809  2.5130 -0.7159
 4599SOL     OW25432   1.339   0.931   5.884 -0.0825  0.8127 -0.3299
 4599SOL    HW125433   1.401   0.977   5.828 -0.5485  0.5748 -1.0339
 4599SOL    HW225434   1.329   0.851   5.832  0.7547  0.7824 -0.4441
 4600SOL     OW25435   0.408   3.183   8.131  0.3626 -0.3469  0.1959
 4600SOL    HW125436   0.417   3.188   8.036 -1.2647 -1.6254 -0.0337
 4600SOL    HW225437   0.449   3.268   8.143  0.2310  0.0959 -2.5058
 4601SOL     OW25438   3.701   0.308  17.081  0.3882  0.3704 -0.3288
 4601SOL    HW125439   3.624   0.272  17.037  0.2281 -1.2316  1.2470
 4601SOL    HW225440   3.666   0.395  17.102  0.1992  0.2919 -0.3127
 4602SOL     OW25441   0.764   1.577  15.481  0.2820 -0.0671 -0.3302
 4602SOL    HW125442   0.745   1.499  15.533  2.4831  0.5391  1.3759
 4602SOL    HW225443   0.855   1.555  15.459  0.0537  1.3090 -2.7671
 4603SOL     OW25444   2.590   2.949  10.587 -0.2152  0.8393 -0.5713
 4603SOL    HW125445   2.648   3.024  10.599  0.7169  0.0939 -0.4231
 4603SOL    HW225446   2.535   2.992  10.522  1.4857  1.1827 -1.7510
 4604SOL     OW25447   1.508   1.795   4.147 -0.0695  0.0191 -0.1809
 4604SOL    HW125448   1.482   1.755   4.230  2.4908 -0.4404  0.4200
 4604SOL    HW225449   1.561   1.858   4.197 -2.2192  1.6747 -0.0065
 4605SOL     OW25450   0.540   4.134  17.098  0.9237  0.5883  0.0246
 4605SOL    HW125451   0.565   4.177  17.180  0.7052 -1.0976  0.9780
 4605SOL    HW225452   0.625   4.104  17.066  0.7835  0.6718 -0.4260
 4606SOL     OW25453   4.519   1.271   2.520 -0.0440  0.0608  0.5293
 4606SOL    HW125454   4.454   1.247   2.455  0.6369 -0.6934  0.1283
 4606SOL    HW225455   4.567   1.341   2.475 -0.7433 -0.7670 -1.4851
 4607SOL     OW25456   3.859   4.541   8.185 -0.3481  0.4763  0.0793
 4607SOL    HW125457   3.901   4.456   8.172  0.7179  1.0852 -0.4878
 4607SOL    HW225458   3.876   4.534   8.279  0.1877  0.0205 -0.0483
 4608SOL     OW25459   0.384   0.258   1.047 -0.0669  0.3203 -0.7954
 4608SOL    HW125460   0.312   0.206   1.082  1.1260  1.5396  3.5144
 4608SOL    HW225461   0.463   0.209   1.072  0.2722  2.2541  1.9360
 4609SOL     OW25462   1.342   3.843   3.321 -0.4668  0.1204 -0.1914
 4609SOL    HW125463   1.339   3.938   3.312 -0.5240  0.2265  1.0295
 4609SOL    HW225464   1.375   3.823   3.233  1.7826 -0.6525  0.8346
 4610SOL     OW25465   3.659   1.023  15.528 -0.7357  0.4603 -0.1992
 4610SOL    HW125466   3.730   0.963  15.551  0.0106  1.2667 -0.4038
 4610SOL    HW225467   3.583   0.993  15.578  0.7128  0.0619  1.7237
 4611SOL     OW25468   2.341   4.569   0.140  0.1766  0.3859  0.1309
 4611SOL    HW125469   2.326   4.489   0.191 -0.1270  0.3221 -0.0582
 4611SOL    HW225470   2.434   4.586   0.157  0.6213 -1.7918 -0.1121
 4612SOL     OW25471   1.011   3.766   4.012 -0.1007  0.3573 -0.0304
 4612SOL    HW125472   0.983   3.688   3.963 -0.0194  0.5965 -0.4564
 4612SOL    HW225473   1.031   3.831   3.944 -1.8134 -0.7830 -1.6410
 4613SOL     OW25474   1.666   0.396   4.830 -0.1039  0.0113 -0.0245
 4613SOL    HW125475   1.596   0.460   4.818 -0.0644 -0.0692 -0.6795
 4613SOL    HW225476   1.717   0.451   4.890  0.1335  0.1743 -0.3799
 4614SOL     OW25477   0.380   2.278   2.598  0.2283  0.5348 -0.5676
 4614SOL    HW125478   0.327   2.237   2.667 -0.5950 -0.2505 -1.6664
 4614SOL    HW225479   0.348   2.230   2.521  1.1018 -0.6306 -0.1976
 4615SOL     OW25480   3.171   0.099   0.967 -0.2406 -0.2407  0.5239
 4615SOL    HW125481   3.256   0.096   1.011  0.9765 -2.0510 -1.9896
 4615SOL    HW225482   3.120   0.024   0.999 -1.2618  0.9384  1.6597
 4616SOL     OW25483   0.278   1.490   8.737 -0.1770  0.0733  0.4866
 4616SOL    HW125484   0.358   1.496   8.788  0.7140  0.5446 -0.9518
 4616SOL    HW225485   0.234   1.425   8.791 -1.5830  0.5588 -0.0474
 4617SOL     OW25486   1.014   0.171   8.181 -0.5387  0.0428  0.1891
 4617SOL    HW125487   0.975   0.219   8.253  0.5470 -0.3212  1.0291
 4617SOL    HW225488   1.103   0.171   8.216  0.1442 -0.8654 -1.5231
 4618SOL     OW25489   0.147   1.117   0.850 -0.2668  0.7889 -0.0284
 4618SOL    HW125490   0.067   1.082   0.810  0.0363  0.0766 -0.0073
 4618SOL    HW225491   0.165   1.040   0.904 -1.9928  0.5244  0.1698
 4619SOL     OW25492   4.323   3.020  10.875 -0.3911  0.2297 -0.3674
 4619SOL    HW125493   4.400   3.074  10.858 -0.1763  0.2517  0.6717
 4619SOL    HW225494   4.306   2.982  10.789 -0.6334 -0.9944  0.2252
 4620SOL     OW25495   2.679   1.224  15.570  0.0750 -0.0087  0.1744
 4620SOL    HW125496   2.687   1.191  15.480 -0.0905  0.5246 -0.0393
 4620SOL    HW225497   2.625   1.302  15.556 -0.6225 -0.4226  0.5734
 4621SOL     OW25498   2.288   3.281  16.365 -0.2181 -0.4339 -0.2391
 4621SOL    HW125499   2.315   3.204  16.314 -1.1635 -1.0219  0.1527
 4621SOL    HW225500   2.263   3.257  16.454  0.5808  1.3245  0.4706
 4622SOL     OW25501   1.821   1.062   8.270  0.1253 -0.0832 -0.2430
 4622SOL    HW125502   1.794   1.104   8.189 -1.1849  0.4216  0.4656
 4622SOL    HW225503   1.906   1.103   8.285  0.9501 -2.2605  1.1119
 4623SOL     OW25504   2.410   3.109  12.188 -0.0965  0.3774 -0.2911
 4623SOL    HW125505   2.403   3.202  12.210 -0.4442  0.4596 -0.7452
 4623SOL    HW225506   2.348   3.066  12.247 -0.4924 -2.1704 -2.5383
 4624SOL     OW25507   4.449   3.289   4.978  0.3196 -0.0339 -0.0060
 4624SOL    HW125508   4.376   3.227   4.979  0.2914 -0.0339 -3.1553
 4624SOL    HW225509   4.428   3.342   5.055  0.0947 -1.4102  0.8795
 4625SOL     OW25510   4.320   0.900   0.511 -0.5527  0.1155 -0.0822
 4625SOL    HW125511   4.385   0.837   0.480 -0.9844 -1.1416  1.5923
 4625SOL    HW225512   4.311   0.879   0.604  1.8069 -2.1662 -0.3636
 4626SOL     OW25513   0.639   4.346  17.302  0.0902 -0.0054  0.1769
 4626SOL    HW125514   0.616   4.304  17.384  0.5145  2.7690  1.7357
 4626SOL    HW225515   0.600   4.433  17.308  1.0329  0.5147 -1.1731
 4627SOL     OW25516   1.071   2.018   5.711  0.6401 -0.0388 -0.1196
 4627SOL    HW125517   1.076   2.008   5.616 -1.3572  0.6492 -0.2965
 4627SOL    HW225518   1.122   2.096   5.731  0.4534 -0.2167  1.0251
 4628SOL     OW25519   3.669   2.255   4.546 -1.0931 -0.0641  0.1848
 4628SOL    HW125520   3.747   2.207   4.518 -1.6736 -0.4253 -0.8254
 4628SOL    HW225521   3.667   2.252   4.641  0.8417 -3.1820  0.1185
 4629SOL     OW25522   4.485   2.446  11.891  0.3388 -0.4396 -0.1154
 4629SOL    HW125523   4.574   2.424  11.863 -0.4382 -1.9141 -1.4276
 4629SOL    HW225524   4.501   2.484  11.978  0.4670 -0.8105  0.0244
 4630SOL     OW25525   0.418   2.211   9.421  1.0177 -0.3268  0.2493
 4630SOL    HW125526   0.441   2.257   9.341 -0.1024 -0.2979 -0.0592
 4630SOL    HW225527   0.508   2.188   9.443  1.4603 -0.9279 -2.2163
 4631SOL     OW25528   0.446   0.020   8.377 -0.0888 -0.0789  0.0250
 4631SOL    HW125529   0.357   0.026   8.411 -0.0151  0.2241  0.1758
 4631SOL    HW225530   0.432   4.712   8.295  1.1016  2.3459 -1.5663
 4632SOL     OW25531   0.789   3.066  16.517  0.0757  0.1548 -0.0111
 4632SOL    HW125532   0.717   3.124  16.492 -1.3176 -0.9604  1.3708
 4632SOL    HW225533   0.846   3.127  16.562  0.2692 -0.3526  0.4272
 4633SOL     OW25534   3.407   2.862   5.640 -0.1102  0.2947 -0.0694
 4633SOL    HW125535   3.418   2.941   5.587 -0.4724  1.0044  0.9164
 4633SOL    HW225536   3.483   2.811   5.613  0.1208 -0.9181  2.9134
 4634SOL     OW25537   4.277   3.912  12.080  0.0177  0.7417 -0.0142
 4634SOL    HW125538   4.353   3.919  12.023  1.0825  0.1662  1.3386
 4634SOL    HW225539   4.312   3.935  12.166 -1.6421 -0.7805  1.0864
 4635SOL     OW25540   0.303   0.426  17.589 -0.5109 -0.1992 -0.4622
 4635SOL    HW125541   0.298   0.510  17.635 -0.8200  0.1175 -1.0769
 4635SOL    HW225542   0.234   0.379  17.635  0.0966 -0.3870  0.2568
 4636SOL     OW25543   1.066   1.138   1.397 -0.1347 -0.5431 -0.0485
 4636SOL    HW125544   0.975   1.159   1.418  0.3885  0.2866  1.3805
 4636SOL    HW225545   1.099   1.226   1.377 -1.3396 -0.7096 -2.7915
 4637SOL     OW25546   0.069   1.804  17.654 -0.1636  0.8983 -0.9043
 4637SOL    HW125547   0.147   1.784  17.603  2.1619  0.2021  2.9198
 4637SOL    HW225548   0.048   1.716  17.687 -1.2407  1.7279  0.6310
 4638SOL     OW25549   1.740   1.834   3.877  0.0527  0.3180 -0.1264
 4638SOL    HW125550   1.784   1.829   3.962  1.3637  0.8333 -0.7710
 4638SOL    HW225551   1.783   1.904   3.827  0.3000  0.0685 -0.2676
 4639SOL     OW25552   3.885   3.381   8.845  0.1209  0.2257 -0.2619
 4639SOL    HW125553   3.848   3.360   8.759  0.1528 -0.9548  0.0105
 4639SOL    HW225554   3.889   3.300   8.895  1.2401  0.3044 -0.2129
 4640SOL     OW25555   1.041   0.779  17.147  0.5610 -0.0107 -0.7290
 4640SOL    HW125556   1.069   0.765  17.237 -0.6897 -1.0018 -0.5031
 4640SOL    HW225557   1.118   0.823  17.111  0.1971  2.3626  1.4355
 4641SOL     OW25558   2.351   1.978   6.899  0.1836  0.2876  0.1113
 4641SOL    HW125559   2.347   1.982   6.803  0.2504 -3.4366 -0.0364
 4641SOL    HW225560   2.441   1.947   6.905  0.3477  0.8101  0.4001
 4642SOL     OW25561   2.468   4.572   1.459  0.2578  0.4683  0.2301
 4642SOL    HW125562   2.468   4.483   1.494  2.3504  0.4760  0.2505
 4642SOL    HW225563   2.374   4.577   1.440  0.2607  0.6311  0.2612
 4643SOL     OW25564   0.679   0.901   7.526 -1.1033 -0.6070  0.0897
 4643SOL    HW125565   0.656   0.989   7.494 -0.4009 -0.7481 -0.8207
 4643SOL    HW225566   0.692   0.854   7.443  2.0810  0.8264 -0.2451
 4644SOL     OW25567   1.384   0.391   0.356 -0.0122 -0.6025 -0.3506
 4644SOL    HW125568   1.343   0.354   0.278  1.2963 -1.8922 -0.4280
 4644SOL    HW225569   1.467   0.344   0.360 -0.9744 -2.0917  2.4107
 4645SOL     OW25570   4.504   2.579  16.265 -0.7874  0.6289 -0.3801
 4645SOL    HW125571   4.508   2.505  16.204 -1.8481 -1.1185  1.6703
 4645SOL    HW225572   4.458   2.642  16.210  0.0408 -0.7225 -2.6379
 4646SOL     OW25573   4.158   2.674   6.735  0.5654  0.5048 -0.2428
 4646SOL    HW125574   4.088   2.733   6.763 -0.8438 -0.9639 -0.6524
 4646SOL    HW225575   4.182   2.703   6.647  0.7730  0.0467 -0.3412
 4647SOL     OW25576   1.042   2.864   2.762  0.3551 -0.1985  0.6692
 4647SOL    HW125577   1.104   2.936   2.747 -0.8926  0.6758 -0.2146
 4647SOL    HW225578   1.061   2.816   2.682 -1.2210 -1.3102  0.9585
 4648SOL     OW25579   3.125   2.545   1.684  0.1629  0.3427 -0.0153
 4648SOL    HW125580   3.054   2.587   1.636  0.5959 -1.5691 -2.3493
 4648SOL    HW225581   3.188   2.558   1.613  1.2077  0.6764  0.9794
 4649SOL     OW25582   3.747   1.171   3.846  0.2480  0.1668 -0.3003
 4649SOL    HW125583   3.829   1.128   3.823 -0.9397 -1.4396 -1.5495
 4649SOL    HW225584   3.759   1.168   3.941 -1.1199 -1.6237 -0.1915
 4650SOL     OW25585   3.017   4.467   7.631  0.2943 -0.4314  0.2531
 4650SOL    HW125586   3.009   4.440   7.540  0.6385  1.3120 -0.2832
 4650SOL    HW225587   3.077   4.400   7.666 -0.4773 -0.2563  1.9199
 4651SOL     OW25588   2.718   2.847  10.904  0.3287  0.9190  0.3314
 4651SOL    HW125589   2.707   2.882  10.992 -1.3457 -0.8895  0.8410
 4651SOL    HW225590   2.628   2.825  10.880  0.5056  0.2946  0.2451
 4652SOL     OW25591   3.496   0.794  15.845 -0.2926 -0.1909 -0.1113
 4652SOL    HW125592   3.449   0.855  15.787  0.7385 -1.4448 -2.2821
 4652SOL    HW225593   3.473   0.829  15.931  0.9050 -0.9722  0.5249
 4653SOL     OW25594   2.978   1.288   5.016  0.3446 -0.2474  0.4036
 4653SOL    HW125595   2.979   1.319   5.107 -1.2465  3.4193 -0.8406
 4653SOL    HW225596   3.057   1.235   5.026  0.5208  0.5599  3.3340
 4654SOL     OW25597   4.319   0.039  10.809 -0.9325 -0.1020 -0.2799
 4654SOL    HW125598   4.262   0.115  10.820 -0.8578 -0.6561  3.9565
 4654SOL    HW225599   4.312   0.033  10.714 -1.2031 -3.0492 -0.0771
 4655SOL     OW25600   3.664   0.732  14.579 -0.0775  0.0643 -0.1062
 4655SOL    HW125601   3.656   0.813  14.629  0.2907  1.4211 -2.2516
 4655SOL    HW225602   3.586   0.683  14.604  0.1994  0.2792  1.1616
 4656SOL     OW25603   0.653   1.782   5.186 -0.1837  0.3017  0.1132
 4656SOL    HW125604   0.695   1.829   5.258 -0.5925  1.8365 -0.6479
 4656SOL    HW225605   0.704   1.801   5.107  1.0493 -0.3571  0.7378
 4657SOL     OW25606   4.480   2.952   4.526  0.7589  0.5103  0.5005
 4657SOL    HW125607   4.444   2.891   4.590  2.7125  1.3421  2.4045
 4657SOL    HW225608   4.455   2.907   4.445  0.8763 -0.5934  1.0751
 4658SOL     OW25609   0.915   3.358   2.879  0.1349  0.2147  0.2646
 4658SOL    HW125610   0.893   3.370   2.787  1.8924 -2.8437 -0.5790
 4658SOL    HW225611   0.940   3.445   2.910 -1.2163 -0.5180  3.3395
 4659SOL     OW25612   3.828   3.720   5.885  0.0491  0.7250 -0.2705
 4659SOL    HW125613   3.849   3.702   5.793  0.5146 -1.9624  0.3501
 4659SOL    HW225614   3.781   3.801   5.865  1.5826  1.7178  0.2184
 4660SOL     OW25615   1.444   2.918   6.290 -0.1789  0.4181 -0.0881
 4660SOL    HW125616   1.537   2.925   6.269 -0.7577  1.0114 -2.4731
 4660SOL    HW225617   1.408   2.953   6.208  0.2409 -0.7579 -0.7839
 4661SOL     OW25618   2.578   1.654   6.720  0.0588 -0.8196  0.0697
 4661SOL    HW125619   2.581   1.650   6.625  0.3402  0.1580  0.0433
 4661SOL    HW225620   2.490   1.624   6.741 -0.0917  0.9462  2.0305
 4662SOL     OW25621   0.791   1.069  15.563  0.4667 -0.0357 -0.2326
 4662SOL    HW125622   0.846   1.031  15.494  0.6476 -0.6308  0.2411
 4662SOL    HW225623   0.711   1.017  15.552  0.0860  0.1577  1.6771
 4663SOL     OW25624   0.128   1.383   2.875  0.0509  0.3645  0.0549
 4663SOL    HW125625   0.077   1.320   2.824  0.4436  2.5612 -3.0649
 4663SOL    HW225626   0.217   1.348   2.863 -0.7507 -1.5674 -0.1376
 4664SOL     OW25627   0.304   4.725   6.853  0.3177 -0.1439  0.2134
 4664SOL    HW125628   0.267   0.069   6.882 -1.4866 -1.2109  0.9913
 4664SOL    HW225629   0.396   0.009   6.867  0.4937 -0.6226 -0.1427
 4665SOL     OW25630   4.146   1.057   6.586 -0.5365  0.5475  0.3245
 4665SOL    HW125631   4.079   0.993   6.608 -1.4071  0.9967 -0.9889
 4665SOL    HW225632   4.224   1.022   6.628 -0.4876  0.5079  0.2003
 4666SOL     OW25633   0.473   0.736   1.818  0.0001 -0.0726  0.2280
 4666SOL    HW125634   0.559   0.775   1.805 -0.4507  1.1233  0.7407
 4666SOL    HW225635   0.477   0.672   1.747 -0.8828  0.6480 -0.4793
 4667SOL     OW25636   1.041   2.439   6.235 -0.4008  0.2845  0.6379
 4667SOL    HW125637   1.120   2.403   6.276 -1.3077 -0.5742  1.6214
 4667SOL    HW225638   1.075   2.526   6.214 -0.8878 -0.2138 -2.2055
 4668SOL     OW25639   1.478   4.518   4.759 -0.9491 -0.0731 -0.7931
 4668SOL    HW125640   1.452   4.609   4.752  0.5933  0.3355 -1.2227
 4668SOL    HW225641   1.410   4.485   4.699 -0.4357 -1.9520 -0.3529
 4669SOL     OW25642   3.365   1.092   4.626 -0.5455 -0.0339  0.3026
 4669SOL    HW125643   3.390   1.004   4.597  1.3401  0.2114  1.1996
 4669SOL    HW225644   3.275   1.080   4.656 -0.1025  0.6428  1.8828
 4670SOL     OW25645   3.009   1.073  15.267  0.1420  0.2838  0.0034
 4670SOL    HW125646   3.037   1.150  15.316  1.4568 -0.1172 -0.1026
 4670SOL    HW225647   2.920   1.106  15.262  0.6838  2.0665  2.2378
 4671SOL     OW25648   2.476   4.522   2.900 -0.8137 -0.5833 -0.7444
 4671SOL    HW125649   2.427   4.483   2.971 -0.5899  0.8977  0.2288
 4671SOL    HW225650   2.559   4.539   2.945 -2.6475  2.3945  1.5163
 4672SOL     OW25651   2.707   3.763   3.700  0.6489  0.5387 -0.1778
 4672SOL    HW125652   2.677   3.788   3.788  0.3148  0.4523 -0.2674
 4672SOL    HW225653   2.683   3.846   3.658  0.4039  1.1384  1.1518
 4673SOL     OW25654   2.196   0.034  14.457 -0.1530  0.1015  0.3275
 4673SOL    HW125655   2.268   0.081  14.415  0.0082 -2.0786 -1.7972
 4673SOL    HW225656   2.180   4.697  14.401 -2.7677  0.1661  0.9887
 4674SOL     OW25657   1.370   0.169   9.106  0.3489  0.1340  0.2729
 4674SOL    HW125658   1.306   0.196   9.172 -1.2389 -1.4257 -0.6726
 4674SOL    HW225659   1.315   0.119   9.046 -1.8636  1.0223  1.5791
 4675SOL     OW25660   4.388   0.716   6.907 -0.2168 -0.4179  0.2064
 4675SOL    HW125661   4.472   0.672   6.919 -0.2402 -1.3289 -2.8697
 4675SOL    HW225662   4.349   0.688   6.989 -1.5055 -0.0855 -0.2852
 4676SOL     OW25663   4.724   2.725   5.356  0.0182  0.9540  0.2249
 4676SOL    HW125664   4.630   2.729   5.342  0.7024 -0.7146 -4.5887
 4676SOL    HW225665   4.724   2.728   5.452  1.8560  2.9944  0.1590
 4677SOL     OW25666   1.850   1.821   8.916  0.0182 -0.1000 -0.0519
 4677SOL    HW125667   1.848   1.728   8.939 -0.5460  0.6410  2.9249
 4677SOL    HW225668   1.873   1.823   8.824  2.2090  1.2012  0.5331
 4678SOL     OW25669   2.372   1.145   8.718 -0.4646 -0.0115  0.2065
 4678SOL    HW125670   2.282   1.139   8.684 -0.9335  0.4449  1.3697
 4678SOL    HW225671   2.414   1.104   8.642  0.7494  1.9157 -0.1801
 4679SOL     OW25672   3.323   1.437   1.190 -0.1555 -0.4387 -0.7046
 4679SOL    HW125673   3.252   1.463   1.132  1.1035 -0.5780 -2.3207
 4679SOL    HW225674   3.287   1.453   1.278 -1.0568 -2.6221 -0.6798
 4680SOL     OW25675   2.072   4.594   6.387 -0.1604  0.2847  0.2504
 4680SOL    HW125676   2.118   4.678   6.379 -0.5117  0.4457 -0.0684
 4680SOL    HW225677   1.979   4.619   6.385 -0.2736 -0.0285  1.9801
 4681SOL     OW25678   3.479   4.357   2.824  0.3160 -0.2813 -0.4216
 4681SOL    HW125679   3.403   4.353   2.882  0.5786 -0.5432 -0.0965
 4681SOL    HW225680   3.464   4.284   2.764 -0.1681 -1.5198  1.2109
 4682SOL     OW25681   1.784   0.732   5.403  0.1254  0.0376  0.1191
 4682SOL    HW125682   1.716   0.778   5.355 -0.2615 -0.9992 -0.3154
 4682SOL    HW225683   1.732   0.673   5.458 -2.2283  0.3729 -1.7909
 4683SOL     OW25684   1.734   0.577   4.406 -0.2466 -0.0062  0.5744
 4683SOL    HW125685   1.758   0.592   4.497  0.1157 -1.3838  0.6994
 4683SOL    HW225686   1.757   0.660   4.364  0.2134  0.4347  1.7055
 4684SOL     OW25687   0.224   3.550   6.172  0.6839  0.2364 -0.2244
 4684SOL    HW125688   0.184   3.487   6.232  1.9515  0.6324  1.0102
 4684SOL    HW225689   0.315   3.562   6.199  0.1483 -0.1021  1.7401
 4685SOL     OW25690   0.939   4.223   6.219  0.4240  0.0264 -0.1070
 4685SOL    HW125691   0.875   4.152   6.208  1.1724 -0.2824 -2.4561
 4685SOL    HW225692   0.959   4.212   6.312 -0.0536 -0.9932 -0.1252
 4686SOL     OW25693   2.198   0.072   6.691 -0.0704 -1.0796  0.0755
 4686SOL    HW125694   2.191   0.095   6.599 -1.3539  1.4682  0.7974
 4686SOL    HW225695   2.226   4.720   6.685 -1.6544 -1.5189 -0.6150
 4687SOL     OW25696   1.472   0.826   3.836 -0.0383 -0.8360  0.3000
 4687SOL    HW125697   1.511   0.820   3.749 -0.8069  4.7328 -0.4277
 4687SOL    HW225698   1.519   0.902   3.871 -1.9608  0.3258  0.3518
 4688SOL     OW25699   0.700   0.862   3.437  0.4062 -0.4019 -0.5432
 4688SOL    HW125700   0.638   0.822   3.376 -0.4079  1.4471 -0.9198
 4688SOL    HW225701   0.768   0.794   3.433 -0.7667 -1.5874 -0.5183
 4689SOL     OW25702   4.136   1.703  11.451  0.3664 -0.2043  0.6754
 4689SOL    HW125703   4.203   1.747  11.400  2.5755 -0.8905  2.9742
 4689SOL    HW225704   4.177   1.677  11.533 -2.5247 -1.3111  1.7613
 4690SOL     OW25705   1.507   2.933   9.073 -0.2694  0.3637 -0.1762
 4690SOL    HW125706   1.515   2.906   8.982  0.9985  0.8431 -0.2146
 4690SOL    HW225707   1.597   2.925   9.105 -1.7211 -3.4518  2.9267
 4691SOL     OW25708   3.824   2.441   6.626 -0.1049  0.2256  1.0687
 4691SOL    HW125709   3.749   2.396   6.664 -1.1909  0.2265 -1.0877
 4691SOL    HW225710   3.782   2.484   6.552  1.1571  1.7009  1.2120
 4692SOL     OW25711   3.156   2.222   7.371  0.4841 -0.3228  0.4595
 4692SOL    HW125712   3.167   2.179   7.287  0.4368 -0.7522  0.6707
 4692SOL    HW225713   3.063   2.203   7.385  0.4627  0.3644  1.2687
 4693SOL     OW25714   2.157   2.644   2.815  0.5375 -0.2158 -0.4180
 4693SOL    HW125715   2.182   2.576   2.752  4.0484  0.4086  0.2786
 4693SOL    HW225716   2.071   2.661   2.776 -0.0998 -0.4055  0.8848
 4694SOL     OW25717   2.219   4.690   7.835  0.3426  0.0063  0.2873
 4694SOL    HW125718   2.245   4.609   7.879  0.3992 -0.2407 -0.2033
 4694SOL    HW225719   2.296   0.008   7.838 -1.9872  2.9949  2.5501
 4695SOL     OW25720   2.322   0.342   1.062 -0.5437 -0.4986  0.4937
 4695SOL    HW125721   2.291   0.421   1.108 -0.5097  0.0789 -0.4774
 4695SOL    HW225722   2.325   0.280   1.135  2.6786 -3.2960 -2.0665
 4696SOL     OW25723   0.013   1.843   5.240  0.2893 -0.5858  0.4514
 4696SOL    HW125724   4.700   1.917   5.273  4.4316  2.2392  0.6716
 4696SOL    HW225725   0.076   1.833   5.311  1.0800  1.8867  0.1134
 4697SOL     OW25726   4.086   2.356  12.082  0.1495  0.6203  0.2340
 4697SOL    HW125727   4.135   2.430  12.046  0.2033  0.2064 -0.5544
 4697SOL    HW225728   4.162   2.301  12.101  0.9481  0.8303 -2.2736
 4698SOL     OW25729   1.677   3.538   3.955  0.3903 -0.0995 -0.3978
 4698SOL    HW125730   1.591   3.580   3.955 -0.3157 -1.5504 -1.2721
 4698SOL    HW225731   1.662   3.477   3.882  3.1279 -0.6347 -0.5228
 4699SOL     OW25732   1.671   3.552   5.110  0.2080 -0.0611 -0.0627
 4699SOL    HW125733   1.616   3.621   5.072 -1.1909 -1.2211 -0.1354
 4699SOL    HW225734   1.758   3.580   5.080  0.4391 -2.2845 -1.5176
 4700SOL     OW25735   0.025   1.319  14.215 -0.0150 -0.1900 -0.1910
 4700SOL    HW125736   0.081   1.286  14.286  1.5135  2.3530 -0.2065
 4700SOL    HW225737   4.686   1.348  14.262  1.2307  1.2015  1.0197
 4701SOL     OW25738   0.561   0.311   2.607  0.3802 -0.5292 -0.0288
 4701SOL    HW125739   0.633   0.279   2.553 -0.7280 -2.2085 -0.4999
 4701SOL    HW225740   0.563   0.249   2.680 -2.6277 -0.7539 -0.1377
 4702SOL     OW25741   4.722   3.025   8.968  1.0052  0.2124  0.1933
 4702SOL    HW125742   4.735   2.990   8.880  1.7178 -1.5016  0.9836
 4702SOL    HW225743   0.019   3.112   8.951 -0.3591  0.3656 -1.8487
 4703SOL     OW25744   3.714   3.916   9.942  0.3129  0.1811  0.5606
 4703SOL    HW125745   3.785   3.896   9.881 -1.3497  1.0317 -1.6544
 4703SOL    HW225746   3.675   3.992   9.898 -1.4337 -0.6466  0.6571
 4704SOL     OW25747   1.513   2.052   1.186 -0.2026 -0.3719 -0.1846
 4704SOL    HW125748   1.510   1.993   1.110 -0.0666 -0.4628 -0.1183
 4704SOL    HW225749   1.495   2.143   1.161 -0.8494  0.0718  1.8870
 4705SOL     OW25750   0.094   0.071   0.445 -0.3473  0.2821 -0.1979
 4705SOL    HW125751   0.141   0.119   0.377  0.8895 -1.7287 -0.7608
 4705SOL    HW225752   0.023   0.043   0.387 -1.6073  2.0457  0.4677
 4706SOL     OW25753   0.060   2.634   3.565  0.5339 -0.3074 -0.2528
 4706SOL    HW125754   4.718   2.685   3.570 -0.3948 -1.8990  1.2220
 4706SOL    HW225755   0.049   2.602   3.475 -1.4374 -0.4925  0.0453
 4707SOL     OW25756   4.675   1.309   6.981 -0.2097 -0.3762 -0.6194
 4707SOL    HW125757   4.676   1.242   6.912 -0.4110  0.0454 -1.0314
 4707SOL    HW225758   0.012   1.365   6.968 -1.1876  1.1230  0.2112
 4708SOL     OW25759   1.599   3.696   9.761 -0.5319  0.2703 -0.1407
 4708SOL    HW125760   1.620   3.674   9.670  1.5431 -1.7106  0.8060
 4708SOL    HW225761   1.512   3.659   9.777 -0.4068 -0.8287 -1.9399
 4709SOL     OW25762   2.871   2.790   7.316  0.3041  0.2517  0.2586
 4709SOL    HW125763   2.949   2.844   7.311  0.2294  0.4954  1.9577
 4709SOL    HW225764   2.898   2.714   7.368 -0.1698  0.9584  1.5362
 4710SOL     OW25765   0.767   2.566  14.880 -0.0257 -0.2758 -0.0879
 4710SOL    HW125766   0.824   2.604  14.947  0.2308  1.5181 -1.3096
 4710SOL    HW225767   0.817   2.594  14.804  1.6530 -1.3701  0.6159
 4711SOL     OW25768   3.038   1.399  14.759  0.6900  0.3213  0.1769
 4711SOL    HW125769   3.082   1.415  14.842 -0.7578 -0.3625  1.0827
 4711SOL    HW225770   3.093   1.322  14.743  1.0116  0.1710  1.9893
 4712SOL     OW25771   0.601   2.897   5.020  0.4337 -0.3190  0.2653
 4712SOL    HW125772   0.676   2.950   5.049  1.1367  0.1353 -2.3624
 4712SOL    HW225773   0.579   2.946   4.941 -1.2701 -0.7703  0.4641
 4713SOL     OW25774   4.516   4.186  14.029 -0.1613  0.0420  0.3859
 4713SOL    HW125775   4.476   4.125  13.967  1.5918  0.6373 -1.3585
 4713SOL    HW225776   4.450   4.209  14.094 -0.9974  0.0517 -0.4790
 4714SOL     OW25777   3.465   1.631   7.085  0.0534 -0.6237  0.0020
 4714SOL    HW125778   3.530   1.571   7.047  0.1633 -1.5356  1.6081
 4714SOL    HW225779   3.522   1.691   7.133  2.0018 -3.2553  1.0311
 4715SOL     OW25780   3.270   1.417  11.671  0.3161  0.2583 -0.3740
 4715SOL    HW125781   3.195   1.387  11.620 -0.1090 -3.2151  2.2701
 4715SOL    HW225782   3.332   1.403  11.599 -0.5287 -0.1155 -1.0322
 4716SOL     OW25783   4.514   1.995   8.529 -0.3242 -0.4763 -0.3998
 4716SOL    HW125784   4.449   1.971   8.462  0.1985  1.4369 -1.5813
 4716SOL    HW225785   4.453   2.046   8.582 -0.2644  1.5293 -2.2418
 4717SOL     OW25786   0.785   3.425   2.609  0.2345  0.1451 -0.0511
 4717SOL    HW125787   0.700   3.442   2.568 -1.1804  0.3746  2.9811
 4717SOL    HW225788   0.848   3.472   2.554 -0.8075  2.2579  0.5751
 4718SOL     OW25789   2.969   4.275   0.895  0.3710 -0.6132 -0.2685
 4718SOL    HW125790   2.975   4.275   0.799  2.1910  2.6354 -0.1482
 4718SOL    HW225791   3.057   4.243   0.914  0.2024 -0.4572  0.7736
 4719SOL     OW25792   2.939   1.833   5.697  0.1940 -0.5053  0.3859
 4719SOL    HW125793   2.951   1.925   5.722 -1.8364 -0.2976  0.5734
 4719SOL    HW225794   2.943   1.846   5.603 -1.2929 -1.2877  0.2071
 4720SOL     OW25795   2.641   0.310   6.441 -0.3408  0.5648 -0.2036
 4720SOL    HW125796   2.545   0.311   6.437 -0.3644  1.7217  0.7549
 4720SOL    HW225797   2.655   0.236   6.500  0.8673  0.1689 -1.0023
 4721SOL     OW25798   4.364   2.631   0.088 -0.1484 -0.7951 -0.1000
 4721SOL    HW125799   4.316   2.582   0.155  0.4122 -0.2022  0.7295
 4721SOL    HW225800   4.455   2.624   0.115 -0.1967 -1.8757 -0.2092
 4722SOL     OW25801   2.131   4.367  12.034  0.3281 -0.1526  0.0051
 4722SOL    HW125802   2.109   4.457  12.058 -0.0596  0.6246 -3.1581
 4722SOL    HW225803   2.216   4.374  11.991 -0.4754  2.1122 -1.2557
 4723SOL     OW25804   1.095   2.124   4.477  0.6034  0.4737 -0.2686
 4723SOL    HW125805   1.161   2.142   4.410  1.7638 -1.2377  0.4083
 4723SOL    HW225806   1.019   2.095   4.425  0.6031 -0.0440  0.0205
 4724SOL     OW25807   4.737   2.016   6.350  0.0243  0.0304  0.3692
 4724SOL    HW125808   4.648   1.979   6.358  0.9329 -2.1417  0.4858
 4724SOL    HW225809   0.034   1.985   6.433 -1.6526 -1.5988  0.4914
 4725SOL     OW25810   1.848   4.584  16.415 -0.1260 -0.0200 -0.8272
 4725SOL    HW125811   1.842   4.638  16.494  1.2217 -0.6308 -0.2979
 4725SOL    HW225812   1.876   4.636  16.341 -0.5987  0.6509 -0.5308
 4726SOL     OW25813   4.053   1.950   5.898 -0.4646 -0.0876  0.1736
 4726SOL    HW125814   4.131   1.965   5.951  1.2282 -1.8143 -1.8429
 4726SOL    HW225815   4.077   1.868   5.854  3.0191  0.3766  1.2329
 4727SOL     OW25816   1.306   4.670   3.365 -0.3010  0.3539  0.1023
 4727SOL    HW125817   1.228   4.615   3.363 -0.9740  1.3551 -1.3918
 4727SOL    HW225818   1.334   4.674   3.456  2.7132  3.9505 -0.9792
 4728SOL     OW25819   0.749   4.077  13.827  0.0972 -0.2578 -0.2206
 4728SOL    HW125820   0.739   4.027  13.908 -0.1992 -0.2739 -0.2655
 4728SOL    HW225821   0.659   4.104  13.809  0.0665 -0.0303  0.2806
 4729SOL     OW25822   3.148   4.183   6.553 -0.9107 -0.1321 -0.2563
 4729SOL    HW125823   3.192   4.197   6.637 -0.7148 -0.4848 -0.2997
 4729SOL    HW225824   3.061   4.213   6.578 -0.1308  1.0269  1.1146
 4730SOL     OW25825   0.551   3.820   2.372 -0.5271  0.3455  0.3213
 4730SOL    HW125826   0.519   3.872   2.298  0.2650  0.8219  0.3142
 4730SOL    HW225827   0.470   3.804   2.420  0.0308  1.5134  1.6510
 4731SOL     OW25828   4.682   0.268   0.572  0.2936  0.1268 -0.0599
 4731SOL    HW125829   0.010   0.202   0.589 -1.4392 -1.6630 -0.1375
 4731SOL    HW225830   4.597   0.235   0.602 -0.6133  1.8720 -0.7234
 4732SOL     OW25831   4.220   1.189   8.745  0.1274 -0.1872 -0.0252
 4732SOL    HW125832   4.130   1.189   8.775  0.3541 -0.6410  0.6717
 4732SOL    HW225833   4.198   1.210   8.655 -0.1766  2.0866  0.5954
 4733SOL     OW25834   3.321   3.162  16.279 -0.4392  0.1160 -0.1420
 4733SOL    HW125835   3.239   3.212  16.274  0.1313  0.7644 -3.1332
 4733SOL    HW225836   3.361   3.196  16.199  0.5338 -1.7420 -0.4254
 4734SOL     OW25837   0.809   4.232  16.819  0.3276 -0.2402 -0.3894
 4734SOL    HW125838   0.769   4.318  16.815 -1.8064 -1.1617  1.1354
 4734SOL    HW225839   0.790   4.202  16.730  1.0622  1.8501 -1.2474
 4735SOL     OW25840   1.126   3.104  17.295  0.3807 -0.3102  0.4798
 4735SOL    HW125841   1.159   3.183  17.339 -0.5933  0.9115 -0.9932
 4735SOL    HW225842   1.114   3.132  17.204 -2.0336  1.1794  1.2544
 4736SOL     OW25843   2.082   3.283   4.215  0.5381 -0.0614  0.4875
 4736SOL    HW125844   2.157   3.333   4.246  0.3361 -1.2866  2.9595
 4736SOL    HW225845   2.016   3.349   4.193  0.3890  0.3524  2.1544
 4737SOL     OW25846   1.481   1.758  12.020  0.0295 -0.2513  0.0748
 4737SOL    HW125847   1.558   1.812  12.039  0.0589 -0.9002  1.8813
 4737SOL    HW225848   1.523   1.672  12.022  0.0656 -0.2165  1.3479
 4738SOL     OW25849   2.695   1.587   7.870 -0.1453 -0.3897 -0.0726
 4738SOL    HW125850   2.646   1.505   7.858  1.1869 -1.5180  2.1415
 4738SOL    HW225851   2.766   1.581   7.807 -0.8068 -1.9261 -0.6810
 4739SOL     OW25852   3.798   2.073   2.872 -0.3109 -0.0185  0.3536
 4739SOL    HW125853   3.861   2.116   2.930 -3.1496  2.1029  1.8680
 4739SOL    HW225854   3.833   1.984   2.872  1.6340  0.7406 -3.5025
 4740SOL     OW25855   2.073   1.948   7.670  0.1639 -0.8164  0.2444
 4740SOL    HW125856   2.121   2.031   7.675 -1.2537 -0.0346  0.9238
 4740SOL    HW225857   1.987   1.975   7.639 -0.1862  0.3698  2.2450
 4741SOL     OW25858   0.910   2.808   7.961  0.3056 -0.4328  0.0692
 4741SOL    HW125859   0.818   2.788   7.946 -0.0563 -0.5798  2.5385
 4741SOL    HW225860   0.907   2.900   7.987 -0.5753 -0.4247 -0.0729
 4742SOL     OW25861   4.132   3.661  10.571 -0.3501  0.3941  0.3565
 4742SOL    HW125862   4.143   3.658  10.476  0.9743  3.1657  0.4493
 4742SOL    HW225863   4.070   3.589  10.586 -0.6519  0.4223 -0.7536
 4743SOL     OW25864   2.907   1.316   0.688 -0.5006 -0.3474  0.3726
 4743SOL    HW125865   2.908   1.329   0.593 -3.2920 -0.2924  0.3430
 4743SOL    HW225866   2.814   1.292   0.689 -0.8603  0.9092 -1.4561
 4744SOL     OW25867   3.623   0.284  15.924  0.4093  0.3003 -0.1022
 4744SOL    HW125868   3.665   0.370  15.914 -0.0705  0.4669 -0.7191
 4744SOL    HW225869   3.650   0.242  15.842  0.0577 -1.1269  0.5285
 4745SOL     OW25870   3.041   2.309   8.767  0.3994 -0.2471 -0.4736
 4745SOL    HW125871   3.104   2.243   8.794 -0.8250 -1.0273  0.4570
 4745SOL    HW225872   2.973   2.255   8.726  0.7304 -0.2969 -0.9621
 4746SOL     OW25873   2.325   0.801   6.084 -0.5527 -0.0766 -0.2121
 4746SOL    HW125874   2.312   0.752   6.003 -0.3140 -0.5449  0.0334
 4746SOL    HW225875   2.234   0.830   6.093 -0.2659  0.4576  0.8397
 4747SOL     OW25876   3.312   1.295   6.563 -0.0715 -0.2200  0.8120
 4747SOL    HW125877   3.274   1.348   6.633 -0.6535  0.5056 -0.0534
 4747SOL    HW225878   3.227   1.261   6.534 -0.8237  1.3286  1.1803
 4748SOL     OW25879   3.940   2.518   4.630 -0.2276 -0.7653 -0.5378
 4748SOL    HW125880   3.956   2.460   4.556 -1.3254  0.5882 -1.8366
 4748SOL    HW225881   3.865   2.566   4.594 -1.4410 -1.6306  0.8484
 4749SOL     OW25882   4.650   1.695  11.887 -0.1620  0.1658 -0.3982
 4749SOL    HW125883   4.722   1.695  11.950 -0.9046  1.8298  0.4688
 4749SOL    HW225884   4.684   1.751  11.818 -1.7835 -0.6003 -1.8113
 4750SOL     OW25885   0.207   2.110   9.117 -0.7806  0.0106 -0.0709
 4750SOL    HW125886   0.193   2.197   9.154 -1.9880  0.0878 -0.7218
 4750SOL    HW225887   0.153   2.055   9.174  0.4168  0.5575  1.5792
 4751SOL     OW25888   0.846   4.648   3.255 -0.3269  0.6439  0.5557
 4751SOL    HW125889   0.925   4.597   3.275 -0.3769 -0.4531 -2.0749
 4751SOL    HW225890   0.833   4.655   3.160 -1.2374 -1.6158  0.5365
 4752SOL     OW25891   3.036   2.899   4.418  0.4761 -0.3193 -0.5370
 4752SOL    HW125892   2.974   2.968   4.442  0.3352 -0.1523 -1.3683
 4752SOL    HW225893   2.977   2.855   4.357  0.3678 -0.7832 -0.0974
 4753SOL     OW25894   4.560   0.903  10.023  0.1051 -0.6019 -0.0739
 4753SOL    HW125895   4.592   0.908  10.113 -1.8701  1.9212  0.4974
 4753SOL    HW225896   4.646   0.918   9.983 -0.0020  0.0165 -0.0714
 4754SOL     OW25897   2.589   3.600  11.212 -0.7262 -0.2571 -0.2159
 4754SOL    HW125898   2.560   3.610  11.302  0.6634  0.4726  0.1566
 4754SOL    HW225899   2.653   3.529  11.213  1.5642  1.8163  1.1826
 4755SOL     OW25900   1.609   0.269   9.885  0.4259  0.5364  0.1141
 4755SOL    HW125901   1.514   0.273   9.898  0.5869  0.0548  1.3627
 4755SOL    HW225902   1.616   0.217   9.805  2.1456  0.1999  0.4962
 4756SOL     OW25903   3.830   4.602   6.164  0.5011 -0.0249  0.0445
 4756SOL    HW125904   3.827   4.537   6.234 -0.5142  1.6064  1.5085
 4756SOL    HW225905   3.786   4.666   6.220  0.8359 -0.1451  0.4402
 4757SOL     OW25906   3.353   0.295   3.434 -0.4677  0.3160 -0.3004
 4757SOL    HW125907   3.330   0.247   3.513  0.2321  0.3892 -0.0556
 4757SOL    HW225908   3.424   0.240   3.400  0.5062  0.6572  1.1991
 4758SOL     OW25909   0.584   3.091  13.100 -0.5086 -0.4874 -0.2264
 4758SOL    HW125910   0.521   3.029  13.137 -1.7696  1.6218  1.1101
 4758SOL    HW225911   0.549   3.174  13.131  1.6618  1.0928 -1.9939
 4759SOL     OW25912   1.032   0.275  12.390  0.4900  0.1587  0.1859
 4759SOL    HW125913   1.051   0.186  12.420 -2.5255 -0.4246  0.3637
 4759SOL    HW225914   0.940   0.264  12.366  0.4651 -1.3724  0.9372
 4760SOL     OW25915   0.593   1.759   2.321 -0.0162 -0.0504  0.4400
 4760SOL    HW125916   0.641   1.704   2.383  0.0319 -0.0835  0.3726
 4760SOL    HW225917   0.663   1.786   2.263 -1.0978  0.7187 -0.5074
 4761SOL     OW25918   4.024   1.739   2.752  0.4228 -0.2161 -0.2292
 4761SOL    HW125919   4.014   1.673   2.684 -0.0147  0.7418 -1.0915
 4761SOL    HW225920   4.113   1.720   2.783  0.6048 -0.8056 -1.1367
 4762SOL     OW25921   0.480   4.500  10.015 -0.5406  0.1719 -0.7537
 4762SOL    HW125922   0.575   4.506  10.019 -0.5362 -0.7000  0.8294
 4762SOL    HW225923   0.461   4.592  10.031  0.0682 -0.0912  1.5678
 4763SOL     OW25924   3.692   1.703   7.203  0.0866  0.0934  0.2475
 4763SOL    HW125925   3.757   1.636   7.220  0.7243  0.5916 -0.2551
 4763SOL    HW225926   3.648   1.711   7.288  1.3444  3.5353  0.5956
 4764SOL     OW25927   3.189   2.948   2.296 -0.3516 -0.4255 -0.0376
 4764SOL    HW125928   3.192   2.898   2.214  0.9042  2.8045 -1.9623
 4764SOL    HW225929   3.166   2.871   2.348 -0.2410 -1.9999 -2.3022
 4765SOL     OW25930   0.096   2.552  14.772  0.5133 -0.0420  0.1613
 4765SOL    HW125931   0.016   2.571  14.724 -1.7763 -1.2451  3.4890
 4765SOL    HW225932   0.069   2.464  14.800 -1.9190  0.4380 -0.6776
 4766SOL     OW25933   4.127   2.013   6.368  0.0106  0.6512 -0.3866
 4766SOL    HW125934   4.095   2.085   6.313  1.9191  3.0271  1.6618
 4766SOL    HW225935   4.173   2.054   6.440 -2.5544  2.5595  0.1550
 4767SOL     OW25936   4.293   1.891   7.806 -0.0889  0.3789  0.0989
 4767SOL    HW125937   4.262   1.853   7.723  3.0426  0.6492 -1.2034
 4767SOL    HW225938   4.376   1.931   7.779  0.7770 -1.4505  0.0691
 4768SOL     OW25939   0.191   2.512   5.728 -0.1232  0.2221  0.5363
 4768SOL    HW125940   0.196   2.575   5.799 -0.8127  1.9210 -0.9190
 4768SOL    HW225941   0.280   2.526   5.696 -0.1433  0.1929  0.4664
 4769SOL     OW25942   0.291   2.365   9.205 -0.0727  0.1124  0.4364
 4769SOL    HW125943   0.380   2.383   9.238  0.4477  0.1820 -1.0276
 4769SOL    HW225944   0.291   2.422   9.128  0.8426  0.6475  0.8252
 4770SOL     OW25945   3.605   1.034   4.430  0.1854 -0.2042  0.4857
 4770SOL    HW125946   3.549   1.001   4.501  0.1205 -0.2151  0.4301
 4770SOL    HW225947   3.579   0.985   4.352 -3.6574  1.2295  0.8407
 4771SOL     OW25948   3.397   1.444   1.631 -0.4392 -0.7184  0.2929
 4771SOL    HW125949   3.413   1.503   1.557  0.9943 -0.6415  0.6653
 4771SOL    HW225950   3.302   1.451   1.641 -0.3924  1.1967 -0.6916
 4772SOL     OW25951   3.572   0.867   6.161  0.1192  0.0539  0.2803
 4772SOL    HW125952   3.552   0.810   6.235  2.0526 -1.2758 -0.2068
 4772SOL    HW225953   3.628   0.934   6.199  1.9679 -0.1512 -2.0980
 4773SOL     OW25954   0.121   0.748   4.825 -0.4500 -0.3962 -0.1910
 4773SOL    HW125955   0.043   0.747   4.880 -0.6960 -1.2130 -0.5543
 4773SOL    HW225956   0.082   0.714   4.744  0.8954 -1.9978 -0.1878
 4774SOL     OW25957   2.221   2.726   7.353 -0.1319  0.0771  0.4616
 4774SOL    HW125958   2.254   2.693   7.437  2.9227  2.9260  0.4017
 4774SOL    HW225959   2.132   2.702   7.377 -0.0498  0.4360  1.1279
 4775SOL     OW25960   2.360   2.582   8.696  0.1692 -0.0184  0.2560
 4775SOL    HW125961   2.435   2.532   8.667  1.1799  0.1986  2.5046
 4775SOL    HW225962   2.288   2.524   8.720 -1.0787  1.3043 -0.2867
 4776SOL     OW25963   3.880   3.496  10.290 -0.0053 -0.3376  0.2303
 4776SOL    HW125964   3.871   3.402  10.302 -1.5680 -0.0392  1.4794
 4776SOL    HW225965   3.805   3.512  10.233 -1.5262 -0.1693  2.2521
 4777SOL     OW25966   3.117   1.587   6.296  0.8560 -0.3202  0.0346
 4777SOL    HW125967   3.101   1.555   6.208  0.4916  1.8927 -0.6846
 4777SOL    HW225968   3.200   1.548   6.323  0.7102 -2.1789 -2.2159
 4778SOL     OW25969   3.346   4.184  13.797 -0.1432 -0.4635 -0.1489
 4778SOL    HW125970   3.260   4.213  13.764 -0.2910 -0.8934 -0.1376
 4778SOL    HW225971   3.328   4.091  13.805 -1.4793 -0.1398  0.7312
 4779SOL     OW25972   0.157   3.960   6.008  0.2278  0.1819  0.4262
 4779SOL    HW125973   0.211   4.032   5.974  1.1867 -1.5364 -1.7242
 4779SOL    HW225974   0.080   4.007   6.039 -0.4869 -1.7829  1.5903
 4780SOL     OW25975   2.764   3.727   8.875 -0.2301 -0.0142 -0.7105
 4780SOL    HW125976   2.690   3.750   8.931  1.5707  0.5421  1.4489
 4780SOL    HW225977   2.803   3.657   8.928 -0.3591  0.7300  0.3753
 4781SOL     OW25978   1.214   2.581   2.734  0.0442  0.7411 -0.1339
 4781SOL    HW125979   1.208   2.566   2.829 -0.3624 -0.1298 -0.3022
 4781SOL    HW225980   1.286   2.644   2.726 -0.5197  0.9562 -3.2773
 4782SOL     OW25981   2.580   3.601   9.194 -0.2372 -0.1754 -0.6945
 4782SOL    HW125982   2.494   3.606   9.236  0.1590 -0.2790  0.1192
 4782SOL    HW225983   2.627   3.632   9.272 -0.5922 -0.2675 -0.4437
 4783SOL     OW25984   3.138   3.926  11.734 -0.0615 -0.0142 -0.0735
 4783SOL    HW125985   3.097   3.840  11.725 -1.7778  0.7569  0.3743
 4783SOL    HW225986   3.191   3.915  11.813 -0.9418  0.6463  0.6153
 4784SOL     OW25987   4.608   4.723   9.269 -0.2943  0.0557 -0.4948
 4784SOL    HW125988   4.633   4.680   9.187 -4.3754 -0.4112 -1.4493
 4784SOL    HW225989   4.623   4.655   9.334 -0.4588  2.2611  1.8592
 4785SOL     OW25990   4.694   1.822  13.584 -0.3419 -0.5464  0.1972
 4785SOL    HW125991   0.043   1.819  13.620 -0.7956 -0.2364  1.3358
 4785SOL    HW225992   4.647   1.767  13.647 -0.8020 -0.9249 -0.4780
 4786SOL     OW25993   0.478   4.645   2.971  0.4570  0.1670  0.4546
 4786SOL    HW125994   0.562   4.601   2.957  0.0075 -0.6395  0.3150
 4786SOL    HW225995   0.443   4.578   3.030  1.2805 -0.4204  0.2758
 4787SOL     OW25996   0.535   1.961   0.003  0.2896 -0.6348 -0.0218
 4787SOL    HW125997   0.519   2.053  17.736  0.8585 -0.0910  1.9431
 4787SOL    HW225998   0.576   1.936  17.674 -0.7906  2.2421 -1.4120
 4788SOL     OW25999   0.602   0.689   7.704  0.3705 -0.2372 -0.4915
 4788SOL    HW126000   0.677   0.631   7.690  0.2951 -0.5207  0.2788
 4788SOL    HW226001   0.607   0.744   7.626 -2.6092 -0.4472 -0.8195
 4789SOL     OW26002   1.740   3.877   6.727 -0.2698 -0.0433 -0.0133
 4789SOL    HW126003   1.666   3.857   6.784  0.0651 -0.6956  0.2005
 4789SOL    HW226004   1.701   3.864   6.640  2.3626 -0.4506 -1.1524
 4790SOL     OW26005   2.840   1.348   5.625  0.3875  0.1661  0.2074
 4790SOL    HW126006   2.768   1.349   5.688 -0.9402 -1.2169 -1.2702
 4790SOL    HW226007   2.805   1.404   5.555  0.7195 -0.9118 -0.8217
 4791SOL     OW26008   2.659   1.804   2.885  0.5860 -0.3280  0.2461
 4791SOL    HW126009   2.639   1.803   2.978 -0.6210 -0.7023 -0.0224
 4791SOL    HW226010   2.580   1.845   2.848  0.5732 -0.7010 -0.1374
 4792SOL     OW26011   4.254   0.119   3.490  0.5696 -0.0971  0.4794
 4792SOL    HW126012   4.298   0.042   3.527  1.9712  1.5036  2.1671
 4792SOL    HW226013   4.319   0.170   3.442  1.7803 -0.6468  1.5224
 4793SOL     OW26014   1.058   1.650   5.556  0.6842 -0.1780  0.2403
 4793SOL    HW126015   1.145   1.684   5.574  1.0712 -1.5443  0.9622
 4793SOL    HW226016   1.056   1.670   5.463 -3.5216 -0.2357  0.3222
 4794SOL     OW26017   0.160   0.358   7.198 -0.6043  0.0734 -0.1695
 4794SOL    HW126018   0.188   0.374   7.288 -1.1202 -0.3862  0.0770
 4794SOL    HW226019   0.121   0.272   7.215  2.4043 -1.6732 -2.1194
 4795SOL     OW26020   2.168   0.798   1.620 -0.0519  0.0805 -0.2802
 4795SOL    HW126021   2.225   0.790   1.697  0.1489 -0.2620 -0.4630
 4795SOL    HW226022   2.082   0.800   1.663  0.8585 -0.5291  1.5996
 4796SOL     OW26023   4.031   0.958  17.206  0.1895  0.0655 -0.2342
 4796SOL    HW126024   3.999   1.049  17.202  2.3143  0.7035 -3.1811
 4796SOL    HW226025   4.032   0.935  17.113  1.1024 -0.8972  0.0249
 4797SOL     OW26026   1.610   0.188  13.835 -0.3225 -0.2274 -0.1320
 4797SOL    HW126027   1.515   0.200  13.831 -0.3195 -0.0022  0.4789
 4797SOL    HW226028   1.626   0.129  13.762  0.7954  1.1281 -0.9787
 4798SOL     OW26029   2.451   3.828   8.706  0.3946  0.1932  0.4599
 4798SOL    HW126030   2.415   3.916   8.693 -0.3598  0.2317  2.7724
 4798SOL    HW226031   2.475   3.816   8.798  0.9948  1.7956  0.5171
 4799SOL     OW26032   2.941   2.345   3.598  0.2420 -0.2298 -0.0455
 4799SOL    HW126033   3.037   2.343   3.597  0.2222 -1.1876 -0.3498
 4799SOL    HW226034   2.934   2.417   3.536  1.0191  1.2431  1.5798
 4800SOL     OW26035   2.990   4.149  11.657  0.0471 -0.4145  0.0015
 4800SOL    HW126036   3.030   4.063  11.668 -0.6159 -0.9699 -1.9224
 4800SOL    HW226037   2.992   4.184  11.745 -0.3594 -1.1820  0.3195
 4801SOL     OW26038   3.298   1.675   6.799 -0.2195 -0.2706 -0.2496
 4801SOL    HW126039   3.375   1.732   6.807 -0.3579 -0.2862  1.1357
 4801SOL    HW226040   3.307   1.645   6.708 -0.7250 -0.9389 -0.0753
 4802SOL     OW26041   3.142   2.456   4.244 -0.0341 -0.2768 -0.0806
 4802SOL    HW126042   3.132   2.513   4.168 -1.1779  1.0534  1.0672
 4802SOL    HW226043   3.079   2.387   4.221 -0.2268 -0.8156  2.0328
 4803SOL     OW26044   4.010   3.191   5.662  0.0324 -0.5422  0.0933
 4803SOL    HW126045   4.031   3.281   5.637  0.6624 -0.2824  1.6122
 4803SOL    HW226046   3.931   3.206   5.714  0.8623 -0.3608  1.3076
 4804SOL     OW26047   1.901   0.206   9.259 -0.2973 -0.0200 -0.2464
 4804SOL    HW126048   1.815   0.211   9.216 -0.4104 -0.6442 -0.0865
 4804SOL    HW226049   1.922   0.299   9.251 -0.2690  0.1741  1.9356
 4805SOL     OW26050   1.162   2.361   3.877 -0.1431 -0.0551  0.3594
 4805SOL    HW126051   1.249   2.385   3.845 -0.1376 -0.4403  0.0889
 4805SOL    HW226052   1.157   2.273   3.840 -0.3602 -0.4114  1.2370
 4806SOL     OW26053   3.953   4.455   5.697  0.1504  0.3451  0.1228
 4806SOL    HW126054   4.008   4.391   5.743  0.0728 -0.2429 -0.6083
 4806SOL    HW226055   3.912   4.400   5.631 -0.0793 -2.0982  2.2836
 4807SOL     OW26056   4.477   4.542  12.840  0.1914  0.2110  0.0261
 4807SOL    HW126057   4.406   4.550  12.903  0.3012 -1.1655  0.3395
 4807SOL    HW226058   4.534   4.610  12.875  2.7000 -1.5612 -0.6024
 4808SOL     OW26059   4.347   4.517   2.464 -0.6058  0.2245  0.3094
 4808SOL    HW126060   4.321   4.550   2.378 -1.5559 -0.1176  0.4725
 4808SOL    HW226061   4.412   4.449   2.446 -1.6769 -1.1222  1.5657
 4809SOL     OW26062   1.044   0.502   2.865 -0.0664  0.1726 -0.1689
 4809SOL    HW126063   1.052   0.595   2.848 -0.9963  0.3002  0.0750
 4809SOL    HW226064   1.008   0.503   2.954  1.2180 -0.1145  0.3558
 4810SOL     OW26065   0.679   4.466   2.320 -0.2566 -0.0435  0.4975
 4810SOL    HW126066   0.589   4.450   2.291  0.1640  0.5854 -1.1431
 4810SOL    HW226067   0.665   4.458   2.415  0.6682  2.1215  0.8052
 4811SOL     OW26068   0.275   4.299  10.580  0.4502  0.0517  0.1180
 4811SOL    HW126069   0.291   4.205  10.586 -1.0287 -0.3014 -1.4544
 4811SOL    HW226070   0.360   4.336  10.604  0.7639 -1.3400  1.1909
 4812SOL     OW26071   0.945   0.802   7.566  0.2732 -0.5042  0.0199
 4812SOL    HW126072   1.002   0.747   7.511  0.4567 -0.2159 -0.0800
 4812SOL    HW226073   0.876   0.830   7.505  0.1956  2.3543  1.4537
 4813SOL     OW26074   2.409   4.632   9.140  0.2463 -0.1883  0.0639
 4813SOL    HW126075   2.340   4.674   9.089 -1.3981 -0.7933  1.8014
 4813SOL    HW226076   2.382   4.665   9.226 -1.0222 -1.7332  0.2589
 4814SOL     OW26077   1.702   2.044  11.673  0.0460  0.7112  0.5240
 4814SOL    HW126078   1.729   1.968  11.725  2.6611  0.5619 -1.0817
 4814SOL    HW226079   1.686   2.105  11.745  1.1646 -0.1385  1.5065
 4815SOL     OW26080   2.764   4.289   7.847 -0.1790 -0.1595 -0.2124
 4815SOL    HW126081   2.698   4.231   7.886 -0.5275 -0.7074 -1.6122
 4815SOL    HW226082   2.804   4.224   7.788 -1.1444 -1.3052  0.3972
 4816SOL     OW26083   3.922   2.193  17.229  0.3297  0.2084 -0.1612
 4816SOL    HW126084   3.964   2.255  17.170  0.9159  0.3781  0.4446
 4816SOL    HW226085   3.838   2.181  17.183  0.3237 -1.2064  0.2055
 4817SOL     OW26086   4.085   4.150   2.694  0.0363  0.0756  0.0286
 4817SOL    HW126087   4.103   4.070   2.743 -2.6499 -0.8804 -0.5510
 4817SOL    HW226088   3.990   4.159   2.694 -0.1519 -1.9978 -0.4218
 4818SOL     OW26089   3.116   2.507   7.947 -0.0096  0.4652  0.1981
 4818SOL    HW126090   3.070   2.433   7.987  0.7926  0.3517  0.9189
 4818SOL    HW226091   3.173   2.458   7.889  1.3897 -0.3422  2.2679
 4819SOL     OW26092   4.417   3.146   0.526 -0.7917 -0.6383  0.1451
 4819SOL    HW126093   4.362   3.153   0.604 -0.0481 -0.8747  0.6836
 4819SOL    HW226094   4.346   3.134   0.462  0.4461  0.9819 -1.5155
 4820SOL     OW26095   2.572   1.472   1.529 -0.3467  0.0074 -0.2185
 4820SOL    HW126096   2.530   1.430   1.604 -1.0835 -1.9308 -1.7234
 4820SOL    HW226097   2.555   1.564   1.551 -0.5963 -0.1809  0.3738
 4821SOL     OW26098   2.547   1.509  17.156 -0.3127 -0.0311 -0.3441
 4821SOL    HW126099   2.556   1.588  17.104  2.7127  0.2762  0.6404
 4821SOL    HW226100   2.545   1.546  17.244  2.0748 -0.3650 -0.1487
 4822SOL     OW26101   2.840   3.455   1.150  0.0204  0.1077 -0.4844
 4822SOL    HW126102   2.930   3.489   1.142 -0.0218 -0.0574 -1.5620
 4822SOL    HW226103   2.804   3.464   1.063  1.3461 -1.2061 -1.1757
 4823SOL     OW26104   1.956   2.806   3.602 -0.0947 -0.3637 -0.0489
 4823SOL    HW126105   1.970   2.772   3.690  0.7700  3.6981  1.3943
 4823SOL    HW226106   1.968   2.900   3.618  0.0493 -0.4850  0.5468
 4824SOL     OW26107   2.545   4.339   8.449  0.1365  0.3240 -0.0601
 4824SOL    HW126108   2.505   4.386   8.376  0.9254  0.2721 -0.5302
 4824SOL    HW226109   2.551   4.255   8.404  0.1428 -0.5371  1.5593
 4825SOL     OW26110   2.943   2.517   3.399 -0.4213 -0.3857 -0.3378
 4825SOL    HW126111   2.932   2.601   3.353  2.8305 -0.2594 -0.8825
 4825SOL    HW226112   2.908   2.454   3.335 -0.7599  0.3544 -0.8862
 4826SOL     OW26113   1.276   2.932   8.737 -0.0465 -0.4178 -0.5761
 4826SOL    HW126114   1.276   3.024   8.762  0.7867  0.1520 -2.7626
 4826SOL    HW226115   1.359   2.894   8.766 -0.6790 -1.3302  0.0689
 4827SOL     OW26116   2.760   4.080   3.803 -0.5728 -0.7219  0.1719
 4827SOL    HW126117   2.846   4.040   3.812  0.1155  0.7418  0.0400
 4827SOL    HW226118   2.780   4.172   3.819  0.8771 -0.6977 -1.7468
 4828SOL     OW26119   2.746   2.906   5.288 -0.3141  0.3526  0.1329
 4828SOL    HW126120   2.778   2.913   5.378 -1.4566 -1.3522  0.6726
 4828SOL    HW226121   2.777   2.985   5.244 -1.0819  1.6715  1.9741
 4829SOL     OW26122   3.632   1.283   8.974  0.1882 -0.0369  0.5422
 4829SOL    HW126123   3.601   1.202   9.016 -1.1092 -0.5403 -1.3536
 4829SOL    HW226124   3.668   1.317   9.055  1.8505  2.3333 -1.1876
 4830SOL     OW26125   1.009   3.921   7.970 -0.1146  0.0796 -0.6555
 4830SOL    HW126126   1.015   3.996   8.029  1.5635 -0.6142  0.0796
 4830SOL    HW226127   1.100   3.926   7.939 -0.4994  1.0790 -1.5967
 4831SOL     OW26128   4.692   4.692  17.443  0.2192 -0.2254 -0.0581
 4831SOL    HW126129   4.619   4.698  17.380  1.1060 -0.7470 -1.1326
 4831SOL    HW226130   4.702   4.597  17.443 -0.5706 -0.3118 -1.4066
 4832SOL     OW26131   2.405   3.641   5.528 -0.2110  0.3900  0.0715
 4832SOL    HW126132   2.355   3.621   5.449 -1.0592 -2.3770  1.3204
 4832SOL    HW226133   2.381   3.732   5.542  1.1205  0.6535  0.6674
 4833SOL     OW26134   1.436   2.948   7.547 -0.7725  0.0606 -0.4283
 4833SOL    HW126135   1.455   2.957   7.640 -0.7725 -1.0854 -0.3227
 4833SOL    HW226136   1.381   2.869   7.546  0.5201 -0.8649  2.4217
 4834SOL     OW26137   3.374   3.300   6.707 -0.1728 -0.1122 -0.1498
 4834SOL    HW126138   3.376   3.359   6.782  1.3389 -0.6676  0.2445
 4834SOL    HW226139   3.389   3.212   6.742  0.6938  0.2717  0.4501
 4835SOL     OW26140   1.179   0.008  14.507 -0.0196  0.0940  0.3701
 4835SOL    HW126141   1.210   0.004  14.417  2.1301  0.1382  1.1086
 4835SOL    HW226142   1.258   0.051  14.539 -0.8223  1.8829 -0.0699
 4836SOL     OW26143   0.930   3.730   2.698 -0.1152  0.2090  0.5003
 4836SOL    HW126144   0.871   3.776   2.758 -1.2360 -1.5479  0.7194
 4836SOL    HW226145   0.895   3.773   2.619  1.7456  3.0969  1.2098
 4837SOL     OW26146   4.353   2.835   4.308 -0.0898 -0.1765  0.1451
 4837SOL    HW126147   4.279   2.786   4.271  0.1831  0.7461 -1.5968
 4837SOL    HW226148   4.411   2.807   4.238  0.2374 -0.5053  0.5509
 4838SOL     OW26149   2.394   2.163  17.448 -0.2131  0.0757  0.4298
 4838SOL    HW126150   2.380   2.227  17.378 -0.2511  0.8568  1.1441
 4838SOL    HW226151   2.420   2.081  17.407  0.9741  0.1237  1.0710
 4839SOL     OW26152   4.672   3.198   6.360 -0.6618  0.3438  0.7927
 4839SOL    HW126153   4.705   3.215   6.448  1.2396  0.8419 -0.0230
 4839SOL    HW226154   4.613   3.123   6.372  1.4690 -1.2217  1.5037
 4840SOL     OW26155   0.757   1.625   8.478  0.1511 -0.6713 -0.0989
 4840SOL    HW126156   0.746   1.681   8.555 -0.2091  1.1981 -1.5133
 4840SOL    HW226157   0.850   1.640   8.461  0.7723 -3.9513  0.4817
 4841SOL     OW26158   0.178   0.648   9.350  0.3003 -0.3144  0.0279
 4841SOL    HW126159   0.218   0.610   9.272 -1.4198 -0.0759 -0.9847
 4841SOL    HW226160   0.099   0.594   9.354  0.7268 -0.9442 -0.0680
 4842SOL     OW26161   3.270   3.163   3.005 -0.8241  0.0477 -0.0143
 4842SOL    HW126162   3.249   3.256   3.000  2.2592  0.8161  1.6395
 4842SOL    HW226163   3.190   3.135   2.961 -1.6406  1.8886  0.2979
 4843SOL     OW26164   0.788   0.333   6.497  0.5412  0.0400 -0.3555
 4843SOL    HW126165   0.789   0.238   6.496  0.9844  0.0460 -0.4473
 4843SOL    HW226166   0.841   0.351   6.420  0.8844  0.6098  0.0076
 4844SOL     OW26167   4.169   1.360  14.637 -0.6790 -0.4024  0.2156
 4844SOL    HW126168   4.203   1.280  14.596 -0.0348  0.6532 -1.2950
 4844SOL    HW226169   4.107   1.323  14.701 -0.3918 -1.3471 -0.0561
 4845SOL     OW26170   2.227   0.330   5.391 -0.2843  0.0512  0.2857
 4845SOL    HW126171   2.144   0.359   5.429 -1.6781 -2.4396 -0.7839
 4845SOL    HW226172   2.250   0.395   5.325  0.7277  0.4589  1.0582
 4846SOL     OW26173   2.440   2.674   4.575 -0.0614  0.7282  0.1040
 4846SOL    HW126174   2.398   2.754   4.544  0.2665  0.6544 -0.5568
 4846SOL    HW226175   2.389   2.648   4.651  1.1661 -2.1498 -0.0326
 4847SOL     OW26176   3.413   2.522  10.896  0.1446 -0.0808 -0.2090
 4847SOL    HW126177   3.318   2.513  10.888  0.2885 -2.7286  0.9603
 4847SOL    HW226178   3.430   2.428  10.886 -1.5121 -0.1516 -2.4366
 4848SOL     OW26179   4.101   3.665   2.307 -0.4715 -0.2883  0.6741
 4848SOL    HW126180   4.194   3.645   2.296 -0.2362  1.3391 -0.2583
 4848SOL    HW226181   4.090   3.692   2.216 -1.5686 -1.2432  0.5180
 4849SOL     OW26182   1.262   3.199   8.815  0.8663  0.3919  0.2217
 4849SOL    HW126183   1.191   3.229   8.759 -2.6107 -0.2424  4.2677
 4849SOL    HW226184   1.340   3.220   8.764 -0.3602 -0.5534 -1.9986
 4850SOL     OW26185   4.622   0.631  17.747  0.4516 -0.0297 -0.0045
 4850SOL    HW126186   4.530   0.638  17.723  0.8263  2.5303 -0.6692
 4850SOL    HW226187   4.630   0.551   0.046 -1.3619 -0.0717  0.2022
 4851SOL     OW26188   3.187   4.303   6.982 -0.4396  0.2488 -0.1078
 4851SOL    HW126189   3.218   4.284   6.893  1.1274  1.2381  0.2315
 4851SOL    HW226190   3.091   4.297   6.977 -0.3083 -0.2225 -2.0074
 4852SOL     OW26191   1.839   1.469   8.690  0.1919 -0.3933  0.1996
 4852SOL    HW126192   1.800   1.382   8.705 -1.7300  0.5527  0.6266
 4852SOL    HW226193   1.778   1.521   8.742 -1.3642  0.5873 -2.6203
 4853SOL     OW26194   1.651   2.572  16.277 -0.0857  0.5042  0.2341
 4853SOL    HW126195   1.641   2.477  16.276 -2.2301  0.7333 -0.2245
 4853SOL    HW226196   1.657   2.582  16.182 -1.3055  0.8424  0.1875
 4854SOL     OW26197   2.172   1.244   4.279 -0.4861  0.3126  0.2345
 4854SOL    HW126198   2.248   1.185   4.286 -0.9714 -0.0575  2.4710
 4854SOL    HW226199   2.218   1.328   4.273 -2.0519  1.3084  2.3273
 4855SOL     OW26200   4.022   2.750   0.086 -0.1614 -0.7671 -0.1711
 4855SOL    HW126201   4.006   2.657   0.073 -2.4869 -0.7005  2.2780
 4855SOL    HW226202   3.993   2.785   0.002 -0.1453 -1.1019 -0.3164
 4856SOL     OW26203   0.745   0.321   4.471 -0.3516 -0.0605 -0.0344
 4856SOL    HW126204   0.664   0.291   4.511  0.4706 -0.9797  0.9172
 4856SOL    HW226205   0.809   0.329   4.541 -0.9944  3.1367  0.2091
 4857SOL     OW26206   1.561   3.634  17.205  0.0764 -0.0779  0.5614
 4857SOL    HW126207   1.605   3.720  17.205  0.0966 -0.0782  2.5500
 4857SOL    HW226208   1.607   3.584  17.272 -0.2893 -1.6543 -0.3837
 4858SOL     OW26209   2.303   4.442   7.424  0.1543  0.0473 -0.2448
 4858SOL    HW126210   2.255   4.481   7.352  2.3913  0.8840 -1.2767
 4858SOL    HW226211   2.374   4.419   7.364  0.9360 -0.8129  1.0055
 4859SOL     OW26212   3.709   1.722   8.888  0.1476 -0.1238 -0.2932
 4859SOL    HW126213   3.738   1.700   8.799  1.4510  3.6984 -0.8152
 4859SOL    HW226214   3.791   1.715   8.937 -0.5705  1.3772  1.0929
 4860SOL     OW26215   2.126   2.231   8.429  0.6211 -0.5020 -0.4365
 4860SOL    HW126216   2.211   2.189   8.417  0.4509 -1.2090  0.8009
 4860SOL    HW226217   2.127   2.296   8.359  1.2554 -1.5475 -1.3966
 4861SOL     OW26218   0.262   1.759   5.470 -0.2108 -0.3565 -0.4015
 4861SOL    HW126219   0.312   1.759   5.551  1.0822 -2.7879 -1.1983
 4861SOL    HW226220   0.273   1.850   5.443 -0.3450 -1.2546 -3.4918
 4862SOL     OW26221   2.934   0.740   7.006 -1.0676 -0.7062  0.3546
 4862SOL    HW126222   2.879   0.793   7.064  0.1221  0.5293  0.3644
 4862SOL    HW226223   2.888   0.710   6.927 -0.5114 -2.4366  0.7000
 4863SOL     OW26224   4.459   2.708   5.307  0.0014  0.0041  0.6529
 4863SOL    HW126225   4.440   2.633   5.363  0.5225  0.2965  1.2295
 4863SOL    HW226226   4.456   2.667   5.221 -1.8366 -1.6268  1.4973
 4864SOL     OW26227   3.252   1.950   0.762  0.2796 -0.5469  0.3314
 4864SOL    HW126228   3.250   2.030   0.815 -2.1496 -1.3355  1.4123
 4864SOL    HW226229   3.213   1.891   0.827 -2.1112  0.6863  0.0110
 4865SOL     OW26230   4.324   3.812  12.977  0.0107  0.0431  0.4184
 4865SOL    HW126231   4.323   3.834  13.070  1.3102  1.7659  0.0206
 4865SOL    HW226232   4.239   3.850  12.955  0.4719  0.5455 -0.4573
 4866SOL     OW26233   3.148   3.432   8.479  0.2052  0.2426  0.5619
 4866SOL    HW126234   3.199   3.357   8.451  1.5625  0.8172  1.4840
 4866SOL    HW226235   3.080   3.385   8.526 -0.3462 -0.2693 -0.7716
 4867SOL     OW26236   0.378   3.783   7.367 -0.0956  0.2802 -0.4566
 4867SOL    HW126237   0.316   3.816   7.432 -0.5540 -1.6524  0.0845
 4867SOL    HW226238   0.325   3.714   7.328 -0.3114 -0.6097  1.4349
 4868SOL     OW26239   0.348   1.309   5.505 -0.1481  0.2986  0.4384
 4868SOL    HW126240   0.371   1.399   5.482 -1.4358  0.9915  1.9093
 4868SOL    HW226241   0.382   1.260   5.430  2.8286  2.6187  0.2734
 4869SOL     OW26242   4.522   3.431   4.468  0.1067 -0.4926  0.2257
 4869SOL    HW126243   4.453   3.394   4.522 -1.1363  0.9322 -0.3733
 4869SOL    HW226244   4.573   3.359   4.431  0.5502 -0.9440  1.7204
 4870SOL     OW26245   0.307   2.615  11.955 -0.4078 -0.1340 -0.1084
 4870SOL    HW126246   0.229   2.623  12.009 -1.0947 -0.8305 -0.9935
 4870SOL    HW226247   0.285   2.677  11.885  0.4888  0.6680  0.3230
 4871SOL     OW26248   4.519   0.628   9.758  0.1482  0.0801 -0.3663
 4871SOL    HW126249   4.589   0.686   9.726  1.7041 -0.9265  1.2245
 4871SOL    HW226250   4.569   0.572   9.817 -0.2195 -1.4570 -1.4872
 4872SOL     OW26251   0.536   2.097   6.396  0.1967 -0.1937  0.4697
 4872SOL    HW126252   0.503   2.142   6.474 -1.6572 -1.7818  0.6054
 4872SOL    HW226253   0.547   2.012   6.437  0.5903 -1.3912 -2.1168
 4873SOL     OW26254   3.419   3.651   6.998 -0.1155 -0.0129  0.4004
 4873SOL    HW126255   3.443   3.731   7.045  1.3078 -1.1986  1.7108
 4873SOL    HW226256   3.417   3.685   6.909  0.7325  1.0850  0.7996
 4874SOL     OW26257   3.234   3.212   3.633  0.0400  1.0056 -0.3198
 4874SOL    HW126258   3.295   3.281   3.607  3.4778 -1.9644 -0.2652
 4874SOL    HW226259   3.298   3.140   3.633  0.2179  1.1673 -1.8490
 4875SOL     OW26260   0.963   1.269   5.129 -0.2514  0.1609  0.3880
 4875SOL    HW126261   1.004   1.350   5.101  0.6922 -0.2685  0.5233
 4875SOL    HW226262   0.928   1.284   5.217 -0.7299  3.3056 -0.3703
 4876SOL     OW26263   4.029   3.817   6.035  0.5570  0.3502 -0.0393
 4876SOL    HW126264   3.956   3.786   5.981  0.1366  2.3611 -0.6198
 4876SOL    HW226265   4.022   3.773   6.120 -0.2824  1.8277  0.6524
 4877SOL     OW26266   0.187   4.242   2.517 -0.0540 -0.2724  0.6777
 4877SOL    HW126267   0.247   4.317   2.528  0.0090 -0.3009  0.5334
 4877SOL    HW226268   0.197   4.195   2.599  0.3846  0.1800  0.8864
 4878SOL     OW26269   4.708   3.782   4.030  0.3580 -0.3465 -0.0871
 4878SOL    HW126270   4.710   3.686   4.030  1.5312 -0.3286  0.0257
 4878SOL    HW226271   4.613   3.792   4.039  0.3551  1.0305 -1.7124
 4879SOL     OW26272   0.558   2.147  14.619  0.9810  0.5422  0.1404
 4879SOL    HW126273   0.501   2.210  14.662 -1.1813 -0.2632 -1.5788
 4879SOL    HW226274   0.546   2.068  14.671  0.9651  0.9404  0.7428
 4880SOL     OW26275   3.243   0.828   2.982 -0.2659  0.2769  0.2448
 4880SOL    HW126276   3.238   0.777   3.062  1.3450 -1.5422 -0.8211
 4880SOL    HW226277   3.273   0.908   3.026  0.4377  0.5607 -0.7502
 4881SOL     OW26278   2.440   3.372   5.577  0.2746 -0.3877 -0.2094
 4881SOL    HW126279   2.406   3.460   5.564  0.2714 -0.0554  2.0467
 4881SOL    HW226280   2.380   3.311   5.532 -0.6353  0.2458  0.1518
 4882SOL     OW26281   0.994   1.300   1.112 -0.7590  0.2561 -0.0331
 4882SOL    HW126282   1.010   1.344   1.195  0.5911 -0.1438 -0.0765
 4882SOL    HW226283   1.034   1.357   1.045  0.4843  1.7149  1.9399
 4883SOL     OW26284   3.203   1.445  13.491  0.2913  0.4277 -0.0525
 4883SOL    HW126285   3.202   1.460  13.397  2.8404  0.2936 -0.0957
 4883SOL    HW226286   3.135   1.506  13.522 -0.3102 -1.4308  2.3196
 4884SOL     OW26287   4.025   2.255   0.926 -0.6481 -0.0250 -0.0165
 4884SOL    HW126288   4.039   2.312   0.851 -2.1144  1.0518  0.5175
 4884SOL    HW226289   3.964   2.302   0.984  1.6208  3.3776 -0.3974
 4885SOL     OW26290   2.187   2.356   9.427 -0.3835  0.0992 -0.2262
 4885SOL    HW126291   2.092   2.358   9.419 -0.5117 -0.9376  1.0048
 4885SOL    HW226292   2.206   2.392   9.340 -1.4652 -1.3802 -1.0880
 4886SOL     OW26293   1.828   2.610  13.747  0.3299  0.7185 -0.2190
 4886SOL    HW126294   1.735   2.617  13.772  0.5839 -0.2162  0.9899
 4886SOL    HW226295   1.862   2.557  13.819 -2.3707  0.6393  1.0315
 4887SOL     OW26296   3.414   0.832   4.525 -0.2204  0.0090  0.1882
 4887SOL    HW126297   3.457   0.758   4.482  0.2614 -1.0094  2.4325
 4887SOL    HW226298   3.328   0.822   4.484  0.4082 -2.2626 -0.5658
 4888SOL     OW26299   3.660   0.923   2.090 -0.1183 -0.0862  0.0033
 4888SOL    HW126300   3.651   0.904   1.997 -0.0746  0.4176 -0.0988
 4888SOL    HW226301   3.742   0.973   2.091  1.7354 -3.0268 -1.5039
 4889SOL     OW26302   3.066   3.115   9.878 -0.3284  0.0188 -0.2088
 4889SOL    HW126303   3.136   3.133   9.816 -0.3779  2.4527  0.4353
 4889SOL    HW226304   3.123   3.106   9.954  0.6514  1.4193 -0.7847
 4890SOL     OW26305   0.371   0.673   5.228  0.4686  0.2063 -0.1789
 4890SOL    HW126306   0.305   0.614   5.192 -1.2952  2.1729 -0.1598
 4890SOL    HW226307   0.450   0.619   5.227  0.0868 -0.3125 -3.4918
 4891SOL     OW26308   3.549   3.578   4.824 -0.0013  0.0191  0.0206
 4891SOL    HW126309   3.486   3.508   4.806 -0.0553  0.3613 -1.1818
 4891SOL    HW226310   3.607   3.583   4.747 -0.6036 -1.4364 -0.5342
 4892SOL     OW26311   0.256   3.531   4.594  0.4601  0.2991 -0.3224
 4892SOL    HW126312   0.171   3.542   4.636 -0.0180 -3.0914 -0.3596
 4892SOL    HW226313   0.246   3.576   4.510 -0.0530 -2.2981 -1.6734
 4893SOL     OW26314   0.909   0.391  17.289 -0.0089  0.3354  0.9657
 4893SOL    HW126315   0.901   0.353  17.377  0.4859 -1.4865  0.2198
 4893SOL    HW226316   0.913   0.306  17.246 -0.2729  1.4517 -1.2797
 4894SOL     OW26317   0.767   4.133  11.725 -0.1863  0.2082  0.1549
 4894SOL    HW126318   0.797   4.128  11.634 -2.3771 -2.1462 -0.4209
 4894SOL    HW226319   0.821   4.066  11.768  0.4279 -0.4069 -1.5610
 4895SOL     OW26320   4.583   0.589   5.597  0.1916 -0.1510 -0.1257
 4895SOL    HW126321   4.498   0.582   5.554 -0.0920 -0.2538  0.4495
 4895SOL    HW226322   4.608   0.497   5.605 -0.4707 -0.2213  1.0810
 4896SOL     OW26323   1.311   3.379   3.819 -1.1115 -0.8211 -0.0689
 4896SOL    HW126324   1.305   3.430   3.900  0.0230  0.5351 -0.8422
 4896SOL    HW226325   1.404   3.354   3.817 -1.6002 -2.7645  1.2421
 4897SOL     OW26326   1.128   1.867  17.725  0.0273 -0.1193 -0.3905
 4897SOL    HW126327   1.131   1.783  17.680 -1.1214 -0.5670  0.3756
 4897SOL    HW226328   1.053   1.899  17.673  0.9648  2.5569 -0.0731
 4898SOL     OW26329   3.384   4.396   2.420  0.3692 -0.2558  0.0100
 4898SOL    HW126330   3.466   4.348   2.407 -0.2457 -1.3540  0.1649
 4898SOL    HW226331   3.355   4.385   2.329  1.8316 -1.9337 -0.2634
 4899SOL     OW26332   3.781   2.749   6.994 -0.0357 -0.3124  0.8650
 4899SOL    HW126333   3.822   2.676   6.947  1.4668  0.4062  1.0756
 4899SOL    HW226334   3.706   2.706   7.035  1.3555 -4.5328 -0.9624
 4900SOL     OW26335   3.045   2.957   1.826 -0.1817 -1.0955  0.0769
 4900SOL    HW126336   2.954   2.932   1.845  0.7799 -3.9069  0.8870
 4900SOL    HW226337   3.030   3.015   1.751 -0.5525 -0.9132  0.2870
 4901SOL     OW26338   2.900   2.382   5.471 -0.0887  0.6819 -0.0437
 4901SOL    HW126339   2.975   2.430   5.505 -1.8193  2.5748  1.0704
 4901SOL    HW226340   2.833   2.415   5.530  0.8428 -1.3094  2.1190
 4902SOL     OW26341   1.205   3.295  14.070 -0.1134  0.3322 -1.0220
 4902SOL    HW126342   1.252   3.212  14.068 -1.3299 -0.3824  0.0632
 4902SOL    HW226343   1.271   3.346  14.116  0.0185  1.1400 -2.1164
 4903SOL     OW26344   0.677   0.628  17.237  0.1929 -0.0178  0.0610
 4903SOL    HW126345   0.731   0.671  17.304  4.4446  0.8515 -3.9255
 4903SOL    HW226346   0.707   0.538  17.241  0.3969  0.1229  1.6522
 4904SOL     OW26347   3.796   4.319  14.280  0.2095  0.6248 -1.0396
 4904SOL    HW126348   3.707   4.285  14.294  0.9534 -1.5906 -1.6674
 4904SOL    HW226349   3.836   4.241  14.241 -1.0187 -0.5946  0.1407
 4905SOL     OW26350   1.035   4.228  16.583 -0.3874 -0.0156  0.0997
 4905SOL    HW126351   0.956   4.174  16.574  0.2150 -0.7636 -0.5667
 4905SOL    HW226352   0.992   4.312  16.601  1.2163  0.4973  1.5790
 4906SOL     OW26353   3.166   4.607   7.387 -0.8002 -0.9443 -0.2661
 4906SOL    HW126354   3.119   4.533   7.349  0.1408 -1.2507 -0.8632
 4906SOL    HW226355   3.239   4.620   7.325 -0.3700 -3.4337 -0.3032
 4907SOL     OW26356   2.931   3.277  15.992  0.1913 -0.2830 -0.0610
 4907SOL    HW126357   2.866   3.325  15.942 -2.3638 -0.8500  2.7374
 4907SOL    HW226358   3.003   3.272  15.929 -1.0008 -0.7858 -1.3668
 4908SOL     OW26359   1.434   1.530   7.299  0.2593 -1.1559 -0.2858
 4908SOL    HW126360   1.370   1.594   7.329  0.4950 -0.6498 -0.8628
 4908SOL    HW226361   1.453   1.560   7.210  0.6510  2.2918  0.9527
 4909SOL     OW26362   4.269   2.742   3.321  0.0695  0.1082  0.1448
 4909SOL    HW126363   4.283   2.755   3.227  1.8684 -0.7191  0.3062
 4909SOL    HW226364   4.339   2.798   3.356  1.6683 -0.8210 -1.5962
 4910SOL     OW26365   2.660   4.220   6.636 -0.1274 -0.0971 -0.1008
 4910SOL    HW126366   2.686   4.190   6.724 -0.7831 -0.0636  0.1068
 4910SOL    HW226367   2.591   4.155   6.623 -0.7918  0.4342  0.7833
 4911SOL     OW26368   0.027   4.153   6.373 -0.5229  0.1618 -0.3567
 4911SOL    HW126369   4.708   4.094   6.421  0.9030  0.3245  1.5428
 4911SOL    HW226370   4.736   4.165   6.282  0.9558  1.8123 -0.6160
 4912SOL     OW26371   3.581   3.312   2.026 -0.0273  0.1523  0.1093
 4912SOL    HW126372   3.616   3.224   2.036  0.3544  0.5991  2.6898
 4912SOL    HW226373   3.645   3.363   2.076  1.1103 -3.3862  2.2189
 4913SOL     OW26374   3.509   4.725   7.483 -0.4620 -0.3306 -0.0374
 4913SOL    HW126375   3.425   4.715   7.527  1.0354 -0.9126  2.7073
 4913SOL    HW226376   3.516   4.637   7.447  0.4934  0.5057 -1.8894
 4914SOL     OW26377   1.117   1.350   7.078  0.1079  0.3109  0.4698
 4914SOL    HW126378   1.058   1.345   7.003  0.0695  0.7135  0.4719
 4914SOL    HW226379   1.052   1.355   7.149 -0.7340 -3.9559 -0.0006
 4915SOL     OW26380   0.914   3.021   0.959 -0.1262  0.6466 -0.1129
 4915SOL    HW126381   0.998   2.975   0.958 -0.4490  0.0577  0.6072
 4915SOL    HW226382   0.941   3.105   0.921  0.3974  1.0753  1.2033
 4916SOL     OW26383   0.656   2.216  13.092 -0.1635 -0.1984 -0.1918
 4916SOL    HW126384   0.723   2.284  13.085  0.7231 -0.8890  1.6771
 4916SOL    HW226385   0.621   2.229  13.181  2.4896  0.5815  0.7323
 4917SOL     OW26386   1.328   3.742   7.763 -0.3236  0.5534  0.2529
 4917SOL    HW126387   1.270   3.701   7.828 -0.4870 -3.1798 -2.2635
 4917SOL    HW226388   1.337   3.832   7.793  0.2277  0.9141 -0.9996
 4918SOL     OW26389   1.755   2.931  12.467  0.1292  0.4390 -0.1464
 4918SOL    HW126390   1.743   3.025  12.456  2.7792  0.8259  0.2790
 4918SOL    HW226391   1.827   2.920  12.530 -1.0573 -2.1025  0.7599
 4919SOL     OW26392   1.874   3.683  16.810  0.7052  0.7085  0.3876
 4919SOL    HW126393   1.791   3.730  16.819  0.1393 -0.6391  2.1051
 4919SOL    HW226394   1.865   3.604  16.863 -4.0648  0.1995 -1.1345
 4920SOL     OW26395   1.518   4.259  10.355 -0.4110 -0.3018 -0.1672
 4920SOL    HW126396   1.594   4.252  10.412 -0.8423  2.1164  0.7157
 4920SOL    HW226397   1.525   4.348  10.320 -1.8535 -0.1545 -0.0919
 4921SOL     OW26398   2.002   2.637   2.565  0.2000 -0.4106  0.0777
 4921SOL    HW126399   1.975   2.576   2.634 -1.7634  1.5374  1.0241
 4921SOL    HW226400   2.071   2.581   2.530  0.7939  1.7715 -2.2421
 4922SOL     OW26401   1.416   1.398   5.207  0.1566 -0.0469  0.4561
 4922SOL    HW126402   1.434   1.307   5.232  0.3469 -0.0489  0.3125
 4922SOL    HW226403   1.332   1.381   5.165  0.1358 -2.4383  1.4671
 4923SOL     OW26404   4.542   3.318   3.195  0.2286  0.0693 -0.7571
 4923SOL    HW126405   4.510   3.316   3.286  1.8638  0.0618 -0.1841
 4923SOL    HW226406   4.493   3.393   3.159  1.6540  0.6641 -1.4521
 4924SOL     OW26407   2.023   3.555   8.237 -0.8232  0.2883 -0.0903
 4924SOL    HW126408   2.110   3.516   8.233 -0.8356  0.2452  0.0518
 4924SOL    HW226409   2.044   3.649   8.230  0.4227  0.0580  0.5540
 4925SOL     OW26410   3.569   3.061   4.980  0.7094 -0.3026  0.2123
 4925SOL    HW126411   3.506   3.058   5.052  1.8914 -1.1246  1.2195
 4925SOL    HW226412   3.556   2.973   4.946 -0.8780 -0.1328  0.3876
 4926SOL     OW26413   3.575   2.102   4.783  0.1983  0.0143 -0.5526
 4926SOL    HW126414   3.508   2.140   4.840  1.5783 -0.6873  1.5455
 4926SOL    HW226415   3.652   2.130   4.832  0.3434 -0.5640 -0.4507
 4927SOL     OW26416   0.676   4.649  17.038  0.0041  0.5062  0.1453
 4927SOL    HW126417   0.720   4.713  17.094 -0.0919  1.9270 -1.4059
 4927SOL    HW226418   0.622   4.709  16.987 -0.4011 -1.4860 -1.7512
 4928SOL     OW26419   4.228   0.478   2.262 -0.1974  0.2413  0.4529
 4928SOL    HW126420   4.276   0.441   2.188  2.4986  2.4472  1.1131
 4928SOL    HW226421   4.303   0.530   2.292 -1.7324  0.7458  3.3973
 4929SOL     OW26422   3.849   0.867   8.448 -0.2422  0.6227  0.5133
 4929SOL    HW126423   3.845   0.775   8.420 -0.1447  0.3995  1.2195
 4929SOL    HW226424   3.896   0.912   8.379 -0.3660  0.6369  0.4387
 4930SOL     OW26425   4.105   0.758   4.287 -0.6103  0.2315  0.4387
 4930SOL    HW126426   4.093   0.779   4.194 -0.3177  0.4636  0.4502
 4930SOL    HW226427   4.021   0.730   4.322 -0.4366 -0.8949 -0.0691
 4931SOL     OW26428   3.713   4.077   4.365  0.2976  0.3714  0.2145
 4931SOL    HW126429   3.782   4.140   4.344  1.5771 -1.1924 -0.2420
 4931SOL    HW226430   3.640   4.132   4.392 -0.0558 -0.5925  1.2171
 4932SOL     OW26431   1.467   3.810   4.628  0.2746  0.2360 -0.1980
 4932SOL    HW126432   1.372   3.807   4.616  0.5622 -3.2300 -1.6801
 4932SOL    HW226433   1.485   3.891   4.580  0.0798  0.0201 -0.6444
 4933SOL     OW26434   0.917   0.103  10.997  0.1579  0.0884 -0.1976
 4933SOL    HW126435   0.851   0.153  11.045  0.4155  0.2521 -0.0125
 4933SOL    HW226436   0.972   0.170  10.955  0.2491  1.5337  2.2284
 4934SOL     OW26437   1.572   0.339   4.477  0.0539  0.6466  0.0743
 4934SOL    HW126438   1.584   0.433   4.493  0.1171  0.8513 -1.1478
 4934SOL    HW226439   1.477   0.344   4.469  0.2045 -0.4558 -2.2239
 4935SOL     OW26440   3.521   2.667   7.127  0.0689  0.0239 -0.1222
 4935SOL    HW126441   3.474   2.738   7.171  1.0135 -0.1826  1.2223
 4935SOL    HW226442   3.458   2.630   7.064 -1.3641 -0.6255  1.7093
 4936SOL     OW26443   0.738   0.431   1.192 -0.2575  0.1015 -0.1768
 4936SOL    HW126444   0.769   0.516   1.160  1.0667 -1.0036 -1.8417
 4936SOL    HW226445   0.796   0.367   1.151 -1.5348 -0.7429 -0.6628
 4937SOL     OW26446   4.573   3.754  14.491 -0.4306 -0.2010 -0.2903
 4937SOL    HW126447   4.535   3.841  14.504 -1.0538 -0.4372 -0.5356
 4937SOL    HW226448   4.496   3.709  14.458 -1.0113 -0.9277  2.0235
 4938SOL     OW26449   0.805   0.989   3.938 -0.2003  0.0246 -0.2007
 4938SOL    HW126450   0.890   1.020   3.907 -0.6571  0.5496 -0.9296
 4938SOL    HW226451   0.803   0.901   3.899 -3.5589 -0.4630  1.0768
 4939SOL     OW26452   2.280   4.632   9.395  0.1384  0.6268 -0.2245
 4939SOL    HW126453   2.259   4.698   9.461  0.4397  0.2756  0.2193
 4939SOL    HW226454   2.201   4.625   9.341  0.2544 -0.0161 -0.3109
 4940SOL     OW26455   1.725   1.872  12.026  0.0062  0.2141 -0.0716
 4940SOL    HW126456   1.756   1.963  12.024  1.7595 -0.3760  1.0640
 4940SOL    HW226457   1.810   1.829  12.029 -0.1671 -0.0429  0.9287
 4941SOL     OW26458   2.995   3.088   3.194  0.1565  0.4633  0.0276
 4941SOL    HW126459   2.983   3.137   3.113  0.3922 -0.7514 -0.7290
 4941SOL    HW226460   3.047   3.158   3.235  1.2961  0.8683 -2.1382
 4942SOL     OW26461   3.973   0.051   8.864 -0.1042  0.3281  0.7990
 4942SOL    HW126462   4.012   0.126   8.910 -1.1878  1.7090 -0.5694
 4942SOL    HW226463   4.054   4.739   8.853  0.2257  0.6372  1.7460
 4943SOL     OW26464   0.208   3.915  17.357 -0.3118 -1.1121  0.0121
 4943SOL    HW126465   0.284   3.943  17.409  0.1609 -1.6138 -0.4140
 4943SOL    HW226466   0.244   3.933  17.270  2.0035  0.8925  1.3816
 4944SOL     OW26467   0.574   4.435  15.036  0.0361  0.3316  0.1224
 4944SOL    HW126468   0.574   4.529  15.052 -0.3616  0.4419 -0.5064
 4944SOL    HW226469   0.659   4.405  15.004 -0.1240  0.5312 -0.4917
 4945SOL     OW26470   0.155   4.279  13.213  0.3552  0.1993 -0.1228
 4945SOL    HW126471   0.078   4.223  13.223  1.1869 -0.9136  0.0377
 4945SOL    HW226472   0.207   4.230  13.150 -0.6077 -0.0845 -0.6939
 4946SOL     OW26473   0.504   2.992   7.700 -0.0159  0.2705  0.1311
 4946SOL    HW126474   0.526   2.917   7.646 -0.2844 -0.3764  0.9184
 4946SOL    HW226475   0.431   2.960   7.754 -0.9832  1.3858 -0.5155
 4947SOL     OW26476   3.027   3.617   6.449  0.1802  0.0990 -0.4541
 4947SOL    HW126477   3.027   3.535   6.499  0.3809  0.9437  0.9556
 4947SOL    HW226478   2.948   3.655   6.488 -1.8550 -1.7036 -2.9332
 4948SOL     OW26479   1.678   3.552  14.250 -0.0125 -0.2745 -0.0168
 4948SOL    HW126480   1.729   3.506  14.183  1.7928 -1.6146  2.2612
 4948SOL    HW226481   1.665   3.640  14.216 -2.9542 -1.2536 -1.4253
 4949SOL     OW26482   4.020   0.984   2.714  0.3155  0.1294  0.4759
 4949SOL    HW126483   3.958   0.913   2.731  2.1696 -2.1621 -2.4853
 4949SOL    HW226484   3.987   1.049   2.777 -0.3451  1.7856 -1.5881
 4950SOL     OW26485   4.098   0.045   5.042 -0.2490  0.4809  0.0615
 4950SOL    HW126486   4.185   0.008   5.060 -1.5007 -1.7903  1.2744
 4950SOL    HW226487   4.073   0.090   5.123  1.5428 -0.1516  0.9657
 4951SOL     OW26488   2.318   3.098   3.050  0.4897  0.0694  0.5613
 4951SOL    HW126489   2.227   3.075   3.069  0.1465  0.6073 -0.4064
 4951SOL    HW226490   2.349   3.008   3.043 -1.4345 -0.6433  1.0374
 4952SOL     OW26491   3.609   1.099  17.307  0.1173  0.3507  0.6558
 4952SOL    HW126492   3.660   1.063  17.380 -2.3746 -2.4311  1.0096
 4952SOL    HW226493   3.516   1.101  17.329 -0.5530 -1.0146 -2.0207
 4953SOL     OW26494   3.408   1.671   1.423  0.2306 -0.2346 -0.0993
 4953SOL    HW126495   3.466   1.633   1.357  1.1874 -2.1392  1.8447
 4953SOL    HW226496   3.378   1.752   1.381  0.3316 -0.4394 -0.5739
 4954SOL     OW26497   0.781   1.871   4.023  0.0081  0.4204 -0.0339
 4954SOL    HW126498   0.794   1.776   4.031  3.0453  0.7089 -1.9638
 4954SOL    HW226499   0.797   1.880   3.930 -1.6824  1.2870 -0.2427
 4955SOL     OW26500   0.940   1.936   8.624  0.1678 -0.1011  0.0314
 4955SOL    HW126501   1.015   1.984   8.659 -0.0882  0.3624 -0.0457
 4955SOL    HW226502   0.974   1.912   8.538 -0.6068  1.3623 -0.6921
 4956SOL     OW26503   4.413   1.474   5.242  0.4285  0.7660  0.2970
 4956SOL    HW126504   4.477   1.516   5.184 -1.7600  0.1421 -2.5433
 4956SOL    HW226505   4.432   1.381   5.225  1.0113  1.1243 -1.0558
 4957SOL     OW26506   3.023   0.685  10.497  0.6407 -0.4872  0.0984
 4957SOL    HW126507   3.052   0.600  10.463 -1.0565 -0.9848 -0.1206
 4957SOL    HW226508   3.101   0.711  10.545  1.3498 -1.9503 -0.2732
 4958SOL     OW26509   2.397   2.994   9.484  0.4843  0.1387 -0.4135
 4958SOL    HW126510   2.381   2.906   9.519  0.2327  0.2608 -0.2236
 4958SOL    HW226511   2.453   3.016   9.558  0.1882  0.3002 -0.2406
 4959SOL     OW26512   2.487   0.489   4.051  0.4777 -0.1993  0.2566
 4959SOL    HW126513   2.514   0.529   4.134 -0.0622 -1.2487  0.9404
 4959SOL    HW226514   2.559   0.500   3.989  1.2577  1.0404  1.3900
 4960SOL     OW26515   2.579   0.467   7.684 -0.8183  0.6173  0.0990
 4960SOL    HW126516   2.552   0.545   7.635 -0.6658  0.8609  0.4031
 4960SOL    HW226517   2.637   0.513   7.745  0.4306 -0.0936 -0.5555
 4961SOL     OW26518   4.524   2.915   5.570 -0.1834 -0.3407  0.1316
 4961SOL    HW126519   4.600   2.862   5.596 -0.8234 -1.3429 -0.0393
 4961SOL    HW226520   4.460   2.845   5.582 -0.2329  0.1123  2.5229
 4962SOL     OW26521   2.947   2.003   6.180 -0.5731  0.5972 -0.0490
 4962SOL    HW126522   2.988   2.026   6.097  0.5079 -0.6587  0.1419
 4962SOL    HW226523   2.959   1.909   6.192  0.9660  0.7852 -0.2227
 4963SOL     OW26524   0.850   1.583  17.283 -0.7026 -0.1595  0.3464
 4963SOL    HW126525   0.800   1.656  17.248  1.4437  1.8113  1.3145
 4963SOL    HW226526   0.805   1.506  17.249 -0.6543  0.1653 -0.4433
 4964SOL     OW26527   0.559   2.735   7.250 -0.2618 -0.0035 -0.1510
 4964SOL    HW126528   0.583   2.677   7.321 -2.8300 -0.1528  0.5649
 4964SOL    HW226529   0.647   2.770   7.234  1.1542 -1.9772  3.5443
 4965SOL     OW26530   0.189   3.555  10.336  0.5250  0.3021 -0.0850
 4965SOL    HW126531   0.220   3.466  10.351 -1.0020 -0.0649  0.8946
 4965SOL    HW226532   0.099   3.540  10.310 -0.0326 -1.4774  2.9062
 4966SOL     OW26533   0.747   1.674   5.994 -0.2535 -0.2774 -0.0548
 4966SOL    HW126534   0.699   1.732   5.934  0.5741 -0.3404 -0.7828
 4966SOL    HW226535   0.721   1.584   5.977 -1.4056  0.4339 -2.0598
 4967SOL     OW26536   0.619   2.991   2.485  0.4866  0.6500 -0.0630
 4967SOL    HW126537   0.549   2.932   2.459  1.4176 -0.0810 -0.8987
 4967SOL    HW226538   0.689   2.969   2.424  2.1639  2.2791  1.2592
 4968SOL     OW26539   3.191   4.642   3.658  0.1651 -0.1952 -0.3212
 4968SOL    HW126540   3.268   4.599   3.621  0.4403 -0.8409  1.0159
 4968SOL    HW226541   3.223   4.671   3.743  1.8235 -0.4243 -0.8804
 4969SOL     OW26542   4.326   4.649   5.141  0.2429  0.1548  0.3608
 4969SOL    HW126543   4.280   4.593   5.203  0.7702 -0.5652  0.1049
 4969SOL    HW226544   4.337   4.725   5.198 -0.1333 -0.6240  1.4582
 4970SOL     OW26545   4.583   1.541  14.011  0.3303 -0.0630 -0.1253
 4970SOL    HW126546   4.671   1.548  14.048  0.1459  1.1537  0.0530
 4970SOL    HW226547   4.533   1.568  14.088 -0.8605  3.4365 -2.1198
 4971SOL     OW26548   4.712   0.060   1.811 -0.0247 -0.1567 -0.8099
 4971SOL    HW126549   4.624   0.097   1.822  0.3710 -0.1352  2.2411
 4971SOL    HW226550   4.697   4.728   1.873 -1.7769  0.4645 -0.5162
 4972SOL     OW26551   4.679   0.238   9.332  0.0002 -0.3937  0.2394
 4972SOL    HW126552   4.724   0.229   9.416  0.2130 -0.9025  0.0720
 4972SOL    HW226553   4.661   0.145   9.316  1.0396 -0.7124  0.9628
 4973SOL     OW26554   4.085   3.847   3.365  0.2850 -0.3251  0.1246
 4973SOL    HW126555   4.091   3.901   3.286 -1.0978  0.8396  0.8261
 4973SOL    HW226556   4.084   3.761   3.323  0.5191  0.8668 -2.3683
 4974SOL     OW26557   2.685   0.043   9.475 -0.6082  0.2640 -0.4184
 4974SOL    HW126558   2.661   0.071   9.563 -0.1795 -1.3857  0.2204
 4974SOL    HW226559   2.627   0.094   9.419 -1.6117 -0.8504 -0.3960
 4975SOL     OW26560   1.365   4.605   5.098  0.3532  0.0746  0.4282
 4975SOL    HW126561   1.445   4.651   5.122  0.5850 -0.8668  1.4654
 4975SOL    HW226562   1.306   4.654   5.157 -3.4801 -1.1471 -2.3851
 4976SOL     OW26563   2.002   4.429   8.943 -0.1304 -0.2569  0.2986
 4976SOL    HW126564   2.061   4.354   8.938  1.8733  1.2139  1.8359
 4976SOL    HW226565   1.999   4.429   9.039 -2.5939  0.1304  0.2105
 4977SOL     OW26566   1.117   2.839   5.644  0.1732 -0.1613  0.4136
 4977SOL    HW126567   1.205   2.820   5.611  0.0769 -2.3838  1.4082
 4977SOL    HW226568   1.105   2.933   5.629 -0.6193 -0.4871 -0.9469
 4978SOL     OW26569   1.023   1.339  11.535 -0.3928  0.0650 -0.3566
 4978SOL    HW126570   1.090   1.406  11.525  0.7674 -0.9510  0.5177
 4978SOL    HW226571   1.016   1.304  11.446 -0.8211 -3.4992  1.0714
 4979SOL     OW26572   3.676   2.938   8.754  0.1597  0.5443 -0.2670
 4979SOL    HW126573   3.647   3.014   8.704 -0.9175  0.3439  0.0300
 4979SOL    HW226574   3.605   2.936   8.819  1.4585  0.8542  1.1473
 4980SOL     OW26575   1.259   4.601   6.680 -0.1607  0.1682  0.1544
 4980SOL    HW126576   1.312   4.566   6.608  1.7758 -0.0931  1.6939
 4980SOL    HW226577   1.284   4.545   6.754  0.6451 -2.7754 -2.3342
 4981SOL     OW26578   3.768   1.154   6.704 -0.0696 -0.3722  0.2132
 4981SOL    HW126579   3.677   1.182   6.707  0.0202  0.1056 -1.6125
 4981SOL    HW226580   3.761   1.066   6.743  0.0999  0.8703  3.0499
 4982SOL     OW26581   3.438   0.291   4.051  0.8537  0.3037  0.1060
 4982SOL    HW126582   3.516   0.298   4.106  1.7711 -1.6111 -0.9444
 4982SOL    HW226583   3.446   0.362   3.988  0.0476 -0.1080 -0.4579
 4983SOL     OW26584   0.977   1.991  17.285  0.0162  0.0710  0.1986
 4983SOL    HW126585   0.950   1.934  17.213 -0.0300 -0.9115  0.9915
 4983SOL    HW226586   0.914   2.063  17.278  0.5985  0.9261  3.6420
 4984SOL     OW26587   1.464   1.678   4.402 -0.0658  0.1569  0.1190
 4984SOL    HW126588   1.529   1.646   4.465  0.1900  0.0972 -0.1740
 4984SOL    HW226589   1.386   1.691   4.456 -0.0049 -1.5444  0.6390
 4985SOL     OW26590   1.469   3.764   3.088  0.6558 -0.1653 -0.3930
 4985SOL    HW126591   1.526   3.739   3.015  0.6238 -1.2785 -0.0443
 4985SOL    HW226592   1.387   3.723   3.060 -0.0390  0.4259  0.7533
 4986SOL     OW26593   4.621   0.879   8.680  0.2297  0.0095  0.1426
 4986SOL    HW126594   4.655   0.884   8.591 -0.5155  1.0814 -0.0902
 4986SOL    HW226595   4.534   0.851   8.650  0.9815 -2.5315  0.3793
 4987SOL     OW26596   3.535   0.946   4.176  0.4305  0.6691  0.0609
 4987SOL    HW126597   3.564   0.879   4.113 -1.0330 -0.9040  1.0532
 4987SOL    HW226598   3.453   0.979   4.139 -1.1704 -3.2769  0.0719
 4988SOL     OW26599   3.216   4.546  11.032  0.0499 -0.1266  0.9632
 4988SOL    HW126600   3.188   4.454  11.033  1.0991 -0.4490  0.6760
 4988SOL    HW226601   3.185   4.561  11.122  1.7121  0.7994  1.3643
 4989SOL     OW26602   2.000   4.424   9.218 -0.3785  0.0224  0.1502
 4989SOL    HW126603   2.017   4.407   9.310  1.3570 -0.0316 -0.1859
 4989SOL    HW226604   1.984   4.518   9.214  0.2545  0.1741  1.2823
 4990SOL     OW26605   4.471   1.606   7.004  0.1609  0.2735  0.4345
 4990SOL    HW126606   4.443   1.514   7.001 -0.7893  0.5667  0.4496
 4990SOL    HW226607   4.389   1.654   7.019  0.3995  0.9746 -0.5491
 4991SOL     OW26608   3.552   1.493   6.644  0.3227 -0.6426  0.6371
 4991SOL    HW126609   3.628   1.467   6.593  0.5788  0.3115  0.5381
 4991SOL    HW226610   3.567   1.588   6.640 -0.3771 -0.6335 -1.4959
 4992SOL     OW26611   1.364   0.713   5.728  0.6263  0.2161 -0.6753
 4992SOL    HW126612   1.324   0.686   5.646  0.7248  1.1132 -1.0063
 4992SOL    HW226613   1.391   0.628   5.765 -0.1045  0.2791  0.0126
 4993SOL     OW26614   4.070   4.555  15.684 -0.0667  0.4549  0.4482
 4993SOL    HW126615   4.134   4.533  15.751  0.2681 -2.0167 -0.6990
 4993SOL    HW226616   4.046   4.470  15.647  3.8434 -0.8100  0.8343
 4994SOL     OW26617   3.934   3.345   3.301  0.2975 -0.0202  0.3657
 4994SOL    HW126618   3.892   3.310   3.222  1.8151 -0.7962 -0.1142
 4994SOL    HW226619   3.865   3.400   3.336  0.1866 -0.8670  1.4876
 4995SOL     OW26620   3.224   0.833  14.836 -0.0383  0.1819 -0.1450
 4995SOL    HW126621   3.228   0.835  14.932 -2.0445  0.8791 -0.0606
 4995SOL    HW226622   3.130   0.827  14.819  0.8090 -3.9249 -3.3587
 4996SOL     OW26623   0.228   3.225   5.872 -0.2732  0.3514 -0.1572
 4996SOL    HW126624   0.257   3.268   5.792 -1.4469  0.6321 -0.4200
 4996SOL    HW226625   0.255   3.134   5.861 -0.7892 -0.0522  1.8198
 4997SOL     OW26626   2.277   0.755   3.904 -0.1089 -0.0412  0.1262
 4997SOL    HW126627   2.327   0.823   3.948  0.4047 -0.5806  0.3656
 4997SOL    HW226628   2.338   0.737   3.833 -0.8911 -1.0437 -0.2931
 4998SOL     OW26629   4.425   0.953   1.554 -0.0955  0.3856 -0.3070
 4998SOL    HW126630   4.390   0.956   1.642 -1.4446  1.4204 -0.8829
 4998SOL    HW226631   4.449   1.044   1.537  3.1387 -0.9240 -2.7927
 4999SOL     OW26632   2.129   3.372  13.990 -0.6162  0.0188 -0.2417
 4999SOL    HW126633   2.163   3.448  13.941  0.8924 -0.6992 -0.3133
 4999SOL    HW226634   2.197   3.359  14.055 -2.0761  1.2688  1.5389
 5000SOL     OW26635   1.128   3.877  12.754 -0.7527  0.4979  0.2244
 5000SOL    HW126636   1.159   3.884  12.844 -0.9120  0.4690  0.2821
 5000SOL    HW226637   1.052   3.935  12.750 -0.2584  1.1625  0.4517
 5001SOL     OW26638   3.428   0.393  12.393  0.6225  1.0198 -0.4831
 5001SOL    HW126639   3.356   0.390  12.331 -0.9891 -0.2931  1.4328
 5001SOL    HW226640   3.477   0.311  12.382  1.9149  1.1803  3.8028
 5002SOL     OW26641   3.391   4.433   5.076 -0.3479  0.1509  0.2345
 5002SOL    HW126642   3.439   4.445   5.158 -0.4162  0.8733  0.1624
 5002SOL    HW226643   3.311   4.478   5.101 -1.9194 -2.7009  0.3410
 5003SOL     OW26644   3.353   2.401  15.004  0.1399  0.0964 -0.4985
 5003SOL    HW126645   3.382   2.385  14.914  3.9538  0.1998  0.7108
 5003SOL    HW226646   3.407   2.472  15.039 -2.1519  1.8466 -0.5228
 5004SOL     OW26647   0.352   4.695   5.076  0.3759  0.0673 -0.8129
 5004SOL    HW126648   0.447   4.691   5.082  0.2906 -0.5180  0.1284
 5004SOL    HW226649   0.327   4.604   5.094 -1.5222  0.7658  0.1018
 5005SOL     OW26650   2.727   0.238   4.802 -0.4304 -0.2297  0.3362
 5005SOL    HW126651   2.639   0.202   4.801 -0.3409 -0.3217 -2.6524
 5005SOL    HW226652   2.775   0.177   4.746 -3.1080 -0.6481 -1.4618
 5006SOL     OW26653   2.396   1.453  16.294 -0.6089  0.5418  0.4192
 5006SOL    HW126654   2.466   1.458  16.229 -0.2559  1.7927  0.9025
 5006SOL    HW226655   2.403   1.543  16.326 -1.0072  0.5089  0.5977
 5007SOL     OW26656   3.407   3.162   5.237 -0.6308  0.7381 -0.2030
 5007SOL    HW126657   3.330   3.184   5.185  0.5136  1.4430 -1.6051
 5007SOL    HW226658   3.467   3.237   5.243 -3.1379  2.6633  0.9761
 5008SOL     OW26659   0.961   2.487  15.507  0.4169  0.4743  0.1084
 5008SOL    HW126660   0.896   2.517  15.571  0.4315  0.8910 -0.0759
 5008SOL    HW226661   0.945   2.549  15.436  0.5856 -0.3198 -0.6155
 5009SOL     OW26662   2.497   3.997  10.317 -0.0764  0.1952 -0.2325
 5009SOL    HW126663   2.512   4.081  10.274  2.3375  0.5287  1.2828
 5009SOL    HW226664   2.529   3.943  10.243 -0.1329 -1.7103  1.1290
 5010SOL     OW26665   1.444   1.619   5.034 -0.1228  0.1083  0.2934
 5010SOL    HW126666   1.532   1.656   5.041  0.3352 -0.8827 -0.1143
 5010SOL    HW226667   1.450   1.540   5.088 -1.1283 -0.8466 -0.9978
 5011SOL     OW26668   1.581   4.537  10.390  0.4732 -0.4259 -0.7466
 5011SOL    HW126669   1.549   4.624  10.411  0.4577 -0.1566 -1.9231
 5011SOL    HW226670   1.617   4.514  10.476  3.6515 -0.3348 -2.0810
 5012SOL     OW26671   0.954   3.430  12.016  0.6025  0.2906  0.2039
 5012SOL    HW126672   1.014   3.436  12.090  0.7782  0.9740  0.0146
 5012SOL    HW226673   0.952   3.335  12.004  1.0382  0.1797  1.0377
 5013SOL     OW26674   3.528   2.702   5.849  0.4157  0.4970 -1.2376
 5013SOL    HW126675   3.445   2.747   5.831  0.0301 -1.0462 -3.3903
 5013SOL    HW226676   3.526   2.620   5.799  0.0184 -1.0690  1.3409
 5014SOL     OW26677   3.056   1.836   5.448 -0.3449 -0.0098  0.3114
 5014SOL    HW126678   3.061   1.870   5.359 -0.4286  0.7218  0.5862
 5014SOL    HW226679   3.091   1.748   5.436  0.7850  0.5322 -0.3616
 5015SOL     OW26680   1.223   2.532   4.916  0.2978  0.0554  0.0932
 5015SOL    HW126681   1.258   2.515   4.828  1.1332  1.0074  0.2445
 5015SOL    HW226682   1.251   2.619   4.942 -0.0722  0.8197 -2.0718
 5016SOL     OW26683   3.089   0.893   4.099  0.2978  0.2223  0.6009
 5016SOL    HW126684   3.088   0.943   4.180 -2.3511  0.0677  0.6632
 5016SOL    HW226685   3.164   0.942   4.066 -1.2843  2.3283  0.1265
 5017SOL     OW26686   1.593   3.638   7.592  0.3629 -0.5201 -0.1323
 5017SOL    HW126687   1.563   3.634   7.502  0.3945 -4.3079  0.0199
 5017SOL    HW226688   1.516   3.643   7.649 -1.2359  0.6542 -2.3918
 5018SOL     OW26689   3.722   4.281   3.692  0.0042  0.1513  0.7843
 5018SOL    HW126690   3.714   4.189   3.721 -0.7126 -0.5116 -1.5529
 5018SOL    HW226691   3.694   4.271   3.601 -1.9590  0.4810  1.3521
 5019SOL     OW26692   0.056   0.952   7.912  0.2905  0.0974  0.0044
 5019SOL    HW126693   0.083   0.886   7.976 -0.3606 -0.1930 -0.0229
 5019SOL    HW226694   0.013   0.907   7.840  0.5336 -1.5788  0.9009
 5020SOL     OW26695   3.399   4.238   7.374  0.2575  0.2107 -0.8032
 5020SOL    HW126696   3.468   4.223   7.308 -1.2629  1.5733 -2.7221
 5020SOL    HW226697   3.323   4.237   7.316  0.2805  1.7725 -0.8699
 5021SOL     OW26698   1.639   0.058  13.609 -0.2667  0.2799 -0.1168
 5021SOL    HW126699   1.667   0.045  13.518  1.7180  1.6018  0.3064
 5021SOL    HW226700   1.544   0.046  13.611 -0.0321 -1.0362  2.5202
 5022SOL     OW26701   2.485   3.762   1.363  0.3674  0.0379 -0.1307
 5022SOL    HW126702   2.466   3.716   1.281  0.0144 -0.9429  0.4999
 5022SOL    HW226703   2.577   3.785   1.350 -0.2894  3.8573  2.2151
 5023SOL     OW26704   1.748   3.726   8.433 -0.2619  0.9225  0.5000
 5023SOL    HW126705   1.723   3.737   8.341  1.3679  1.2960  0.1014
 5023SOL    HW226706   1.677   3.681   8.479 -0.5938  1.5316  0.5771
 5024SOL     OW26707   2.967   4.563   0.852 -0.0398  0.1622 -0.4428
 5024SOL    HW126708   2.921   4.643   0.827 -0.1536  0.3438  0.3621
 5024SOL    HW226709   2.899   4.495   0.850  0.5411 -0.5001  2.0445
 5025SOL     OW26710   2.485   0.106   7.810  0.1496 -1.1975 -0.1726
 5025SOL    HW126711   2.526   0.165   7.873 -3.7320 -1.4680  2.5776
 5025SOL    HW226712   2.561   0.058   7.777  0.5381 -0.7114  0.0044
 5026SOL     OW26713   1.199   3.085   2.729 -0.2953  0.1823  0.4217
 5026SOL    HW126714   1.195   3.150   2.659 -0.1828 -1.6294 -1.2657
 5026SOL    HW226715   1.249   3.125   2.800  0.9021 -0.3209 -0.1396
 5027SOL     OW26716   4.490   4.703  17.266  0.0896  0.3673 -0.0852
 5027SOL    HW126717   4.427   0.016  17.216  0.8109  1.4631  0.1419
 5027SOL    HW226718   4.488   4.620  17.220 -0.5307  1.6189 -2.3028
 5028SOL     OW26719   2.689   2.393   6.818 -0.4429  0.3045  0.4067
 5028SOL    HW126720   2.644   2.319   6.778 -0.6247  1.7155 -2.0318
 5028SOL    HW226721   2.623   2.460   6.840 -1.3892  0.6260 -3.4349
 5029SOL     OW26722   2.337   0.776   4.959 -0.8908 -0.5533 -0.1259
 5029SOL    HW126723   2.361   0.698   4.909 -1.4400 -0.8837  0.1248
 5029SOL    HW226724   2.362   0.850   4.903  0.8270 -1.3949 -0.4556
 5030SOL     OW26725   2.263   2.567  15.915 -0.4215  0.6623  0.2761
 5030SOL    HW126726   2.309   2.549  15.834  1.8034  2.7933  1.0810
 5030SOL    HW226727   2.242   2.660  15.905 -0.5841  0.8061  1.8079
 5031SOL     OW26728   3.523   4.415   6.350 -0.2324  0.1766 -0.5705
 5031SOL    HW126729   3.472   4.432   6.271 -2.4976  2.3319  1.3441
 5031SOL    HW226730   3.483   4.333   6.378 -1.1276  2.0622  3.5468
 5032SOL     OW26731   4.527   1.804  15.065 -0.1206 -0.0949 -0.5989
 5032SOL    HW126732   4.588   1.853  15.121  2.0727 -1.4802 -1.7915
 5032SOL    HW226733   4.585   1.805  14.989 -0.2951  1.8883 -0.7115
 5033SOL     OW26734   3.349   3.770   8.010  0.4955  0.0520  0.1717
 5033SOL    HW126735   3.444   3.771   8.001  0.6570 -0.5179  1.7388
 5033SOL    HW226736   3.348   3.752   8.104 -1.6453 -1.4361 -0.1378
 5034SOL     OW26737   1.111   3.012   7.591 -0.6466 -0.4768  0.0886
 5034SOL    HW126738   1.203   3.015   7.564 -0.7570  1.0264 -0.1162
 5034SOL    HW226739   1.123   3.036   7.683  0.3863 -1.0294  0.0996
 5035SOL     OW26740   1.823   0.358   5.679  0.4890 -0.1332  0.2707
 5035SOL    HW126741   1.783   0.289   5.733 -0.1126  1.3087  1.6603
 5035SOL    HW226742   1.873   0.411   5.741 -0.3144 -0.2890  1.0578
 5036SOL     OW26743   0.789   0.051   6.167  0.0693  0.4000  0.7078
 5036SOL    HW126744   0.800   4.697   6.147 -0.6796 -0.0357  2.2968
 5036SOL    HW226745   0.704   0.079   6.134  0.3285  1.6660  1.1400
 5037SOL     OW26746   2.457   3.995   2.052 -0.3339  0.3082  0.1894
 5037SOL    HW126747   2.456   3.915   2.105 -0.0477  1.0850  1.3627
 5037SOL    HW226748   2.549   4.022   2.049  0.3176 -1.9640 -0.5136
 5038SOL     OW26749   3.504   4.441   5.322  0.1859 -0.9020  0.5312
 5038SOL    HW126750   3.442   4.388   5.372 -1.2571  1.3043  1.0780
 5038SOL    HW226751   3.523   4.498   5.396  0.8550 -0.3559 -0.0586
 5039SOL     OW26752   3.097   3.609   4.831 -0.0033 -0.8064  0.6749
 5039SOL    HW126753   3.122   3.517   4.839  2.6221 -0.1859 -0.2935
 5039SOL    HW226754   3.002   3.609   4.832 -0.0059  1.4817 -0.1104
 5040SOL     OW26755   1.043   2.892   4.069 -0.0054 -0.2786 -0.2456
 5040SOL    HW126756   1.100   2.968   4.069  1.7853 -1.6298 -0.7000
 5040SOL    HW226757   0.988   2.932   4.001  1.6736  0.7469 -0.9903
 5041SOL     OW26758   1.657   1.650   1.661  0.0528 -0.2802 -0.0901
 5041SOL    HW126759   1.740   1.673   1.702  0.3727  0.1278 -0.9573
 5041SOL    HW226760   1.592   1.634   1.730 -1.1761  0.6315 -1.0283
 5042SOL     OW26761   4.624   0.712   5.015 -0.5913  0.0523 -0.2503
 5042SOL    HW126762   4.584   0.785   5.062 -1.6669 -0.9784  0.4524
 5042SOL    HW226763   4.628   0.644   5.081 -0.2529  1.2004  0.8999
 5043SOL     OW26764   0.459   1.896  12.958  0.4672 -0.0409 -0.6257
 5043SOL    HW126765   0.484   1.808  12.931 -0.0809 -0.1286 -0.8489
 5043SOL    HW226766   0.512   1.952  12.901  0.5190  0.9608  0.4132
 5044SOL     OW26767   4.431   2.868   7.541  0.2396 -0.2475  0.1580
 5044SOL    HW126768   4.414   2.902   7.628  1.9812  0.8960  0.0579
 5044SOL    HW226769   4.520   2.833   7.549 -0.5569 -1.8123  2.0898
 5045SOL     OW26770   3.270   2.305   6.486  0.0240  0.1796 -0.4355
 5045SOL    HW126771   3.326   2.241   6.442 -1.2232 -1.1290 -0.1189
 5045SOL    HW226772   3.187   2.258   6.475  0.5232 -0.6610 -0.6220
 5046SOL     OW26773   2.257   3.515   0.763 -0.0250 -0.0965  0.3125
 5046SOL    HW126774   2.337   3.553   0.727  0.0777  1.0480  1.7349
 5046SOL    HW226775   2.225   3.475   0.682  0.9715 -1.7888  0.7556
 5047SOL     OW26776   4.413   0.340   1.754 -0.4267  0.4958 -0.0353
 5047SOL    HW126777   4.341   0.396   1.725 -0.1607  1.0897  0.4429
 5047SOL    HW226778   4.407   0.274   1.685  1.3688  2.1300 -1.7583
 5048SOL     OW26779   0.573   0.153   5.229 -0.1352 -0.2013  0.2074
 5048SOL    HW126780   0.552   0.061   5.241  1.7730 -0.2206  3.4662
 5048SOL    HW226781   0.666   0.157   5.252  0.1109  0.4729 -0.9245
 5049SOL     OW26782   4.055   2.236   5.164  0.0400 -0.5707  0.6093
 5049SOL    HW126783   4.144   2.202   5.175  1.2672  2.3755 -0.3695
 5049SOL    HW226784   4.075   2.324   5.133 -0.5327 -0.5298  0.3525
 5050SOL     OW26785   2.902   4.404  13.283 -0.3931  0.8399 -0.4241
 5050SOL    HW126786   2.874   4.336  13.220  3.9321 -0.5985 -0.7769
 5050SOL    HW226787   2.975   4.442  13.236  0.4327  0.5748  0.6564
 5051SOL     OW26788   1.971   2.881  12.704 -0.3114  0.6460 -0.1230
 5051SOL    HW126789   1.910   2.895  12.777  0.8205  3.2729  0.2973
 5051SOL    HW226790   2.049   2.873  12.759  0.1836 -0.8801 -1.0498
 5052SOL     OW26791   2.952   0.521   2.140 -0.2229  0.1433  0.0350
 5052SOL    HW126792   3.022   0.479   2.090  2.0285  3.0106  0.7607
 5052SOL    HW226793   2.964   0.613   2.118  0.1681 -0.1262 -0.8823
 5053SOL     OW26794   3.898   2.405   3.500  0.6332 -0.4755  0.0723
 5053SOL    HW126795   3.907   2.411   3.595  3.6690 -1.1309 -0.1645
 5053SOL    HW226796   3.929   2.490   3.467  1.8891 -0.4344  1.3414
 5054SOL     OW26797   2.735   0.282   2.791 -0.5789 -0.1286  0.0588
 5054SOL    HW126798   2.773   0.237   2.716 -0.4168  0.5153 -0.2431
 5054SOL    HW226799   2.813   0.318   2.833 -0.5529 -0.7700  0.5638
 5055SOL     OW26800   3.659   2.884   5.260 -0.0751  0.6906 -0.2033
 5055SOL    HW126801   3.736   2.827   5.251 -1.6048 -1.8195  2.7588
 5055SOL    HW226802   3.696   2.972   5.263 -0.1056  0.5546  3.4014
 5056SOL     OW26803   3.430   3.145   8.835  0.4236 -0.3138 -0.1044
 5056SOL    HW126804   3.414   3.216   8.897  0.9302  0.0113 -0.3466
 5056SOL    HW226805   3.343   3.118   8.805  0.6830 -0.6096 -0.6009
 5057SOL     OW26806   4.459   3.474   6.895 -0.0200  0.3219  0.2199
 5057SOL    HW126807   4.420   3.449   6.979  1.3566  0.1294  0.7974
 5057SOL    HW226808   4.468   3.569   6.902 -0.6744  0.4679 -0.8605
 5058SOL     OW26809   2.265   0.972   4.667 -0.3134 -0.1717  0.1242
 5058SOL    HW126810   2.346   0.972   4.717 -0.7718  0.6254  0.8708
 5058SOL    HW226811   2.273   1.054   4.618 -3.0902  0.5884  0.9031
 5059SOL     OW26812   3.998   3.874   6.971 -0.1712  0.0115 -0.1725
 5059SOL    HW126813   3.984   3.846   6.881  2.1918 -1.2201 -0.1584
 5059SOL    HW226814   3.938   3.820   7.023 -3.5249  3.9189  0.0777
 5060SOL     OW26815   3.998   2.757  13.751 -0.5507  0.3113  0.1157
 5060SOL    HW126816   4.042   2.673  13.739 -0.9527  0.1377 -0.1162
 5060SOL    HW226817   4.061   2.818  13.712  0.8645  0.6748  2.9470
 5061SOL     OW26818   4.091   1.576  14.059 -0.2875 -0.3135 -0.6004
 5061SOL    HW126819   4.173   1.619  14.083 -1.6400  1.8957  0.0853
 5061SOL    HW226820   4.034   1.649  14.081  1.4588  0.3109  1.8301
 5062SOL     OW26821   1.358   0.466   3.275  0.4289 -0.0282  0.3340
 5062SOL    HW126822   1.332   0.375   3.285  0.9727 -0.2826 -0.6173
 5062SOL    HW226823   1.268   0.498   3.273 -0.3325 -2.1704  0.6785
 5063SOL     OW26824   1.049   4.527  11.215  0.0036  0.3676  0.4812
 5063SOL    HW126825   1.008   4.501  11.298 -0.5518 -1.9328 -0.5214
 5063SOL    HW226826   1.119   4.462  11.215 -1.6984 -1.4979 -1.5098
 5064SOL     OW26827   0.793   0.977   5.271 -0.1318 -0.4142  0.0985
 5064SOL    HW126828   0.725   0.955   5.208 -0.2929  0.7513 -0.1216
 5064SOL    HW226829   0.867   0.927   5.237 -1.4509 -1.5765 -1.0237
 5065SOL     OW26830   1.693   4.071   2.604  0.0148  0.3328  0.1872
 5065SOL    HW126831   1.747   4.127   2.549 -0.9667  0.1547 -0.9565
 5065SOL    HW226832   1.603   4.089   2.576  0.2145 -2.9843 -2.5740
 5066SOL     OW26833   1.485   0.364   6.964  0.3289 -0.1881  0.2048
 5066SOL    HW126834   1.432   0.375   7.043  1.6173  0.0890  1.0280
 5066SOL    HW226835   1.556   0.326   7.015 -0.0202  1.2311  1.7546
 5067SOL     OW26836   3.135   1.792   0.946  0.1544 -0.6466 -0.5860
 5067SOL    HW126837   3.073   1.729   0.907  0.3459 -1.7136  0.8148
 5067SOL    HW226838   3.214   1.739   0.941 -0.2021 -1.1579 -0.8627
 5068SOL     OW26839   1.356   0.880   4.929  0.3333 -0.1858  0.0577
 5068SOL    HW126840   1.412   0.929   4.869 -2.4172 -0.2239 -2.5228
 5068SOL    HW226841   1.270   0.918   4.911  0.6793  0.9773  0.8452
 5069SOL     OW26842   4.550   0.267  13.708 -0.0364  0.5076  0.2220
 5069SOL    HW126843   4.488   0.332  13.744  0.2510  0.5946  0.5643
 5069SOL    HW226844   4.579   0.230  13.791 -4.5840 -1.0675  1.0721
 5070SOL     OW26845   1.307   4.524   8.387 -0.3182 -0.2497 -0.5017
 5070SOL    HW126846   1.255   4.589   8.435  0.2007 -1.5769  1.8380
 5070SOL    HW226847   1.234   4.463   8.379 -0.3535 -0.2548 -0.1358
 5071SOL     OW26848   0.659   3.551   8.902  0.1229  0.2871  0.2300
 5071SOL    HW126849   0.630   3.510   8.983 -1.8511  1.3044  0.0487
 5071SOL    HW226850   0.577   3.584   8.864  0.8608  1.0706 -0.6953
 5072SOL     OW26851   0.477   4.681   2.238  0.0615  0.5539  0.0033
 5072SOL    HW126852   0.406   0.003   2.215 -0.6650  0.0685  0.9721
 5072SOL    HW226853   0.447   4.600   2.197  0.1350  0.0040  1.0494
 5073SOL     OW26854   1.420   1.948  11.803  0.1807 -0.0634 -0.3812
 5073SOL    HW126855   1.422   2.018  11.867 -1.1074  0.3394 -0.7935
 5073SOL    HW226856   1.447   1.873  11.856  1.2989 -0.3217 -1.3098
 5074SOL     OW26857   0.264   2.225   6.041  0.4057  0.4105  0.4585
 5074SOL    HW126858   0.317   2.278   6.101  0.9671 -0.1456  0.4611
 5074SOL    HW226859   0.298   2.251   5.955 -1.5754  2.5115  0.3067
 5075SOL     OW26860   3.461   3.053   1.255  0.3435  0.5124  0.1734
 5075SOL    HW126861   3.510   3.007   1.323  0.7342 -1.0357 -1.1436
 5075SOL    HW226862   3.529   3.063   1.187 -0.9385 -1.7421 -1.4387
 5076SOL     OW26863   3.542   1.291   4.385 -0.2178  0.2389 -0.3431
 5076SOL    HW126864   3.565   1.342   4.463  0.4512 -1.2689  0.4479
 5076SOL    HW226865   3.564   1.202   4.414 -0.0168  1.0222  1.9010
 5077SOL     OW26866   0.277   2.164   2.384 -0.1361  0.5837 -0.1456
 5077SOL    HW126867   0.324   2.213   2.317  1.1825  0.8067  0.9748
 5077SOL    HW226868   0.207   2.125   2.331  1.1424  0.2896 -1.6188
 5078SOL     OW26869   0.110   4.531  13.093  0.1041 -0.0183  0.0637
 5078SOL    HW126870   0.115   4.513  12.999  1.9144  0.3368  0.0874
 5078SOL    HW226871   0.132   4.448  13.136  1.7767 -0.1851 -1.1334
 5079SOL     OW26872   1.377   3.291   2.977  0.5781 -0.7569  0.0319
 5079SOL    HW126873   1.464   3.264   2.948  1.1147  1.1267 -0.1184
 5079SOL    HW226874   1.346   3.335   2.898  1.0703 -3.0505 -1.4062
 5080SOL     OW26875   2.731   3.941   4.753 -0.1006  0.2357  0.5203
 5080SOL    HW126876   2.787   3.934   4.830 -0.2089  2.0634  0.7624
 5080SOL    HW226877   2.745   4.033   4.732 -0.8135 -0.1557 -1.6380
 5081SOL     OW26878   2.386   0.555   4.793 -0.0941  0.4143 -0.0897
 5081SOL    HW126879   2.358   0.531   4.705  0.0374 -1.6028  0.4077
 5081SOL    HW226880   2.478   0.579   4.797  1.2127 -3.9815 -4.7516
 5082SOL     OW26881   1.056   4.243   6.725 -0.1073 -0.1971  0.1936
 5082SOL    HW126882   1.003   4.166   6.743 -0.8799  0.4851  0.7984
 5082SOL    HW226883   1.053   4.288   6.809 -0.9345 -0.8407  0.5060
 5083SOL     OW26884   2.160   3.802   9.149  0.0146 -0.8949  0.4811
 5083SOL    HW126885   2.156   3.760   9.234  1.3247  0.3512  1.1579
 5083SOL    HW226886   2.216   3.747   9.094 -0.1079 -0.6151  0.0730
 5084SOL     OW26887   0.147   4.519  16.829 -0.7617  0.3697 -0.5550
 5084SOL    HW126888   0.172   4.608  16.855 -4.2170  0.4864  2.3296
 5084SOL    HW226889   0.153   4.480  16.916 -0.7292  5.4881  1.7271
 5085SOL     OW26890   4.621   1.385   5.966 -0.2728 -0.0203 -0.3733
 5085SOL    HW126891   4.699   1.426   5.928 -1.4224  2.3302 -0.1636
 5085SOL    HW226892   4.645   1.373   6.058  0.7517  3.0692 -0.2622
 5086SOL     OW26893   0.224   0.877   4.152 -0.6715  0.4630  0.2436
 5086SOL    HW126894   0.169   0.897   4.228 -0.1723  0.9650  0.4678
 5086SOL    HW226895   0.182   0.946   4.100 -1.7520 -1.6728 -1.7597
 5087SOL     OW26896   2.816   2.963   6.866 -0.2432  0.3630 -0.9536
 5087SOL    HW126897   2.766   2.895   6.911 -1.0297  0.9753 -0.8938
 5087SOL    HW226898   2.900   2.957   6.911 -0.6480 -0.4785 -0.3068
 5088SOL     OW26899   3.803   3.448   7.499 -0.2046 -0.9204  0.0899
 5088SOL    HW126900   3.797   3.505   7.576  0.4725  0.4332 -0.8447
 5088SOL    HW226901   3.822   3.358   7.526  0.9501 -1.1696 -1.5153
 5089SOL     OW26902   4.709   2.379  13.411 -0.2850 -0.5734 -0.0388
 5089SOL    HW126903   0.036   2.429  13.362  0.8134 -1.5910  0.3807
 5089SOL    HW226904   4.635   2.399  13.354  1.6433 -0.0872 -2.3789
 5090SOL     OW26905   3.448   2.073  15.787  0.5119 -0.0808 -0.4897
 5090SOL    HW126906   3.450   1.978  15.775  0.8563 -0.0762 -0.4677
 5090SOL    HW226907   3.535   2.089  15.824 -0.1858  2.1789  0.1876
 5091SOL     OW26908   1.061   0.969   8.719  0.2362 -0.0461  0.0785
 5091SOL    HW126909   1.138   1.025   8.705  0.7119 -1.2252 -2.1004
 5091SOL    HW226910   1.098   0.895   8.768  2.6586  1.5497  0.6607
 5092SOL     OW26911   4.427   4.119   1.604 -0.2258  0.0187  0.6256
 5092SOL    HW126912   4.429   4.188   1.537 -2.0546  1.6647  2.2467
 5092SOL    HW226913   4.359   4.157   1.659 -3.0980 -2.2749 -1.3447
 5093SOL     OW26914   1.737   3.272  17.715 -0.3937 -0.2930 -0.4224
 5093SOL    HW126915   1.750   3.179  17.700  2.5891  0.3356 -1.7087
 5093SOL    HW226916   1.651   3.271   0.002  0.1452  0.3283  0.7215
 5094SOL     OW26917   2.212   2.748   9.106  0.4010 -0.4554 -0.3034
 5094SOL    HW126918   2.227   2.830   9.154 -0.7749  1.0233 -2.4773
 5094SOL    HW226919   2.196   2.781   9.018 -0.8470  0.4312  0.2629
 5095SOL     OW26920   2.630   0.907   7.982  0.5200 -0.6013 -0.0854
 5095SOL    HW126921   2.720   0.936   7.962  0.8826  0.0491  2.5855
 5095SOL    HW226922   2.622   0.817   7.950 -3.4468 -0.4935  0.7171
 5096SOL     OW26923   0.953   3.435   5.926 -0.0819 -0.8063 -0.3536
 5096SOL    HW126924   0.988   3.368   5.867  1.1610 -1.0281  0.6446
 5096SOL    HW226925   0.868   3.393   5.941 -0.9807  1.3364  0.5918
 5097SOL     OW26926   0.886   4.390   6.528  0.4582  0.0012  0.7829
 5097SOL    HW126927   0.835   4.309   6.523 -1.0480  1.2945 -4.3223
 5097SOL    HW226928   0.950   4.348   6.586  2.4410 -0.0628 -1.4382
 5098SOL     OW26929   2.990   3.878   9.758  0.4371 -0.0486 -0.8654
 5098SOL    HW126930   2.994   3.961   9.806  2.1960 -0.2074 -0.7292
 5098SOL    HW226931   2.897   3.856   9.755 -0.2321  2.5935  0.7664
 5099SOL     OW26932   3.931   0.659   5.898  0.0360 -0.0694 -0.7318
 5099SOL    HW126933   3.839   0.686   5.902  0.3396  0.6253  1.3001
 5099SOL    HW226934   3.970   0.695   5.978  1.6342 -2.1150 -0.6091
 5100SOL     OW26935   1.591   2.636   3.041 -0.0042  0.2291  0.2727
 5100SOL    HW126936   1.647   2.561   3.060 -0.1920  0.0579  0.1515
 5100SOL    HW226937   1.505   2.595   3.034  0.1933 -0.3945  1.6559
 5101SOL     OW26938   1.146   0.843   2.324 -0.0038  0.3676  0.1836
 5101SOL    HW126939   1.055   0.862   2.345 -1.3121 -2.4078 -2.9699
 5101SOL    HW226940   1.130   0.792   2.245  0.4893 -0.0150  0.3291
 5102SOL     OW26941   3.941   2.473   6.071 -0.4413  0.3153 -0.3346
 5102SOL    HW126942   3.948   2.442   5.981  1.3375 -0.9421  0.2372
 5102SOL    HW226943   3.850   2.503   6.065 -0.2104  0.9739 -0.6216
 5103SOL     OW26944   2.838   3.641   0.575  0.1044  0.2922 -0.0978
 5103SOL    HW126945   2.854   3.547   0.575  0.6002  0.3684 -1.6817
 5103SOL    HW226946   2.793   3.651   0.491  0.1187  2.7039  0.1564
 5104SOL     OW26947   3.983   4.687   2.564  0.1368  0.3256 -0.0233
 5104SOL    HW126948   3.982   4.603   2.611 -0.5642  1.3994  1.8804
 5104SOL    HW226949   4.028   0.001   2.629  0.8419 -2.0490  1.4237
 5105SOL     OW26950   0.236   1.061  16.178  0.2007 -0.5617  0.3416
 5105SOL    HW126951   0.321   1.066  16.136  1.2868 -1.2630  2.4592
 5105SOL    HW226952   0.198   1.146  16.156 -0.8242 -0.3929  2.7558
 5106SOL     OW26953   1.026   4.267   9.361 -0.7339 -0.1151 -0.2103
 5106SOL    HW126954   1.048   4.184   9.403 -2.8088 -0.4118  0.3303
 5106SOL    HW226955   1.018   4.332   9.431 -0.8795 -0.2415 -0.1089
 5107SOL     OW26956   0.424   3.602   8.733 -0.0833 -0.1615 -0.5949
 5107SOL    HW126957   0.396   3.677   8.681 -3.8026 -1.6869 -0.7744
 5107SOL    HW226958   0.347   3.609   8.790 -0.5104 -0.9931 -1.0650
 5108SOL     OW26959   2.223   1.518   5.872  0.2572 -0.1483  0.3434
 5108SOL    HW126960   2.232   1.426   5.849 -0.6195 -0.0852 -0.2532
 5108SOL    HW226961   2.144   1.528   5.818 -0.1124 -2.9957  0.3799
 5109SOL     OW26962   2.313   3.532  14.225 -0.2021 -0.1823  0.3034
 5109SOL    HW126963   2.347   3.492  14.145  0.9308 -0.6132  0.9972
 5109SOL    HW226964   2.325   3.456  14.282 -2.6801  0.7368  2.0553
 5110SOL     OW26965   0.101   1.626   1.098 -0.1463 -0.3089 -0.2338
 5110SOL    HW126966   0.165   1.563   1.066  0.1358  0.2737 -0.8198
 5110SOL    HW226967   0.046   1.648   1.023  2.7157  1.5065 -1.8024
 5111SOL     OW26968   1.481   0.342   7.745 -0.2773  0.1542  0.1072
 5111SOL    HW126969   1.481   0.370   7.836 -1.6346 -0.7469  0.3923
 5111SOL    HW226970   1.417   0.404   7.710  0.6636  0.6054 -0.8090
 5112SOL     OW26971   3.413   4.374  16.203  0.5072 -0.0266  0.0344
 5112SOL    HW126972   3.429   4.301  16.143  0.0119  0.5505 -0.7959
 5112SOL    HW226973   3.418   4.335  16.290  1.7717  1.0459  0.4318
 5113SOL     OW26974   1.279   0.673   1.862  0.1619 -0.3519  0.2061
 5113SOL    HW126975   1.245   0.637   1.780  0.5487 -0.9590  0.3129
 5113SOL    HW226976   1.354   0.726   1.835  1.3625 -3.1183 -1.9093
 5114SOL     OW26977   2.278   1.077   6.933  0.0299  0.4998 -0.3465
 5114SOL    HW126978   2.245   1.090   6.844  0.4252  0.6410 -0.4719
 5114SOL    HW226979   2.304   0.984   6.935  1.3503  0.8942  0.8538
 5115SOL     OW26980   0.257   4.446  17.232  0.2690 -0.6118 -0.7199
 5115SOL    HW126981   0.286   4.396  17.308 -1.0544  1.2950  1.0570
 5115SOL    HW226982   0.332   4.502  17.212  0.2642  0.0216  0.9482
 5116SOL     OW26983   3.782   0.594   7.425 -0.3661  0.2252  0.5598
 5116SOL    HW126984   3.836   0.548   7.489  2.0659  3.8243  1.0962
 5116SOL    HW226985   3.698   0.568   7.463 -1.2819  2.3665  0.0530
 5117SOL     OW26986   3.767   4.525   6.907  0.5017  0.1193 -0.3241
 5117SOL    HW126987   3.788   4.478   6.987  0.8712 -0.7273 -0.9232
 5117SOL    HW226988   3.712   4.457   6.868  1.1280 -0.0880 -0.8355
 5118SOL     OW26989   4.399   4.006  14.370  0.5548 -0.1795  0.9510
 5118SOL    HW126990   4.350   3.984  14.450  0.0756  0.6337  0.8788
 5118SOL    HW226991   4.361   4.093  14.357 -0.4213 -0.5036  1.6099
 5119SOL     OW26992   0.710   4.041   7.952  0.2396 -0.3731  0.2858
 5119SOL    HW126993   0.639   4.059   7.891 -0.3957  0.0608  1.1467
 5119SOL    HW226994   0.754   4.126   7.957 -0.3368  0.0371 -1.8597
 5120SOL     OW26995   2.979   0.972   2.387  0.0790 -0.2071 -0.6532
 5120SOL    HW126996   3.069   0.942   2.373  1.4907  2.3905  3.0350
 5120SOL    HW226997   2.955   0.912   2.458 -2.4173  0.6146 -0.8181
 5121SOL     OW26998   1.017   0.574   3.723  0.4226 -0.5615 -0.0724
 5121SOL    HW126999   1.016   0.484   3.754  0.1784 -0.5779 -0.1301
 5121SOL    HW227000   1.017   0.627   3.803 -0.2637  2.6564 -2.1791
 5122SOL     OW27001   0.930   0.271   3.486 -0.1705  0.4581 -0.1136
 5122SOL    HW127002   0.994   0.310   3.545 -1.3195  0.2217  1.2800
 5122SOL    HW227003   0.920   0.179   3.511 -0.4882 -0.1214 -2.3568
 5123SOL     OW27004   1.652   3.989  15.480 -0.1732 -0.1306 -0.5885
 5123SOL    HW127005   1.562   3.957  15.483  0.2452 -1.6066 -3.3630
 5123SOL    HW227006   1.655   4.037  15.396  0.7037 -1.8832 -1.5487
 5124SOL     OW27007   1.015   1.452   1.717 -0.6009  0.0687 -0.2172
 5124SOL    HW127008   1.092   1.494   1.680  0.2842 -0.0713  1.4828
 5124SOL    HW227009   1.051   1.427   1.802  0.1805  2.0694  0.0405
 5125SOL     OW27010   1.547   0.587   3.953  0.1956 -0.1879  0.1643
 5125SOL    HW127011   1.540   0.680   3.931 -1.3000 -0.4152 -0.3170
 5125SOL    HW227012   1.467   0.548   3.917 -1.8101  2.7086  1.4278
 5126SOL     OW27013   2.936   1.276   3.761 -0.0298  0.8038 -0.2577
 5126SOL    HW127014   2.932   1.283   3.665  1.3766  0.4314 -0.3353
 5126SOL    HW227015   2.844   1.255   3.781  0.6588  0.0456  2.1143
 5127SOL     OW27016   2.673   2.511  15.667  0.1486 -0.3339  0.0482
 5127SOL    HW127017   2.720   2.473  15.741  1.5212 -0.7289 -1.0261
 5127SOL    HW227018   2.741   2.496  15.602  1.0064 -0.1802  0.9075
 5128SOL     OW27019   2.788   1.627   2.181 -0.0761  0.5265  0.4125
 5128SOL    HW127020   2.818   1.704   2.229  0.1427  1.1582 -0.7403
 5128SOL    HW227021   2.768   1.573   2.258 -1.0363  1.3539  0.7339
 5129SOL     OW27022   3.225   2.994   5.820 -0.3179  0.3665 -0.0479
 5129SOL    HW127023   3.269   3.010   5.903  0.0778  0.1442 -0.2153
 5129SOL    HW227024   3.298   2.949   5.779  0.1096  1.4060 -0.4473
 5130SOL     OW27025   2.637   1.501   5.762  0.2674  0.0907 -0.1994
 5130SOL    HW127026   2.615   1.469   5.850 -2.1800 -1.0649 -1.2126
 5130SOL    HW227027   2.579   1.449   5.707 -1.2120 -0.9124  2.2799
 5131SOL     OW27028   4.123   1.415   2.859  0.3514  0.2428 -0.6440
 5131SOL    HW127029   4.199   1.389   2.911 -0.7923  1.3346  1.5465
 5131SOL    HW227030   4.063   1.347   2.889 -0.9939  1.4401 -0.6279
 5132SOL     OW27031   0.404   3.541   5.620 -0.0817  0.3223  0.2939
 5132SOL    HW127032   0.400   3.625   5.574  0.6805  1.0950  1.6153
 5132SOL    HW227033   0.497   3.517   5.629  0.5695  1.7621 -2.7843
 5133SOL     OW27034   0.808   2.376   0.875  0.3772  0.2109  0.5635
 5133SOL    HW127035   0.713   2.383   0.885  0.3425 -0.1966  0.5014
 5133SOL    HW227036   0.809   2.341   0.786 -0.9840 -0.7658  0.9423
 5134SOL     OW27037   2.550   4.280   3.417  0.4863  0.2555 -0.1848
 5134SOL    HW127038   2.559   4.375   3.417  2.1472  0.0954  1.0383
 5134SOL    HW227039   2.495   4.262   3.341 -1.2571 -1.7973  1.5395
 5135SOL     OW27040   4.050   1.380   5.642 -0.0456  0.5028  0.4523
 5135SOL    HW127041   4.005   1.417   5.565  1.4840  1.2160 -0.1101
 5135SOL    HW227042   3.975   1.344   5.689  0.0187  0.6692  0.6812
 5136SOL     OW27043   4.409   1.449  14.806 -0.1554 -0.3488 -0.3213
 5136SOL    HW127044   4.358   1.425  14.729  2.2112 -1.8825 -1.4302
 5136SOL    HW227045   4.464   1.518  14.769 -0.7641 -1.4421 -3.2540
 5137SOL     OW27046   2.003   1.563   5.726  0.5581  0.2822 -0.1682
 5137SOL    HW127047   1.991   1.500   5.655 -1.6991 -1.9532  2.2024
 5137SOL    HW227048   1.950   1.636   5.694 -1.4412 -1.9216 -1.8850
 5138SOL     OW27049   1.914   0.136  11.866 -0.3837 -0.6466  0.5021
 5138SOL    HW127050   1.846   0.069  11.856 -0.1191 -1.0767  1.5117
 5138SOL    HW227051   1.986   0.088  11.907  0.2060  0.5401  0.8557
 5139SOL     OW27052   3.915   1.319   2.258  0.5250 -0.1157  0.4508
 5139SOL    HW127053   3.942   1.319   2.350  1.5089 -0.8948  0.1624
 5139SOL    HW227054   4.001   1.327   2.216 -0.1945 -3.3069 -1.6674
 5140SOL     OW27055   1.969   4.132   5.290  0.0514 -0.0714  0.4449
 5140SOL    HW127056   1.929   4.169   5.212 -2.0310  0.0508  1.5635
 5140SOL    HW227057   1.967   4.206   5.350 -1.1169  0.2261  0.0353
 5141SOL     OW27058   0.067   3.419   4.272  0.1141 -0.6071 -0.4248
 5141SOL    HW127059   0.160   3.414   4.295  0.3543  1.2837 -1.0498
 5141SOL    HW227060   0.038   3.339   4.317 -1.5320  0.1283 -0.1732
 5142SOL     OW27061   1.288   3.187   7.192 -0.0171 -0.0923  0.2790
 5142SOL    HW127062   1.249   3.272   7.210 -1.0602 -0.0652 -2.1207
 5142SOL    HW227063   1.209   3.139   7.168  0.4518 -0.1063 -1.2639
 5143SOL     OW27064   4.225   3.250   3.096  0.2537  0.1906 -0.4829
 5143SOL    HW127065   4.311   3.214   3.072  0.1569 -0.3926  0.0347
 5143SOL    HW227066   4.190   3.169   3.134 -2.1961  1.5216  0.0529
 5144SOL     OW27067   3.537   1.311   3.025 -0.7250 -0.2719 -0.2362
 5144SOL    HW127068   3.583   1.286   3.105 -2.2876 -0.4039  0.6142
 5144SOL    HW227069   3.533   1.406   3.038  3.3123 -0.3645  1.7806
 5145SOL     OW27070   1.129   2.081  14.513  0.4026 -0.1936  1.5422
 5145SOL    HW127071   1.085   2.140  14.452  2.4401 -1.4074 -1.0834
 5145SOL    HW227072   1.216   2.105  14.483  0.3230 -1.3078  0.4207
 5146SOL     OW27073   0.925   2.646   2.522 -0.1259 -0.6639  0.5496
 5146SOL    HW127074   0.943   2.597   2.442  3.5515 -0.4066  1.2034
 5146SOL    HW227075   0.965   2.729   2.497 -2.1656 -0.1927 -1.0807
 5147SOL     OW27076   1.821   0.551   2.531  0.4382 -0.5054  0.2449
 5147SOL    HW127077   1.866   0.544   2.447 -2.6278  0.0151 -1.4055
 5147SOL    HW227078   1.838   0.638   2.566  0.2556  0.6546 -2.5864
 5148SOL     OW27079   0.797   0.222   7.171 -0.0460  0.7558 -0.3613
 5148SOL    HW127080   0.718   0.277   7.170 -0.9168 -0.4974 -0.8411
 5148SOL    HW227081   0.857   0.289   7.203 -0.3064  0.7619  0.1277
 5149SOL     OW27082   2.868   1.092   5.987 -1.0621  0.4252  0.1897
 5149SOL    HW127083   2.793   1.042   5.956  1.7554 -2.2556 -2.2568
 5149SOL    HW227084   2.865   1.172   5.935 -2.7840 -1.5705 -2.7685
 5150SOL     OW27085   2.835   0.360   3.377  0.4447 -0.2555  0.1821
 5150SOL    HW127086   2.846   0.356   3.472  0.4099  1.9036  0.2638
 5150SOL    HW227087   2.831   0.268   3.350 -2.2790 -0.4825  1.3519
 5151SOL     OW27088   2.902   0.944   9.214  0.1478  0.6025  0.5163
 5151SOL    HW127089   2.924   0.998   9.138  1.3432  0.0153  0.4576
 5151SOL    HW227090   2.989   0.912   9.238  0.5337  1.3271  0.0623
 5152SOL     OW27091   3.893   2.929   4.994 -0.3360  0.0477  0.1436
 5152SOL    HW127092   3.883   2.991   5.067  0.2649 -1.8753  1.8375
 5152SOL    HW227093   3.829   2.864   5.021  1.1797 -0.2249  3.0458
 5153SOL     OW27094   3.444   4.565  11.550  0.2687 -0.1738 -0.4047
 5153SOL    HW127095   3.476   4.653  11.533  1.0279 -0.3856 -0.1009
 5153SOL    HW227096   3.508   4.508  11.508 -0.6605 -1.6887  0.2305
 5154SOL     OW27097   3.512   1.964   1.031 -0.6830 -0.3486  0.6943
 5154SOL    HW127098   3.507   1.967   0.936 -1.9044 -0.5361  0.7539
 5154SOL    HW227099   3.534   1.870   1.033  2.0893  0.2630 -0.6655
 5155SOL     OW27100   3.650   0.039   4.232  0.1102 -0.0928  0.3455
 5155SOL    HW127101   3.669   0.062   4.141  0.7925 -0.9758  0.2652
 5155SOL    HW227102   3.597   0.116   4.253 -0.5856 -0.0901 -1.4956
 5156SOL     OW27103   1.376   1.189   7.986 -0.5413  0.0619  0.5500
 5156SOL    HW127104   1.305   1.228   7.936 -1.5297 -0.6900  1.3790
 5156SOL    HW227105   1.348   1.097   7.981 -1.5393  0.5323 -2.2532
 5157SOL     OW27106   4.459   3.261  15.995 -0.4173  0.0883  0.7811
 5157SOL    HW127107   4.365   3.278  16.001 -0.7109 -0.8102 -1.4156
 5157SOL    HW227108   4.476   3.287  16.086 -0.3392  1.3303  0.4078
 5158SOL     OW27109   0.117   1.157   6.653  0.5479  0.2828 -0.0786
 5158SOL    HW127110   0.109   1.148   6.558 -1.4501 -1.3506  0.2496
 5158SOL    HW227111   0.190   1.099   6.673  1.0428  0.3383 -1.7254
 5159SOL     OW27112   4.467   1.510   2.755 -0.1343  0.4724  0.6654
 5159SOL    HW127113   4.474   1.475   2.843  0.9127 -2.3417 -0.5472
 5159SOL    HW227114   4.558   1.525   2.728 -0.8695  1.7890 -1.1457
 5160SOL     OW27115   1.817   4.279  13.448  0.0604  0.1483 -0.3881
 5160SOL    HW127116   1.856   4.273  13.361 -0.3174  1.7676 -0.6697
 5160SOL    HW227117   1.725   4.260  13.430 -0.4313  1.4065  0.7844
 5161SOL     OW27118   3.508   3.346   3.182 -0.1876 -0.1874 -0.2383
 5161SOL    HW127119   3.506   3.386   3.269 -1.2852  0.5368 -0.5952
 5161SOL    HW227120   3.471   3.261   3.207 -0.0920  0.1556  1.0737
 5162SOL     OW27121   0.214   1.401   1.007 -0.4799 -0.0570  0.1555
 5162SOL    HW127122   0.211   1.321   1.060 -1.0067 -0.2839 -0.2226
 5162SOL    HW227123   0.214   1.357   0.923 -0.8897 -2.5555  1.4666
 5163SOL     OW27124   1.897   2.525   7.976 -0.0695 -0.2662  0.1718
 5163SOL    HW127125   1.962   2.485   8.033  0.0264 -1.0851 -0.4950
 5163SOL    HW227126   1.935   2.528   7.888 -0.1616 -3.0557  0.0358
 5164SOL     OW27127   1.961   3.574  17.502  0.1738 -0.0225 -0.1691
 5164SOL    HW127128   1.908   3.642  17.541 -3.8741 -0.0503 -5.6259
 5164SOL    HW227129   2.027   3.553  17.568 -0.7734 -1.4867  0.3131
 5165SOL     OW27130   0.550   2.876   2.847  0.4189  0.0010 -0.6238
 5165SOL    HW127131   0.521   2.787   2.870  0.5194  0.0422 -0.3410
 5165SOL    HW227132   0.487   2.908   2.783 -1.5469 -0.5860  1.0393
 5166SOL     OW27133   1.814   2.860   8.760  0.0400  0.4638 -0.2500
 5166SOL    HW127134   1.821   2.856   8.664 -0.3766 -1.3270 -0.2166
 5166SOL    HW227135   1.879   2.805   8.803 -0.8180 -0.8411 -0.6272
 5167SOL     OW27136   0.495   3.793   5.904 -0.0375 -0.0274  0.0021
 5167SOL    HW127137   0.442   3.714   5.916  1.7481 -1.0815  0.9378
 5167SOL    HW227138   0.489   3.803   5.809  0.1145  1.2820  0.1286
 5168SOL     OW27139   1.167   0.053   4.553  0.4371 -0.4099 -0.2345
 5168SOL    HW127140   1.193   0.140   4.522  1.1180 -0.3443  0.5256
 5168SOL    HW227141   1.222   0.045   4.631 -1.3205  0.4357  1.0963
 5169SOL     OW27142   1.902   2.129   6.562 -0.4274  0.0501 -0.3358
 5169SOL    HW127143   1.808   2.118   6.576 -0.1091 -0.1460  1.6356
 5169SOL    HW227144   1.929   2.038   6.570  0.8877  0.4352 -0.3165
 5170SOL     OW27145   0.163   0.750   3.801 -0.5849 -0.2791 -0.5305
 5170SOL    HW127146   0.188   0.699   3.879  1.9140  1.6662 -0.0472
 5170SOL    HW227147   0.114   0.819   3.846 -0.8249 -0.6023 -0.2924
 5171SOL     OW27148   1.864   3.365   8.443  0.2090 -0.2464  0.6106
 5171SOL    HW127149   1.895   3.453   8.421 -0.4577 -0.6300 -1.8604
 5171SOL    HW227150   1.814   3.387   8.521 -1.6766 -1.1471 -0.3478
 5172SOL     OW27151   3.440   2.291  16.690  0.2433  0.2072  0.3623
 5172SOL    HW127152   3.476   2.366  16.643  0.2574 -0.7301 -1.1135
 5172SOL    HW227153   3.389   2.337  16.756  3.9019  1.1107  2.5527
 5173SOL     OW27154   2.419   1.602   4.340  0.6047  0.4744 -0.5020
 5173SOL    HW127155   2.477   1.652   4.282  0.1630 -0.1045 -1.4472
 5173SOL    HW227156   2.339   1.620   4.291 -0.7716 -0.9759  1.2376
 5174SOL     OW27157   2.169   4.555   3.846 -0.7613 -0.2738 -0.0258
 5174SOL    HW127158   2.220   4.544   3.766 -0.2536 -2.5567  0.6093
 5174SOL    HW227159   2.212   4.621   3.901  0.0493 -1.6819  1.0423
 5175SOL     OW27160   3.562   2.341   8.047  0.0689 -0.0139 -0.1543
 5175SOL    HW127161   3.571   2.379   8.134  0.2030 -2.9482  1.1066
 5175SOL    HW227162   3.504   2.267   8.066  0.2546  0.3489  1.7445
 5176SOL     OW27163   0.984   3.430   7.236  0.1920  0.2236  0.0937
 5176SOL    HW127164   1.002   3.408   7.328  1.9481  3.2735  0.4904
 5176SOL    HW227165   0.961   3.340   7.213 -0.5676  0.4808 -0.1513
 5177SOL     OW27166   0.436   2.988   4.347  0.4250  0.2043  0.3491
 5177SOL    HW127167   0.460   3.069   4.392 -0.7186  1.0656 -0.5821
 5177SOL    HW227168   0.365   2.958   4.405  1.0166 -1.7305  0.0761
 5178SOL     OW27169   2.573   2.886   9.977 -0.1855  0.1136 -0.0952
 5178SOL    HW127170   2.646   2.830  10.004 -0.2475 -0.5141 -1.2797
 5178SOL    HW227171   2.559   2.937  10.057 -0.9157 -0.5421  0.1924
 5179SOL     OW27172   2.132   0.100   8.461 -0.1545 -0.5165  0.0124
 5179SOL    HW127173   2.045   0.064   8.476 -0.7143  0.3608 -1.1152
 5179SOL    HW227174   2.168   0.107   8.549 -1.5944 -2.7285  0.7713
 5180SOL     OW27175   0.269   1.680  16.497 -0.6722 -0.3074 -0.2035
 5180SOL    HW127176   0.261   1.605  16.438 -0.2846 -0.1926 -0.3993
 5180SOL    HW227177   0.214   1.732  16.438 -0.6016  0.1936  0.1745
 5181SOL     OW27178   4.155   3.728  14.701 -0.1507 -0.7951 -0.0785
 5181SOL    HW127179   4.080   3.677  14.731 -1.2832  0.4664 -0.7893
 5181SOL    HW227180   4.227   3.670  14.727 -2.1737 -3.0710  0.4502
 5182SOL     OW27181   1.693   1.816   1.460 -0.1939  0.0941  0.3985
 5182SOL    HW127182   1.604   1.852   1.460 -0.0850  0.3552  0.5837
 5182SOL    HW227183   1.686   1.745   1.524  0.2776 -1.0551 -0.8120
 5183SOL     OW27184   0.246   1.322   6.335 -0.1685 -0.0907 -0.2994
 5183SOL    HW127185   0.273   1.296   6.247 -0.5546 -2.3979  0.2476
 5183SOL    HW227186   0.208   1.409   6.322  1.8553  0.7851 -0.3231
 5184SOL     OW27187   0.848   0.327   2.732 -0.1079 -0.2328  0.1897
 5184SOL    HW127188   0.888   0.302   2.650  0.5782  2.5739 -0.3384
 5184SOL    HW227189   0.910   0.389   2.771 -0.9911  0.2872  0.7986
 5185SOL     OW27190   0.714   0.765   7.282  0.4265  0.1634  0.2547
 5185SOL    HW127191   0.735   0.809   7.199  0.4757 -0.8001 -0.2470
 5185SOL    HW227192   0.633   0.723   7.256 -0.7419  1.3848  1.9487
 5186SOL     OW27193   3.329   3.833   8.293 -0.0275 -0.0252  0.0574
 5186SOL    HW127194   3.419   3.799   8.295  0.0634  0.3328  1.8686
 5186SOL    HW227195   3.354   3.923   8.270  1.0944 -0.8048 -1.8794
 5187SOL     OW27196   4.139   2.203  12.469 -0.1982  0.2255  0.2395
 5187SOL    HW127197   4.205   2.203  12.398  0.7977 -0.1320  1.1663
 5187SOL    HW227198   4.123   2.110  12.479  1.2277 -0.0435  0.1205
 5188SOL     OW27199   3.795   4.688  11.738  0.2710  0.0200  0.6010
 5188SOL    HW127200   3.717   4.732  11.705 -0.3881 -0.7701  1.0958
 5188SOL    HW227201   3.845   0.024  11.769  0.3563  0.2299 -0.0531
 5189SOL     OW27202   2.774   0.062   0.828 -0.5027 -0.1605  0.6689
 5189SOL    HW127203   2.828   0.141   0.820 -0.6299  0.0526  1.9533
 5189SOL    HW227204   2.693   0.090   0.870 -0.8076  2.1991 -1.4600
 5190SOL     OW27205   2.548   2.217  13.327 -0.0159  0.0861  0.3862
 5190SOL    HW127206   2.521   2.246  13.414 -1.9376 -1.4169  0.3013
 5190SOL    HW227207   2.579   2.130  13.353 -1.4764 -0.2082  1.1662
 5191SOL     OW27208   0.334   2.615   3.585 -0.2856 -0.0712  0.2159
 5191SOL    HW127209   0.241   2.635   3.570 -1.0802 -3.2165  0.9215
 5191SOL    HW227210   0.334   2.519   3.586 -1.6527 -0.0584  2.4928
 5192SOL     OW27211   1.289   0.698  14.134 -0.7119  0.1578 -0.3297
 5192SOL    HW127212   1.338   0.727  14.211  0.5350 -1.6324 -0.4354
 5192SOL    HW227213   1.234   0.627  14.167  0.7555 -1.7930 -2.0755
 5193SOL     OW27214   0.692   1.734   3.029 -0.2921 -0.4266  0.0550
 5193SOL    HW127215   0.650   1.810   3.068  0.9780  1.0146 -1.4124
 5193SOL    HW227216   0.739   1.705   3.107  0.2412 -0.6318 -0.3405
 5194SOL     OW27217   3.076   2.777  13.683 -0.2422 -0.1115  0.0175
 5194SOL    HW127218   3.053   2.813  13.597 -1.6225  0.3767  0.5742
 5194SOL    HW227219   3.171   2.785  13.685 -0.2599 -0.5489  2.3043
 5195SOL     OW27220   0.545   1.461   0.240  0.0893 -0.3941 -0.1863
 5195SOL    HW127221   0.631   1.442   0.202  0.7976 -0.9747  1.7235
 5195SOL    HW227222   0.540   1.553   0.217  0.8858 -0.1013  0.8289
 5196SOL     OW27223   1.536   0.634   0.843 -0.7859 -0.8066  0.1345
 5196SOL    HW127224   1.460   0.657   0.897 -1.8313  0.4105 -1.8607
 5196SOL    HW227225   1.580   0.568   0.895  1.1754  1.4347  1.3267
 5197SOL     OW27226   3.332   1.877   5.458  0.3049  0.1850 -0.1012
 5197SOL    HW127227   3.291   1.896   5.543 -0.4837  3.0551 -1.1490
 5197SOL    HW227228   3.260   1.902   5.401  0.7319  1.3074 -0.1346
 5198SOL     OW27229   3.376   2.237   8.331  0.4754 -0.3186  0.2736
 5198SOL    HW127230   3.306   2.301   8.348  0.6550 -0.1181  0.2563
 5198SOL    HW227231   3.446   2.270   8.388  0.8118 -1.9828  0.8374
 5199SOL     OW27232   2.579   4.313   9.585 -0.6822 -0.1304 -0.1592
 5199SOL    HW127233   2.650   4.271   9.537  0.6458 -0.2683  1.9654
 5199SOL    HW227234   2.528   4.357   9.517 -1.1335 -0.0184  0.2495
 5200SOL     OW27235   0.317   1.125   5.217 -0.1328 -0.0497  0.3103
 5200SOL    HW127236   0.280   1.070   5.148  1.6669 -0.9502  0.0663
 5200SOL    HW227237   0.264   1.205   5.218 -0.0328  0.0054  1.5862
 5201SOL     OW27238   2.478   3.896   5.680 -0.8466  0.8181 -0.7713
 5201SOL    HW127239   2.399   3.880   5.732  0.0605 -1.1368  0.0101
 5201SOL    HW227240   2.535   3.942   5.741  0.2655 -1.4067 -0.1358
 5202SOL     OW27241   4.252   4.713  15.081 -0.4013 -0.0885  0.7336
 5202SOL    HW127242   4.339   4.691  15.116 -0.1012 -1.1638 -0.6992
 5202SOL    HW227243   4.280   0.022  15.004  1.4793 -1.6252  0.4579
 5203SOL     OW27244   1.699   1.274   4.891  0.2132 -0.7888  0.0397
 5203SOL    HW127245   1.685   1.237   4.804  1.8202  3.0514 -1.8685
 5203SOL    HW227246   1.635   1.223   4.940 -0.0721  0.0241  0.5104
 5204SOL     OW27247   3.080   3.107  13.711 -0.0799 -0.0814 -0.3367
 5204SOL    HW127248   2.994   3.131  13.748  0.7175  1.2233  0.6933
 5204SOL    HW227249   3.128   3.082  13.790  0.5499  1.5621 -0.1991
 5205SOL     OW27250   0.012   2.042   8.749  0.2949 -0.0042  0.2277
 5205SOL    HW127251   0.099   2.052   8.709  0.1021 -1.7735 -0.6315
 5205SOL    HW227252   4.699   2.049   8.669 -0.9326  0.7345  1.0875
 5206SOL     OW27253   3.553   0.102   8.707  0.2936 -0.3551 -0.0061
 5206SOL    HW127254   3.483   0.048   8.671 -1.3014  2.6363 -1.3485
 5206SOL    HW227255   3.528   0.115   8.799 -0.8242 -0.6847 -0.2684
 5207SOL     OW27256   1.859   2.465   2.761 -0.1332 -0.3371  0.4241
 5207SOL    HW127257   1.780   2.410   2.754  1.0410 -1.9934  0.2325
 5207SOL    HW227258   1.921   2.416   2.814  1.7946 -0.4240 -1.9544
 5208SOL     OW27259   1.975   3.539   2.866 -0.1313  0.7200 -0.1477
 5208SOL    HW127260   1.998   3.601   2.936  4.0015 -0.4980 -0.4213
 5208SOL    HW227261   2.056   3.490   2.856 -1.3315 -1.2072 -0.3184
 5209SOL     OW27262   3.649   4.071   3.891  0.0209  0.1805 -0.0244
 5209SOL    HW127263   3.649   3.986   3.933 -1.2262  0.0030 -0.3979
 5209SOL    HW227264   3.572   4.064   3.835 -0.4037  0.6961  0.5028
 5210SOL     OW27265   1.093   0.511   2.261  0.5533  0.8132  0.4007
 5210SOL    HW127266   1.092   0.591   2.208 -0.5030 -0.0151 -0.8101
 5210SOL    HW227267   1.187   0.492   2.252  0.5295  0.9483 -0.1334
 5211SOL     OW27268   4.611   0.844   2.514  0.4977 -0.2592  0.5037
 5211SOL    HW127269   4.631   0.937   2.516 -3.5025  0.6773 -1.8361
 5211SOL    HW227270   4.590   0.824   2.605  0.3652 -0.2310  0.4790
 5212SOL     OW27271   3.701   2.872   5.960  0.4024 -0.0762  0.3149
 5212SOL    HW127272   3.671   2.958   5.933  3.0030  1.2024  1.5156
 5212SOL    HW227273   3.641   2.814   5.913  0.4824 -0.4347  0.6554
 5213SOL     OW27274   2.799   2.707   4.630  0.7627  0.3255  0.9785
 5213SOL    HW127275   2.803   2.637   4.695  1.6960 -1.3250 -0.8169
 5213SOL    HW227276   2.853   2.671   4.559 -0.9782 -0.8478  0.2498
 5214SOL     OW27277   1.047   2.714   6.493  0.8192  0.1246  0.2223
 5214SOL    HW127278   1.010   2.641   6.543  2.0846  0.4134  1.5979
 5214SOL    HW227279   1.141   2.700   6.506  1.1443  0.4062 -1.8867
 5215SOL     OW27280   4.240   1.850   9.383  0.0119 -0.4556  0.5014
 5215SOL    HW127281   4.230   1.756   9.403 -1.1727 -0.6742 -1.1335
 5215SOL    HW227282   4.268   1.849   9.292  0.7836  2.0443  0.7273
 5216SOL     OW27283   3.452   4.403   7.075 -0.1775  0.2846 -0.1418
 5216SOL    HW127284   3.498   4.423   6.994  0.1344  0.0632 -0.0186
 5216SOL    HW227285   3.487   4.317   7.101 -3.5345 -0.7414  1.0503
 5217SOL     OW27286   0.051   0.645  13.569 -0.3674  0.3723 -0.1045
 5217SOL    HW127287   0.078   0.673  13.482 -0.8367  0.3483 -0.2578
 5217SOL    HW227288   0.031   0.553  13.552 -1.0781  0.1052  2.0617
 5218SOL     OW27289   1.491   0.237   8.099  0.2304 -0.6741  0.4093
 5218SOL    HW127290   1.566   0.202   8.051 -0.4585 -1.3512 -0.1725
 5218SOL    HW227291   1.501   0.331   8.084  3.2963 -0.8080  1.6210
 5219SOL     OW27292   3.361   1.685   3.593 -0.0729 -0.4765  0.1145
 5219SOL    HW127293   3.383   1.592   3.605 -0.0159 -0.6501 -1.2456
 5219SOL    HW227294   3.399   1.725   3.670 -0.7582  0.0024  0.2053
 5220SOL     OW27295   1.336   0.632   8.634  0.4598  0.0850  0.1338
 5220SOL    HW127296   1.383   0.651   8.553 -1.6328  0.8977 -0.8925
 5220SOL    HW227297   1.334   0.536   8.634 -2.5824  0.1469 -0.9273
 5221SOL     OW27298   2.635   1.925   6.828  0.6086 -0.1840 -0.2606
 5221SOL    HW127299   2.636   1.837   6.790 -0.6615 -0.2322 -0.2140
 5221SOL    HW227300   2.658   1.898   6.917  0.0005  0.5815  0.1344
 5222SOL     OW27301   1.610   3.558   3.552  0.5483 -0.0382  0.2507
 5222SOL    HW127302   1.556   3.615   3.607 -0.3053 -2.8443  2.3328
 5222SOL    HW227303   1.629   3.621   3.483  1.3593 -0.2138  0.3091
 5223SOL     OW27304   0.639   3.789   1.772  0.2254 -0.9438  0.1744
 5223SOL    HW127305   0.649   3.827   1.859  2.4696 -0.8176 -0.1356
 5223SOL    HW227306   0.602   3.705   1.797  1.6107 -1.3932  0.6918
 5224SOL     OW27307   3.733   0.368   7.181 -0.0039 -0.2578 -0.0583
 5224SOL    HW127308   3.796   0.440   7.176 -0.7076  0.4334  1.2111
 5224SOL    HW227309   3.664   0.413   7.133 -1.4320 -0.1448  2.1256
 5225SOL     OW27310   1.179   1.857   5.122 -0.0303  0.2476 -0.3118
 5225SOL    HW127311   1.179   1.858   5.027 -0.4961 -3.1105 -0.3475
 5225SOL    HW227312   1.227   1.932   5.156  1.9385 -1.0366 -0.2665
 5226SOL     OW27313   0.231   0.226   4.858  0.0227  0.0037 -0.4932
 5226SOL    HW127314   0.179   0.209   4.936 -0.8275  1.5072 -0.7326
 5226SOL    HW227315   0.313   0.244   4.904  0.9639  2.9200 -3.3369
 5227SOL     OW27316   3.833   0.785  15.603  0.2812 -0.4717  0.4235
 5227SOL    HW127317   3.792   0.801  15.688 -2.1795 -2.0497 -0.4702
 5227SOL    HW227318   3.927   0.795  15.623  0.5104  0.7915 -1.2798
 5228SOL     OW27319   3.053   2.131  10.991 -0.2357 -0.3614  0.2258
 5228SOL    HW127320   3.013   2.214  10.963  0.0181 -1.3722 -3.2216
 5228SOL    HW227321   2.969   2.084  10.994 -0.0369 -0.7544 -0.3007
 5229SOL     OW27322   1.347   1.111   3.381  0.4171  0.1081 -0.1032
 5229SOL    HW127323   1.403   1.058   3.324 -2.4830 -2.6488 -0.4413
 5229SOL    HW227324   1.323   1.057   3.457 -0.7267  0.6163 -0.1069
 5230SOL     OW27325   2.135   2.844   7.070  0.0760 -0.1197 -0.3069
 5230SOL    HW127326   2.174   2.804   7.147  0.2956 -1.2498 -1.0091
 5230SOL    HW227327   2.146   2.778   7.002 -3.1290  0.2446 -1.1943
 5231SOL     OW27328   4.118   4.541   5.908  0.4256 -0.2984  0.3224
 5231SOL    HW127329   4.083   4.462   5.866  0.2883  1.6762 -3.2702
 5231SOL    HW227330   4.186   4.498   5.959 -0.8191 -2.7124 -0.0299
 5232SOL     OW27331   1.727   3.144   7.867  0.1104  0.2902 -0.1399
 5232SOL    HW127332   1.693   3.090   7.795  0.3455 -1.2944  0.9185
 5232SOL    HW227333   1.821   3.141   7.855 -0.3111  0.8406 -3.5130
 5233SOL     OW27334   3.791   0.069   5.318 -0.4862  0.7225 -0.4096
 5233SOL    HW127335   3.753   0.079   5.231 -0.1167  2.1016 -0.4056
 5233SOL    HW227336   3.872   0.118   5.305  0.5789 -0.6505  1.0242
 5234SOL     OW27337   0.841   3.123   3.049  0.0287 -0.0014 -0.3376
 5234SOL    HW127338   0.889   3.057   2.999  0.2729 -0.5119  0.5620
 5234SOL    HW227339   0.856   3.201   2.995  1.8156 -1.1071 -1.4436
 5235SOL     OW27340   4.659   2.232   6.628  0.4198  0.0191 -0.2734
 5235SOL    HW127341   0.002   2.187   6.607 -0.3588  0.4421 -4.2669
 5235SOL    HW227342   4.603   2.171   6.676 -1.9133  1.6700 -0.8990
 5236SOL     OW27343   2.852   1.448   6.286 -1.0267 -0.3894 -0.3121
 5236SOL    HW127344   2.791   1.421   6.355  0.5415  0.4739  1.4212
 5236SOL    HW227345   2.896   1.370   6.254 -0.2993 -0.1036 -0.0040
 5237SOL     OW27346   0.523   3.497   6.072  0.0998  0.1442  0.9494
 5237SOL    HW127347   0.594   3.550   6.036 -0.6417  1.2114  1.0522
 5237SOL    HW227348   0.539   3.409   6.038 -0.4857  1.5495 -2.9502
 5238SOL     OW27349   4.516   1.395   9.426  0.0326 -0.0083  0.1312
 5238SOL    HW127350   4.500   1.400   9.332  0.8327  0.5369  0.0206
 5238SOL    HW227351   4.544   1.485   9.443  0.3153  0.0208 -0.4723
 5239SOL     OW27352   4.699   3.249  16.225 -0.0050  0.3696 -0.0423
 5239SOL    HW127353   0.007   3.248  16.142 -0.7418 -0.1737 -0.4461
 5239SOL    HW227354   4.657   3.163  16.227 -0.2612  0.4948 -0.0747
 5240SOL     OW27355   2.747   2.728   2.877 -0.0766  0.2549  0.2269
 5240SOL    HW127356   2.696   2.807   2.894  0.0772  0.3558  0.2209
 5240SOL    HW227357   2.767   2.744   2.784  1.5611  0.4364  0.6210
 5241SOL     OW27358   0.833   4.278   7.091 -0.4538  0.0637 -0.2273
 5241SOL    HW127359   0.786   4.246   7.168  2.2188  0.8670  1.7510
 5241SOL    HW227360   0.840   4.189   7.058  1.2792  0.5246 -1.1340
 5242SOL     OW27361   1.072   0.235   3.221 -0.4051 -0.1185 -0.2926
 5242SOL    HW127362   1.022   0.259   3.299 -0.6359  1.8321 -1.0328
 5242SOL    HW227363   1.157   0.217   3.262 -0.1628  1.8790  0.0692
 5243SOL     OW27364   0.495   2.180   7.532 -0.0105 -0.2442 -0.5782
 5243SOL    HW127365   0.480   2.116   7.461 -0.9836 -1.5891  0.8432
 5243SOL    HW227366   0.404   2.190   7.558 -0.3825 -0.6436 -1.7014
 5244SOL     OW27367   0.313   1.120   8.146  0.0017  0.5403  0.2641
 5244SOL    HW127368   0.238   1.175   8.122  0.0812 -0.3570 -2.0413
 5244SOL    HW227369   0.315   1.124   8.242 -1.5575 -2.5943  0.4452
 5245SOL     OW27370   2.235   2.403   6.000  0.3059  0.0351  0.5131
 5245SOL    HW127371   2.314   2.349   5.996 -0.8771 -1.6837  0.5260
 5245SOL    HW227372   2.231   2.400   5.904  2.5269 -0.5899  0.4393
 5246SOL     OW27373   2.843   2.489   4.832  0.3856  0.0109 -0.1773
 5246SOL    HW127374   2.903   2.545   4.881 -1.5696  1.1068  0.9436
 5246SOL    HW227375   2.895   2.410   4.818  1.2308  0.1305  2.3868
 5247SOL     OW27376   2.366   1.434   2.583  0.7653 -0.7357 -0.0040
 5247SOL    HW127377   2.453   1.402   2.609  0.9289 -0.5239 -0.2887
 5247SOL    HW227378   2.314   1.399   2.655  3.3017  0.9699  2.6674
 5248SOL     OW27379   4.738   3.798   2.390 -0.4908  0.4401  0.0639
 5248SOL    HW127380   0.034   3.738   2.455  2.8720  0.4609 -1.7589
 5248SOL    HW227381   4.644   3.797   2.410 -0.6557 -1.7725 -0.8141
 5249SOL     OW27382   1.856   4.137   7.984 -0.1848 -0.0720 -0.0696
 5249SOL    HW127383   1.802   4.140   7.905 -1.0874 -0.2463  0.5331
 5249SOL    HW227384   1.867   4.228   8.011  0.2937  0.3960 -1.8283
 5250SOL     OW27385   3.735   0.784  11.119 -0.3854  0.1533 -0.4212
 5250SOL    HW127386   3.651   0.751  11.088  0.1684 -1.9759  0.3593
 5250SOL    HW227387   3.707   0.837  11.193  1.4345  1.4865 -0.6886
 5251SOL     OW27388   4.069   3.649   9.788 -0.6775 -0.1091  0.1844
 5251SOL    HW127389   4.128   3.710   9.831  0.9102 -0.8996 -0.8480
 5251SOL    HW227390   4.126   3.573   9.770  0.4854  1.2899 -2.0849
 5252SOL     OW27391   2.986   2.288  10.725  0.2684 -0.5202  0.0743
 5252SOL    HW127392   3.040   2.210  10.713  1.8151  0.4001  1.0497
 5252SOL    HW227393   2.894   2.278  10.749 -0.0430  0.1498 -0.7999
 5253SOL     OW27394   3.074   0.108   2.867  0.0913  0.6504 -0.1554
 5253SOL    HW127395   3.096   0.190   2.822  0.8340  0.0339 -0.9394
 5253SOL    HW227396   3.139   0.052   2.824 -1.0960 -0.1520 -0.9161
 5254SOL     OW27397   1.227   2.254   7.084 -0.1315 -0.0437  0.1619
 5254SOL    HW127398   1.302   2.302   7.118 -0.1982 -0.9341  1.5496
 5254SOL    HW227399   1.261   2.165   7.078  0.2432  0.0552  0.8557
 5255SOL     OW27400   2.421   3.538   4.755  0.1348 -0.1689 -0.3687
 5255SOL    HW127401   2.476   3.614   4.734  0.1887  0.0241  0.4868
 5255SOL    HW227402   2.375   3.527   4.671  1.3520  2.0509 -1.3123
 5256SOL     OW27403   2.584   1.696  16.487  0.0443  0.1113 -0.0037
 5256SOL    HW127404   2.676   1.707  16.463  0.2416 -0.5821  0.4359
 5256SOL    HW227405   2.588   1.629  16.556 -2.8246 -0.0384  0.0007
 5257SOL     OW27406   4.224   1.524   9.189  0.3268  0.2488  0.6820
 5257SOL    HW127407   4.227   1.428   9.183 -1.1863  0.2311  0.2523
 5257SOL    HW227408   4.278   1.551   9.115 -1.7228  1.9202 -0.2143
 5258SOL     OW27409   3.556   3.476   6.230  0.9292  0.4275  0.6951
 5258SOL    HW127410   3.482   3.441   6.181 -1.5850  1.7418  3.5063
 5258SOL    HW227411   3.621   3.502   6.164  0.2360  0.4615  0.0286
 5259SOL     OW27412   4.454   0.890   0.199  0.4874 -0.1648 -0.2539
 5259SOL    HW127413   4.410   0.824   0.145 -0.6889  1.1040 -0.8619
 5259SOL    HW227414   4.380   0.937   0.238  1.2866 -1.0665  2.2837
 5260SOL     OW27415   0.191   2.701   6.471  0.2774  0.1342 -0.2592
 5260SOL    HW127416   0.259   2.718   6.405 -0.9425 -0.4748 -1.6881
 5260SOL    HW227417   0.128   2.769   6.446  0.8098  0.2244 -1.3693
 5261SOL     OW27418   2.560   4.479   6.598  0.0320  0.5072  0.7966
 5261SOL    HW127419   2.585   4.386   6.598  0.0020  0.4967  1.2133
 5261SOL    HW227420   2.640   4.519   6.566  0.0131  0.3060  0.4992
 5262SOL     OW27421   1.142   1.929  13.617  0.5193  0.0396  0.0436
 5262SOL    HW127422   1.120   1.877  13.539  1.3062 -0.3403  0.0798
 5262SOL    HW227423   1.197   1.862  13.656  0.0191 -0.4110 -0.0212
 5263SOL     OW27424   4.300   1.366   4.463  0.1752  0.2817 -0.1496
 5263SOL    HW127425   4.318   1.313   4.386  0.3339  1.6551 -1.0612
 5263SOL    HW227426   4.325   1.304   4.531 -0.3603 -0.9871 -1.1141
 5264SOL     OW27427   0.720   2.329   7.556 -0.4369  0.5252  0.2510
 5264SOL    HW127428   0.658   2.257   7.561  0.5531 -0.3174  0.2599
 5264SOL    HW227429   0.658   2.402   7.557 -1.2413 -0.1745  1.9766
 5265SOL     OW27430   3.517   1.255   7.844 -0.2178  0.3686 -0.1550
 5265SOL    HW127431   3.600   1.217   7.818 -0.5976 -0.9443  0.5415
 5265SOL    HW227432   3.557   1.333   7.882 -0.9374  0.3453  0.6752
 5266SOL     OW27433   1.051   0.517   7.789  0.7132  0.4213 -0.0498
 5266SOL    HW127434   1.045   0.449   7.856  0.6899  1.5685  1.1205
 5266SOL    HW227435   0.959   0.524   7.763  0.4917 -0.7133  0.4087
 5267SOL     OW27436   3.606   2.982   6.469  0.6630  0.2326 -0.6854
 5267SOL    HW127437   3.521   3.010   6.503  0.3466 -2.0943  0.4346
 5267SOL    HW227438   3.615   3.046   6.398  2.1222  2.0089  1.1216
 5268SOL     OW27439   1.082   3.480   4.547 -0.0688  0.3106  0.3248
 5268SOL    HW127440   1.048   3.566   4.570 -0.0921 -0.0514  1.6379
 5268SOL    HW227441   1.139   3.509   4.476 -0.3761 -0.5359 -0.2624
 5269SOL     OW27442   2.469   0.259   6.799  0.5454 -0.0887 -0.2081
 5269SOL    HW127443   2.468   0.202   6.876 -0.3370 -0.3024 -0.3816
 5269SOL    HW227444   2.376   0.261   6.776  0.6472 -1.6164 -0.7661
 5270SOL     OW27445   1.596   1.978   2.773 -0.3034 -0.1257 -0.1688
 5270SOL    HW127446   1.530   1.990   2.705  2.1005 -0.7940 -2.6552
 5270SOL    HW227447   1.633   1.893   2.747  1.8191  0.7556 -0.0245
 5271SOL     OW27448   2.693   3.625   9.997 -0.4144 -0.9082  0.4364
 5271SOL    HW127449   2.776   3.594   9.960  0.3729  2.3639 -0.4960
 5271SOL    HW227450   2.665   3.558  10.060 -1.3430  0.0620  1.0529
 5272SOL     OW27451   0.728   2.278  15.132  0.0872  0.4784 -0.3478
 5272SOL    HW127452   0.748   2.199  15.083  2.5565  1.2573 -0.5901
 5272SOL    HW227453   0.650   2.319  15.094 -1.3220 -1.4082  0.5290
 5273SOL     OW27454   1.654   2.417   6.241 -0.6280 -0.1580 -0.2187
 5273SOL    HW127455   1.719   2.484   6.219 -3.5084  2.7468  0.2278
 5273SOL    HW227456   1.679   2.385   6.328 -0.1371 -1.7373 -0.9335
 5274SOL     OW27457   1.124   0.041   6.198 -0.2245  0.3507  0.7970
 5274SOL    HW127458   1.078   4.697   6.209 -0.7948  0.1357 -3.0550
 5274SOL    HW227459   1.210   0.027   6.239  0.5208 -0.9524 -1.2090
 5275SOL     OW27460   1.020   2.131   3.705 -0.6077  0.0022 -0.1667
 5275SOL    HW127461   0.930   2.154   3.727 -1.8329 -1.4513 -3.6440
 5275SOL    HW227462   1.022   2.040   3.734  1.4673 -0.2793 -1.1758
 5276SOL     OW27463   0.574   3.118   5.346  0.0522  0.1912 -0.3435
 5276SOL    HW127464   0.495   3.073   5.374 -1.8637  3.0143 -1.2245
 5276SOL    HW227465   0.564   3.112   5.250 -0.1058 -1.9529 -0.1984
 5277SOL     OW27466   0.364   1.607   0.898  0.1285  0.0811 -0.1297
 5277SOL    HW127467   0.307   1.621   0.823  1.8273  1.1639 -1.2367
 5277SOL    HW227468   0.331   1.521   0.925  0.7967 -0.0742  0.1879
 5278SOL     OW27469   3.741   3.132   2.520 -0.0450  0.2521 -0.2569
 5278SOL    HW127470   3.690   3.113   2.599 -0.0393  0.3583 -0.2282
 5278SOL    HW227471   3.769   3.044   2.494 -2.0925 -0.4555 -0.0942
 5279SOL     OW27472   2.764   0.943  16.415  0.1531  0.6015  0.0150
 5279SOL    HW127473   2.764   1.006  16.343 -2.5451  1.7756  1.0705
 5279SOL    HW227474   2.792   0.865  16.366 -0.2341  2.3382 -2.9507
 5280SOL     OW27475   0.189   0.220   6.927 -0.0180  0.2144 -0.9726
 5280SOL    HW127476   0.097   0.202   6.905 -0.5264  2.0692 -0.3567
 5280SOL    HW227477   0.183   0.268   7.010  1.9701  0.6809 -1.1095
 5281SOL     OW27478   1.486   3.888   0.248  0.1482 -0.0046 -0.4043
 5281SOL    HW127479   1.420   3.819   0.260 -1.0781  1.2420 -0.0613
 5281SOL    HW227480   1.459   3.937   0.325 -0.8100 -0.9169 -0.1646
 5282SOL     OW27481   1.378   0.617   2.600 -0.5376  0.1341  0.0988
 5282SOL    HW127482   1.392   0.623   2.695  1.1579  1.7098 -0.2419
 5282SOL    HW227483   1.325   0.696   2.589  1.0026  1.5115  2.4184
 5283SOL     OW27484   0.213   3.398   6.442  0.2085  0.0028 -0.6319
 5283SOL    HW127485   0.158   3.356   6.508  0.8597  0.4153  0.1718
 5283SOL    HW227486   0.218   3.492   6.458 -2.2518  0.4395 -2.3138
 5284SOL     OW27487   2.465   0.086   2.463 -0.0805 -0.5197  0.1631
 5284SOL    HW127488   2.378   0.046   2.460 -0.5819  0.6665 -0.9536
 5284SOL    HW227489   2.459   0.166   2.411  0.2374 -0.1763  0.6620
 5285SOL     OW27490   3.342   1.346   2.823 -0.1557  0.8698 -0.0283
 5285SOL    HW127491   3.353   1.284   2.750 -0.7579  1.3497 -0.5299
 5285SOL    HW227492   3.421   1.323   2.870 -0.2917  1.0691  0.2942
 5286SOL     OW27493   3.813   2.572   1.261 -0.1390  0.0193  0.0047
 5286SOL    HW127494   3.734   2.526   1.292  1.3556 -2.0147  0.8109
 5286SOL    HW227495   3.881   2.509   1.287  0.0030  0.5472  0.8816
 5287SOL     OW27496   2.250   4.046   3.202 -0.0890 -0.2408 -0.6102
 5287SOL    HW127497   2.328   4.090   3.169  0.5638  0.5214  1.9462
 5287SOL    HW227498   2.263   4.063   3.296 -1.6687  0.5569 -0.5319
 5288SOL     OW27499   4.529   2.472   8.740  0.1442  0.8229  0.1457
 5288SOL    HW127500   4.546   2.447   8.830 -1.9334 -1.0135  0.0373
 5288SOL    HW227501   4.564   2.401   8.687 -1.4702  0.5800 -0.5855
 5289SOL     OW27502   3.059   0.484   7.649 -0.3121  0.6501  0.4164
 5289SOL    HW127503   3.031   0.526   7.567 -0.1138  0.3358  0.1852
 5289SOL    HW227504   2.996   0.413   7.659 -0.1939  0.5012  0.1181
 5290SOL     OW27505   0.848   0.838   2.413  0.6622 -0.6246  0.5245
 5290SOL    HW127506   0.832   0.860   2.505 -3.4413  0.7469 -0.5022
 5290SOL    HW227507   0.838   0.743   2.415  0.2822 -0.5718  1.1832
 5291SOL     OW27508   3.108   4.320   9.037  0.3718  0.2576 -0.4150
 5291SOL    HW127509   3.058   4.358   9.108  0.7586  0.0217 -0.0139
 5291SOL    HW227510   3.096   4.228   9.061  0.1251  0.4492  0.1746
 5292SOL     OW27511   2.200   3.456   7.748  0.4974 -0.3176  0.5957
 5292SOL    HW127512   2.162   3.503   7.822  0.2503  2.3821 -1.2312
 5292SOL    HW227513   2.124   3.438   7.692  0.7096  0.8019 -0.0612
 5293SOL     OW27514   2.544   0.855   6.214 -0.3703  0.1676 -0.0114
 5293SOL    HW127515   2.465   0.819   6.175  0.5366 -0.6054 -1.1387
 5293SOL    HW227516   2.556   0.938   6.169 -0.8278 -0.2062 -0.8295
 5294SOL     OW27517   2.077   2.618   5.963 -0.8380 -0.4117 -0.0783
 5294SOL    HW127518   2.120   2.537   5.989  0.4893  0.7123  1.2482
 5294SOL    HW227519   2.071   2.597   5.870  0.7296 -1.1306 -0.0147
 5295SOL     OW27520   0.120   1.910   1.998  0.1910 -0.5944  0.2124
 5295SOL    HW127521   0.106   1.914   2.092 -1.2033 -1.6579  0.0573
 5295SOL    HW227522   0.110   2.004   1.982  0.5895 -0.8980 -1.8198
 5296SOL     OW27523   4.273   3.992   3.601  0.5520  0.1437 -0.5772
 5296SOL    HW127524   4.224   4.074   3.604  0.2523 -0.1199  1.7899
 5296SOL    HW227525   4.253   3.956   3.514 -0.6716 -2.9285  0.9854
 5297SOL     OW27526   4.250   3.289  14.698 -0.1326 -0.0240  0.3151
 5297SOL    HW127527   4.263   3.199  14.668 -1.4682 -0.3884  0.7901
 5297SOL    HW227528   4.335   3.321  14.670  0.0469 -0.0480  0.8297
 5298SOL     OW27529   2.434   4.490   4.152 -0.2136  0.1702 -0.3091
 5298SOL    HW127530   2.394   4.577   4.152 -0.4994  0.0559  2.1938
 5298SOL    HW227531   2.522   4.521   4.131 -0.3831  0.7722 -0.1390
 5299SOL     OW27532   3.095   3.661   8.274 -0.0127  0.2765 -0.5625
 5299SOL    HW127533   3.175   3.713   8.274  1.0412 -1.3409 -0.8623
 5299SOL    HW227534   3.126   3.579   8.312  2.2035  1.0580 -0.6858
 5300SOL     OW27535   2.805   0.289   6.916 -0.5352 -0.7486  0.9209
 5300SOL    HW127536   2.862   0.282   6.993  1.9199 -1.5962 -0.9485
 5300SOL    HW227537   2.718   0.260   6.942 -1.0695  0.9087  0.9454
 5301SOL     OW27538   3.868   4.001  15.086  0.2042 -0.4699 -0.5122
 5301SOL    HW127539   3.790   4.024  15.137  0.4253  0.5104 -0.6085
 5301SOL    HW227540   3.907   3.932  15.139 -1.3837 -0.8037  0.2201
 5302SOL     OW27541   4.709   3.254   0.166 -0.3713  0.1950  0.4705
 5302SOL    HW127542   0.065   3.244   0.159 -0.4625  0.7901 -1.6216
 5302SOL    HW227543   4.700   3.198   0.243  2.2243 -0.8183  0.0528
 5303SOL     OW27544   2.874   0.427   6.095  0.1749 -0.1823  0.2159
 5303SOL    HW127545   2.937   0.429   6.167  1.0171  2.2286 -0.5784
 5303SOL    HW227546   2.814   0.496   6.124  1.1171  0.2012  1.2684
 5304SOL     OW27547   0.722   2.506   7.844 -0.6827 -0.2146  0.0081
 5304SOL    HW127548   0.691   2.431   7.895  0.0657  0.0678  0.8867
 5304SOL    HW227549   0.681   2.573   7.898  1.4399 -0.6340  2.1408
 5305SOL     OW27550   3.589   3.509   2.559 -0.4429 -0.6581 -0.0722
 5305SOL    HW127551   3.598   3.602   2.581  0.3321 -1.6945  4.0375
 5305SOL    HW227552   3.566   3.467   2.641  0.0693  0.0215  0.4237
 5306SOL     OW27553   2.582   0.628  11.402  0.3427  0.6373  0.8106
 5306SOL    HW127554   2.570   0.697  11.468  2.1175  0.7643  0.9924
 5306SOL    HW227555   2.509   0.567  11.412  1.3382 -0.7026 -0.1555
 5307SOL     OW27556   0.948   1.140   4.394 -0.6383  0.4415 -0.5525
 5307SOL    HW127557   0.890   1.195   4.341  1.9827  0.1675 -3.7387
 5307SOL    HW227558   0.958   1.062   4.340  0.5958 -0.6055  1.2270
 5308SOL     OW27559   2.541   3.996  16.570  0.5067  0.1972 -0.3805
 5308SOL    HW127560   2.599   3.924  16.546 -0.3584 -0.3729 -0.7586
 5308SOL    HW227561   2.579   4.011  16.657  1.0304 -3.0735 -0.0408
 5309SOL     OW27562   1.309   3.724  11.593  0.6966  0.7547 -0.3805
 5309SOL    HW127563   1.335   3.632  11.582  0.5160  0.4882  1.4804
 5309SOL    HW227564   1.214   3.722  11.605  0.8817  1.0533  1.1137
 5310SOL     OW27565   4.042   2.319   4.442 -0.1289  0.1964  0.4394
 5310SOL    HW127566   3.971   2.262   4.414  0.2638 -0.4565  0.7688
 5310SOL    HW227567   4.117   2.276   4.401 -1.3405  0.1417 -1.6709
 5311SOL     OW27568   2.372   3.114   4.621 -0.2672  0.2224 -0.5252
 5311SOL    HW127569   2.405   3.107   4.711 -1.1863  0.8453 -0.1401
 5311SOL    HW227570   2.343   3.025   4.600 -1.1700  0.8494 -1.9214
 5312SOL     OW27571   3.143   2.707   8.157  0.1894  0.2575 -0.5299
 5312SOL    HW127572   3.198   2.737   8.085  0.5857 -2.2704 -1.2701
 5312SOL    HW227573   3.090   2.640   8.115  0.0951 -1.3356  2.1323
 5313SOL     OW27574   3.736   3.342   6.966  0.1882  0.0472 -0.2073
 5313SOL    HW127575   3.804   3.353   7.032  1.1696 -1.6143 -0.9419
 5313SOL    HW227576   3.784   3.293   6.898 -0.9823  1.5303 -2.1149
 5314SOL     OW27577   0.929   0.432   7.339 -0.2162 -0.4961  1.2281
 5314SOL    HW127578   0.844   0.437   7.382 -0.2223 -1.2215  1.3068
 5314SOL    HW227579   0.974   0.514   7.357  0.0538 -0.2333 -0.6059
 5315SOL     OW27580   0.999   4.491   9.163  0.4022  0.3006 -0.0327
 5315SOL    HW127581   1.081   4.535   9.183  0.9351  0.0610 -1.6902
 5315SOL    HW227582   0.979   4.445   9.245 -0.1516  0.5987  0.0034
 5316SOL     OW27583   2.106   0.886   8.922 -0.1476  0.1562  0.2467
 5316SOL    HW127584   2.048   0.936   8.864 -1.5446 -0.5389  1.0218
 5316SOL    HW227585   2.075   0.911   9.009  0.0393 -1.4532  0.7789
 5317SOL     OW27586   0.210   0.290  14.792  0.2011 -0.1803  0.0833
 5317SOL    HW127587   0.208   0.385  14.803 -0.4861 -0.0470 -1.1693
 5317SOL    HW227588   0.153   0.266  14.864  0.2398 -1.1215 -0.1966
 5318SOL     OW27589   3.956   4.493   7.715 -0.2468  0.0165  0.6662
 5318SOL    HW127590   3.959   4.589   7.712  1.6697 -0.1748 -3.4642
 5318SOL    HW227591   4.045   4.461   7.728 -0.9306 -2.7418 -1.4532
 5319SOL     OW27592   4.171   1.713  14.773 -0.3497 -0.5722  0.8633
 5319SOL    HW127593   4.135   1.637  14.818 -0.9373 -0.5295  0.4613
 5319SOL    HW227594   4.135   1.786  14.823 -1.5179 -0.4320 -0.1863
 5320SOL     OW27595   0.501   3.974   4.738 -0.0653  0.4179 -0.3764
 5320SOL    HW127596   0.576   3.915   4.749 -1.6162 -1.4891 -0.1770
 5320SOL    HW227597   0.498   4.017   4.824 -0.4102 -1.9985  0.8409
 5321SOL     OW27598   3.097   0.203   9.198  0.4176 -0.1325  0.6021
 5321SOL    HW127599   3.069   0.115   9.172 -3.7921  1.1200  0.9574
 5321SOL    HW227600   3.029   0.226   9.261  0.7283 -0.2729  0.9925
 5322SOL     OW27601   2.643   4.337  13.379 -0.7667 -0.2608  0.3462
 5322SOL    HW127602   2.664   4.245  13.360  1.1505  0.2221  0.1427
 5322SOL    HW227603   2.716   4.385  13.341 -0.7928  0.3234  1.0498
 5323SOL     OW27604   4.323   1.398   5.713  0.0070 -0.0811  0.3303
 5323SOL    HW127605   4.374   1.451   5.653  2.1282 -4.6470 -1.9359
 5323SOL    HW227606   4.231   1.394   5.686 -0.4138 -0.5464  1.7833
 5324SOL     OW27607   2.608   0.434   1.035  0.1644  0.1751 -0.4100
 5324SOL    HW127608   2.559   0.514   1.051  0.1143  0.3767 -1.6165
 5324SOL    HW227609   2.693   0.460   1.072 -0.7940  2.0114  0.4633
 5325SOL     OW27610   4.574   4.272   7.934  0.0467 -0.3151 -0.3444
 5325SOL    HW127611   4.599   4.257   7.842 -2.0473 -0.3531 -0.9160
 5325SOL    HW227612   4.585   4.180   7.958 -3.9551  0.2191  3.4518
 5326SOL     OW27613   4.329   4.411  11.947 -0.4384  0.0991 -0.5376
 5326SOL    HW127614   4.382   4.335  11.974  0.9050  0.6529 -1.6005
 5326SOL    HW227615   4.257   4.393  12.007 -0.7721 -1.9712 -1.5421
 5327SOL     OW27616   0.079   2.844   7.286  0.5130  1.0864 -0.4840
 5327SOL    HW127617   0.071   2.749   7.279  0.1225  1.3168 -3.0448
 5327SOL    HW227618   0.148   2.857   7.221  0.5221  1.6743 -0.3524
 5328SOL     OW27619   0.128   4.169   4.419 -0.1056  0.4338 -0.1744
 5328SOL    HW127620   0.207   4.127   4.453  1.3118  3.5657  0.4369
 5328SOL    HW227621   0.089   4.103   4.362  4.5873 -2.7303  0.2264
 5329SOL     OW27622   2.755   1.088   6.389  0.2525  0.4420  0.0716
 5329SOL    HW127623   2.834   1.052   6.429  0.6965 -0.8342 -1.9399
 5329SOL    HW227624   2.723   1.149   6.456 -0.8948 -0.7642  0.6143
 5330SOL     OW27625   4.179   1.293   5.396  0.0176 -0.1594 -0.5695
 5330SOL    HW127626   4.195   1.375   5.349  1.4156 -0.3287 -0.3884
 5330SOL    HW227627   4.150   1.316   5.485  0.4232  1.0042 -0.7341
 5331SOL     OW27628   4.697   2.599   5.044  0.0729 -0.4724  0.4874
 5331SOL    HW127629   4.608   2.565   5.044  1.4019 -3.9588  3.9417
 5331SOL    HW227630   4.731   2.557   4.965  0.5563 -1.0081  0.9794
 5332SOL     OW27631   3.842   0.232  16.109  0.3173 -0.0587 -0.5190
 5332SOL    HW127632   3.753   0.200  16.096  0.1984  0.5469 -1.2173
 5332SOL    HW227633   3.837   0.272  16.196  0.0577 -1.3649  0.0650
 5333SOL     OW27634   3.803   4.391   7.128 -0.1486  0.1814  0.0552
 5333SOL    HW127635   3.761   4.307   7.150 -0.1672 -0.1488 -1.2572
 5333SOL    HW227636   3.752   4.453   7.181  2.1505  0.6085  1.7454
 5334SOL     OW27637   3.320   2.233   6.880  0.1963 -0.2220 -0.0668
 5334SOL    HW127638   3.362   2.211   6.797  0.5277 -0.5082  0.1801
 5334SOL    HW227639   3.271   2.153   6.895 -0.2152  0.0437  0.0111
 5335SOL     OW27640   3.592   2.555   4.671  0.3207 -0.0174  0.1006
 5335SOL    HW127641   3.516   2.594   4.629  0.8640 -0.6141 -1.4221
 5335SOL    HW227642   3.558   2.536   4.759 -0.7846 -1.1196 -0.5676
 5336SOL     OW27643   0.838   4.503   2.087 -0.3719  0.1973  0.5046
 5336SOL    HW127644   0.820   4.590   2.051  0.6465  0.8887  1.6750
 5336SOL    HW227645   0.807   4.510   2.177  0.0774  2.9113  0.4302
 5337SOL     OW27646   2.074   2.408   4.747 -0.0071  0.2497  0.7693
 5337SOL    HW127647   2.136   2.380   4.679 -1.2068  0.5968 -0.4579
 5337SOL    HW227648   2.129   2.427   4.823 -0.4901 -1.6596  1.6053
 5338SOL     OW27649   0.089   0.300   1.931  0.2530 -0.4476 -0.1753
 5338SOL    HW127650   0.013   0.344   1.891 -0.2159  0.6554  1.9144
 5338SOL    HW227651   0.071   0.207   1.924 -2.4377  0.0815 -0.4321
 5339SOL     OW27652   2.605   2.961   2.809 -0.2202 -0.2513  0.0163
 5339SOL    HW127653   2.518   2.943   2.844 -0.4570  0.9902  0.0800
 5339SOL    HW227654   2.597   3.001   2.723 -2.7289  0.4583  0.5905
 5340SOL     OW27655   1.714   1.676   1.998  0.2263 -0.3293 -0.3818
 5340SOL    HW127656   1.770   1.600   1.982  2.6297  1.3673 -0.0533
 5340SOL    HW227657   1.632   1.643   1.962 -0.2033  2.5309 -2.0480
 5341SOL     OW27658   4.003   3.433   7.236  0.1022 -1.2752  0.0353
 5341SOL    HW127659   3.991   3.490   7.312 -0.0707 -1.5419  0.2092
 5341SOL    HW227660   4.064   3.366   7.269  0.3651  1.3456  4.8146
 5342SOL     OW27661   0.268   1.083  13.620  0.5701 -0.2055 -0.6624
 5342SOL    HW127662   0.173   1.095  13.622  0.8640  2.1602 -0.0307
 5342SOL    HW227663   0.304   1.121  13.700  2.2102 -1.6133 -0.7284
 5343SOL     OW27664   2.958   3.243   2.981 -0.1058  0.2008  0.3416
 5343SOL    HW127665   2.877   3.242   2.930 -0.5997 -0.0446  1.1331
 5343SOL    HW227666   3.007   3.301   2.922 -1.4033 -1.1369 -2.0466
 5344SOL     OW27667   0.328   0.381   1.910 -0.1150  0.0008 -0.7919
 5344SOL    HW127668   0.243   0.338   1.921 -1.1000  2.1490 -0.0021
 5344SOL    HW227669   0.359   0.323   1.841  1.5107 -0.3260  0.2115
 5345SOL     OW27670   2.979   2.304   9.239  0.0011  1.2130  0.8545
 5345SOL    HW127671   2.973   2.337   9.328 -0.9566  0.8969  0.9114
 5345SOL    HW227672   3.016   2.376   9.188  2.4035 -0.7381 -0.1431
 5346SOL     OW27673   2.787   4.422   2.454 -0.5265 -0.6399  0.7207
 5346SOL    HW127674   2.721   4.449   2.518 -1.1185 -0.4968  0.0412
 5346SOL    HW227675   2.845   4.364   2.505  1.0701 -0.9423 -1.4439
 5347SOL     OW27676   4.581   4.020   5.468 -0.4351  0.3616  0.5565
 5347SOL    HW127677   4.518   3.953   5.443  1.1759 -1.6139  1.7466
 5347SOL    HW227678   4.552   4.105   5.434  0.2587 -0.3733 -1.8960
 5348SOL     OW27679   4.461   1.389  13.827  0.7260  0.0497 -0.4350
 5348SOL    HW127680   4.494   1.301  13.846 -0.6433 -0.6420 -1.2539
 5348SOL    HW227681   4.500   1.435  13.901 -2.1131  0.2338  0.9511
 5349SOL     OW27682   3.128   0.614  13.200  0.0388 -0.1212 -0.5584
 5349SOL    HW127683   3.100   0.702  13.178  0.7429  0.1591 -0.3509
 5349SOL    HW227684   3.156   0.637  13.289 -1.3238  2.9611 -0.9308
 5350SOL     OW27685   4.260   2.175   4.338 -0.4071  0.1549 -0.0032
 5350SOL    HW127686   4.263   2.081   4.324 -1.3452  0.1337 -0.0445
 5350SOL    HW227687   4.332   2.188   4.400 -0.0058 -2.7954  0.1258
 5351SOL     OW27688   3.877   1.348   2.608 -0.1192  0.1287  0.2951
 5351SOL    HW127689   3.962   1.332   2.567 -1.2326 -0.8404 -1.6307
 5351SOL    HW227690   3.868   1.277   2.672  2.2247  2.4591  3.1958
 5352SOL     OW27691   0.265   2.958   7.858  0.2554 -0.7449 -0.5012
 5352SOL    HW127692   0.232   3.048   7.853  0.4220 -0.7049 -0.8562
 5352SOL    HW227693   0.198   2.924   7.799 -0.3551  2.9523 -1.9618
 5353SOL     OW27694   3.605   2.155   1.643  0.4139 -0.5993  0.0024
 5353SOL    HW127695   3.550   2.090   1.687  1.0286 -1.6551 -0.7802
 5353SOL    HW227696   3.547   2.224   1.610  1.1209  0.0806  0.1765
 5354SOL     OW27697   0.720   1.728  10.264 -0.0572 -0.1788 -0.0761
 5354SOL    HW127698   0.644   1.671  10.275  0.0859 -0.3576 -0.0011
 5354SOL    HW227699   0.795   1.669  10.254 -0.1832 -0.0386 -1.8148
 5355SOL     OW27700   3.928   4.120  14.839  0.1226  0.3015  0.2373
 5355SOL    HW127701   3.932   4.212  14.866 -1.8231  0.2593  0.6705
 5355SOL    HW227702   3.894   4.074  14.916 -1.1676  0.8815  0.0139
 5356SOL     OW27703   2.200   1.794  16.434 -0.5665  0.0327  0.1676
 5356SOL    HW127704   2.201   1.882  16.472  1.6029 -0.7757  2.0234
 5356SOL    HW227705   2.260   1.798  16.360 -0.1464  1.6724  0.6095
 5357SOL     OW27706   1.973   2.264   3.152 -0.5070 -0.4199  0.2571
 5357SOL    HW127707   1.937   2.204   3.217  0.0584  0.5736  1.4838
 5357SOL    HW227708   2.018   2.319   3.216 -2.4967 -1.0098  2.1519
 5358SOL     OW27709   0.874   4.670   1.780  0.0606 -0.1750 -0.6742
 5358SOL    HW127710   0.833   0.013   1.753  1.3639 -0.2137 -2.7452
 5358SOL    HW227711   0.907   4.701   1.865  1.8730 -1.9941 -0.7339
 5359SOL     OW27712   3.064   0.738   8.832 -0.2896  0.5836 -0.1551
 5359SOL    HW127713   3.073   0.643   8.833  0.9856  0.6874 -1.6002
 5359SOL    HW227714   2.972   0.757   8.850  0.3703  3.4797  0.1529
 5360SOL     OW27715   3.673   0.469   6.607 -0.2838 -0.0171 -0.3014
 5360SOL    HW127716   3.663   0.542   6.547 -1.3764  1.4347  1.6380
 5360SOL    HW227717   3.742   0.501   6.666 -0.5261  0.5428 -0.3239
 5361SOL     OW27718   3.492   1.260   2.377  0.0049  0.0532  0.1409
 5361SOL    HW127719   3.402   1.237   2.357  0.7744 -2.6559 -0.2173
 5361SOL    HW227720   3.521   1.285   2.289  0.2625 -2.1995 -0.4308
 5362SOL     OW27721   0.647   0.432  14.670 -0.2363 -0.4708 -0.3025
 5362SOL    HW127722   0.659   0.403  14.579  0.4020 -1.9076  0.2265
 5362SOL    HW227723   0.639   0.349  14.717  1.7332  0.4526  1.6599
 5363SOL     OW27724   1.252   0.277  10.730 -0.0474  0.0987  0.4918
 5363SOL    HW127725   1.193   0.218  10.683 -0.0773  1.4900 -1.2361
 5363SOL    HW227726   1.263   0.340  10.658  0.4194 -0.3255  0.1908
 5364SOL     OW27727   2.910   4.418   7.384  0.3579 -0.8354  0.1376
 5364SOL    HW127728   2.907   4.334   7.338  1.6342 -0.8409  0.0584
 5364SOL    HW227729   2.816   4.438   7.393 -0.2785 -3.3371 -1.0724
 5365SOL     OW27730   2.384   0.308   6.321 -0.4494  0.4331 -0.0718
 5365SOL    HW127731   2.370   0.365   6.246  1.0490 -1.0419 -1.4713
 5365SOL    HW227732   2.323   0.343   6.386  1.5170 -0.1715  2.1476
 5366SOL     OW27733   2.493   0.575  12.422 -0.5643  0.1715  0.3946
 5366SOL    HW127734   2.580   0.535  12.414 -0.7310 -0.5064  1.8416
 5366SOL    HW227735   2.520   0.666  12.431 -0.8021  0.2025  0.8129
 5367SOL     OW27736   3.443   3.379  10.284  0.5865  0.4681  0.0643
 5367SOL    HW127737   3.511   3.423  10.234  0.7545  1.1124  0.8617
 5367SOL    HW227738   3.498   3.321  10.338 -2.2233 -0.2223  2.1636
 5368SOL     OW27739   1.240   1.816  11.626 -0.1452  0.0190 -0.0035
 5368SOL    HW127740   1.198   1.896  11.593 -0.9925 -1.2193 -1.9025
 5368SOL    HW227741   1.289   1.850  11.701 -1.1372  1.7945 -0.1543
 5369SOL     OW27742   1.519   4.165  14.999  0.0196  0.2102 -0.6448
 5369SOL    HW127743   1.466   4.086  14.984 -2.8941  2.0276  0.1545
 5369SOL    HW227744   1.547   4.173  14.907 -1.1090  1.3744 -0.8891
 5370SOL     OW27745   1.815   4.622   8.241  0.1860  0.3484 -0.3214
 5370SOL    HW127746   1.764   4.591   8.166 -0.2774  0.9213 -0.2491
 5370SOL    HW227747   1.886   4.668   8.196 -0.4652  0.9021 -0.7892
 5371SOL     OW27748   0.736   1.186   1.160  0.0882 -0.6911  0.2540
 5371SOL    HW127749   0.829   1.207   1.165  0.5685 -2.9627  0.8523
 5371SOL    HW227750   0.713   1.247   1.089 -0.5720  0.8177  1.7605
 5372SOL     OW27751   4.134   3.062   1.757  0.0517  0.1990 -0.4301
 5372SOL    HW127752   4.187   3.023   1.687 -1.3543 -0.1040 -1.3204
 5372SOL    HW227753   4.065   2.997   1.769  2.4757 -2.5354 -1.3022
 5373SOL     OW27754   4.144   0.649   9.352  0.0677  0.3454  0.1516
 5373SOL    HW127755   4.065   0.619   9.398 -0.7371  0.9931 -0.8060
 5373SOL    HW227756   4.217   0.614   9.403 -1.6356 -0.6320  1.9294
 5374SOL     OW27757   0.317   0.878   5.419  0.8087 -0.5862 -0.0921
 5374SOL    HW127758   0.255   0.922   5.360  2.7108  0.5011 -1.2507
 5374SOL    HW227759   0.335   0.802   5.364 -0.0258 -2.2428  1.8981
 5375SOL     OW27760   1.778   2.321  12.180  0.4683  0.0139  0.7600
 5375SOL    HW127761   1.694   2.304  12.223  0.2403  0.8662  0.6433
 5375SOL    HW227762   1.816   2.364  12.256  0.5042  1.6716 -0.1984
 5376SOL     OW27763   2.385   4.612   6.979  0.0604  0.4497  0.8425
 5376SOL    HW127764   2.410   4.703   6.995  0.0038  0.5759  0.2404
 5376SOL    HW227765   2.399   4.604   6.884 -1.3558  1.6537  0.5261
 5377SOL     OW27766   3.200   0.397   7.018 -0.2129 -0.8789 -0.3195
 5377SOL    HW127767   3.138   0.336   7.057 -0.1858 -1.5715 -1.3570
 5377SOL    HW227768   3.237   0.445   7.091 -1.6667  0.4785 -0.4772
 5378SOL     OW27769   4.496   2.525   2.310  0.0084  0.0566 -0.1906
 5378SOL    HW127770   4.459   2.514   2.222 -0.2991 -0.2737 -0.0197
 5378SOL    HW227771   4.470   2.441   2.348  3.0029 -1.8102 -2.2679
 5379SOL     OW27772   1.642   4.492   8.037  0.2815  0.3377 -0.0010
 5379SOL    HW127773   1.602   4.455   8.116 -0.9939 -0.9714 -1.2785
 5379SOL    HW227774   1.572   4.468   7.976 -0.1544  0.1902  0.5497
 5380SOL     OW27775   0.432   2.067   7.084  0.0865  0.6182  0.3146
 5380SOL    HW127776   0.376   2.025   7.018 -1.0681  0.4825  1.3994
 5380SOL    HW227777   0.405   2.158   7.072  3.0614  1.5342  0.6770
 5381SOL     OW27778   0.984   2.575   8.513  0.6093  0.3628  0.0302
 5381SOL    HW127779   0.975   2.670   8.520  1.8271  0.4959 -0.1294
 5381SOL    HW227780   0.893   2.562   8.487  0.5642  0.3525  0.1944
 5382SOL     OW27781   1.913   1.449   5.989  0.4719 -0.7570 -0.1512
 5382SOL    HW127782   1.937   1.507   5.917  2.1602  0.3359  1.2840
 5382SOL    HW227783   1.851   1.396   5.939 -0.8131  0.8578 -0.3058
 5383SOL     OW27784   3.798   1.095   5.418 -0.7812  0.2084  0.4667
 5383SOL    HW127785   3.739   1.071   5.345 -0.9814  3.4281 -0.4114
 5383SOL    HW227786   3.735   1.093   5.490 -1.0253 -0.9642  0.2300
 5384SOL     OW27787   3.189   0.069   9.547  0.4749 -0.1783  0.3485
 5384SOL    HW127788   3.225   0.147   9.589  1.0474 -0.4255  0.3197
 5384SOL    HW227789   3.115   0.113   9.506  2.1617  2.7720  0.4730
 5385SOL     OW27790   3.854   1.096   2.103  0.1183  0.6858 -0.2422
 5385SOL    HW127791   3.877   1.177   2.148 -0.9185  0.1180  1.2927
 5385SOL    HW227792   3.937   1.048   2.099  1.1730  2.4129  0.9987
 5386SOL     OW27793   2.534   1.521  17.446 -0.0929  0.0992 -0.5023
 5386SOL    HW127794   2.462   1.464  17.472 -0.7476  0.7414 -0.9073
 5386SOL    HW227795   2.605   1.458  17.432  1.2345  1.9141 -1.9574
 5387SOL     OW27796   1.732   3.740   4.639  0.4440 -0.0859 -0.5997
 5387SOL    HW127797   1.731   3.645   4.633 -2.6003 -0.0640 -0.1451
 5387SOL    HW227798   1.640   3.755   4.620 -0.2146 -1.3199  1.5667
 5388SOL     OW27799   1.978   0.825   8.349  0.0806  0.2499  0.2822
 5388SOL    HW127800   1.931   0.908   8.345 -1.9846 -0.9717 -0.7406
 5388SOL    HW227801   1.931   0.789   8.425 -0.7396 -1.4540 -1.0168
 5389SOL     OW27802   2.672   1.125   2.796 -0.4393 -0.0955 -0.6886
 5389SOL    HW127803   2.619   1.142   2.874  0.2868 -1.4986  0.1210
 5389SOL    HW227804   2.744   1.188   2.807 -0.9760  0.5558 -0.9445
 5390SOL     OW27805   0.432   0.014  10.078 -0.0577  0.1421  0.5204
 5390SOL    HW127806   0.517   0.033  10.118 -0.2912  0.3958  0.8851
 5390SOL    HW227807   0.388   0.092  10.112 -0.4292  0.5983 -0.9932
 5391SOL     OW27808   2.483   2.786  10.788 -1.1213 -0.5045 -0.0488
 5391SOL    HW127809   2.516   2.818  10.704  0.0479  1.1502  1.0324
 5391SOL    HW227810   2.391   2.798  10.764 -0.4896 -0.0214 -2.2874
 5392SOL     OW27811   3.406   4.171   6.430  0.1075 -0.7421  0.1533
 5392SOL    HW127812   3.418   4.085   6.389 -1.4789 -1.3521  0.9598
 5392SOL    HW227813   3.323   4.163   6.479 -0.5412 -0.8336 -0.9680
 5393SOL     OW27814   2.322   2.900   8.268 -0.0751  0.0285 -0.2282
 5393SOL    HW127815   2.403   2.931   8.311 -0.2135  0.3475 -0.1966
 5393SOL    HW227816   2.320   2.822   8.323 -0.3270 -0.2475 -0.6290
 5394SOL     OW27817   0.398   2.473  17.355 -0.2008  0.2127  0.4642
 5394SOL    HW127818   0.322   2.415  17.356 -0.2989  0.3398  0.1430
 5394SOL    HW227819   0.447   2.439  17.281  1.2338  0.9484  1.0669
 5395SOL     OW27820   1.062   3.848  14.621  0.4951 -0.4606  0.6591
 5395SOL    HW127821   1.009   3.871  14.544  0.9757 -0.3499  0.3647
 5395SOL    HW227822   1.055   3.931  14.668  2.0320 -0.2204  0.4351
 5396SOL     OW27823   1.102   1.066   7.645  0.8059 -0.1329  0.1373
 5396SOL    HW127824   1.076   1.012   7.719  1.1179 -0.1624  0.2229
 5396SOL    HW227825   1.022   1.109   7.613 -0.7969 -1.8755  1.8390
 5397SOL     OW27826   0.235   0.303   3.187 -0.1230 -0.3653  0.0211
 5397SOL    HW127827   0.328   0.310   3.211  0.0951 -0.0336 -0.9200
 5397SOL    HW227828   0.219   0.209   3.184 -2.9320  0.1966 -2.7056
 5398SOL     OW27829   0.968   3.143  17.620 -0.5505  1.0779  0.0388
 5398SOL    HW127830   1.024   3.099  17.684 -1.9610 -0.6123  0.1125
 5398SOL    HW227831   0.896   3.081  17.628  0.1450  0.1810 -0.7087
 5399SOL     OW27832   3.530   2.101   9.394  0.0879 -0.0188  0.8115
 5399SOL    HW127833   3.487   2.058   9.320  2.0903 -1.3474  0.3934
 5399SOL    HW227834   3.499   2.055   9.472  0.0136 -1.5033 -0.1047
 5400SOL     OW27835   4.031   3.571   4.816 -0.0596 -0.3574  0.6380
 5400SOL    HW127836   4.008   3.542   4.728  0.6247 -0.2603  0.4288
 5400SOL    HW227837   4.125   3.581   4.800 -0.6463  0.0474 -2.4667
 5401SOL     OW27838   0.685   0.968   4.449 -0.1033  0.0309  0.3925
 5401SOL    HW127839   0.700   1.039   4.511  2.4034  0.8482 -1.1577
 5401SOL    HW227840   0.594   0.984   4.423 -0.8612  1.6212  4.1115
 5402SOL     OW27841   0.303   2.184   1.880 -0.1329 -0.1494 -0.4942
 5402SOL    HW127842   0.287   2.274   1.853 -0.1003  0.0842  0.2566
 5402SOL    HW227843   0.258   2.137   1.809  2.2807 -2.0211 -0.7765
 5403SOL     OW27844   0.831   0.322  17.561 -0.2730 -0.3384  0.3987
 5403SOL    HW127845   0.762   0.256  17.566  1.9444 -2.6819  0.0115
 5403SOL    HW227846   0.780   0.392  17.602  0.8342  1.0512 -0.5856
 5404SOL     OW27847   0.004   2.369   5.921  0.6774 -0.0705 -0.4590
 5404SOL    HW127848   0.076   2.370   5.858 -0.0606  2.2359 -1.2551
 5404SOL    HW227849   0.036   2.411   6.000  0.9437  1.4547 -1.3849
 5405SOL     OW27850   0.478   0.349   0.292 -0.5666  0.2364  0.0993
 5405SOL    HW127851   0.508   0.414   0.356  0.1910  0.3350 -0.3485
 5405SOL    HW227852   0.554   0.291   0.297 -0.8623 -0.3225 -1.7274
 5406SOL     OW27853   2.347   3.326   7.950  0.3478  0.4127 -0.1241
 5406SOL    HW127854   2.299   3.359   7.874 -0.3440 -1.3776 -0.4562
 5406SOL    HW227855   2.311   3.238   7.965 -0.5020  0.4929 -1.6633
 5407SOL     OW27856   4.310   2.697   7.179 -0.2413 -0.9443  0.1529
 5407SOL    HW127857   4.311   2.669   7.087  2.6475 -1.4456  0.3478
 5407SOL    HW227858   4.240   2.762   7.176  1.9794  1.4734  1.2606
 5408SOL     OW27859   0.610   2.391   2.160  0.1792  0.4336 -0.5026
 5408SOL    HW127860   0.636   2.376   2.251  2.4340  1.6720 -0.9330
 5408SOL    HW227861   0.688   2.350   2.123 -0.7641 -1.7894 -0.0739
 5409SOL     OW27862   4.167   2.500   5.079 -0.0467 -0.2768 -0.4929
 5409SOL    HW127863   4.119   2.548   5.146  0.5920 -0.9374  0.4421
 5409SOL    HW227864   4.113   2.511   5.001 -0.9430 -1.3622 -0.0227
 5410SOL     OW27865   0.217   3.233   4.889  0.3117 -0.1291 -0.0961
 5410SOL    HW127866   0.129   3.199   4.873  0.0478  0.3125  0.4225
 5410SOL    HW227867   0.270   3.195   4.819  0.1514  0.6420 -0.6366
 5411SOL     OW27868   1.742   1.162   7.693  0.9740 -0.1413 -0.5133
 5411SOL    HW127869   1.822   1.214   7.680  0.5618  0.2003 -1.7036
 5411SOL    HW227870   1.683   1.236   7.710 -0.2439 -1.0020 -1.0721
 5412SOL     OW27871   4.169   0.398   3.252  0.1392  0.0672 -0.1542
 5412SOL    HW127872   4.116   0.477   3.241  2.1611  1.1021 -2.3404
 5412SOL    HW227873   4.137   0.371   3.338  2.3573 -0.1394  0.6109
 5413SOL     OW27874   0.015   2.117  15.777  0.4285 -0.2128 -0.2861
 5413SOL    HW127875   0.050   2.104  15.689  1.0508  0.7209 -0.1722
 5413SOL    HW227876   4.660   2.117  15.758  0.3118 -1.5483  0.2727
 5414SOL     OW27877   2.088   3.653   6.067 -0.6338  0.4536  0.1647
 5414SOL    HW127878   2.035   3.587   6.023  0.2778 -0.0259 -0.2046
 5414SOL    HW227879   2.140   3.595   6.122 -1.2389  0.8215  1.1263
 5415SOL     OW27880   0.980   4.023  16.312 -0.6382  0.0904  0.5914
 5415SOL    HW127881   1.017   4.016  16.224  0.3235 -1.2946  1.1086
 5415SOL    HW227882   0.891   4.032  16.279 -0.3757 -0.3406 -0.2255
 5416SOL     OW27883   1.911   2.569   4.914  0.1441  0.1052 -0.5294
 5416SOL    HW127884   1.858   2.609   4.846 -0.6373 -1.8648 -1.0700
 5416SOL    HW227885   1.980   2.551   4.850 -1.0876 -0.5086 -1.6869
 5417SOL     OW27886   4.130   0.767   7.772 -0.5954  0.1232  0.4556
 5417SOL    HW127887   4.194   0.837   7.756 -1.1786  0.8777  1.4293
 5417SOL    HW227888   4.052   0.819   7.753 -0.2920 -0.5417 -2.6070
 5418SOL     OW27889   3.179   0.904   9.199  0.1693 -0.1838 -0.4160
 5418SOL    HW127890   3.208   0.826   9.246  0.1802 -0.4394 -0.8431
 5418SOL    HW227891   3.223   0.891   9.115  1.8144  1.9698  0.1074
 5419SOL     OW27892   0.934   1.468   3.012  0.3578 -0.4118 -0.0820
 5419SOL    HW127893   0.920   1.375   2.994 -1.5841 -0.4282  1.5106
 5419SOL    HW227894   1.002   1.456   3.079  0.2250 -1.1558 -0.0787
 5420SOL     OW27895   0.164   0.129   5.101 -0.1741 -0.9442  0.2578
 5420SOL    HW127896   0.210   0.199   5.148  2.6192 -1.5680 -1.5495
 5420SOL    HW227897   0.236   0.068   5.081 -0.1723  0.2581 -3.4226
 5421SOL     OW27898   4.627   4.388   3.373 -0.0591  0.6846 -0.1837
 5421SOL    HW127899   4.704   4.414   3.323  0.5388 -2.2428 -0.8348
 5421SOL    HW227900   4.669   4.312   3.415  1.1911  0.7235 -1.3725
 5422SOL     OW27901   1.617   2.584   2.395 -0.2483 -0.2454  0.3193
 5422SOL    HW127902   1.611   2.594   2.300  0.2432  1.4069  0.4657
 5422SOL    HW227903   1.528   2.556   2.419 -0.0998  0.7373  2.0364
 5423SOL     OW27904   0.693   0.983  12.932  0.3545  0.5662  0.1079
 5423SOL    HW127905   0.675   1.047  12.863 -1.0702 -0.8454 -0.8414
 5423SOL    HW227906   0.659   0.904  12.890 -2.4478  0.2003  3.0141
 5424SOL     OW27907   3.003   1.300  15.955  0.1077 -0.2374 -0.1268
 5424SOL    HW127908   2.932   1.267  15.900  0.2806 -0.4454 -0.2248
 5424SOL    HW227909   2.948   1.326  16.029  0.0358  1.4794 -0.7929
 5425SOL     OW27910   3.043   2.397  12.491 -0.0659 -0.1015  0.0872
 5425SOL    HW127911   2.949   2.413  12.482 -0.2343 -1.6224 -0.9934
 5425SOL    HW227912   3.076   2.411  12.402  0.5200  0.5174  0.4027
 5426SOL     OW27913   0.953   1.065  16.072  0.4949 -0.5357 -0.1674
 5426SOL    HW127914   0.878   1.125  16.076  0.2366 -1.0402  2.4025
 5426SOL    HW227915   1.016   1.126  16.034  0.8583 -0.8544 -0.0718
 5427SOL     OW27916   4.482   0.962  13.113  0.3456 -0.2479 -1.0690
 5427SOL    HW127917   4.534   0.912  13.176  1.5454 -0.0781 -1.9141
 5427SOL    HW227918   4.440   1.029  13.167 -0.2774 -0.8485 -0.8190
 5428SOL     OW27919   0.829   4.279   8.931  0.1643 -0.3098  0.2250
 5428SOL    HW127920   0.874   4.360   8.957  1.5503 -1.1605  0.4798
 5428SOL    HW227921   0.798   4.248   9.016  1.0983 -0.7546  0.4084
 5429SOL     OW27922   1.680   3.462   2.416 -0.5638 -0.4089  0.0113
 5429SOL    HW127923   1.743   3.497   2.479 -0.9829  0.2326  0.0658
 5429SOL    HW227924   1.746   3.417   2.361 -0.3963  2.8133 -2.4362
 5430SOL     OW27925   1.801   4.088   7.654  0.2640  1.1205  0.5419
 5430SOL    HW127926   1.828   4.180   7.658  0.9803  0.9610 -0.5279
 5430SOL    HW227927   1.795   4.075   7.559 -0.5077 -3.9707  1.2600
 5431SOL     OW27928   3.082   1.744   7.290 -0.5105  0.6344  0.5335
 5431SOL    HW127929   3.109   1.744   7.199  2.1370 -0.0923  1.3334
 5431SOL    HW227930   3.025   1.667   7.294 -0.7113  0.7927  0.7621
 5432SOL     OW27931   3.006   1.856   3.281 -0.0073  0.3240  0.0080
 5432SOL    HW127932   3.038   1.830   3.195  1.6329 -1.8589  1.3014
 5432SOL    HW227933   3.050   1.796   3.341  4.1916  3.3458 -0.0187
 5433SOL     OW27934   1.531   4.680   7.542 -0.2809  0.1264 -0.3444
 5433SOL    HW127935   1.447   4.726   7.539  0.0018  0.5023 -2.2228
 5433SOL    HW227936   1.576   4.726   7.613 -0.9903  0.7514 -0.3006
 5434SOL     OW27937   1.050   2.848   8.606  0.7905  0.6268  0.0919
 5434SOL    HW127938   1.011   2.804   8.682 -0.6185 -1.7775 -2.0418
 5434SOL    HW227939   1.131   2.882   8.645  1.5643  0.0243 -0.9814
 5435SOL     OW27940   3.667   3.378   1.749 -0.2576 -0.1217  0.1475
 5435SOL    HW127941   3.621   3.338   1.823  0.5052 -1.0604  0.1213
 5435SOL    HW227942   3.759   3.365   1.776  0.2198  0.4736 -1.2220
 5436SOL     OW27943   3.830   1.337   5.839 -0.3385  0.0501  0.0975
 5436SOL    HW127944   3.740   1.344   5.869  0.2504  0.6601  1.7532
 5436SOL    HW227945   3.846   1.242   5.846  0.4972  0.2067  0.4099
 5437SOL     OW27946   2.446   1.216   3.972 -0.2989 -0.2034  0.0366
 5437SOL    HW127947   2.360   1.233   3.932 -1.4386 -0.5869  2.3262
 5437SOL    HW227948   2.439   1.259   4.057 -0.2604 -1.6506  0.7676
 5438SOL     OW27949   4.444   3.964  11.874 -0.2453  0.5970 -0.1092
 5438SOL    HW127950   4.470   4.050  11.906  1.1249 -0.4048  1.4999
 5438SOL    HW227951   4.484   3.969  11.787  1.6348 -3.0086  0.5512
 5439SOL     OW27952   3.360   3.946   1.863 -0.2701  0.7424 -0.0540
 5439SOL    HW127953   3.334   3.959   1.771  0.5657 -2.4985 -0.7372
 5439SOL    HW227954   3.329   3.857   1.880  0.6135  0.4622  0.0798
 5440SOL     OW27955   2.812   3.729   6.544  0.3353  0.3547  0.1946
 5440SOL    HW127956   2.788   3.793   6.477 -0.5930 -0.3864 -0.1830
 5440SOL    HW227957   2.853   3.783   6.611  0.2501 -2.1344  2.2641
 5441SOL     OW27958   4.592   0.062   5.693 -0.0612 -0.4673  0.2747
 5441SOL    HW127959   4.597   0.053   5.597 -3.1828  0.6624  0.0124
 5441SOL    HW227960   4.522   0.000   5.713  0.1339 -0.0380  2.2423
 5442SOL     OW27961   1.966   3.893   6.205  0.1814  0.8116  0.3891
 5442SOL    HW127962   2.044   3.841   6.185  1.8166  3.3079  0.2381
 5442SOL    HW227963   1.909   3.871   6.131  0.2436  0.4317  0.4542
 5443SOL     OW27964   3.618   1.739   5.747 -0.2424  0.0689  0.2429
 5443SOL    HW127965   3.630   1.710   5.657  0.8431  1.3344  0.0009
 5443SOL    HW227966   3.702   1.716   5.787 -0.9982 -0.1988  1.6955
 5444SOL     OW27967   2.629   3.989   1.560  0.4161  0.4676 -0.0996
 5444SOL    HW127968   2.695   3.920   1.573  1.0733  1.3074  0.9287
 5444SOL    HW227969   2.593   4.004   1.647 -0.0939  1.0327 -0.4059
 5445SOL     OW27970   4.149   1.266  13.263  0.5649 -0.4732  0.1527
 5445SOL    HW127971   4.130   1.278  13.170 -0.6237 -1.3903  0.2769
 5445SOL    HW227972   4.224   1.206  13.259  1.8481  1.0680  0.7056
 5446SOL     OW27973   4.585   1.005   6.164  0.6392  1.1095  0.2623
 5446SOL    HW127974   4.571   0.911   6.155 -1.4133  1.4644 -0.0888
 5446SOL    HW227975   4.629   1.027   6.082 -1.8576  1.3043 -0.9984
 5447SOL     OW27976   1.317   0.848   7.563 -0.3861  0.4620 -0.4793
 5447SOL    HW127977   1.222   0.853   7.575 -0.3188 -2.3007  1.4513
 5447SOL    HW227978   1.327   0.873   7.472 -1.0650  1.4066 -0.2919
 5448SOL     OW27979   2.880   0.765  12.689 -0.8379 -0.1244  0.3492
 5448SOL    HW127980   2.883   0.806  12.775  2.0288 -2.0538  1.2039
 5448SOL    HW227981   2.846   0.679  12.713 -0.1796 -0.7058 -0.7932
 5449SOL     OW27982   3.053   4.046   3.218 -0.3297  0.2232  0.2259
 5449SOL    HW127983   3.123   4.046   3.283 -2.6728 -2.3317  2.7954
 5449SOL    HW227984   3.075   3.968   3.168  1.7503  0.7109  0.3840
 5450SOL     OW27985   3.164   1.476   5.560  0.0608  0.6961  0.5313
 5450SOL    HW127986   3.175   1.546   5.624  0.0289  1.1556  0.0298
 5450SOL    HW227987   3.078   1.439   5.584  0.4909 -0.0953  0.8548
 5451SOL     OW27988   4.513   2.370  16.069 -0.3595  0.1076  0.0364
 5451SOL    HW127989   4.596   2.327  16.049 -1.0498 -0.4944 -1.4813
 5451SOL    HW227990   4.523   2.435  16.000  2.0633 -0.9330 -0.6017
 5452SOL     OW27991   3.163   3.854   6.908  0.3587  1.0246 -0.7676
 5452SOL    HW127992   3.150   3.762   6.930  1.4635  0.9506 -0.4464
 5452SOL    HW227993   3.252   3.854   6.874  1.2481 -3.3384  1.6432
 5453SOL     OW27994   0.024   3.248   2.314  0.1177  0.0513  0.3758
 5453SOL    HW127995   0.063   3.309   2.251 -2.0698  1.4587  0.4016
 5453SOL    HW227996   0.017   3.177   2.250  1.8238 -1.3282  1.7158
 5454SOL     OW27997   4.091   1.785   1.906 -0.5899 -0.0942 -0.1594
 5454SOL    HW127998   4.111   1.839   1.983  1.1908 -0.4504 -0.3720
 5454SOL    HW227999   4.016   1.734   1.936 -0.7335  0.7126  0.8822
 5455SOL     OW28000   0.950   2.949   4.752  0.2138  0.1176  0.9234
 5455SOL    HW128001   1.002   2.964   4.831 -0.1429  2.6350  0.7010
 5455SOL    HW228002   0.918   2.863   4.781 -2.4249  0.2892 -1.4851
 5456SOL     OW28003   1.570   3.228   8.938  0.7614 -0.2273  0.4166
 5456SOL    HW128004   1.543   3.212   8.848 -0.4754 -1.3501  0.9901
 5456SOL    HW228005   1.640   3.163   8.943  0.2994 -0.9191 -2.1482
 5457SOL     OW28006   3.445   2.869   2.951 -0.1500 -1.1655 -0.2931
 5457SOL    HW128007   3.394   2.909   2.880  1.6603  1.4017 -0.1474
 5457SOL    HW228008   3.438   2.927   3.026 -4.2556  1.3328 -2.5912
 5458SOL     OW28009   2.291   1.355  13.203  0.6820 -0.4092 -0.0435
 5458SOL    HW128010   2.249   1.349  13.289 -2.1367 -0.2874 -1.4110
 5458SOL    HW228011   2.303   1.264  13.175  1.2984  0.1848 -1.7285
 5459SOL     OW28012   2.729   4.286   1.525  0.4630 -0.0938  0.0338
 5459SOL    HW128013   2.645   4.313   1.563  0.3505 -1.4281  0.7056
 5459SOL    HW228014   2.742   4.211   1.582 -0.8885 -0.4616 -0.1259
 5460SOL     OW28015   3.427   3.922   2.335  1.2195  0.0599  0.3244
 5460SOL    HW128016   3.380   3.996   2.296  0.6221 -0.3596  0.2467
 5460SOL    HW228017   3.459   3.880   2.255 -0.0871  1.4934 -0.9561
 5461SOL     OW28018   1.918   1.946  12.691  0.1665 -0.1669 -0.6056
 5461SOL    HW128019   1.931   1.965  12.599 -0.2667  0.3667 -0.5566
 5461SOL    HW228020   1.849   1.879  12.686  1.2413 -1.1805 -1.7936
 5462SOL     OW28021   0.102   1.745  11.168  0.0027  1.3441  0.5974
 5462SOL    HW128022   0.052   1.815  11.209 -0.8359 -0.0029  1.8932
 5462SOL    HW228023   0.037   1.698  11.115 -1.1765  0.2890  2.9907
 5463SOL     OW28024   1.858   4.209  15.469 -0.1993  0.2307 -0.1884
 5463SOL    HW128025   1.808   4.204  15.388 -1.0327  2.3916  0.1956
 5463SOL    HW228026   1.808   4.141  15.514 -2.1691  1.2078 -0.9300
 5464SOL     OW28027   2.564   4.331   9.841  0.5416 -0.2403  0.3072
 5464SOL    HW128028   2.509   4.407   9.857  0.3606 -0.1625 -0.6792
 5464SOL    HW228029   2.578   4.350   9.748 -1.4759 -1.0678 -0.1613
 5465SOL     OW28030   0.945   0.820   5.035 -0.1101 -0.5470  0.6363
 5465SOL    HW128031   1.003   0.880   4.987 -0.8604 -1.5816 -1.5763
 5465SOL    HW228032   0.853   0.830   5.009  0.3642 -0.0090 -0.8665
 5466SOL     OW28033   0.073   3.320   3.166  0.4795 -0.0481  0.0704
 5466SOL    HW128034   4.720   3.314   3.192  1.1189  1.5243  2.6795
 5466SOL    HW228035   0.094   3.408   3.197  1.6414  0.0292 -0.9379
 5467SOL     OW28036   1.561   3.359   6.601  0.4249  0.1688  0.4229
 5467SOL    HW128037   1.598   3.446   6.585 -0.5018  0.3536 -0.6466
 5467SOL    HW228038   1.577   3.324   6.514  1.5542 -1.0876  1.1267
 5468SOL     OW28039   1.840   4.545  10.535  0.3285  0.3894  0.3041
 5468SOL    HW128040   1.807   4.560  10.623  0.3262  0.5992  0.2672
 5468SOL    HW228041   1.846   4.634  10.499 -1.0286 -0.0789 -1.0613
 5469SOL     OW28042   2.727   3.783   9.744  0.0104 -0.0443 -0.0855
 5469SOL    HW128043   2.713   3.689   9.735 -0.8023  0.1195 -0.5806
 5469SOL    HW228044   2.667   3.802   9.816  1.1565  0.5803  0.6973
 5470SOL     OW28045   0.386   1.225   2.856  0.4420 -0.1820  0.3647
 5470SOL    HW128046   0.421   1.213   2.768 -1.5938  0.1322 -0.4872
 5470SOL    HW228047   0.331   1.146   2.854 -0.2526  0.2806  1.1914
 5471SOL     OW28048   1.161   3.212  11.810 -0.4144  0.2358 -0.0575
 5471SOL    HW128049   1.106   3.229  11.734  0.5059 -0.2453 -0.8310
 5471SOL    HW228050   1.096   3.190  11.876 -1.9117  1.8148 -1.0050
 5472SOL     OW28051   0.939   2.542   2.265 -0.6347  0.9502  0.0251
 5472SOL    HW128052   0.906   2.477   2.203  0.2553  2.3424 -1.9017
 5472SOL    HW228053   0.955   2.614   2.204 -1.1538 -2.5105 -4.1653
 5473SOL     OW28054   4.569   0.536  13.213 -0.3277  0.1187  0.9652
 5473SOL    HW128055   4.579   0.628  13.237 -2.3517  0.5943 -0.0404
 5473SOL    HW228056   4.531   0.522  13.300 -0.7425  0.0064  0.7670
 5474SOL     OW28057   3.165   1.084   7.918  0.3254  0.0878 -0.3029
 5474SOL    HW128058   3.188   1.157   7.976 -1.5186  0.8137 -0.5060
 5474SOL    HW228059   3.142   1.141   7.845  1.6825  2.2287  0.9106
 5475SOL     OW28060   3.367   0.043   5.484 -0.3573 -0.5304 -0.3270
 5475SOL    HW128061   3.337   0.073   5.570  0.4655 -1.4285  0.2785
 5475SOL    HW228062   3.427   4.710   5.504  0.5970  0.6819  1.1838
 5476SOL     OW28063   2.342   0.874   3.588 -0.3130 -0.1831  0.3142
 5476SOL    HW128064   2.365   0.967   3.587  0.4208 -0.3870 -1.3763
 5476SOL    HW228065   2.358   0.856   3.496 -1.0060  1.1732 -0.0765
 5477SOL     OW28066   0.113   3.275   8.954  0.2130 -0.5479  0.4493
 5477SOL    HW128067   0.189   3.331   8.944 -0.6522  1.0836  3.0224
 5477SOL    HW228068   0.087   3.280   9.046 -0.2693  2.5620  0.1229
 5478SOL     OW28069   4.671   1.860   8.346  0.0672  0.1881 -0.1163
 5478SOL    HW128070   4.642   1.776   8.383  2.6490 -1.6971 -2.4598
 5478SOL    HW228071   4.631   1.917   8.412  2.4759  0.9979  0.6396
 5479SOL     OW28072   1.740   2.972   7.674  0.2507 -0.1451 -0.1078
 5479SOL    HW128073   1.765   2.900   7.732  0.1301  0.5710  0.8234
 5479SOL    HW228074   1.726   2.928   7.590 -1.2384 -1.2454  0.7159
 5480SOL     OW28075   3.742   0.539  16.082 -0.1507  0.8981  0.7052
 5480SOL    HW128076   3.826   0.493  16.086 -0.0349  0.8407 -2.8110
 5480SOL    HW228077   3.743   0.614  16.022 -1.8318 -0.4442 -0.9701
 5481SOL     OW28078   1.025   1.766  13.908 -0.3356 -0.2750  0.4582
 5481SOL    HW128079   0.963   1.839  13.910 -0.3856 -0.3073 -0.0105
 5481SOL    HW228080   0.971   1.703  13.861 -2.3647  2.3346 -0.6462
 5482SOL     OW28081   3.778   4.031   3.356  0.0397 -0.1033 -0.4109
 5482SOL    HW128082   3.838   4.001   3.425 -1.7875 -0.3897  1.0577
 5482SOL    HW228083   3.823   4.113   3.337 -1.7010  1.2162  1.1137
 5483SOL     OW28084   4.435   1.091   4.975  0.3267 -0.3407  0.2761
 5483SOL    HW128085   4.490   1.059   4.903 -1.7478  0.3289 -1.5995
 5483SOL    HW228086   4.489   1.073   5.052 -1.3436 -1.0042  1.2975
 5484SOL     OW28087   2.278   3.444   4.289 -0.1900 -0.2207 -0.2183
 5484SOL    HW128088   2.337   3.520   4.282  2.0813 -2.0813 -1.0713
 5484SOL    HW228089   2.322   3.397   4.360  1.8220  3.3411  0.9469
 5485SOL     OW28090   2.538   4.440   5.591  0.5432  0.3641  0.6535
 5485SOL    HW128091   2.601   4.448   5.520 -1.7721  3.6265 -1.0345
 5485SOL    HW228092   2.511   4.348   5.593  0.1892  0.4382 -0.6968
 5486SOL     OW28093   0.343   0.929   5.828 -0.5723 -0.7793 -0.5825
 5486SOL    HW128094   0.383   0.869   5.892 -0.7780  0.3252  0.5686
 5486SOL    HW228095   0.394   0.915   5.749 -1.7883 -0.3649 -1.4361
 5487SOL     OW28096   3.219   1.477  10.508 -0.3368 -0.5511 -0.6515
 5487SOL    HW128097   3.139   1.452  10.463 -0.0286 -0.8975 -1.0012
 5487SOL    HW228098   3.231   1.571  10.491 -2.3196  0.0491  1.2979
 5488SOL     OW28099   2.806   0.787   8.904 -0.6046 -0.2434  0.7641
 5488SOL    HW128100   2.746   0.838   8.959  0.6363 -0.4452  2.3265
 5488SOL    HW228101   2.751   0.720   8.864  1.8726 -2.9412  1.9167
 5489SOL     OW28102   0.663   1.038   4.173  0.3643  0.1076  0.3906
 5489SOL    HW128103   0.640   0.951   4.206 -3.1376  0.2673 -1.6226
 5489SOL    HW228104   0.710   1.012   4.094  1.0153  0.5699  0.6255
 5490SOL     OW28105   3.524   1.304   1.812 -0.0252 -0.4709 -0.8630
 5490SOL    HW128106   3.599   1.336   1.762 -0.1057 -1.3563 -1.5461
 5490SOL    HW228107   3.464   1.350   1.754 -0.4765  2.8599  2.2271
 5491SOL     OW28108   1.163   3.399  12.188  0.0030  0.6810 -0.1632
 5491SOL    HW128109   1.135   3.345  12.261  3.7891  0.0312  0.8442
 5491SOL    HW228110   1.234   3.342  12.156 -0.4831  0.9927 -1.7823
 5492SOL     OW28111   4.249   1.600   4.371  0.0046  0.6671 -0.1680
 5492SOL    HW128112   4.160   1.581   4.341 -0.0589 -2.6234  2.0336
 5492SOL    HW228113   4.282   1.511   4.385  0.6802  0.5621 -2.2973
 5493SOL     OW28114   4.022   1.822   6.927 -0.3044  0.1806  0.0180
 5493SOL    HW128115   3.946   1.788   6.880  0.8259 -2.1999 -0.1153
 5493SOL    HW228116   3.987   1.867   7.004  2.2377  0.5307  0.9806
 5494SOL     OW28117   1.496   1.201   7.297  0.3683  0.9215  0.3816
 5494SOL    HW128118   1.469   1.192   7.388 -1.3371  0.0535 -0.2104
 5494SOL    HW228119   1.436   1.272   7.272 -2.1666 -1.2778  0.3206
 5495SOL     OW28120   2.173   2.356  17.531 -0.9036  0.1640 -0.0573
 5495SOL    HW128121   2.094   2.304  17.514 -0.8763  0.3241 -0.6400
 5495SOL    HW228122   2.190   2.385  17.442 -1.4374  1.0456  0.1325
 5496SOL     OW28123   3.685   0.416   9.641  0.3372  0.0640 -0.1860
 5496SOL    HW128124   3.737   0.471   9.582 -0.3242  0.1292 -0.7123
 5496SOL    HW228125   3.694   0.326   9.607  1.3303  0.1643 -0.1971
 5497SOL     OW28126   1.927   0.967   4.737 -0.3548 -0.5603  0.3009
 5497SOL    HW128127   1.922   0.877   4.769  1.3992 -1.2134 -1.2373
 5497SOL    HW228128   1.995   0.980   4.671  0.7583 -0.7184  1.4269
 5498SOL     OW28129   2.749   2.285  11.832 -0.3635  0.3337  0.3768
 5498SOL    HW128130   2.653   2.281  11.836 -0.3784 -0.5809 -0.6751
 5498SOL    HW228131   2.764   2.379  11.843  0.0575  0.5823 -2.3597
 5499SOL     OW28132   0.298   3.424  17.248  0.9951 -0.5376  0.1287
 5499SOL    HW128133   0.318   3.517  17.251  0.4048 -0.4279  0.9151
 5499SOL    HW228134   0.276   3.403  17.157  0.2314  2.2670 -0.3168
 5500SOL     OW28135   1.190   0.742   9.103 -0.3377  0.3853  0.6686
 5500SOL    HW128136   1.266   0.722   9.158 -0.5009 -3.1057 -0.4142
 5500SOL    HW228137   1.125   0.699   9.159 -1.1215  1.7197  0.7744
 5501SOL     OW28138   0.281   3.508   2.606  0.4984 -0.2568 -0.5642
 5501SOL    HW128139   0.323   3.473   2.685  1.6093 -0.0783 -1.0758
 5501SOL    HW228140   0.323   3.467   2.531  0.6730 -0.4827 -0.3412
 5502SOL     OW28141   3.953   3.611   1.399  0.0252  0.0119  0.4791
 5502SOL    HW128142   3.946   3.527   1.444 -0.2140 -0.8623 -1.1941
 5502SOL    HW228143   3.902   3.667   1.457  1.8399 -1.2511  3.2488
 5503SOL     OW28144   0.321   4.029   4.552 -0.4378 -0.1460 -0.1736
 5503SOL    HW128145   0.391   4.004   4.612 -1.7908 -4.5816 -0.4724
 5503SOL    HW228146   0.266   3.955   4.576 -0.8322  0.4484  0.7611
 5504SOL     OW28147   0.531   3.202   4.489 -0.0143  0.0266  0.3656
 5504SOL    HW128148   0.621   3.179   4.466  0.6345 -0.2918  3.2468
 5504SOL    HW228149   0.547   3.210   4.583  1.0386 -2.3023  0.3913
 5505SOL     OW28150   3.115   3.165   2.710 -0.2781  0.6512 -0.2474
 5505SOL    HW128151   3.187   3.213   2.670 -0.1577  1.7728  1.3232
 5505SOL    HW228152   3.043   3.228   2.703  0.2476  1.4133  1.3011
 5506SOL     OW28153   0.780   3.234   8.908  0.0420 -0.1698  0.5751
 5506SOL    HW128154   0.864   3.188   8.907  0.1039 -0.0940  1.5899
 5506SOL    HW228155   0.771   3.255   9.001 -1.0157 -0.1668  0.4691
 5507SOL     OW28156   2.266   0.790   9.294 -0.5916 -0.2829 -0.0983
 5507SOL    HW128157   2.225   0.706   9.317  1.7262 -1.5708 -0.6229
 5507SOL    HW228158   2.356   0.760   9.282 -0.4771  0.9703 -2.3054
 5508SOL     OW28159   1.635   0.437   5.152  0.5404  0.1063  0.0930
 5508SOL    HW128160   1.667   0.482   5.074  2.5828 -0.2125  0.7549
 5508SOL    HW228161   1.720   0.431   5.196  0.3598 -1.7637  0.1726
 5509SOL     OW28162   1.717   3.878  17.439 -0.1747  0.1923  0.6420
 5509SOL    HW128163   1.652   3.911  17.501 -1.2474 -0.9071  0.1044
 5509SOL    HW228164   1.745   3.959  17.397 -1.4629 -0.1298 -0.8212
 5510SOL     OW28165   0.703   4.480  16.821 -0.1930 -0.6640  0.0005
 5510SOL    HW128166   0.640   4.528  16.768 -0.3420 -0.0853  0.7048
 5510SOL    HW228167   0.696   4.522  16.907 -1.2108 -0.4643 -0.1835
 5511SOL     OW28168   3.457   2.383   3.240  0.0428  0.4476  0.1627
 5511SOL    HW128169   3.397   2.338   3.181  0.5896  1.6814 -1.3195
 5511SOL    HW228170   3.423   2.471   3.226 -1.6802 -0.0180  1.3805
 5512SOL     OW28171   3.073   0.554  11.962 -0.1474  0.9364 -0.2527
 5512SOL    HW128172   3.015   0.531  12.034 -0.6500  0.7962 -0.7042
 5512SOL    HW228173   3.151   0.505  11.989 -2.6957 -2.2414  1.3478
 5513SOL     OW28174   3.777   0.861   6.749  0.4119  0.3171  0.1319
 5513SOL    HW128175   3.836   0.854   6.675 -1.9992  1.8555 -1.9111
 5513SOL    HW228176   3.833   0.849   6.826 -1.0598  0.9865  1.3121
 5514SOL     OW28177   3.473   0.435   5.481 -0.4653  0.8396  0.2307
 5514SOL    HW128178   3.446   0.389   5.401  1.3399 -0.9177  0.6578
 5514SOL    HW228179   3.390   0.445   5.527 -1.4064 -1.6802 -0.9475
 5515SOL     OW28180   0.890   3.574   5.216  0.2455  0.1086 -0.2392
 5515SOL    HW128181   0.927   3.636   5.154 -0.4696  0.2622 -0.5074
 5515SOL    HW228182   0.857   3.627   5.288  4.8760  1.7281  0.7070
 5516SOL     OW28183   2.879   2.206   5.270 -0.2537  0.7156 -0.0799
 5516SOL    HW128184   2.874   2.268   5.197  1.9486  0.2017 -0.6509
 5516SOL    HW228185   2.892   2.267   5.343  1.7665  1.9317 -1.4626
 5517SOL     OW28186   2.156   2.248   5.139  0.5712  0.0459 -0.4536
 5517SOL    HW128187   2.083   2.308   5.152  0.6681  0.0219  0.2098
 5517SOL    HW228188   2.101   2.178   5.105  1.0748 -0.1729 -0.8165
 5518SOL     OW28189   3.362   2.744   8.598  0.0833 -0.2444 -0.2174
 5518SOL    HW128190   3.267   2.746   8.606 -0.0683  0.5293 -2.2819
 5518SOL    HW228191   3.375   2.705   8.511 -0.3229  1.1600 -0.9110
 5519SOL     OW28192   3.417   1.605   2.090  0.1345 -0.0472 -0.3691
 5519SOL    HW128193   3.351   1.543   2.061 -0.3622  0.1877  0.2433
 5519SOL    HW228194   3.438   1.562   2.173 -4.3896  0.9339  1.2951
 5520SOL     OW28195   3.866   1.209  17.203 -0.1799 -0.7462 -0.2719
 5520SOL    HW128196   3.788   1.207  17.258 -0.6837 -1.2268 -0.9970
 5520SOL    HW228197   3.827   1.176  17.122  2.1744 -0.8591 -1.3701
 5521SOL     OW28198   2.838   3.162   7.720 -0.5277 -0.0351 -0.2142
 5521SOL    HW128199   2.820   3.137   7.811 -1.3765 -1.2171 -0.7095
 5521SOL    HW228200   2.833   3.075   7.680 -0.2831 -0.2892  0.3096
 5522SOL     OW28201   3.416   1.014   3.546  0.4472  0.1493 -0.5267
 5522SOL    HW128202   3.344   1.041   3.489 -0.2022 -2.7796 -1.1134
 5522SOL    HW228203   3.484   1.053   3.491 -0.4627  1.8427 -0.4611
 5523SOL     OW28204   1.076   1.426   0.083  0.7826 -0.3439 -0.1701
 5523SOL    HW128205   1.034   1.357   0.031  1.3739 -0.3832 -0.6058
 5523SOL    HW228206   1.123   1.382   0.153 -0.3152  0.3267  0.9846
 5524SOL     OW28207   1.631   3.528   2.097  0.3356 -0.3450 -0.1906
 5524SOL    HW128208   1.564   3.463   2.080 -0.2376  0.4662 -1.0272
 5524SOL    HW228209   1.711   3.477   2.088 -0.1853 -0.9163 -1.5255
 5525SOL     OW28210   3.304   4.196   5.773  0.4418  0.2153 -0.4998
 5525SOL    HW128211   3.341   4.273   5.817 -1.1391  0.4338  0.4662
 5525SOL    HW228212   3.220   4.196   5.819  0.5150  2.8061 -0.3255
 5526SOL     OW28213   2.674   0.670  13.312  0.1534  0.1380  0.0394
 5526SOL    HW128214   2.631   0.749  13.345  0.2230  0.3970 -0.5023
 5526SOL    HW228215   2.705   0.688  13.224  1.1416  1.5511  0.6898
 5527SOL     OW28216   0.283   1.498  14.428 -0.0265  0.0786  0.0020
 5527SOL    HW128217   0.269   1.414  14.471 -1.2049  0.6692  0.7698
 5527SOL    HW228218   0.330   1.547  14.496 -0.4886 -0.1137  0.4648
 5528SOL     OW28219   3.767   4.483   7.491 -0.4335  0.0563 -0.2630
 5528SOL    HW128220   3.827   4.492   7.565 -1.9369  3.1530  0.5703
 5528SOL    HW228221   3.797   4.561   7.443  1.1563  0.7947  1.9640
 5529SOL     OW28222   2.834   3.540   6.808  0.2393  0.1803  0.4049
 5529SOL    HW128223   2.815   3.472   6.873 -1.1953 -0.9874 -1.2396
 5529SOL    HW228224   2.798   3.501   6.728  2.2121  0.5580 -0.6859
 5530SOL     OW28225   0.291   4.671   4.376  0.1848 -0.2506  0.1810
 5530SOL    HW128226   0.300   4.586   4.418  1.5330  0.5457  1.5108
 5530SOL    HW228227   0.196   4.677   4.366  0.3508 -0.0584 -1.3191
 5531SOL     OW28228   3.760   2.660   9.660  0.1626  0.8443  0.2535
 5531SOL    HW128229   3.818   2.626   9.592  1.8943  2.0009  1.1308
 5531SOL    HW228230   3.677   2.659   9.612  1.4774 -0.8034 -1.9811
 5532SOL     OW28231   0.782   1.877   4.692  0.2521 -0.3879  0.2985
 5532SOL    HW128232   0.852   1.850   4.633 -0.4042 -1.7394  0.1479
 5532SOL    HW228233   0.712   1.905   4.633  1.6280  0.5872 -0.8711
 5533SOL     OW28234   4.625   3.851   1.017 -0.0516  0.4019 -0.3842
 5533SOL    HW128235   4.587   3.819   1.099  0.8395 -2.2334 -1.0212
 5533SOL    HW228236   4.650   3.942   1.036  3.1770 -0.3980 -0.8956
 5534SOL     OW28237   3.052   4.623   0.571 -0.4629  0.3006 -0.6475
 5534SOL    HW128238   3.061   4.718   0.586 -0.7145  0.1332  0.5678
 5534SOL    HW228239   3.078   4.594   0.658 -2.2571 -0.7939 -0.4793
 5535SOL     OW28240   1.322   1.301  17.311 -0.1158  0.1148  0.2791
 5535SOL    HW128241   1.256   1.359  17.273 -0.0519 -0.0725 -0.1175
 5535SOL    HW228242   1.398   1.358  17.320 -0.9046  1.5018 -1.7760
 5536SOL     OW28243   4.700   0.464   5.165 -0.3611  0.0991 -0.0815
 5536SOL    HW128244   0.055   0.477   5.153 -0.1083 -0.6023  1.1680
 5536SOL    HW228245   4.698   0.369   5.155 -0.9700  0.3807 -2.6827
 5537SOL     OW28246   4.030   4.192   7.570 -0.0933  0.2406  0.1669
 5537SOL    HW128247   4.018   4.260   7.637  1.0992  0.3934  0.2341
 5537SOL    HW228248   4.072   4.249   7.506 -1.2956  1.3210  0.3596
 5538SOL     OW28249   1.312   1.066  11.565 -0.6464  0.0397  0.2041
 5538SOL    HW128250   1.356   1.068  11.650  0.6163  0.0065 -0.4496
 5538SOL    HW228251   1.223   1.069  11.598 -0.9315 -0.8364 -0.5079
 5539SOL     OW28252   2.885   1.849  11.915 -0.0411 -0.7852  0.3907
 5539SOL    HW128253   2.807   1.902  11.903  1.3977  1.5526  1.4684
 5539SOL    HW228254   2.933   1.862  11.833  0.6886  1.2065  1.1523
 5540SOL     OW28255   4.689   1.909   7.955 -0.0741  0.4717  0.1209
 5540SOL    HW128256   4.694   1.843   8.023 -0.8849  0.4286  0.1397
 5540SOL    HW228257   0.034   1.898   7.910  0.0203 -0.9080  0.6412
 5541SOL     OW28258   4.738   2.010   2.268  0.1817 -0.0659  0.3162
 5541SOL    HW128259   4.671   2.079   2.276 -1.1025 -1.1890 -0.8833
 5541SOL    HW228260   4.708   1.939   2.325  1.0025 -0.5464  0.1399
 5542SOL     OW28261   2.417   2.114   8.454 -0.0919 -0.2566 -0.0597
 5542SOL    HW128262   2.483   2.062   8.408  0.1364 -1.3523  1.5067
 5542SOL    HW228263   2.360   2.039   8.472 -0.0006 -0.1727  0.5688
 5543SOL     OW28264   0.106   2.449   1.993  0.0089  0.0289  0.0728
 5543SOL    HW128265   0.185   2.474   2.041 -0.4458  0.2012  0.7343
 5543SOL    HW228266   0.035   2.488   2.045  0.0332 -2.0012  1.6181
 5544SOL     OW28267   2.744   3.527   8.507 -0.7756 -0.3130 -0.3192
 5544SOL    HW128268   2.759   3.622   8.509  0.3249 -0.4812 -0.6904
 5544SOL    HW228269   2.763   3.512   8.600 -0.6055 -3.2019 -0.8177
 5545SOL     OW28270   0.526   2.605   2.886 -0.0910  0.2363  0.1369
 5545SOL    HW128271   0.510   2.578   2.796  3.6863 -0.6094 -0.2899
 5545SOL    HW228272   0.582   2.535   2.920  1.3419  1.2694 -0.0690
 5546SOL     OW28273   3.502   4.070  14.130 -0.0913  0.3146 -0.4804
 5546SOL    HW128274   3.432   4.117  14.175  0.9428  0.4582  0.9712
 5546SOL    HW228275   3.521   4.137  14.065 -4.1192  0.6006 -1.3883
 5547SOL     OW28276   3.711   4.322   3.417 -0.4515  0.0579 -0.1161
 5547SOL    HW128277   3.801   4.303   3.443  0.3103  1.8376 -1.4553
 5547SOL    HW228278   3.731   4.342   3.325  2.4866 -2.2962 -0.0025
 5548SOL     OW28279   1.778   0.518   8.353 -0.6946 -0.9231 -0.3505
 5548SOL    HW128280   1.690   0.494   8.382  0.0699 -3.9276 -0.5732
 5548SOL    HW228281   1.831   0.507   8.432 -0.5877  0.3067 -0.2392
 5549SOL     OW28282   2.290   2.425   5.745  0.1073 -0.6377 -0.1830
 5549SOL    HW128283   2.325   2.398   5.661  1.1686  1.8524 -0.5408
 5549SOL    HW228284   2.324   2.514   5.747 -0.3271 -0.4786  0.1144
 5550SOL     OW28285   3.013   0.708   5.549  0.7162 -0.1220 -0.1813
 5550SOL    HW128286   2.952   0.668   5.610  0.6120  0.0047 -0.2043
 5550SOL    HW228287   3.088   0.653   5.573  0.6587  0.4023  1.1617
 5551SOL     OW28288   1.267   0.973   8.298  0.1527 -0.3240  0.2979
 5551SOL    HW128289   1.316   0.980   8.380  0.8386 -0.1660 -0.1282
 5551SOL    HW228290   1.176   0.984   8.327  0.3818 -0.6447  1.1305
 5552SOL     OW28291   2.561   2.527   2.083 -0.3786  0.2560 -0.1672
 5552SOL    HW128292   2.593   2.465   2.017  1.0050 -1.2729  1.9338
 5552SOL    HW228293   2.558   2.613   2.042 -0.9989 -0.0048 -0.6818
 5553SOL     OW28294   1.964   0.367   2.891  0.1145  0.2616 -0.7129
 5553SOL    HW128295   2.043   0.314   2.880 -0.4285 -0.2393 -2.2249
 5553SOL    HW228296   1.921   0.325   2.965  1.1811  0.3825 -0.0244
 5554SOL     OW28297   1.562   1.084   5.025 -0.3084  0.1249 -0.3550
 5554SOL    HW128298   1.557   1.046   4.938  0.5126  0.0259 -0.3635
 5554SOL    HW228299   1.482   1.136   5.037 -0.4530  0.0787 -1.1809
 5555SOL     OW28300   2.943   4.686   6.134 -0.1869 -0.0853 -0.0899
 5555SOL    HW128301   2.899   0.031   6.142 -1.8240 -0.8056 -1.3753
 5555SOL    HW228302   3.035   4.706   6.149 -0.7696 -0.2132  3.5391
 5556SOL     OW28303   3.350   1.629   8.179  0.4854 -0.2016 -0.2216
 5556SOL    HW128304   3.368   1.676   8.098 -1.3572  1.3381  0.2750
 5556SOL    HW228305   3.257   1.650   8.186  0.8499  1.8010 -1.5525
 5557SOL     OW28306   4.550   1.862  17.660 -0.0292 -0.0878  0.3118
 5557SOL    HW128307   4.645   1.850  17.657  0.2664  2.9445 -2.5904
 5557SOL    HW228308   4.521   1.771  17.656  1.2271 -0.5520  1.5064
 5558SOL     OW28309   3.729   2.756   6.609  0.2692  0.2850  0.2326
 5558SOL    HW128310   3.699   2.839   6.573  2.2211  0.6866 -0.4814
 5558SOL    HW228311   3.814   2.771   6.650 -1.2477  1.3105  3.0225
 5559SOL     OW28312   2.338   0.529   6.977 -0.0432  0.0104  0.1292
 5559SOL    HW128313   2.336   0.483   7.061 -0.7456 -0.3321 -0.0791
 5559SOL    HW228314   2.270   0.484   6.927 -0.9975 -0.1590  1.5579
 5560SOL     OW28315   2.717   3.269   2.594  0.6184  0.4256  0.4820
 5560SOL    HW128316   2.812   3.264   2.589  0.8344  1.6850  3.3468
 5560SOL    HW228317   2.703   3.262   2.689  2.5937 -1.2880  0.6489
 5561SOL     OW28318   0.380   1.892   3.661  0.1425  0.7921 -0.6869
 5561SOL    HW128319   0.324   1.963   3.691  0.8825  0.5866  1.1544
 5561SOL    HW228320   0.335   1.870   3.579 -3.7451  1.6072  1.2543
 5562SOL     OW28321   3.655   4.355  16.595 -0.3395  0.0941 -0.5051
 5562SOL    HW128322   3.628   4.328  16.683  0.3947  0.1108 -0.2674
 5562SOL    HW228323   3.751   4.361  16.594 -0.3424  0.0479 -1.0931
 5563SOL     OW28324   4.037   3.241   2.402  0.4352  0.3017  0.3757
 5563SOL    HW128325   3.996   3.322   2.433  0.0297 -0.1779  1.0800
 5563SOL    HW228326   4.131   3.253   2.417  0.3030  0.7971  0.7944
 5564SOL     OW28327   4.384   4.311   7.528 -0.2599 -0.3242  0.6712
 5564SOL    HW128328   4.426   4.390   7.494  0.3789 -0.6032  0.7975
 5564SOL    HW228329   4.452   4.244   7.515  0.0702  0.5214 -1.9159
 5565SOL     OW28330   3.203   2.715  11.332  0.0885  0.2267  0.1887
 5565SOL    HW128331   3.254   2.648  11.378  1.1831  1.7722  1.2126
 5565SOL    HW228332   3.257   2.734  11.255 -1.3714 -0.2135 -0.9406
 5566SOL     OW28333   1.944   4.502   3.539  0.1403 -0.3306  0.3715
 5566SOL    HW128334   2.014   4.445   3.506  0.3201  0.3920 -0.4899
 5566SOL    HW228335   1.872   4.441   3.555  1.1682 -1.0597  2.2985
 5567SOL     OW28336   2.802   4.662   5.219  0.1214 -0.2791 -0.3952
 5567SOL    HW128337   2.788   4.638   5.127  1.2954 -2.1491 -0.0732
 5567SOL    HW228338   2.721   4.714   5.217  0.4658  0.2788  0.2946
 5568SOL     OW28339   3.072   2.994   6.158 -0.6160 -0.1208 -0.1566
 5568SOL    HW128340   3.060   2.915   6.105  0.7283 -0.6850  0.3703
 5568SOL    HW228341   3.059   2.960   6.246 -1.5490 -0.1789 -0.3222
 5569SOL     OW28342   1.010   1.869  12.196 -0.8317  0.1378 -0.4739
 5569SOL    HW128343   0.989   1.874  12.103  0.0217 -0.4343 -0.6953
 5569SOL    HW228344   1.105   1.884  12.197 -0.8053  0.0185 -2.5136
 5570SOL     OW28345   3.379   4.688  11.261 -0.6794  0.1804 -0.2302
 5570SOL    HW128346   3.302   4.635  11.282 -0.7537  0.0791 -0.7515
 5570SOL    HW228347   3.408   4.699  11.351  0.0268 -0.6313 -0.3580
 5571SOL     OW28348   1.690   2.138   5.325  0.0990 -0.2000 -0.1394
 5571SOL    HW128349   1.660   2.054   5.293 -0.6219  0.3173 -0.7930
 5571SOL    HW228350   1.766   2.120   5.381  0.0733 -0.6474 -0.2479
 5572SOL     OW28351   2.256   2.703   5.652 -0.5912  0.2407  0.1881
 5572SOL    HW128352   2.162   2.704   5.633 -0.2875  1.1760 -1.2317
 5572SOL    HW228353   2.293   2.747   5.576  0.5259  1.1879  1.2830
 5573SOL     OW28354   0.556   0.851  11.329  0.2171 -0.3147 -0.3308
 5573SOL    HW128355   0.530   0.818  11.243  1.5176  1.5456 -1.4322
 5573SOL    HW228356   0.626   0.907  11.297  0.9026 -0.9198  0.1066
 5574SOL     OW28357   1.758   1.944  15.037 -0.5079 -0.7810 -0.0193
 5574SOL    HW128358   1.727   1.856  15.018  0.6740 -1.3614  0.7046
 5574SOL    HW228359   1.760   1.941  15.133 -2.2475 -0.9434  0.0089
 5575SOL     OW28360   3.573   2.658   8.763  0.1828 -0.1092  0.0864
 5575SOL    HW128361   3.571   2.753   8.756  2.2340  0.0588  1.9820
 5575SOL    HW228362   3.480   2.639   8.746 -0.3501  0.8342  1.9787
 5576SOL     OW28363   3.635   3.939   9.003  0.1232  0.5962  0.3063
 5576SOL    HW128364   3.638   4.015   8.945 -0.1115 -0.1341 -0.6745
 5576SOL    HW228365   3.604   3.867   8.948 -1.8068 -1.6028  4.2245
 5577SOL     OW28366   3.344   3.750   6.222 -0.6998  0.4283 -0.4122
 5577SOL    HW128367   3.271   3.797   6.262 -0.0328  1.7784 -0.7975
 5577SOL    HW228368   3.408   3.749   6.293  1.5236  0.1124 -2.4376
 5578SOL     OW28369   0.853   4.201   5.444 -0.2912 -0.1938  0.3157
 5578SOL    HW128370   0.916   4.257   5.399  0.3052 -0.8826  0.2888
 5578SOL    HW228371   0.768   4.239   5.425  0.0359  0.2824 -0.1937
 5579SOL     OW28372   4.436   1.686   4.179 -0.8894  0.6484  0.4064
 5579SOL    HW128373   4.407   1.629   4.108 -0.8542  1.3116 -0.1360
 5579SOL    HW228374   4.399   1.650   4.260 -0.2804  2.3576  1.4593
 5580SOL     OW28375   3.879   0.494  15.303 -0.1035  0.2848 -0.1156
 5580SOL    HW128376   3.899   0.529  15.390 -1.9092  0.1794  0.3359
 5580SOL    HW228377   3.949   0.532  15.250 -0.0707  1.9387  1.1179
 5581SOL     OW28378   0.218   1.856   0.885  0.4955  0.1202 -0.3992
 5581SOL    HW128379   0.180   1.916   0.821 -3.2040 -1.9904 -0.1623
 5581SOL    HW228380   0.221   1.777   0.831 -0.3186  0.0386 -0.3237
 5582SOL     OW28381   1.043   3.299   6.382 -0.1317 -0.0361 -0.3284
 5582SOL    HW128382   0.950   3.285   6.369  0.0348  0.0321 -1.6460
 5582SOL    HW228383   1.085   3.274   6.300 -0.2010  2.3904 -1.1105
 5583SOL     OW28384   0.790   4.265   9.227 -0.2144  0.0044 -0.3273
 5583SOL    HW128385   0.790   4.171   9.210 -1.8279  0.0798 -0.6858
 5583SOL    HW228386   0.878   4.274   9.263  0.1658  2.1128 -1.7808
 5584SOL     OW28387   0.094   2.697   7.982 -0.0105 -0.2061  0.4088
 5584SOL    HW128388   0.024   2.647   8.025  1.4389 -0.4910  2.4069
 5584SOL    HW228389   0.057   2.785   7.989  0.9077  0.1277  1.0043
 5585SOL     OW28390   4.343   3.049   9.684 -0.0720 -0.1181 -0.1755
 5585SOL    HW128391   4.275   2.986   9.708  0.2924 -0.5112 -0.1666
 5585SOL    HW228392   4.409   3.033   9.752 -1.1107 -1.7297  0.4498
 5586SOL     OW28393   2.008   3.092  14.663  0.9853 -0.5858 -0.3310
 5586SOL    HW128394   1.984   3.169  14.611  1.7092 -0.8147 -1.0139
 5586SOL    HW228395   1.989   3.109  14.755 -2.2650 -2.4573 -0.6672
 5587SOL     OW28396   3.890   4.588   2.225  0.8445  0.0974  0.0773
 5587SOL    HW128397   3.862   4.679   2.216  2.4211  0.7758  2.0409
 5587SOL    HW228398   3.840   4.550   2.153  0.4963 -0.8850  0.8327
 5588SOL     OW28399   0.784   0.566   2.413 -0.2162  0.6381 -0.1007
 5588SOL    HW128400   0.695   0.531   2.407  0.3029  0.0638 -4.5143
 5588SOL    HW228401   0.808   0.558   2.321  0.0657 -0.2720  0.0588
 5589SOL     OW28402   1.450   2.072  10.392  0.1450 -0.5749 -0.2093
 5589SOL    HW128403   1.523   2.029  10.347  0.9794  0.1911  0.3983
 5589SOL    HW228404   1.490   2.157  10.412  0.1680 -0.7611  0.5359
 5590SOL     OW28405   0.668   3.180   2.698 -0.6131 -0.1577  0.5794
 5590SOL    HW128406   0.674   3.097   2.651 -1.5488 -0.7781  1.5631
 5590SOL    HW228407   0.735   3.214   2.638 -1.5015  0.9373  0.2123
 5591SOL     OW28408   0.858   2.114   4.306  0.5231  0.5486  0.2866
 5591SOL    HW128409   0.800   2.171   4.255  2.2184  0.4432 -1.7479
 5591SOL    HW228410   0.902   2.061   4.239  0.0795  1.5936 -0.8333
 5592SOL     OW28411   3.271   0.223   6.560 -0.7152  0.2159  0.3897
 5592SOL    HW128412   3.217   0.245   6.636  1.0802 -0.7171  1.9208
 5592SOL    HW228413   3.354   0.260   6.590 -0.2008 -0.6935  0.0637
 5593SOL     OW28414   3.524   1.626   1.838  0.0591  0.4664 -0.4763
 5593SOL    HW128415   3.438   1.595   1.808 -0.2125  0.7696  0.0030
 5593SOL    HW228416   3.505   1.635   1.931  1.4324 -1.4724 -0.0195
 5594SOL     OW28417   3.453   3.748   1.481 -0.5792 -0.5777 -0.3962
 5594SOL    HW128418   3.397   3.676   1.450 -0.5729 -1.3380  1.3832
 5594SOL    HW228419   3.536   3.707   1.503  0.5753  1.0078 -1.7391
 5595SOL     OW28420   1.739   3.983   8.950 -0.2538  0.1224  0.0069
 5595SOL    HW128421   1.717   4.022   9.034 -1.5456 -0.6443  0.0372
 5595SOL    HW228422   1.833   3.973   8.961 -0.4959  1.1019  2.8762
 5596SOL     OW28423   1.172   3.339   3.185  0.4113 -0.6483  0.3818
 5596SOL    HW128424   1.225   3.327   3.106  0.8169  0.4505  0.4867
 5596SOL    HW228425   1.240   3.312   3.247  1.2574 -2.3056 -1.2397
 5597SOL     OW28426   0.433   4.464  16.936 -0.4205  0.2877  0.2414
 5597SOL    HW128427   0.506   4.495  16.989 -0.8491  0.7271  0.5714
 5597SOL    HW228428   0.410   4.542  16.886 -0.7216 -0.1395 -0.2875
 5598SOL     OW28429   0.632   4.674   8.818  0.0560 -0.9745  0.4915
 5598SOL    HW128430   0.587   4.724   8.887 -1.1335  0.5984 -1.4495
 5598SOL    HW228431   0.646   0.010   8.761  0.8125 -0.6562  1.0864
 5599SOL     OW28432   0.314   4.065   7.196  0.4406 -0.6864  0.3471
 5599SOL    HW128433   0.294   3.995   7.259  3.7457 -0.8050  1.2264
 5599SOL    HW228434   0.277   4.142   7.240 -0.7717 -0.6788 -0.6805
 5600SOL     OW28435   1.297   3.897  16.948 -0.1575 -0.3947 -0.5261
 5600SOL    HW128436   1.231   3.910  16.880  2.0963  3.2587 -2.0081
 5600SOL    HW228437   1.371   3.943  16.908  1.2593 -1.7252  0.5288
 5601SOL     OW28438   0.920   1.626   4.987  0.6082  0.2935 -0.5457
 5601SOL    HW128439   0.861   1.551   4.979 -0.3103  1.0185 -0.4701
 5601SOL    HW228440   0.857   1.698   4.989 -0.3649 -0.5813 -0.0737
 5602SOL     OW28441   0.673   1.405  17.197  0.1187 -0.3113  0.3040
 5602SOL    HW128442   0.640   1.458  17.125  2.0666  0.1704 -0.2392
 5602SOL    HW228443   0.634   1.322  17.170  0.1009 -0.4965  0.8944
 5603SOL     OW28444   4.145   1.226   6.118  0.0498 -0.0284 -0.0662
 5603SOL    HW128445   4.206   1.240   6.046  0.1739  2.4043  0.5114
 5603SOL    HW228446   4.162   1.135   6.141 -2.0670 -1.0013 -2.3642
 5604SOL     OW28447   1.115   2.346   3.553  0.2640  0.5070 -0.4684
 5604SOL    HW128448   1.071   2.268   3.588 -2.1420  2.3752  0.6196
 5604SOL    HW228449   1.058   2.413   3.591  1.6026  1.4435 -0.0853
 5605SOL     OW28450   1.280   2.630   6.567  0.0822 -0.5811 -0.6377
 5605SOL    HW128451   1.302   2.543   6.602 -0.4081 -1.1378 -1.7109
 5605SOL    HW228452   1.363   2.653   6.525  0.0222  0.3539 -0.2498
 5606SOL     OW28453   2.927   0.660   7.499 -0.2207  0.3764 -0.1235
 5606SOL    HW128454   3.001   0.649   7.438 -1.0434  1.0820 -1.2433
 5606SOL    HW228455   2.855   0.684   7.442 -2.7017 -1.8581  2.0879
 5607SOL     OW28456   0.104   1.565   3.051 -0.0581  0.1700  0.2243
 5607SOL    HW128457   0.120   1.491   2.993 -0.2921 -1.4329  2.2226
 5607SOL    HW228458   0.164   1.548   3.124 -0.5437 -1.8596  0.1330
 5608SOL     OW28459   1.335   0.196   3.312 -0.0539 -0.1532 -0.7539
 5608SOL    HW128460   1.422   0.187   3.350  0.7465  0.2009 -2.4852
 5608SOL    HW228461   1.328   0.104   3.283 -0.1815 -0.5074  0.4168
 5609SOL     OW28462   4.685   3.986   8.031  0.1555 -0.0921  0.1089
 5609SOL    HW128463   4.606   3.983   8.085  0.1998 -0.1387  0.1715
 5609SOL    HW228464   4.739   3.950   8.101  0.3036  4.0169  2.0836
 5610SOL     OW28465   3.721   2.543   6.388  0.1328  0.4110 -0.0040
 5610SOL    HW128466   3.637   2.514   6.353 -0.7877  1.6720  1.1489
 5610SOL    HW228467   3.719   2.633   6.357  2.9150 -0.1276 -1.7684
 5611SOL     OW28468   1.789   0.596   4.956 -0.4148  0.1165  0.1242
 5611SOL    HW128469   1.879   0.622   4.935 -0.4893  0.8998  0.7803
 5611SOL    HW228470   1.734   0.666   4.923  0.4999  0.8838  0.2400
 5612SOL     OW28471   4.081   4.212   3.879 -0.3107 -0.3250 -0.6769
 5612SOL    HW128472   4.081   4.120   3.905  1.9791 -0.5185 -1.2988
 5612SOL    HW228473   4.051   4.243   3.964  0.8076  1.8740 -1.0637
 5613SOL     OW28474   1.195   0.371   9.568  0.5775  0.1983 -0.4947
 5613SOL    HW128475   1.109   0.348   9.602 -0.0678 -1.2296 -3.1093
 5613SOL    HW228476   1.195   0.464   9.545 -0.9741  0.1128 -0.8470
 5614SOL     OW28477   0.862   3.056   5.814 -0.5378  0.2079  0.8134
 5614SOL    HW128478   0.875   3.150   5.826  1.9813 -0.2821  1.8243
 5614SOL    HW228479   0.778   3.035   5.853 -0.4846 -1.5803 -0.0365
 5615SOL     OW28480   4.144   2.270   7.781 -0.1397 -0.1258 -0.0453
 5615SOL    HW128481   4.193   2.195   7.748  0.3599 -0.7248  2.0273
 5615SOL    HW228482   4.133   2.322   7.701 -0.8607 -2.2044 -1.2865
 5616SOL     OW28483   2.408   4.133   5.508  0.2796  0.3250  0.4293
 5616SOL    HW128484   2.341   4.157   5.573  0.6074 -0.8598  1.2033
 5616SOL    HW228485   2.455   4.055   5.538  0.7861  0.7483  0.7491
 5617SOL     OW28486   0.596   0.128  16.911  0.5623 -0.1681 -0.4333
 5617SOL    HW128487   0.571   0.196  16.973  1.6647  0.3649 -0.5648
 5617SOL    HW228488   0.545   0.149  16.833  2.1212 -1.1664 -1.7446
 5618SOL     OW28489   2.364   4.037   5.011  0.7743 -0.3908  0.0238
 5618SOL    HW128490   2.436   4.012   5.068  0.3724 -0.2391  0.6008
 5618SOL    HW228491   2.327   4.114   5.054  0.6704 -0.1046 -0.5884
 5619SOL     OW28492   0.435   1.946   5.128 -0.8540 -0.3098  0.2091
 5619SOL    HW128493   0.509   1.888   5.147  0.4656  1.2700 -0.0679
 5619SOL    HW228494   0.379   1.898   5.067 -1.6308  1.6728 -0.6403
 5620SOL     OW28495   1.799   2.757   2.212  0.1100 -0.0453 -0.5084
 5620SOL    HW128496   1.848   2.689   2.165  0.4221 -0.6408  0.6544
 5620SOL    HW228497   1.789   2.702   2.290 -1.1791  3.1093  1.4998
 5621SOL     OW28498   0.446   0.218   3.799 -0.4452  0.0686 -0.1254
 5621SOL    HW128499   0.405   0.231   3.884  1.1127 -0.5769  0.7136
 5621SOL    HW228500   0.465   0.307   3.769  0.5083 -0.4125 -0.9764
 5622SOL     OW28501   1.884   0.601   4.636  0.1204  0.1141 -0.5077
 5622SOL    HW128502   1.950   0.665   4.606  1.1236 -1.1066 -0.8895
 5622SOL    HW228503   1.940   0.540   4.684  0.0021  1.3207  1.1615
 5623SOL     OW28504   3.927   0.571   3.102 -0.1203  0.1600 -0.0002
 5623SOL    HW128505   3.980   0.625   3.160  0.7281  1.1197 -1.6619
 5623SOL    HW228506   3.851   0.566   3.160 -1.7673  0.9343 -2.0676
 5624SOL     OW28507   4.119   4.245   2.143  0.4905  0.2946 -0.2650
 5624SOL    HW128508   4.112   4.303   2.219 -1.0725  2.6811 -2.2401
 5624SOL    HW228509   4.130   4.157   2.179 -2.1179  0.7045  1.5985
 5625SOL     OW28510   0.879   4.292   4.517  0.4711 -0.0623 -0.1284
 5625SOL    HW128511   0.793   4.253   4.534  0.0547  0.5306 -0.8317
 5625SOL    HW228512   0.919   4.294   4.604 -1.0581  1.8241  0.5404
 5626SOL     OW28513   4.047   4.365   8.011 -0.6052 -0.5776 -0.3989
 5626SOL    HW128514   4.122   4.379   8.069 -1.2314 -1.8318  0.6854
 5626SOL    HW228515   4.093   4.364   7.927 -2.6767  2.1582 -1.5838
 5627SOL     OW28516   3.116   2.922   7.852  0.2561 -0.2320  0.2734
 5627SOL    HW128517   3.120   3.017   7.861  0.2898 -0.2700  0.6759
 5627SOL    HW228518   3.196   2.902   7.900 -0.2920 -1.4580  0.6601
 5628SOL     OW28519   4.213   0.926  10.558  0.2773 -0.5143 -0.1162
 5628SOL    HW128520   4.239   0.985  10.629 -2.1515  0.0266  0.3395
 5628SOL    HW228521   4.120   0.949  10.558  0.6652  1.0849  1.9083
 5629SOL     OW28522   4.626   2.580   8.202  0.1452  0.1475 -0.6986
 5629SOL    HW128523   4.632   2.642   8.275 -0.9753  0.9783 -1.3084
 5629SOL    HW228524   4.668   2.503   8.240 -2.0687  0.1195  1.7492
 5630SOL     OW28525   1.159   2.096   2.036  0.5920  0.5421 -0.4146
 5630SOL    HW128526   1.213   2.112   2.113 -1.1302 -1.1449  1.1480
 5630SOL    HW228527   1.089   2.042   2.073 -0.5219  2.4540  0.2988
 5631SOL     OW28528   1.135   0.349   2.572 -0.2385  0.1401 -0.6175
 5631SOL    HW128529   1.188   0.383   2.644 -0.8307 -2.9019  1.2704
 5631SOL    HW228530   1.114   0.428   2.522  0.0032  0.7743  0.2935
 5632SOL     OW28531   0.691   0.097   8.374  0.2928 -0.2251 -0.6244
 5632SOL    HW128532   0.599   0.071   8.374  0.5194 -1.0375 -0.7473
 5632SOL    HW228533   0.694   0.177   8.426  0.6691 -0.9111  0.4204
 5633SOL     OW28534   2.842   2.789   9.950  0.1749  0.0454 -0.4377
 5633SOL    HW128535   2.825   2.726   9.880 -1.1042  0.7617 -0.7830
 5633SOL    HW228536   2.859   2.866   9.897  2.0343  1.4844  2.2776
 5634SOL     OW28537   3.258   3.546  13.212  0.8052  0.1853  0.0606
 5634SOL    HW128538   3.258   3.522  13.305 -0.3457 -1.6754 -0.4152
 5634SOL    HW228539   3.336   3.494  13.192 -0.2109 -0.4136 -2.3020
 5635SOL     OW28540   3.913   2.181   5.532  0.0032 -0.2873  0.0916
 5635SOL    HW128541   3.877   2.190   5.620  0.3784 -2.1038  0.4324
 5635SOL    HW228542   3.882   2.093   5.510 -1.2196  0.3778 -0.8134
 5636SOL     OW28543   3.314   1.125   6.918 -0.1672 -0.6438 -0.0048
 5636SOL    HW128544   3.302   1.187   6.990  0.8224  1.0979 -1.3335
 5636SOL    HW228545   3.224   1.108   6.889 -0.7880  0.3681  1.3466
 5637SOL     OW28546   0.471   3.083   4.832 -0.1310 -0.3436  0.0301
 5637SOL    HW128547   0.509   3.014   4.777  1.8472  0.1331  0.8178
 5637SOL    HW228548   0.514   3.161   4.798  1.0704 -1.8638 -1.9820
 5638SOL     OW28549   0.025   4.433   8.067  0.2037  1.0286  0.2302
 5638SOL    HW128550   4.705   4.379   8.015 -0.2932  1.7597  0.0325
 5638SOL    HW228551   4.701   4.433   8.139  1.4496  1.9873  1.3330
 5639SOL     OW28552   0.876   0.066  14.126  0.0345 -0.9317  0.5683
 5639SOL    HW128553   0.886   0.008  14.202  2.3023 -0.8402  0.3191
 5639SOL    HW228554   0.781   0.071  14.119  0.2592  1.4280 -0.7518
 5640SOL     OW28555   1.452   3.931   5.054  0.1361 -0.1742  0.2508
 5640SOL    HW128556   1.547   3.937   5.043  0.2492  2.0192  2.6090
 5640SOL    HW228557   1.448   3.884   5.137 -1.1347  3.1718  2.0640
 5641SOL     OW28558   0.861   1.909   2.497  0.1918 -0.0642  1.1880
 5641SOL    HW128559   0.841   1.816   2.497 -0.9376  0.1777 -0.4893
 5641SOL    HW228560   0.792   1.943   2.555 -0.6499  1.2331 -0.5630
 5642SOL     OW28561   0.210   3.525   7.346  0.0619 -0.4784  0.2952
 5642SOL    HW128562   0.205   3.473   7.426  0.0123  2.8021  2.4099
 5642SOL    HW228563   0.115   3.530   7.341 -0.0931 -2.3046  1.3300
 5643SOL     OW28564   2.090   1.062   2.973 -0.1267  0.2674 -0.2564
 5643SOL    HW128565   2.159   1.127   2.983  0.1802  0.0208 -0.8317
 5643SOL    HW228566   2.038   1.087   3.050  0.2990  2.0878 -0.5481
 5644SOL     OW28567   4.303   0.993   8.128  0.2919  0.4040  0.0986
 5644SOL    HW128568   4.232   1.030   8.076 -1.3577 -0.0220  2.0406
 5644SOL    HW228569   4.290   0.900   8.106 -0.7177  0.8137 -1.0384
 5645SOL     OW28570   4.063   1.984   3.110  0.0817 -0.4965  0.2748
 5645SOL    HW128571   4.112   1.935   3.176 -1.0242  0.9352  2.1493
 5645SOL    HW228572   4.128   1.991   3.040 -0.5908 -0.4932 -0.3459
 5646SOL     OW28573   1.872   4.472   6.696 -0.1462  0.5412 -0.2774
 5646SOL    HW128574   1.783   4.442   6.677  0.1419  0.3105 -1.2695
 5646SOL    HW228575   1.926   4.418   6.639  0.5180  2.4055 -1.4181
 5647SOL     OW28576   0.788   4.608  10.959 -0.4205  0.0116  0.2777
 5647SOL    HW128577   0.759   4.591  11.049  0.9856 -1.1808  0.5064
 5647SOL    HW228578   0.830   4.692  10.976 -0.5483 -0.0315  0.7994
 5648SOL     OW28579   1.055   0.627  11.411 -0.5069 -0.1027  0.2949
 5648SOL    HW128580   1.102   0.693  11.462 -1.3944  0.9443 -0.2640
 5648SOL    HW228581   1.004   0.585  11.480 -1.3353 -0.6233 -0.6365
 5649SOL     OW28582   2.048   1.273   2.687 -0.0746  0.3490  0.0332
 5649SOL    HW128583   1.997   1.210   2.636  0.7502 -0.3307  0.0506
 5649SOL    HW228584   2.131   1.225   2.688 -0.9811 -1.1829  1.2834
 5650SOL     OW28585   1.385   1.468   8.049  0.3697 -0.4499  0.6261
 5650SOL    HW128586   1.478   1.454   8.067  0.3503 -1.4901 -0.0978
 5650SOL    HW228587   1.365   1.375   8.039 -1.7562  0.0799  0.0709
 5651SOL     OW28588   0.902   1.851   8.094  0.1686  0.3628 -0.0398
 5651SOL    HW128589   0.919   1.886   8.006  0.1361 -0.1116 -0.2379
 5651SOL    HW228590   0.885   1.761   8.066  1.3384  0.5423 -1.3523
 5652SOL     OW28591   2.974   3.482   3.458 -0.5654 -0.2161  0.0129
 5652SOL    HW128592   2.933   3.500   3.542  0.3982 -1.1696  0.6848
 5652SOL    HW228593   2.922   3.537   3.400  0.8275 -1.6973 -2.6550
 5653SOL     OW28594   4.707   4.219   3.567  0.0096 -0.1697  0.1058
 5653SOL    HW128595   0.022   4.187   3.638  0.1873  0.4889  0.2626
 5653SOL    HW228596   4.688   4.133   3.530  0.2604  1.2065 -3.2730
 5654SOL     OW28597   2.145   0.009   9.952 -0.5932 -0.3148 -0.7809
 5654SOL    HW128598   2.059   0.009   9.909 -1.7083 -0.0654  1.4664
 5654SOL    HW228599   2.120   0.024  10.043  0.5917 -1.7390 -0.2245
 5655SOL     OW28600   3.612   3.752   6.343  0.9042  0.1190 -0.0242
 5655SOL    HW128601   3.683   3.755   6.279  1.0972  0.5833  0.2113
 5655SOL    HW228602   3.578   3.663   6.347 -1.5794  1.1143  0.6114
 5656SOL     OW28603   1.573   3.245   3.768  0.7815 -0.1576 -0.0939
 5656SOL    HW128604   1.614   3.160   3.782 -4.1640 -2.4259  0.6758
 5656SOL    HW228605   1.647   3.290   3.728  0.8977  0.1796  0.4978
 5657SOL     OW28606   0.363   2.818   1.868  0.0758 -0.0110  0.3123
 5657SOL    HW128607   0.380   2.795   1.960  2.1212  1.8570  0.3891
 5657SOL    HW228608   0.324   2.738   1.833 -1.5316  1.0980 -0.4306
 5658SOL     OW28609   0.466   0.404  17.346  0.1612 -0.3718 -0.0026
 5658SOL    HW128610   0.464   0.496  17.319  0.9308 -0.5172 -0.5562
 5658SOL    HW228611   0.426   0.399  17.433  0.5427 -1.5233  0.1034
 5659SOL     OW28612   0.415   0.687  17.284 -0.5678  0.2324  0.5747
 5659SOL    HW128613   0.371   0.728  17.209  1.1597  1.3681  0.1821
 5659SOL    HW228614   0.507   0.693  17.258 -0.4258  1.6062  1.3963
 5660SOL     OW28615   3.956   3.059   7.468  0.1197  0.0563  0.0212
 5660SOL    HW128616   4.020   3.075   7.538 -0.3206  2.4713 -0.1249
 5660SOL    HW228617   3.888   3.114   7.507  2.0738  1.1917  1.8306
 5661SOL     OW28618   3.333   3.412   9.460  0.1347 -0.2959 -0.1837
 5661SOL    HW128619   3.342   3.489   9.516 -0.1339 -1.2431  1.1687
 5661SOL    HW228620   3.267   3.442   9.398  0.0960  0.6970  0.3280
 5662SOL     OW28621   0.026   2.371   5.221  0.4909 -0.2156  0.3001
 5662SOL    HW128622   0.007   2.450   5.171  0.2602 -0.9279 -0.7514
 5662SOL    HW228623   0.099   2.408   5.269  0.8463 -1.0295  0.3908
 5663SOL     OW28624   3.434   1.303  13.366 -0.1268  0.9807 -0.5172
 5663SOL    HW128625   3.502   1.368  13.347  0.2599  0.3261 -1.3741
 5663SOL    HW228626   3.364   1.351  13.409  1.1186  0.1647  2.4248
 5664SOL     OW28627   1.874   4.436   4.423 -0.4756 -0.1651 -0.3232
 5664SOL    HW128628   1.882   4.529   4.444  0.1661 -0.2467 -0.2174
 5664SOL    HW228629   1.957   4.424   4.377  0.4629  1.5663  0.9330
 5665SOL     OW28630   2.099   2.943   2.625 -0.1657  0.6726 -0.1047
 5665SOL    HW128631   2.095   3.005   2.699 -0.1696 -0.9462  1.2429
 5665SOL    HW228632   2.026   2.967   2.568 -0.6324 -0.4399  0.0294
 5666SOL     OW28633   3.946   3.928   7.613 -0.1253  0.0169  0.2416
 5666SOL    HW128634   4.018   3.918   7.674 -0.7094  1.2071  1.1284
 5666SOL    HW228635   3.969   4.015   7.579  1.7955 -1.9852 -3.5660
 5667SOL     OW28636   0.599   3.070   5.892  0.7768  0.5625  0.0384
 5667SOL    HW128637   0.599   3.026   5.977 -0.0692 -0.2388 -0.3922
 5667SOL    HW228638   0.515   3.035   5.863 -0.1116  2.3347  0.4915
 5668SOL     OW28639   1.700   1.247   8.729  0.2172  0.2428  0.2352
 5668SOL    HW128640   1.648   1.240   8.809  0.3731  1.3888  0.4387
 5668SOL    HW228641   1.658   1.187   8.668  0.7376 -0.8365  0.9491
 5669SOL     OW28642   3.044   3.525   2.141  0.5730  0.7792 -0.2627
 5669SOL    HW128643   3.037   3.466   2.065 -0.8486 -1.9065  1.9777
 5669SOL    HW228644   3.134   3.512   2.170  0.0120  0.0170  1.0844
 5670SOL     OW28645   4.321   0.233   7.037  0.1405 -0.2635  0.2101
 5670SOL    HW128646   4.278   0.158   7.079 -0.1846  0.4892  1.2396
 5670SOL    HW228647   4.390   0.252   7.102 -0.5051  3.0182 -0.0784
 5671SOL     OW28648   2.766   4.178   6.247 -0.2363 -0.2383 -0.4365
 5671SOL    HW128649   2.810   4.261   6.226 -0.7658 -0.4931 -2.5731
 5671SOL    HW228650   2.675   4.206   6.255 -0.3085 -0.3003 -1.0375
 5672SOL     OW28651   2.751   4.111   9.174 -0.4083 -0.4816 -0.4990
 5672SOL    HW128652   2.694   4.045   9.214  1.1582 -1.5042  0.0462
 5672SOL    HW228653   2.819   4.116   9.240 -0.7759  1.2413 -0.2546
 5673SOL     OW28654   2.523   2.236   1.605  0.5062  0.5470  0.1208
 5673SOL    HW128655   2.428   2.231   1.599  0.6330  0.3886 -1.6228
 5673SOL    HW228656   2.537   2.330   1.594  0.1835  0.8148  1.9069
 5674SOL     OW28657   4.107   4.122  10.030  0.1551 -0.0090 -0.2264
 5674SOL    HW128658   4.201   4.115  10.017  0.2362  0.0129  0.3361
 5674SOL    HW228659   4.094   4.216  10.026  0.3389 -0.0033 -0.7244
 5675SOL     OW28660   2.616   3.247  12.986 -0.1652  0.2149 -0.4131
 5675SOL    HW128661   2.709   3.248  13.010  0.4827 -0.4624 -2.8943
 5675SOL    HW228662   2.610   3.342  12.974  1.7127  0.5896  1.6327
 5676SOL     OW28663   2.533   3.509   3.945  0.1439  0.2108  0.7893
 5676SOL    HW128664   2.450   3.556   3.946 -0.6933 -1.2545  0.0916
 5676SOL    HW228665   2.585   3.572   3.995 -0.6514  2.8184 -1.6820
 5677SOL     OW28666   3.305   1.604   5.771 -0.3444  0.2878 -0.4236
 5677SOL    HW128667   3.365   1.530   5.780 -0.9731 -0.3435 -1.3755
 5677SOL    HW228668   3.364   1.679   5.765  1.8407 -1.3412  0.9200
 5678SOL     OW28669   0.636   2.509   3.622 -0.0582 -0.3961 -0.3510
 5678SOL    HW128670   0.614   2.596   3.590 -0.0404 -0.2679 -0.0165
 5678SOL    HW228671   0.601   2.453   3.553  1.0782 -1.5170 -0.0245
 5679SOL     OW28672   2.835   0.327   8.865  0.5381 -0.3125  0.5285
 5679SOL    HW128673   2.804   0.393   8.803  1.4528 -0.0092  0.3930
 5679SOL    HW228674   2.925   0.354   8.886  0.8347 -0.8458 -0.0387
 5680SOL     OW28675   1.248   2.664   7.326  0.6849 -0.1208 -0.2339
 5680SOL    HW128676   1.241   2.691   7.417 -0.6856  0.7688 -0.6122
 5680SOL    HW228677   1.179   2.599   7.327  1.1111 -0.6179 -2.2996
 5681SOL     OW28678   3.981   3.700   6.282  0.2279 -0.1585 -0.3605
 5681SOL    HW128679   4.005   3.783   6.324 -1.3184 -0.1973  0.5981
 5681SOL    HW228680   3.932   3.649   6.347  1.9505  0.1112  1.1575
 5682SOL     OW28681   2.245   0.454   3.866 -0.4296 -0.4138  0.6146
 5682SOL    HW128682   2.253   0.547   3.844 -0.3430 -0.7435 -0.7108
 5682SOL    HW228683   2.312   0.441   3.934 -0.2824  1.3287  0.7994
 5683SOL     OW28684   2.773   3.021  13.472 -0.3701  0.0052 -0.0451
 5683SOL    HW128685   2.841   2.972  13.518  0.4805  0.4516 -0.8367
 5683SOL    HW228686   2.767   2.990  13.382  2.7230 -0.7617  0.0133
 5684SOL     OW28687   2.150   1.319   6.091  0.3326  0.5798  0.0183
 5684SOL    HW128688   2.071   1.371   6.074 -0.6137 -0.9859 -0.3280
 5684SOL    HW228689   2.204   1.372   6.151  0.6586 -1.8091  1.8442
 5685SOL     OW28690   4.029   4.642  11.568 -0.4597  0.7857 -0.0797
 5685SOL    HW128691   3.934   4.636  11.569 -0.4387  0.4813  0.0580
 5685SOL    HW228692   4.050   4.678  11.654  3.2781 -0.2280 -0.5344
 5686SOL     OW28693   1.687   3.479   4.628  0.0179  0.1050 -0.1624
 5686SOL    HW128694   1.610   3.466   4.573  0.1019 -1.6194  0.1214
 5686SOL    HW228695   1.671   3.408   4.689  0.4198 -1.2156 -1.6040
 5687SOL     OW28696   2.617   4.409   1.819 -0.1467  0.2066  0.2219
 5687SOL    HW128697   2.578   4.486   1.778 -2.0497 -1.0622 -0.3611
 5687SOL    HW228698   2.615   4.427   1.913  0.0503 -0.9887  0.4676
 5688SOL     OW28699   3.739   3.048  15.935  0.4068 -0.8769  0.1220
 5688SOL    HW128700   3.759   3.009  15.849  0.4252 -2.5999  0.9034
 5688SOL    HW228701   3.736   3.141  15.914 -3.0108 -1.0930 -0.3395
 5689SOL     OW28702   4.155   0.728   9.098 -0.2651 -0.8594  0.1089
 5689SOL    HW128703   4.138   0.694   9.185  1.7431 -0.7909  0.5309
 5689SOL    HW228704   4.072   0.731   9.050 -0.8213 -2.1686  1.0020
 5690SOL     OW28705   4.444   2.562   3.662  0.0540  0.1275  0.8088
 5690SOL    HW128706   4.496   2.642   3.652 -2.0668  1.4114  0.1462
 5690SOL    HW228707   4.479   2.534   3.747  2.9634  0.7241 -0.1697
 5691SOL     OW28708   0.100   2.003  13.278  0.1344  0.0769 -0.2168
 5691SOL    HW128709   0.134   1.922  13.242 -0.2720 -0.4426  0.5567
 5691SOL    HW228710   0.038   2.041  13.215 -1.7693  0.8665  2.1251
 5692SOL     OW28711   2.930   4.616  12.532 -0.2102 -0.1983  0.2016
 5692SOL    HW128712   2.839   4.612  12.503  0.0098 -0.6263 -0.4219
 5692SOL    HW228713   2.981   4.576  12.462  1.7673  2.1269  0.2985
 5693SOL     OW28714   0.773   3.990   6.156  0.7017  0.2124  0.0558
 5693SOL    HW128715   0.696   3.935   6.142  1.5315 -1.3421  1.6319
 5693SOL    HW228716   0.825   3.925   6.203 -2.5213 -2.5967 -0.2611
 5694SOL     OW28717   4.213   1.077  12.595  0.4192  0.4285  0.4457
 5694SOL    HW128718   4.213   1.003  12.534 -1.4450 -0.7332  1.8612
 5694SOL    HW228719   4.237   1.149  12.537 -0.3940  1.0276  0.8601
 5695SOL     OW28720   3.610   4.366   8.137 -0.6953  0.3173  0.1654
 5695SOL    HW128721   3.536   4.426   8.150 -0.8947  0.3790 -1.1764
 5695SOL    HW228722   3.676   4.435   8.133  0.6673 -1.0608 -1.1729
 5696SOL     OW28723   2.648   2.423   7.973  0.3513  0.3599 -0.4371
 5696SOL    HW128724   2.724   2.462   8.016  1.0575 -1.2590 -0.2614
 5696SOL    HW228725   2.654   2.466   7.887  1.5641 -1.1022 -1.0791
 5697SOL     OW28726   3.422   2.810   1.045  0.0603  0.4255 -0.0210
 5697SOL    HW128727   3.499   2.756   1.028 -1.4921 -1.5823 -0.5479
 5697SOL    HW228728   3.396   2.771   1.128 -1.5374  0.0151 -0.7224
 5698SOL     OW28729   4.235   1.058   7.448  0.2149  0.3575 -0.0778
 5698SOL    HW128730   4.319   1.033   7.487  0.7629 -0.8536 -2.0216
 5698SOL    HW228731   4.258   1.138   7.401  1.4746 -0.4878 -0.9048
 5699SOL     OW28732   2.486   1.285   5.650 -0.3455  0.6391  0.2935
 5699SOL    HW128733   2.409   1.263   5.703 -0.7527  1.1243 -0.1012
 5699SOL    HW228734   2.454   1.271   5.561  2.1096  0.0922 -0.5131
 5700SOL     OW28735   4.574   4.420   8.548 -0.2914  0.6220  0.2036
 5700SOL    HW128736   4.620   4.371   8.480  0.1235 -0.7010  1.4457
 5700SOL    HW228737   4.487   4.423   8.510  0.7468  0.4751 -2.1864
 5701SOL     OW28738   1.530   3.347   9.184  0.1695 -0.0513 -0.1497
 5701SOL    HW128739   1.542   3.348   9.089 -0.3538  0.7372 -0.2116
 5701SOL    HW228740   1.512   3.255   9.205  0.1807  0.2162  1.0370
 5702SOL     OW28741   2.670   2.690   3.244  0.6476 -0.4152 -0.2192
 5702SOL    HW128742   2.621   2.772   3.241  0.9868 -0.1259  2.2949
 5702SOL    HW228743   2.601   2.627   3.227  1.1791 -1.2375  0.6458
 5703SOL     OW28744   4.398   3.636  10.072  0.0145 -0.1256  0.0927
 5703SOL    HW128745   4.452   3.692  10.016 -2.3489  0.8566 -1.2418
 5703SOL    HW228746   4.447   3.629  10.153 -0.6073 -1.5467  0.3452
 5704SOL     OW28747   4.309   2.023  17.676  0.1141 -0.1153 -0.0993
 5704SOL    HW128748   4.398   1.990  17.672  0.5943  1.2719 -0.9062
 5704SOL    HW228749   4.274   1.956  17.736 -0.9866  1.0571  0.5781
 5705SOL     OW28750   4.345   2.731   2.412 -0.1129 -0.2050  0.3200
 5705SOL    HW128751   4.403   2.657   2.392 -0.7312 -1.6930  3.9120
 5705SOL    HW228752   4.337   2.730   2.507  1.5057  0.3921  0.4667
 5706SOL     OW28753   1.936   3.031   7.058 -0.1526  0.0144  0.0501
 5706SOL    HW128754   1.983   2.948   7.067 -0.6821 -0.1302  1.3760
 5706SOL    HW228755   1.996   3.097   7.023 -1.3511  1.3853  0.5760
 5707SOL     OW28756   0.173   2.710  13.962 -0.2132  0.0226  0.4156
 5707SOL    HW128757   0.085   2.748  13.954  0.0242  0.2293 -1.2020
 5707SOL    HW228758   0.230   2.776  13.922 -1.6130  1.1392  0.2443
 5708SOL     OW28759   2.926   0.993  13.302 -0.6666  0.3387  0.6049
 5708SOL    HW128760   2.968   0.910  13.282  2.2412  2.6206 -2.7066
 5708SOL    HW228761   2.986   1.018  13.372  0.3764 -0.3150 -0.0689
 5709SOL     OW28762   3.312   1.295   7.422  0.0902 -0.3044  0.1834
 5709SOL    HW128763   3.366   1.247   7.486 -1.1788 -1.0092  0.7344
 5709SOL    HW228764   3.381   1.345   7.379 -0.3260  0.2134  0.1120
 5710SOL     OW28765   1.018   0.071   3.760 -0.5411  0.6585 -0.1570
 5710SOL    HW128766   0.967   0.047   3.683 -0.8914  1.0498 -0.0476
 5710SOL    HW228767   1.107   0.093   3.731 -0.1225  0.4338  0.9771
 5711SOL     OW28768   1.104   4.554   5.885  0.6319 -0.5580  0.2513
 5711SOL    HW128769   1.155   4.609   5.945 -0.1326  0.4953 -0.0503
 5711SOL    HW228770   1.091   4.478   5.941 -1.0120  1.0145  2.0057
 5712SOL     OW28771   0.433   0.568  10.407 -0.1477 -0.1325 -0.5338
 5712SOL    HW128772   0.414   0.662  10.413  0.1143 -0.0753 -0.6055
 5712SOL    HW228773   0.484   0.572  10.326  0.5089  0.1079 -0.1055
 5713SOL     OW28774   4.064   3.638  14.362  0.2891 -0.1615  0.2749
 5713SOL    HW128775   3.970   3.655  14.361  0.3965  0.5205  1.3025
 5713SOL    HW228776   4.073   3.547  14.333 -0.7319 -0.5746  1.2496
 5714SOL     OW28777   2.784   1.146  17.105 -0.2118 -0.2928  0.7245
 5714SOL    HW128778   2.770   1.052  17.091  0.4513 -0.3703  0.6109
 5714SOL    HW228779   2.824   1.171  17.022  0.3658  0.1985  1.1592
 5715SOL     OW28780   3.747   2.478   5.050  0.1008 -0.3163 -0.0752
 5715SOL    HW128781   3.703   2.404   5.092  2.3060 -2.4675 -1.5469
 5715SOL    HW228782   3.681   2.529   5.004 -1.9833 -2.6224  0.3852
 5716SOL     OW28783   3.382   0.969   2.444 -0.4304 -0.1616  0.0345
 5716SOL    HW128784   3.337   0.908   2.385  1.5750 -1.5999 -0.0158
 5716SOL    HW228785   3.377   0.933   2.532 -3.2374 -1.6780 -0.7317
 5717SOL     OW28786   1.308   1.076   2.255 -0.5863  0.1235 -0.5422
 5717SOL    HW128787   1.268   0.993   2.279 -1.8856  0.6224 -0.9529
 5717SOL    HW228788   1.243   1.137   2.289 -0.5909  0.5372 -1.2735
 5718SOL     OW28789   3.753   1.020  15.963  0.1030  0.3197  0.3957
 5718SOL    HW128790   3.694   1.067  15.904  0.7069  2.6180  1.6687
 5718SOL    HW228791   3.737   1.046  16.053  0.9591  0.5191  0.4815
 5719SOL     OW28792   0.734   0.945   6.047  0.1347 -0.7151 -0.6549
 5719SOL    HW128793   0.652   0.984   6.016  1.5607  2.5934 -0.2118
 5719SOL    HW228794   0.707   0.900   6.127  2.7794  1.1128  1.2641
 5720SOL     OW28795   0.065   2.155   3.248  0.5352 -0.1072 -0.2755
 5720SOL    HW128796   0.010   2.124   3.321 -1.3889 -0.4231 -1.8462
 5720SOL    HW228797   4.734   2.211   3.216 -1.3459 -2.7128 -0.7556
 5721SOL     OW28798   0.849   0.665  16.505 -0.2577 -0.0179  0.0278
 5721SOL    HW128799   0.899   0.684  16.425 -2.2733  1.4829 -0.8581
 5721SOL    HW228800   0.775   0.613  16.474 -0.4349  0.4905 -0.4194
 5722SOL     OW28801   4.439   1.037   6.394 -0.3361  0.3729  0.0767
 5722SOL    HW128802   4.472   1.063   6.308  0.3778  0.7447  0.4682
 5722SOL    HW228803   4.451   0.942   6.394  3.2387  0.8259 -1.1594
 5723SOL     OW28804   3.422   1.697   0.983  0.3495 -0.1537 -0.2680
 5723SOL    HW128805   3.417   1.694   0.888 -1.3505  0.6736 -0.1858
 5723SOL    HW228806   3.448   1.609   1.012  3.4361  0.2940 -1.6555
 5724SOL     OW28807   0.489   4.073   7.808  0.5293  0.2605  0.4018
 5724SOL    HW128808   0.451   4.031   7.885 -1.3724  1.2984  0.0180
 5724SOL    HW228809   0.428   4.145   7.801  0.2526  0.0035  0.1681
 5725SOL     OW28810   1.236   1.696   3.035  0.2426  0.1665 -0.3521
 5725SOL    HW128811   1.149   1.705   2.995 -0.2515  1.3207  0.9704
 5725SOL    HW228812   1.236   1.759   3.107  2.7619  0.6265 -0.7408
 5726SOL     OW28813   0.410   0.819  10.444  0.3670  0.5005 -0.4749
 5726SOL    HW128814   0.372   0.810  10.531  2.9985  0.1362  0.6629
 5726SOL    HW228815   0.429   0.913  10.439  0.1813  0.4843 -1.4743
 5727SOL     OW28816   0.832   1.749   0.051 -0.4808 -0.0131  0.5220
 5727SOL    HW128817   0.865   1.825   0.099  0.4720 -1.0809  1.5638
 5727SOL    HW228818   0.866   1.754  17.715 -1.5163 -2.0459  0.0235
 5728SOL     OW28819   4.096   0.165   2.955 -0.0986 -0.0451  0.1554
 5728SOL    HW128820   4.003   0.179   2.939 -0.4830  0.8406  3.2157
 5728SOL    HW228821   4.129   0.147   2.867 -1.9954 -0.2242 -0.5112
 5729SOL     OW28822   2.457   0.934   3.991  0.3419  0.2093  0.1076
 5729SOL    HW128823   2.471   0.967   4.079 -2.3635 -0.3747  0.7466
 5729SOL    HW228824   2.471   1.020   3.953 -2.6277 -0.6556 -2.9710
 5730SOL     OW28825   3.160   0.101   0.295  0.4209 -0.0343  0.6893
 5730SOL    HW128826   3.064   0.100   0.290  0.3123  0.6829  2.5235
 5730SOL    HW228827   3.176   0.174   0.236 -0.1316 -1.0610 -0.7178
 5731SOL     OW28828   0.215   2.086   3.788  0.2837  0.5519 -0.4402
 5731SOL    HW128829   0.120   2.093   3.800  0.1722 -0.8361 -0.4544
 5731SOL    HW228830   0.232   2.178   3.807  0.7225  0.5573 -0.8606
 5732SOL     OW28831   2.383   3.750   3.953  0.0572  0.3386  0.5654
 5732SOL    HW128832   2.324   3.817   3.989  0.8993  1.2683  0.2060
 5732SOL    HW228833   2.466   3.797   3.964  0.3013  0.4175 -1.7445
 5733SOL     OW28834   0.790   1.591   4.701  0.0897 -0.1227  0.4102
 5733SOL    HW128835   0.776   1.686   4.707 -3.6009 -0.5953 -0.6169
 5733SOL    HW228836   0.750   1.550   4.777 -0.4193 -0.1246  0.1367
 5734SOL     OW28837   3.762   4.134   6.983  0.1828 -0.3137  0.4541
 5734SOL    HW128838   3.822   4.124   6.909  0.6369 -0.0563  0.7829
 5734SOL    HW228839   3.819   4.109   7.057  0.8049  0.8956  0.3784
 5735SOL     OW28840   1.682   1.965   4.311 -0.2002  0.2926  0.7274
 5735SOL    HW128841   1.769   1.937   4.340 -0.3020  0.0802  0.8306
 5735SOL    HW228842   1.652   2.029   4.376 -0.0941 -0.7054  1.7808
 5736SOL     OW28843   4.078   4.505   9.006 -0.0305 -0.0401 -0.1712
 5736SOL    HW128844   4.105   4.498   9.097  1.4135  1.2392 -0.5117
 5736SOL    HW228845   4.126   4.578   8.968 -3.6275  2.8588  0.7737
 5737SOL     OW28846   1.544   4.455   8.290  0.1540 -0.7917  0.6407
 5737SOL    HW128847   1.454   4.488   8.296 -0.0061 -1.0107 -0.5670
 5737SOL    HW228848   1.570   4.461   8.382  1.1258 -0.9423  0.3826
 5738SOL     OW28849   0.305   3.740   2.515  0.1968 -0.1886 -0.4998
 5738SOL    HW128850   0.293   3.647   2.535 -1.6048  0.3951  1.1371
 5738SOL    HW228851   0.260   3.774   2.592 -0.4511 -0.7674 -0.6244
 5739SOL     OW28852   3.427   1.138   7.593  0.1488  0.0106 -0.4481
 5739SOL    HW128853   3.475   1.161   7.672 -1.1846  0.7261  0.1614
 5739SOL    HW228854   3.407   1.047   7.613 -1.2472  0.2962 -0.5379
 5740SOL     OW28855   2.551   0.713  14.816 -0.4905 -0.0618 -0.2764
 5740SOL    HW128856   2.489   0.758  14.874 -0.0972 -1.5380  1.2915
 5740SOL    HW228857   2.528   0.771  14.744  0.6865  0.3961 -0.2851
 5741SOL     OW28858   2.248   2.158   7.057 -0.3949 -0.0123  0.1780
 5741SOL    HW128859   2.166   2.179   7.010 -0.0281 -0.8056 -0.8116
 5741SOL    HW228860   2.299   2.095   7.006 -1.7966 -0.1692 -1.0289
 5742SOL     OW28861   3.800   2.675   4.462 -0.0893  0.3405  0.0899
 5742SOL    HW128862   3.732   2.689   4.528 -0.8875 -1.9482 -0.2511
 5742SOL    HW228863   3.830   2.765   4.452  0.0975  0.6672  3.4964
 5743SOL     OW28864   4.651   0.461   1.804 -0.3739 -0.1950  0.4398
 5743SOL    HW128865   4.605   0.532   1.850 -0.0328 -1.3179  2.5151
 5743SOL    HW228866   4.583   0.400   1.776 -2.8021  2.0957  1.3343
 5744SOL     OW28867   4.428   0.436  13.858 -0.2741 -0.4271  0.6086
 5744SOL    HW128868   4.462   0.520  13.890  0.0946 -0.9814  1.6533
 5744SOL    HW228869   4.388   0.397  13.936  0.3462  2.0205  2.1745
 5745SOL     OW28870   1.028   2.032   4.064 -0.3112 -0.1974 -0.0292
 5745SOL    HW128871   0.947   2.041   4.014  0.8719  1.2116 -1.6957
 5745SOL    HW228872   0.999   1.952   4.108  0.8015 -0.2713  0.5616
 5746SOL     OW28873   4.498   1.833  11.452  0.2665  0.2473 -0.2516
 5746SOL    HW128874   4.461   1.805  11.536  0.8185  1.1781  0.3095
 5746SOL    HW228875   4.542   1.915  11.474 -0.8907  0.4821  1.2302
 5747SOL     OW28876   3.604   1.987   7.021 -0.6359 -0.6019 -0.0513
 5747SOL    HW128877   3.543   2.060   7.034  2.2293  2.2041 -2.4792
 5747SOL    HW228878   3.690   2.023   7.042 -0.9376  0.6605 -0.9370
 5748SOL     OW28879   2.839   3.221  10.429 -0.5693  0.1367 -0.0944
 5748SOL    HW128880   2.896   3.255  10.359 -2.1060  0.1224 -1.3639
 5748SOL    HW228881   2.803   3.298  10.472  0.3630 -0.4550  1.7505
 5749SOL     OW28882   4.132   0.295   1.957  0.3509  0.0712  0.3850
 5749SOL    HW128883   4.066   0.339   2.010 -0.0519  0.3319 -0.3381
 5749SOL    HW228884   4.217   0.312   1.997  1.0165  0.2904 -1.1397
 5750SOL     OW28885   4.163   2.351   5.470 -0.2809 -0.4391  0.0084
 5750SOL    HW128886   4.090   2.289   5.477 -0.3651 -0.6070 -2.1483
 5750SOL    HW228887   4.211   2.323   5.548 -4.3596 -0.5880  2.4490
 5751SOL     OW28888   1.055   3.625  11.606  0.3692 -0.0804  0.4209
 5751SOL    HW128889   1.052   3.532  11.584  0.6088  0.0341 -0.1053
 5751SOL    HW228890   1.024   3.618  11.696  2.1624 -3.6564  0.7431
 5752SOL     OW28891   0.077   0.052   0.724  0.4853 -0.3976  0.8609
 5752SOL    HW128892   0.140   0.001   0.775  0.0429 -1.2160  0.5776
 5752SOL    HW228893   0.101   0.035   0.633  2.1645  2.0942  0.8203
 5753SOL     OW28894   0.670   3.855   4.491 -0.2503  0.2703 -0.5145
 5753SOL    HW128895   0.727   3.893   4.423  0.8108  1.6168  1.1423
 5753SOL    HW228896   0.591   3.831   4.442  0.2320 -0.6554 -0.8388
 5754SOL     OW28897   0.575   3.962  15.794 -0.0294 -0.0760  0.2273
 5754SOL    HW128898   0.548   3.917  15.714 -1.9435  0.5497  0.5429
 5754SOL    HW228899   0.510   4.031  15.782 -0.2157 -0.3930 -0.5784
 5755SOL     OW28900   2.044   1.412   8.354  0.1596  0.0645  0.3713
 5755SOL    HW128901   2.111   1.464   8.398  0.3580  0.9162 -0.9574
 5755SOL    HW228902   1.988   1.486   8.332  2.1602  1.0393 -1.3816
 5756SOL     OW28903   0.819   2.448   1.487  0.0678 -0.2089 -0.1149
 5756SOL    HW128904   0.773   2.457   1.571  1.4805  0.2659  0.6097
 5756SOL    HW228905   0.772   2.516   1.439 -0.7112 -1.4143 -1.0547
 5757SOL     OW28906   2.444   2.372   5.531  0.3554 -0.2069 -0.1871
 5757SOL    HW128907   2.379   2.321   5.482 -0.1090 -1.3415  1.6028
 5757SOL    HW228908   2.458   2.448   5.475  3.4796 -0.2530  0.5075
 5758SOL     OW28909   4.394   3.535  11.021  0.8117 -0.0194 -0.3110
 5758SOL    HW128910   4.467   3.588  10.990  0.2164  0.0772 -1.5648
 5758SOL    HW228911   4.445   3.471  11.070  1.3033  0.2067 -0.5295
 5759SOL     OW28912   3.449   1.437   3.716 -0.4431  0.2177 -0.0929
 5759SOL    HW128913   3.484   1.360   3.761  2.3540  0.8792 -1.1284
 5759SOL    HW228914   3.392   1.396   3.651 -1.2717  1.2031  0.0121
 5760SOL     OW28915   0.875   4.149   2.933 -0.3593  0.1888  0.0845
 5760SOL    HW128916   0.804   4.111   2.881  1.2031  2.0967 -3.4413
 5760SOL    HW228917   0.933   4.194   2.872 -0.3462 -0.2521 -0.2284
 5761SOL     OW28918   1.845   3.195   7.536 -0.0071  0.4300 -0.2731
 5761SOL    HW128919   1.790   3.181   7.459 -0.4581  2.1302 -0.2625
 5761SOL    HW228920   1.820   3.123   7.594  0.5004  0.8899  0.5163
 5762SOL     OW28921   1.719   2.383   7.501 -0.4255 -0.3526 -0.1527
 5762SOL    HW128922   1.651   2.320   7.476 -0.2868 -0.0936 -1.1490
 5762SOL    HW228923   1.737   2.432   7.421  0.0411  0.4663  0.4540
 5763SOL     OW28924   0.925   0.085  11.420 -0.3687 -0.1716  0.1103
 5763SOL    HW128925   0.962   0.158  11.372 -0.0895 -0.4032 -0.0277
 5763SOL    HW228926   0.880   0.121  11.497  0.0702  1.8805 -0.5956
 5764SOL     OW28927   3.114   0.998   6.158  0.3908 -0.3861 -0.6150
 5764SOL    HW128928   3.162   1.075   6.189 -0.0522 -0.9022  1.3874
 5764SOL    HW228929   3.044   1.046   6.114  1.0602  0.9457 -0.2526
 5765SOL     OW28930   0.288   4.628   6.591  0.2140  0.1067  0.8523
 5765SOL    HW128931   0.331   4.664   6.669  1.3001 -0.9264  0.7155
 5765SOL    HW228932   0.207   4.593   6.629 -0.4382 -1.3094 -1.8801
 5766SOL     OW28933   2.253   4.077   3.887  0.1010 -0.1506  0.1125
 5766SOL    HW128934   2.285   4.152   3.937  0.1376  0.7185 -1.2048
 5766SOL    HW228935   2.335   4.065   3.838  0.6781  1.9261  0.5596
 5767SOL     OW28936   1.434   1.217   5.735  0.2253 -0.1308 -0.5374
 5767SOL    HW128937   1.392   1.268   5.666  2.7792 -1.0476 -2.7701
 5767SOL    HW228938   1.388   1.259   5.807  0.9306 -2.0915  1.0512
 5768SOL     OW28939   1.577   2.272  12.340 -0.1534 -0.1125 -0.0738
 5768SOL    HW128940   1.620   2.257  12.424  0.7136 -0.5334 -0.5857
 5768SOL    HW228941   1.494   2.309  12.370  2.0443  3.0461  2.0789
 5769SOL     OW28942   1.576   1.420   6.760  0.3306  1.0213 -0.1611
 5769SOL    HW128943   1.650   1.409   6.820 -1.4072 -1.2016  1.5838
 5769SOL    HW228944   1.505   1.394   6.820  1.3406 -1.3868 -0.0048
 5770SOL     OW28945   0.828   2.815   1.098 -0.2079 -0.2677  0.0588
 5770SOL    HW128946   0.871   2.746   1.048  0.5567  0.7000 -0.6153
 5770SOL    HW228947   0.819   2.876   1.024  0.7657 -1.0227 -0.6758
 5771SOL     OW28948   1.294   1.888  12.145 -0.0549 -0.3357 -0.0995
 5771SOL    HW128949   1.364   1.832  12.111 -1.0768 -1.7152  0.0653
 5771SOL    HW228950   1.336   1.974  12.149 -0.6788 -0.1411  2.4607
 5772SOL     OW28951   4.722   2.754   5.657 -0.1746 -0.2326 -0.0725
 5772SOL    HW128952   4.680   2.683   5.705 -1.1102  0.0805 -0.4258
 5772SOL    HW228953   0.073   2.748   5.688 -0.7286 -0.9129  1.3982
 5773SOL     OW28954   1.899   1.347   3.018 -0.0076  0.2219 -0.1170
 5773SOL    HW128955   1.941   1.324   3.101 -0.6225 -2.3167 -0.4974
 5773SOL    HW228956   1.963   1.403   2.974  2.7789 -1.4023  1.8725
 5774SOL     OW28957   3.670   3.243  16.750  0.0876 -0.0595  0.1321
 5774SOL    HW128958   3.626   3.164  16.782  0.3612 -0.6184 -0.8698
 5774SOL    HW228959   3.625   3.255  16.666  0.9906  2.1338 -0.0268
 5775SOL     OW28960   4.456   0.392   4.193 -0.3443 -0.0321 -0.1554
 5775SOL    HW128961   4.439   0.307   4.235  0.9411 -0.0323  0.3739
 5775SOL    HW228962   4.364   0.416   4.201 -0.7975 -2.2983  1.4401
 5776SOL     OW28963   1.149   2.728   3.057  0.2709  0.4279  0.3853
 5776SOL    HW128964   1.202   2.801   3.090 -0.5706  1.4214 -0.4704
 5776SOL    HW228965   1.138   2.764   2.969 -1.6794  1.7686  1.1972
 5777SOL     OW28966   3.247   4.047   4.402 -0.5190  0.3302  0.0817
 5777SOL    HW128967   3.162   4.090   4.412 -0.6949  0.0773 -0.3248
 5777SOL    HW228968   3.211   3.959   4.414 -1.1643  0.3804 -1.4308
 5778SOL     OW28969   3.193   2.069   3.451 -0.0335 -0.4733  0.1299
 5778SOL    HW128970   3.243   1.995   3.416  1.8343  0.0416  1.6664
 5778SOL    HW228971   3.156   2.109   3.372 -0.9217  0.8756  1.2365
 5779SOL     OW28972   4.701   2.073   4.601  0.8020  0.3229 -0.5905
 5779SOL    HW128973   4.739   2.162   4.602 -0.1913  0.7781 -3.0155
 5779SOL    HW228974   0.002   2.032   4.525 -2.5956 -1.6356 -1.3226
 5780SOL     OW28975   2.166   0.844   6.443 -0.1053  0.2070  0.5047
 5780SOL    HW128976   2.122   0.809   6.365 -0.0119 -0.6959  0.8539
 5780SOL    HW228977   2.093   0.846   6.505 -1.9215 -1.1733 -1.5393
 5781SOL     OW28978   0.277   4.229   7.901 -0.2297  0.0172  0.0310
 5781SOL    HW128979   0.237   4.147   7.928 -1.7166  0.9537  0.6235
 5781SOL    HW228980   0.297   4.262   7.988 -1.2298  3.5309 -1.0610
 5782SOL     OW28981   1.417   3.411   2.491 -0.1679  0.0370 -0.0576
 5782SOL    HW128982   1.500   3.410   2.443 -0.3751  0.5614 -0.4268
 5782SOL    HW228983   1.360   3.381   2.421 -0.1191 -0.0782 -0.0483
 5783SOL     OW28984   0.565   0.200   6.317 -0.3571  0.2935  0.4853
 5783SOL    HW128985   0.636   0.162   6.369  1.2968  2.4183 -0.2282
 5783SOL    HW228986   0.500   0.131   6.334 -0.0921 -0.6116 -2.1314
 5784SOL     OW28987   1.550   0.686   7.198 -0.0568  0.2034 -0.1736
 5784SOL    HW128988   1.557   0.767   7.248  2.4019 -1.1538  1.6869
 5784SOL    HW228989   1.540   0.708   7.105 -1.9554 -0.5022 -0.1224
 5785SOL     OW28990   0.279   4.710   0.934  0.4431 -0.1257 -0.3995
 5785SOL    HW128991   0.312   4.672   1.016 -1.7612 -1.2527 -0.0492
 5785SOL    HW228992   0.343   4.676   0.871 -0.5916  2.2500 -2.7489
 5786SOL     OW28993   0.531   4.295   0.928 -0.0322  0.4581 -0.3714
 5786SOL    HW128994   0.614   4.342   0.937  0.3836 -0.1942 -0.8300
 5786SOL    HW228995   0.488   4.320   1.010  1.8913  2.1769  0.1291
 5787SOL     OW28996   1.560   3.762   2.000  0.4411  0.4708  0.3226
 5787SOL    HW128997   1.593   3.680   2.037 -1.3529  0.1866  1.3085
 5787SOL    HW228998   1.611   3.762   1.920 -0.9684 -1.5359 -0.5567
 5788SOL     OW28999   0.710   3.595   7.352 -0.2248  0.9598  0.1170
 5788SOL    HW129000   0.742   3.676   7.393 -1.7602  2.3606 -1.4178
 5788SOL    HW229001   0.731   3.530   7.418 -3.1270  0.6469  0.7451
 5789SOL     OW29002   0.528   4.155   6.280  0.2442  0.0987 -0.4866
 5789SOL    HW129003   0.501   4.078   6.228  0.2243 -1.8251  2.3699
 5789SOL    HW229004   0.444   4.196   6.303  1.6100  2.2545  0.6319
 5790SOL     OW29005   0.063   4.557   1.208 -0.0761  0.6416 -0.5040
 5790SOL    HW129006   0.098   4.638   1.245  1.4095 -0.0600 -0.3809
 5790SOL    HW229007   0.143   4.506   1.203 -1.4342 -1.5876  0.6397
 5791SOL     OW29008   1.369   4.698   5.625 -0.5867 -0.0152  0.4280
 5791SOL    HW129009   1.412   0.029   5.576 -2.0397  0.5439 -0.0421
 5791SOL    HW229010   1.413   4.619   5.593 -0.6255 -0.1782  0.7746
 5792SOL     OW29011   0.507   4.224  12.217 -0.0751  0.5037 -0.6420
 5792SOL    HW129012   0.552   4.230  12.132  2.8811  1.4900  0.9694
 5792SOL    HW229013   0.488   4.130  12.215 -0.3654  0.5659 -0.6776
 5793SOL     OW29014   0.466   1.337   2.566 -0.2682  0.0353  0.2415
 5793SOL    HW129015   0.485   1.346   2.472 -1.9505 -0.4684 -0.1528
 5793SOL    HW229016   0.432   1.424   2.587  1.3576  1.0878 -1.3848
 5794SOL     OW29017   1.806   4.180   7.023 -0.3225 -0.5598 -0.0264
 5794SOL    HW129018   1.881   4.219   7.067 -1.9914 -1.1214  3.2744
 5794SOL    HW229019   1.848   4.097   7.001  2.3214  0.3269  1.7473
 5795SOL     OW29020   3.539   1.905   0.775 -0.0933  0.1339 -0.6206
 5795SOL    HW129021   3.546   1.832   0.714  1.1760 -1.6221  1.6419
 5795SOL    HW229022   3.511   1.982   0.726  0.8595 -0.2682 -1.7765
 5796SOL     OW29023   3.407   0.988  15.648  0.5008  0.2697 -0.1768
 5796SOL    HW129024   3.396   1.069  15.598 -1.1865 -0.8603 -1.6178
 5796SOL    HW229025   3.397   0.922  15.580  0.2177  0.9921 -0.8389
 5797SOL     OW29026   1.437   1.961   1.419  0.0076  0.2795  0.0281
 5797SOL    HW129027   1.382   2.039   1.426 -2.1489 -1.1601 -0.8741
 5797SOL    HW229028   1.455   1.964   1.325  1.1348 -2.5276  0.1447
 5798SOL     OW29029   0.865   1.361   3.328 -0.3684 -0.4466 -0.3104
 5798SOL    HW129030   0.923   1.429   3.293 -0.5413 -0.0812  0.1028
 5798SOL    HW229031   0.863   1.388   3.420  3.1778 -1.2834  0.0057
 5799SOL     OW29032   0.200   1.473   3.604  0.5283 -0.7017 -0.1824
 5799SOL    HW129033   0.209   1.541   3.670 -0.7654  0.3081 -1.0307
 5799SOL    HW229034   0.118   1.494   3.559  0.5596 -1.8683 -0.7798
 5800SOL     OW29035   3.388   1.013   8.581 -0.5198 -0.1347 -0.2008
 5800SOL    HW129036   3.327   1.086   8.588  1.7636  1.4541  2.7203
 5800SOL    HW229037   3.445   1.030   8.506 -0.6545  1.0146 -0.0369
 5801SOL     OW29038   0.809   0.632   6.940  0.0670 -0.4705  0.5221
 5801SOL    HW129039   0.718   0.624   6.969  0.1245 -0.2454  0.7681
 5801SOL    HW229040   0.803   0.561   6.876 -0.4498 -0.2241  0.2923
 5802SOL     OW29041   2.249   4.152  13.726 -0.8169 -0.4593 -0.3549
 5802SOL    HW129042   2.321   4.131  13.666 -0.3002 -0.3978  0.2389
 5802SOL    HW229043   2.186   4.172  13.656  0.6453  0.8887 -1.2956
 5803SOL     OW29044   3.030   1.934  10.476  0.0399  0.5970 -0.0857
 5803SOL    HW129045   2.981   1.853  10.488 -0.8930  0.7795 -2.7042
 5803SOL    HW229046   3.067   1.961  10.560  0.3808 -1.8813  0.5551
 5804SOL     OW29047   2.314   3.110   5.154 -0.0260  0.1024  0.3354
 5804SOL    HW129048   2.229   3.155   5.155 -0.2416 -0.3109  1.4100
 5804SOL    HW229049   2.289   3.021   5.131 -0.4211  0.5841 -1.0750
 5805SOL     OW29050   0.294   1.189   8.730 -1.0523 -0.1136  0.1756
 5805SOL    HW129051   0.287   1.094   8.733  0.4706 -0.2742 -1.1798
 5805SOL    HW229052   0.272   1.206   8.821 -0.6457  2.7894 -0.2591
 5806SOL     OW29053   2.673   2.196   1.113  0.6305  0.5823 -0.0286
 5806SOL    HW129054   2.713   2.133   1.052 -2.0281  0.0976 -1.2450
 5806SOL    HW229055   2.580   2.206   1.096  0.6030  1.3169  0.5417
 5807SOL     OW29056   1.727   2.396   6.511  0.3478  0.6486  0.4014
 5807SOL    HW129057   1.748   2.321   6.567 -0.1782  0.1282 -0.1007
 5807SOL    HW229058   1.678   2.455   6.569  0.1796  0.7891  0.1197
 5808SOL     OW29059   0.315   0.963   3.649  0.3771  0.2154  0.0517
 5808SOL    HW129060   0.249   1.010   3.598  1.1039  1.8801  0.6387
 5808SOL    HW229061   0.268   0.890   3.690  0.0672 -1.4563 -3.3179
 5809SOL     OW29062   2.884   4.098   4.173  0.4399 -0.5654  0.3913
 5809SOL    HW129063   2.881   4.116   4.266 -3.6984 -1.3123  0.3769
 5809SOL    HW229064   2.979   4.101   4.157  0.5724 -0.4366  1.2400
 5810SOL     OW29065   1.185   1.133  13.657  0.0851 -0.0819  0.8199
 5810SOL    HW129066   1.221   1.050  13.626  0.3255 -0.4883  2.1802
 5810SOL    HW229067   1.221   1.203  13.603  1.4577  0.7917  2.8617
 5811SOL     OW29068   4.220   1.583   9.447 -0.3412  0.0483 -0.0256
 5811SOL    HW129069   4.228   1.573   9.352 -0.9803 -0.5890 -0.0178
 5811SOL    HW229070   4.267   1.504   9.470  0.1482  0.6922  1.1813
 5812SOL     OW29071   2.873   3.265  13.069 -0.4610  0.3664 -0.1908
 5812SOL    HW129072   2.915   3.351  13.068 -1.0157  0.6729  3.0673
 5812SOL    HW229073   2.943   3.204  13.045  1.1393  1.0253  2.8050
 5813SOL     OW29074   3.642   3.530   1.523  0.4201  0.2874  0.4540
 5813SOL    HW129075   3.713   3.468   1.508 -2.0082 -2.4557  0.2158
 5813SOL    HW229076   3.625   3.518   1.617 -1.2454  1.9064  0.3540
 5814SOL     OW29077   3.568   0.539  12.208  0.1850  0.4764 -0.1805
 5814SOL    HW129078   3.507   0.600  12.166 -0.5972  0.1811  0.5131
 5814SOL    HW229079   3.510   0.505  12.276 -3.5668  2.1493 -2.5286
 5815SOL     OW29080   3.883   3.125   6.291  0.0139 -0.0568 -0.0197
 5815SOL    HW129081   3.888   3.034   6.260 -1.2079  0.7342 -2.5195
 5815SOL    HW229082   3.816   3.158   6.232 -0.7985 -4.3878 -1.5240
 5816SOL     OW29083   2.312   0.122   8.685 -0.3109  0.3271 -0.3524
 5816SOL    HW129084   2.289   0.197   8.739  2.0701  0.0917  1.0127
 5816SOL    HW229085   2.408   0.116   8.685 -0.4161 -1.6426  0.8229
 5817SOL     OW29086   2.448   2.691   4.109 -0.5590  0.3067  0.2609
 5817SOL    HW129087   2.519   2.692   4.044 -0.1255  0.9617  0.7444
 5817SOL    HW229088   2.385   2.631   4.069  0.1443  0.7419 -1.5103
 5818SOL     OW29089   1.609   4.409   7.561  0.2747 -0.2198  0.5566
 5818SOL    HW129090   1.556   4.377   7.489 -0.5109 -0.5173  1.2701
 5818SOL    HW229091   1.562   4.491   7.579  0.1245 -0.6753  2.2214
 5819SOL     OW29092   2.555   2.902   5.599 -0.0563 -0.1986 -0.7192
 5819SOL    HW129093   2.519   2.944   5.520  1.3418 -1.7391 -2.1720
 5819SOL    HW229094   2.649   2.903   5.581  0.4203 -0.7725  1.8113
 5820SOL     OW29095   4.526   0.101   3.261 -0.3943  0.1861  0.3878
 5820SOL    HW129096   4.476   0.019   3.270  0.6333 -0.3908  0.9037
 5820SOL    HW229097   4.490   0.149   3.187  1.2646  1.1399  0.2110
 5821SOL     OW29098   2.890   0.674  16.333  0.1433  0.4070  0.2076
 5821SOL    HW129099   2.872   0.588  16.294  0.3287 -1.1487  3.4719
 5821SOL    HW229100   2.923   0.724  16.258 -0.2469 -0.8677 -0.8113
 5822SOL     OW29101   1.269   1.992   0.246  0.1602  0.3221  0.0538
 5822SOL    HW129102   1.363   1.980   0.248  0.1126 -0.0301  0.3040
 5822SOL    HW229103   1.231   1.904   0.247  2.1835 -0.5624 -0.9400
 5823SOL     OW29104   4.495   1.244  14.612 -0.5693 -0.1745 -0.0651
 5823SOL    HW129105   4.526   1.329  14.642 -0.2920 -0.2593 -0.1085
 5823SOL    HW229106   4.497   1.260  14.518  0.5836 -1.6705 -0.3149
 5824SOL     OW29107   0.720   0.413  16.928 -0.0974 -0.0184 -0.1317
 5824SOL    HW129108   0.814   0.416  16.947 -0.1890 -2.8284  0.7925
 5824SOL    HW229109   0.690   0.362  17.003  0.8189 -0.0849  0.1878
 5825SOL     OW29110   3.982   2.443   4.881  0.5618  0.3418 -0.0678
 5825SOL    HW129111   3.964   2.483   4.796  0.6437  1.2989  0.3578
 5825SOL    HW229112   3.894   2.462   4.911  0.9287 -2.2902  2.6295
 5826SOL     OW29113   1.624   1.579  13.267 -0.6903  0.2215  0.0861
 5826SOL    HW129114   1.562   1.632  13.218 -1.4718 -0.4395  0.3595
 5826SOL    HW229115   1.582   1.580  13.353  0.3171  0.4118  0.5797
 5827SOL     OW29116   2.339   3.537   1.097 -0.2458  0.2979 -0.3747
 5827SOL    HW129117   2.432   3.562   1.103  0.0907 -1.7863  3.3107
 5827SOL    HW229118   2.324   3.533   1.003  0.1431  1.3287 -0.4810
 5828SOL     OW29119   1.103   1.341   5.451 -0.0338  0.6000  0.4756
 5828SOL    HW129120   1.015   1.367   5.476  0.3608  1.8769  0.5623
 5828SOL    HW229121   1.108   1.249   5.476 -0.1206  0.4218 -0.1697
 5829SOL     OW29122   1.837   3.490   8.915 -0.7651 -0.3622 -0.6571
 5829SOL    HW129123   1.845   3.530   9.002 -0.0314 -1.9156  0.0036
 5829SOL    HW229124   1.847   3.398   8.939 -2.0527 -0.2274  0.3965
 5830SOL     OW29125   0.404   1.347   3.463  0.7210 -0.1397 -0.5377
 5830SOL    HW129126   0.458   1.313   3.535  1.3470  2.1835  0.0809
 5830SOL    HW229127   0.318   1.367   3.499  1.0959 -0.4281  0.5290
 5831SOL     OW29128   1.943   1.532   3.325  0.3351 -0.9523 -0.1502
 5831SOL    HW129129   1.861   1.483   3.323 -0.6807  0.6688  1.5863
 5831SOL    HW229130   1.910   1.613   3.287  0.2479 -0.6987  0.4615
 5832SOL     OW29131   3.635   4.542  14.264 -0.1987  0.1455 -0.4639
 5832SOL    HW129132   3.676   4.598  14.199 -1.4489 -0.6710 -1.9559
 5832SOL    HW229133   3.701   4.477  14.283 -0.3754  0.3668  0.9516
 5833SOL     OW29134   2.150   4.173  10.658  0.0634 -0.8448  0.3639
 5833SOL    HW129135   2.083   4.186  10.725 -0.9260  1.2409 -1.0122
 5833SOL    HW229136   2.160   4.079  10.641 -0.2025 -1.1574  1.8651
 5834SOL     OW29137   4.671   3.115  15.637  0.2956 -0.5986 -0.3860
 5834SOL    HW129138   0.027   3.121  15.630  0.5145 -2.7145  0.6860
 5834SOL    HW229139   4.658   3.093  15.729 -0.6825 -5.8298 -1.7800
 5835SOL     OW29140   1.431   2.776   2.710  0.8513  0.2695 -0.4847
 5835SOL    HW129141   1.418   2.850   2.769 -0.1931 -0.2194 -0.0902
 5835SOL    HW229142   1.524   2.771   2.689  0.7523 -0.9566 -0.6788
 5836SOL     OW29143   4.342   2.277   3.182 -0.2083 -0.3153  0.0583
 5836SOL    HW129144   4.299   2.303   3.100 -0.4598  0.6574  0.4935
 5836SOL    HW229145   4.313   2.350   3.237  0.0899  1.6797 -2.4507
 5837SOL     OW29146   3.460   3.377   6.958 -0.7750 -0.5339  0.2006
 5837SOL    HW129147   3.549   3.355   6.984 -0.8826 -0.2467  0.8023
 5837SOL    HW229148   3.465   3.472   6.961  0.5780 -0.6102  0.5678
 5838SOL     OW29149   2.206   0.172   6.119 -0.0712 -0.4161 -0.3253
 5838SOL    HW129150   2.250   0.164   6.034 -1.5363  0.4189 -1.1470
 5838SOL    HW229151   2.278   0.204   6.174 -1.5269  0.8006  0.8682
 5839SOL     OW29152   0.198   0.001   1.380  0.1794 -0.2232 -0.0603
 5839SOL    HW129153   0.217   0.087   1.415  1.5400 -0.4555 -0.2185
 5839SOL    HW229154   0.284   4.701   1.396  0.3554  0.1087 -0.2054
 5840SOL     OW29155   1.247   3.645   4.397 -0.1268 -0.7300 -0.4816
 5840SOL    HW129156   1.270   3.693   4.317 -0.8070 -0.1796 -0.3466
 5840SOL    HW229157   1.177   3.703   4.428  0.1531 -1.4670  1.4858
 5841SOL     OW29158   2.612   2.895  12.979 -0.2122  0.0379 -0.4145
 5841SOL    HW129159   2.548   2.960  12.949 -0.6564 -0.5249 -0.6863
 5841SOL    HW229160   2.573   2.815  12.943 -1.6901  0.5401  0.0767
 5842SOL     OW29161   2.641   4.061   7.950 -0.2969 -0.1980  0.0825
 5842SOL    HW129162   2.630   3.997   7.879 -2.0777 -1.7806  1.7773
 5842SOL    HW229163   2.728   4.049   7.988 -0.1709  0.9962  0.1747
 5843SOL     OW29164   1.814   4.518   5.029  0.0569 -0.8144 -0.9239
 5843SOL    HW129165   1.774   4.463   4.961  0.9540  0.4703 -2.4887
 5843SOL    HW229166   1.843   4.456   5.095 -0.2150 -0.9545 -0.9348
 5844SOL     OW29167   3.449   2.568   1.734  0.1305 -0.1283 -0.1387
 5844SOL    HW129168   3.428   2.654   1.770  0.4948 -0.0414 -0.1267
 5844SOL    HW229169   3.418   2.569   1.643  0.3086  0.9960 -0.1866
 5845SOL     OW29170   2.714   2.638   6.594  0.3282  1.2612 -0.0167
 5845SOL    HW129171   2.731   2.545   6.607 -0.4702  1.0536 -0.4565
 5845SOL    HW229172   2.618   2.632   6.595  0.4995 -1.4829 -2.6046
 5846SOL     OW29173   2.817   2.902   6.605  0.3251  0.3401  0.8801
 5846SOL    HW129174   2.817   2.943   6.691 -0.0877  1.0308  0.5597
 5846SOL    HW229175   2.776   2.817   6.621  0.0356  0.3093 -0.0070
 5847SOL     OW29176   1.691   2.176   2.210 -0.1329  0.0473 -0.1248
 5847SOL    HW129177   1.665   2.233   2.137  0.5103 -2.4975 -2.3681
 5847SOL    HW229178   1.740   2.236   2.266  0.0981  1.4167 -1.7994
 5848SOL     OW29179   0.773   3.288   7.111 -0.0145 -0.2429  0.4401
 5848SOL    HW129180   0.815   3.204   7.093  0.5968 -0.2571  1.9048
 5848SOL    HW229181   0.737   3.276   7.198 -1.4883  3.3266  0.3285
 5849SOL     OW29182   2.160   4.228  14.213  0.2000 -0.3206  0.5076
 5849SOL    HW129183   2.214   4.158  14.178 -0.6362 -0.1750 -1.0613
 5849SOL    HW229184   2.111   4.253  14.135 -0.9303 -0.0237  1.3197
 5850SOL     OW29185   3.211   0.708   3.207  0.1358  0.4993 -0.3519
 5850SOL    HW129186   3.158   0.628   3.213  0.9185  0.0881  0.9142
 5850SOL    HW229187   3.214   0.725   3.301 -1.6870 -0.3979 -0.1204
 5851SOL     OW29188   1.417   4.672   9.383 -0.4337 -0.0270 -0.2011
 5851SOL    HW129189   1.471   4.713   9.316  2.5726 -0.3346  2.0377
 5851SOL    HW229190   1.477   4.611   9.425 -2.1474 -1.4732  0.1417
 5852SOL     OW29191   1.699   4.490   3.085  0.1332  0.4473  0.1155
 5852SOL    HW129192   1.756   4.418   3.060 -0.0287  0.3258  0.0945
 5852SOL    HW229193   1.676   4.536   3.004 -0.0526 -1.6529 -1.0159
 5853SOL     OW29194   4.165   0.970  16.764  0.1741 -0.4343  0.2156
 5853SOL    HW129195   4.197   1.037  16.824 -0.4991  1.5752 -1.6230
 5853SOL    HW229196   4.238   0.969  16.702  0.8480  0.9759  0.9779
 5854SOL     OW29197   4.371   1.340   8.533 -0.3390 -0.5258 -0.4717
 5854SOL    HW129198   4.387   1.404   8.603 -1.3356 -0.7647 -0.0240
 5854SOL    HW229199   4.460   1.307   8.521  0.8288  1.8357  1.6643
 5855SOL     OW29200   3.024   4.429   5.394 -0.2208  0.8912 -0.1308
 5855SOL    HW129201   3.019   4.432   5.299  2.1512  1.6133 -0.2361
 5855SOL    HW229202   3.083   4.502   5.412  1.1679 -0.6710  1.7233
 5856SOL     OW29203   0.804   4.303   7.890 -0.1174  0.2669  0.0562
 5856SOL    HW129204   0.880   4.337   7.937 -2.2658  2.9908  1.5616
 5856SOL    HW229205   0.748   4.381   7.884 -0.3310 -0.1090 -2.9503
 5857SOL     OW29206   2.644   2.627   9.007  0.1069  0.1505 -0.2812
 5857SOL    HW129207   2.635   2.721   9.025 -1.8442  0.2202 -1.5353
 5857SOL    HW229208   2.653   2.604   9.100 -0.4279  1.3453  0.0806
 5858SOL     OW29209   1.941   2.714   9.893  0.3948 -0.4027 -0.0568
 5858SOL    HW129210   2.007   2.716   9.963 -0.4094  0.5134  0.6690
 5858SOL    HW229211   1.867   2.747   9.944  0.3221 -0.9118  0.1777
 5859SOL     OW29212   3.876   1.379   0.228 -0.4576  0.2813 -0.0508
 5859SOL    HW129213   3.908   1.325   0.155  1.0329 -0.0261  0.8246
 5859SOL    HW229214   3.889   1.336   0.312  1.1219  1.4089  0.2914
 5860SOL     OW29215   0.768   2.459   6.256 -0.3631  0.0016 -0.3574
 5860SOL    HW129216   0.862   2.472   6.265 -0.2336 -0.6771 -0.7442
 5860SOL    HW229217   0.758   2.367   6.279 -1.9931  0.2185 -0.1927
 5861SOL     OW29218   0.613   3.301   4.743 -0.4599  0.1794 -0.0518
 5861SOL    HW129219   0.576   3.389   4.738 -1.3910 -0.1387  1.1321
 5861SOL    HW229220   0.690   3.308   4.687  0.2558  1.5544  1.1233
 5862SOL     OW29221   4.308   0.365   6.751  0.0561 -0.3768 -0.3707
 5862SOL    HW129222   4.277   0.336   6.837  0.0383 -2.3693 -1.0384
 5862SOL    HW229223   4.369   0.293   6.731 -0.7904 -0.9111 -1.0434
 5863SOL     OW29224   4.086   4.404   2.613  0.4384 -0.2976  0.1865
 5863SOL    HW129225   4.134   4.466   2.667  0.9516 -0.6567  0.1414
 5863SOL    HW229226   4.110   4.321   2.654  0.1850 -0.6127 -0.3075
 5864SOL     OW29227   2.200   1.420   3.298 -0.4431 -0.2857 -0.4191
 5864SOL    HW129228   2.137   1.491   3.311 -1.2963 -0.9028 -1.1934
 5864SOL    HW229229   2.139   1.347   3.287 -0.2592 -0.2361 -1.7473
 5865SOL     OW29230   4.470   4.232   9.148 -0.2596 -0.1659 -0.3090
 5865SOL    HW129231   4.417   4.215   9.226 -0.0989  0.2074 -0.1152
 5865SOL    HW229232   4.506   4.143   9.147  0.3932  0.0401  3.6885
 5866SOL     OW29233   0.270   2.981   5.041  0.1356 -0.3392 -0.6805
 5866SOL    HW129234   0.346   3.013   4.992  0.5148  0.8262  0.6825
 5866SOL    HW229235   0.247   3.050   5.103  0.5079 -1.2077  0.4318
 5867SOL     OW29236   3.399   2.567   3.962 -0.1972 -0.0733 -0.3315
 5867SOL    HW129237   3.473   2.538   4.015 -2.1072  0.2616  2.5764
 5867SOL    HW229238   3.420   2.534   3.875  1.1092 -0.2637  0.0524
 5868SOL     OW29239   2.552   2.791   2.235  0.2677 -0.3749  0.0602
 5868SOL    HW129240   2.528   2.883   2.221  1.9741  0.0242 -0.2491
 5868SOL    HW229241   2.471   2.755   2.272  0.9390 -3.2305 -1.2156
 5869SOL     OW29242   3.629   1.340   3.279 -1.0240 -0.0768  0.3291
 5869SOL    HW129243   3.650   1.315   3.369 -0.8637 -1.4709 -0.1040
 5869SOL    HW229244   3.588   1.425   3.298  0.4165  0.1751  2.4009
 5870SOL     OW29245   1.431   1.024   6.141  0.3940  0.6537  0.2533
 5870SOL    HW129246   1.411   0.990   6.053  1.7783 -0.1778  0.2560
 5870SOL    HW229247   1.486   1.097   6.111  0.9697  0.2346  0.3106
 5871SOL     OW29248   3.564   3.753   2.126 -0.1997 -0.3592 -0.2405
 5871SOL    HW129249   3.628   3.822   2.111 -0.9665  0.3642 -0.1534
 5871SOL    HW229250   3.624   3.682   2.150 -1.4625 -2.3362 -2.8047
 5872SOL     OW29251   0.810   1.040   2.245 -0.2072  0.5627  0.1184
 5872SOL    HW129252   0.821   1.107   2.312  1.0079  0.0021  0.4807
 5872SOL    HW229253   0.833   0.967   2.302  0.5791  0.8904  0.2108
 5873SOL     OW29254   2.128   0.235   3.257  0.0532 -0.0539 -0.0181
 5873SOL    HW129255   2.186   0.160   3.271  1.1915  0.7605 -0.3728
 5873SOL    HW229256   2.192   0.303   3.235 -0.5547  0.6504  0.3649
 5874SOL     OW29257   4.457   0.989   2.064 -0.4091  0.9215 -0.5191
 5874SOL    HW129258   4.548   1.005   2.088 -0.3850 -1.0662  0.7281
 5874SOL    HW229259   4.425   0.965   2.151 -0.0230  1.0804 -0.3340
 5875SOL     OW29260   0.151   0.937   6.157 -0.7699  0.0215 -0.0794
 5875SOL    HW129261   0.171   1.015   6.104  2.4408  1.4929  3.3350
 5875SOL    HW229262   0.140   0.875   6.084 -1.4081  1.1468 -0.9461
 5876SOL     OW29263   1.612   3.088   1.787  0.4778 -0.7068  0.5974
 5876SOL    HW129264   1.655   3.016   1.832  0.0139 -1.4055 -0.0738
 5876SOL    HW229265   1.676   3.159   1.781  2.5046 -2.6462 -0.8735
 5877SOL     OW29266   0.843   3.284   4.610 -0.1703  0.7541 -0.1849
 5877SOL    HW129267   0.911   3.349   4.593  1.6313 -0.6068  1.9176
 5877SOL    HW229268   0.858   3.221   4.539  0.2990  0.9873 -0.2934
 5878SOL     OW29269   3.218   0.637  13.456 -0.1272  0.2532 -0.1668
 5878SOL    HW129270   3.175   0.551  13.454 -0.4941  0.3846  1.9755
 5878SOL    HW229271   3.268   0.621  13.536  0.0947  0.2783 -0.3005
 5879SOL     OW29272   3.197   3.234  15.839 -0.1467 -0.4177  0.0568
 5879SOL    HW129273   3.251   3.164  15.876  0.6200  1.2120  2.0695
 5879SOL    HW229274   3.211   3.295  15.912  1.0262 -1.2771  0.5540
 5880SOL     OW29275   3.358   2.887   7.237  0.7580  0.2663  0.6126
 5880SOL    HW129276   3.269   2.910   7.263  1.1317  0.7866  1.4389
 5880SOL    HW229277   3.400   2.902   7.322  0.4993  1.1022  0.5921
 5881SOL     OW29278   3.969   4.124  16.817  0.0640 -0.3537  0.1498
 5881SOL    HW129279   3.938   4.165  16.736 -1.2559 -0.2124  0.7238
 5881SOL    HW229280   3.959   4.196  16.880 -0.3630 -0.2926  0.0148
 5882SOL     OW29281   2.766   2.529   3.037  0.1458 -0.0051 -0.0546
 5882SOL    HW129282   2.768   2.599   3.103  1.8211  1.3984 -1.5712
 5882SOL    HW229283   2.730   2.581   2.965 -1.0101 -1.1915 -0.3216
 5883SOL     OW29284   1.753   2.720   8.227 -0.1687  0.3664  0.2048
 5883SOL    HW129285   1.823   2.742   8.289 -1.3290  0.6885  1.3949
 5883SOL    HW229286   1.786   2.633   8.203 -1.3108 -0.1740  0.6004
 5884SOL     OW29287   2.023   1.095   4.960  0.1532  0.4616 -0.4273
 5884SOL    HW129288   2.078   1.159   4.915 -0.5815  0.2364 -1.6591
 5884SOL    HW229289   1.982   1.035   4.897  2.8943 -1.0097 -0.8199
 5885SOL     OW29290   1.845   0.566   2.232  0.1271  0.4458 -0.5034
 5885SOL    HW129291   1.871   0.658   2.229 -2.2214  1.1395  1.3261
 5885SOL    HW229292   1.933   0.530   2.240  0.1545  1.0237  1.6459
 5886SOL     OW29293   2.115   2.910  13.617  0.0088 -0.4029  0.1304
 5886SOL    HW129294   2.129   2.842  13.682  2.0814  1.6875  1.8344
 5886SOL    HW229295   2.019   2.908  13.607 -0.0385  0.6772  0.3190
 5887SOL     OW29296   0.566   1.806  17.507  0.3544  0.5199 -0.3448
 5887SOL    HW129297   0.576   1.864  17.432  3.0818 -1.5994 -1.6054
 5887SOL    HW229298   0.591   1.721  17.473 -0.1697  0.7629 -1.3149
 5888SOL     OW29299   3.942   0.077   8.173  0.0690  0.6634 -0.1037
 5888SOL    HW129300   3.880   0.103   8.242  0.3715 -1.9567  1.1343
 5888SOL    HW229301   3.915   4.728   8.148  0.4448  0.6569 -0.4788
 5889SOL     OW29302   4.436   1.026   4.185  0.2009  0.2621 -0.3969
 5889SOL    HW129303   4.500   0.976   4.236  2.2465  1.1033 -2.1813
 5889SOL    HW229304   4.392   0.966   4.125 -0.5897  0.9402 -0.4980
 5890SOL     OW29305   4.125   3.933  12.460  0.2890  0.5448  0.0279
 5890SOL    HW129306   4.186   3.983  12.515 -0.7634 -0.3255  1.9971
 5890SOL    HW229307   4.174   3.855  12.433 -1.1627  0.1657 -1.4623
 5891SOL     OW29308   2.698   4.617   4.969  0.4865 -0.5874 -0.2559
 5891SOL    HW129309   2.676   4.584   4.882 -0.9576  1.4490 -0.6790
 5891SOL    HW229310   2.611   4.621   5.009  1.7139  0.3738  2.3154
 5892SOL     OW29311   1.485   2.383   7.152 -0.5079 -0.6668  0.1055
 5892SOL    HW129312   1.555   2.364   7.089  0.1203  0.3183  0.4939
 5892SOL    HW229313   1.465   2.473   7.124  1.7949 -0.0404  0.4088
 5893SOL     OW29314   2.739   4.624   1.422  0.2708 -0.2621  0.0906
 5893SOL    HW129315   2.645   4.608   1.409  0.1862 -0.4516  0.9483
 5893SOL    HW229316   2.770   4.571   1.348  4.2501  0.4308  1.2757
 5894SOL     OW29317   2.923   0.033   8.698 -0.9148  0.0419 -0.4497
 5894SOL    HW129318   2.942   0.041   8.791 -1.8634  1.9802 -0.4256
 5894SOL    HW229319   2.847   4.716   8.711 -0.2070 -0.5258  1.1876
 5895SOL     OW29320   1.846   3.583   2.635  0.2036  0.2047 -0.0623
 5895SOL    HW129321   1.797   3.665   2.637 -1.6222 -0.9702  2.9985
 5895SOL    HW229322   1.899   3.591   2.715  2.8399  0.0451 -1.7912
 5896SOL     OW29323   1.330   0.094   2.951  0.6151  0.4824 -0.4378
 5896SOL    HW129324   1.352   0.046   2.872 -1.2477 -0.5065 -0.3419
 5896SOL    HW229325   1.366   0.035   3.017 -0.3770 -0.7578 -1.0239
 5897SOL     OW29326   4.084   2.621  13.484  0.5945  0.0033  0.3286
 5897SOL    HW129327   4.099   2.713  13.463  0.3735  0.3314  1.6226
 5897SOL    HW229328   3.989   2.630  13.482  0.8151  2.2795  0.6300
 5898SOL     OW29329   0.457   0.700   2.862 -0.4626  0.0337 -0.6035
 5898SOL    HW129330   0.514   0.630   2.897  0.8156  1.3576 -0.0353
 5898SOL    HW229331   0.381   0.643   2.870  1.4540 -2.6402 -1.1185
 5899SOL     OW29332   2.217   0.234   0.842 -0.8666  0.0463 -0.8715
 5899SOL    HW129333   2.284   0.253   0.907 -0.7954  1.2223 -1.2943
 5899SOL    HW229334   2.144   0.290   0.869 -0.0904  0.7402 -0.2050
 5900SOL     OW29335   3.445   4.573   1.981 -0.1477  0.1001  0.1801
 5900SOL    HW129336   3.504   4.647   1.991  0.0789 -0.2319  1.2782
 5900SOL    HW229337   3.508   4.516   1.937  0.2822  0.1461  0.7385
 5901SOL     OW29338   1.180   0.284   6.610  0.5236 -0.5238  0.1466
 5901SOL    HW129339   1.243   0.354   6.591 -0.2816 -1.2557 -5.3250
 5901SOL    HW229340   1.224   0.237   6.680  1.2016  0.9634  0.7106
 5902SOL     OW29341   0.611   0.688   3.173 -0.8245 -0.2277  0.1840
 5902SOL    HW129342   0.538   0.687   3.234 -0.4957 -0.0352  0.5812
 5902SOL    HW229343   0.626   0.594   3.163  0.7243  0.2462 -1.9806
 5903SOL     OW29344   4.212   2.870  10.169  0.3072 -0.2824 -0.2039
 5903SOL    HW129345   4.186   2.828  10.088 -0.0300  1.6207 -1.0776
 5903SOL    HW229346   4.279   2.928  10.134  1.6769 -1.9153 -0.2684
 5904SOL     OW29347   3.363   0.407   1.625 -0.1429  0.5776 -0.0977
 5904SOL    HW129348   3.311   0.361   1.691  0.8745 -2.2922 -1.3126
 5904SOL    HW229349   3.443   0.355   1.631 -0.2252  0.4153 -0.4227
 5905SOL     OW29350   0.675   3.447   3.293 -0.1820  0.1056  0.0783
 5905SOL    HW129351   0.726   3.490   3.362  1.9716 -1.5116 -0.4837
 5905SOL    HW229352   0.746   3.438   3.230  0.1342 -0.2885  0.4900
 5906SOL     OW29353   0.545   3.978   8.572  0.2934  0.0463 -0.0372
 5906SOL    HW129354   0.568   3.996   8.663 -1.5405  1.7590  0.0879
 5906SOL    HW229355   0.631   3.958   8.536  0.4270  0.9487 -0.2201
 5907SOL     OW29356   1.999   4.645   8.790 -0.1411 -0.0639  0.6291
 5907SOL    HW129357   2.024   4.612   8.703 -1.0689 -1.3226  0.8336
 5907SOL    HW229358   2.017   4.569   8.846  0.3410 -0.8483 -0.5722
 5908SOL     OW29359   4.738   2.279   6.950 -0.3903 -0.6530 -0.0998
 5908SOL    HW129360   4.669   2.344   6.944 -0.5726 -0.6932  1.5779
 5908SOL    HW229361   4.691   2.216   6.895 -1.2423 -0.4002  0.3506
 5909SOL     OW29362   3.500   0.870   4.785  0.1434 -0.6382  0.0215
 5909SOL    HW129363   3.450   0.845   4.862  2.3848  0.5193  1.8434
 5909SOL    HW229364   3.441   0.852   4.711  0.6172  1.7566 -0.9319
 5910SOL     OW29365   0.367   3.228   6.105 -0.0431 -0.8092  0.4981
 5910SOL    HW129366   0.334   3.157   6.160  0.0280  0.0295  1.6222
 5910SOL    HW229367   0.298   3.240   6.040  1.9681 -1.4343 -1.7357
 5911SOL     OW29368   0.393   0.658   8.822 -0.2506  0.5030 -0.3063
 5911SOL    HW129369   0.308   0.622   8.845 -0.2790  0.1326 -0.9749
 5911SOL    HW229370   0.398   0.628   8.731  0.5990  1.6935 -0.6499
 5912SOL     OW29371   3.928   1.772   5.052 -0.7848 -0.0879  0.0176
 5912SOL    HW129372   3.861   1.807   5.111 -0.9283 -1.3364  0.5965
 5912SOL    HW229373   3.981   1.716   5.109 -1.5184  0.5108  1.2832
 5913SOL     OW29374   1.471   4.146   9.030 -0.4512 -0.4035  0.5328
 5913SOL    HW129375   1.390   4.139   9.079 -2.2030 -1.3682 -2.4980
 5913SOL    HW229376   1.456   4.072   8.971  1.5783  0.0473 -0.5564
 5914SOL     OW29377   0.502   0.228   0.579  0.9589  0.2695  0.3433
 5914SOL    HW129378   0.537   0.260   0.662  1.4384 -0.7865  0.5512
 5914SOL    HW229379   0.409   0.250   0.585  0.4415 -1.6770 -0.3300
 5915SOL     OW29380   4.165   1.928   3.371 -0.3085 -0.5196  0.2817
 5915SOL    HW129381   4.124   2.015   3.375 -0.1266 -0.4478  0.5651
 5915SOL    HW229382   4.244   1.955   3.417  0.2494 -2.1648  0.2755
 5916SOL     OW29383   0.550   3.786   3.872 -0.1639  0.1389  0.7706
 5916SOL    HW129384   0.545   3.865   3.818 -2.2790  0.4059  1.3555
 5916SOL    HW229385   0.593   3.734   3.804  1.3537  0.4863  1.4543
 5917SOL     OW29386   2.410   2.207  10.084  0.0124 -0.0024  0.2050
 5917SOL    HW129387   2.495   2.192  10.043 -1.1444 -1.3559 -1.6576
 5917SOL    HW229388   2.401   2.301  10.068  1.2042  0.0578 -0.0977
 5918SOL     OW29389   4.613   2.896   6.781  0.2295  0.0262 -0.1477
 5918SOL    HW129390   4.683   2.891   6.846 -0.1020  0.0428  0.2097
 5918SOL    HW229391   4.537   2.897   6.839 -0.9649  2.6455 -1.7642
 5919SOL     OW29392   4.010   0.027   6.485  0.2829 -0.3678 -0.2770
 5919SOL    HW129393   4.002   0.048   6.391 -0.0637 -0.9338 -0.3734
 5919SOL    HW229394   4.090   0.071   6.513 -0.8316  0.6127  1.3188
 5920SOL     OW29395   4.098   2.761   4.651  0.4929 -1.0402 -0.4614
 5920SOL    HW129396   4.078   2.668   4.660 -1.2532 -0.4549  1.7582
 5920SOL    HW229397   4.030   2.791   4.591  1.0442  1.1384 -0.0200
 5921SOL     OW29398   0.716   1.146   3.295  0.8137 -0.2582  0.7684
 5921SOL    HW129399   0.675   1.118   3.377  1.6575  0.0114  1.2853
 5921SOL    HW229400   0.773   1.221   3.313 -1.9454  1.6110  1.7953
 5922SOL     OW29401   1.461   1.686   8.267  0.0850  0.6822  0.3513
 5922SOL    HW129402   1.534   1.652   8.216  0.9627 -0.6378  2.4874
 5922SOL    HW229403   1.460   1.772   8.224 -1.1947  2.9215  4.8146
 5923SOL     OW29404   1.449   3.620   5.971 -0.0125  0.2997 -0.1540
 5923SOL    HW129405   1.408   3.597   6.055  1.3942 -0.0568  0.4387
 5923SOL    HW229406   1.382   3.595   5.908 -0.4914  0.6208  0.2273
 5924SOL     OW29407   3.240   0.582   6.729 -0.3104  0.6752  0.1417
 5924SOL    HW129408   3.168   0.588   6.665 -0.8167  0.9385  0.7394
 5924SOL    HW229409   3.221   0.495   6.764  3.2622 -0.0248  0.2909
 5925SOL     OW29410   0.086   0.301  15.500  0.2790  0.4301  0.1818
 5925SOL    HW129411   0.051   0.372  15.555 -0.1850 -1.1012  1.8663
 5925SOL    HW229412   0.175   0.291  15.533 -0.3306  0.2051  1.8006
 5926SOL     OW29413   0.793   1.447   2.010 -0.4538 -0.3970  0.8558
 5926SOL    HW129414   0.850   1.371   2.017 -1.3595 -0.9479  2.0896
 5926SOL    HW229415   0.709   1.403   1.994 -2.4594  3.4271  0.8947
 5927SOL     OW29416   0.521   0.433  11.970 -1.2513  0.3456 -0.4012
 5927SOL    HW129417   0.488   0.377  12.040 -0.4184 -0.1576 -0.4046
 5927SOL    HW229418   0.593   0.474  12.018 -1.0028 -0.4249 -0.1109
 5928SOL     OW29419   2.193   3.170   8.307  0.6789 -0.0145 -0.6999
 5928SOL    HW129420   2.240   3.169   8.390 -0.2131 -2.3623 -0.2138
 5928SOL    HW229421   2.202   3.077   8.285 -2.0707 -0.9034  1.9261
 5929SOL     OW29422   3.931   1.095  13.328  0.0982 -0.2942  0.2255
 5929SOL    HW129423   3.865   1.136  13.385  2.0996  1.8158  1.0282
 5929SOL    HW229424   3.992   1.168  13.314 -0.6666  0.6659  1.8019
 5930SOL     OW29425   3.748   2.033   6.217 -0.1366 -0.6869 -0.1141
 5930SOL    HW129426   3.794   2.116   6.205 -1.4522 -0.0424 -0.6757
 5930SOL    HW229427   3.748   2.021   6.312 -1.9490  2.0750  0.2319
 5931SOL     OW29428   2.542   1.121   1.800  0.5812 -0.5963 -0.1926
 5931SOL    HW129429   2.554   1.100   1.893 -1.0938  1.8865  0.6070
 5931SOL    HW229430   2.451   1.152   1.800  0.2620 -1.5420  0.3262
 5932SOL     OW29431   2.616   0.883  13.107  0.0403 -0.1345  0.4619
 5932SOL    HW129432   2.699   0.912  13.071  0.5530 -2.4279 -0.2092
 5932SOL    HW229433   2.613   0.794  13.071 -2.8857 -0.0214  0.4302
 5933SOL     OW29434   3.308   2.290   9.787  0.2475  0.0304 -0.1097
 5933SOL    HW129435   3.285   2.305   9.878 -0.3173 -0.1482 -0.2219
 5933SOL    HW229436   3.373   2.220   9.795 -1.7052 -1.7282  0.4782
 5934SOL     OW29437   2.958   0.206   9.918 -0.1280  0.4393 -0.6404
 5934SOL    HW129438   2.995   0.213  10.006 -0.6187  1.1706 -0.4935
 5934SOL    HW229439   2.993   0.126   9.879 -1.5883 -0.4998 -0.0335
 5935SOL     OW29440   1.167   0.258   7.634  0.0742  0.2845 -0.2651
 5935SOL    HW129441   1.203   0.346   7.648 -0.0042  0.3045 -0.1871
 5935SOL    HW229442   1.073   0.273   7.646  0.2460  1.9330 -0.9504
 5936SOL     OW29443   1.987   4.147   6.677 -0.6104 -0.0562  0.4127
 5936SOL    HW129444   2.023   4.087   6.612  2.4277  1.8633  0.3112
 5936SOL    HW229445   1.966   4.079   6.742 -0.9504 -2.4483 -2.2245
 5937SOL     OW29446   1.945   2.899   5.262  0.0055 -0.2181  0.4462
 5937SOL    HW129447   1.887   2.853   5.323 -1.4104 -0.0536 -0.7708
 5937SOL    HW229448   1.977   2.819   5.219 -0.6302  0.4143 -1.2212
 5938SOL     OW29449   2.541   0.844  12.775 -0.3739 -0.5195  0.0257
 5938SOL    HW129450   2.516   0.854  12.684 -0.7857 -1.5624  0.0237
 5938SOL    HW229451   2.475   0.905  12.810  0.1491 -0.2225  0.5036
 5939SOL     OW29452   0.078   2.306   4.598 -0.2690 -0.0451  0.1719
 5939SOL    HW129453   0.072   2.355   4.681 -1.0773 -2.3266  1.4510
 5939SOL    HW229454   0.134   2.366   4.549 -1.6542 -0.6687 -2.1588
 5940SOL     OW29455   4.269   1.975  14.119 -0.3840  0.1281 -0.0202
 5940SOL    HW129456   4.201   2.006  14.179 -0.6240  0.0659 -0.2611
 5940SOL    HW229457   4.341   2.038  14.128  0.7690 -1.2034  0.0723
 5941SOL     OW29458   4.661   2.811  13.952 -0.6150 -0.5979  0.7644
 5941SOL    HW129459   4.681   2.900  13.980  2.1149 -1.1769  0.6851
 5941SOL    HW229460   4.629   2.766  14.030  1.8582 -1.7920  1.0641
 5942SOL     OW29461   4.530   1.601   8.970 -0.3133 -0.1375 -0.3299
 5942SOL    HW129462   4.466   1.565   8.909  0.1789 -0.7085 -0.5091
 5942SOL    HW229463   4.589   1.638   8.905  1.3374  1.4265  2.0624
 5943SOL     OW29464   0.491   3.139  17.449 -0.0139  0.0804  0.2972
 5943SOL    HW129465   0.476   3.044  17.446  1.9455 -0.1870 -1.5753
 5943SOL    HW229466   0.455   3.167  17.365  1.7127  0.0608 -0.4512
 5944SOL     OW29467   3.045   0.438   6.309  0.4565  0.5023  0.3509
 5944SOL    HW129468   3.126   0.387   6.300  0.6040  0.2681  3.0294
 5944SOL    HW229469   3.075   0.522   6.345  0.1601 -0.6377  3.2033
 5945SOL     OW29470   1.020   2.263   2.465 -0.1865  0.3385  0.6208
 5945SOL    HW129471   1.047   2.175   2.489 -0.3296 -0.2113 -1.1823
 5945SOL    HW229472   1.011   2.307   2.549 -1.6104 -0.2426  0.7786
 5946SOL     OW29473   3.433   3.952   9.455 -0.1429 -0.0108 -0.0882
 5946SOL    HW129474   3.404   3.902   9.532  3.4445  0.6536  1.6990
 5946SOL    HW229475   3.402   4.041   9.473  0.3137  0.0712  0.2852
 5947SOL     OW29476   0.390   1.939   6.772  0.2717  0.0021  0.3242
 5947SOL    HW129477   0.381   1.988   6.690 -0.1655  0.9422  0.9378
 5947SOL    HW229478   0.473   1.975   6.803  0.5949  0.4831 -1.1234
 5948SOL     OW29479   4.314   3.181   5.902 -0.0389  0.2536  0.5845
 5948SOL    HW129480   4.251   3.129   5.951  1.1097 -1.9077 -0.2586
 5948SOL    HW229481   4.257   3.224   5.838 -1.2409 -1.2134  0.6975
 5949SOL     OW29482   4.314   2.247   5.683 -0.0164  0.2385  0.0773
 5949SOL    HW129483   4.401   2.285   5.676 -0.0886  0.9978  3.2082
 5949SOL    HW229484   4.307   2.252   5.778 -1.8338  1.2912 -0.1145
 5950SOL     OW29485   0.503   2.646   9.755  0.0475 -0.0980 -0.5306
 5950SOL    HW129486   0.437   2.577   9.767  0.3863  0.3189  3.7032
 5950SOL    HW229487   0.442   2.720   9.753 -0.6274 -0.5902  1.5703
 5951SOL     OW29488   2.647   1.113   5.485  0.1603  0.0674  0.0071
 5951SOL    HW129489   2.613   1.183   5.541 -0.9508  0.0009 -0.5880
 5951SOL    HW229490   2.657   1.041   5.548 -0.3851  0.4535  0.5316
 5952SOL     OW29491   1.426   0.487   6.481 -0.1660  0.3645  0.1974
 5952SOL    HW129492   1.519   0.470   6.469 -0.3528 -0.6702  0.1843
 5952SOL    HW229493   1.437   0.577   6.509  0.7221  0.3374 -0.0621
 5953SOL     OW29494   4.735   3.700  10.081 -0.5930 -0.1048  0.2240
 5953SOL    HW129495   0.075   3.753  10.075 -0.6195  0.1366  2.0491
 5953SOL    HW229496   4.669   3.731  10.020  0.0027  0.0878 -0.3227
 5954SOL     OW29497   2.556   1.897  14.238  0.3680 -0.3291  0.1736
 5954SOL    HW129498   2.624   1.855  14.185  1.0480 -1.5153  2.0018
 5954SOL    HW229499   2.556   1.853  14.323  1.9441  0.1250  0.4100
 5955SOL     OW29500   4.224   1.948   7.161  0.0378 -0.1815 -0.1842
 5955SOL    HW129501   4.151   1.923   7.218 -0.4874  0.1312 -0.7203
 5955SOL    HW229502   4.286   1.970   7.231  0.3458 -2.1703  0.1592
 5956SOL     OW29503   3.622   1.490   4.557 -0.3954  0.1762  0.4604
 5956SOL    HW129504   3.654   1.558   4.498 -0.9099  0.2331  0.2492
 5956SOL    HW229505   3.673   1.503   4.637  2.3054 -3.4245 -0.6912
 5957SOL     OW29506   4.053   2.631  12.219  0.4590 -0.1105 -0.5239
 5957SOL    HW129507   4.116   2.604  12.152  1.5230  0.0060  0.4150
 5957SOL    HW229508   4.052   2.555  12.278  2.4530  1.6779  1.8072
 5958SOL     OW29509   0.960   1.036   5.946  0.6285  0.3358 -0.4128
 5958SOL    HW129510   0.873   0.995   5.948  1.2838 -0.9995  0.3870
 5958SOL    HW229511   0.955   1.062   6.037  2.9759 -3.1878  0.7277
 5959SOL     OW29512   4.500   1.498   1.367  0.1830 -0.3150 -0.0830
 5959SOL    HW129513   4.444   1.529   1.438  1.5056  0.2937  0.6678
 5959SOL    HW229514   4.551   1.428   1.407  1.2065 -0.1077 -1.0287
 5960SOL     OW29515   0.485   0.916   3.055 -0.1403 -0.3011  0.2709
 5960SOL    HW129516   0.491   0.850   3.123  1.4163  1.3149  1.7022
 5960SOL    HW229517   0.461   0.859   2.982 -2.4468  0.2407  0.6084
 5961SOL     OW29518   3.477   4.016   0.624  0.3131 -0.3437 -0.0878
 5961SOL    HW129519   3.489   4.050   0.713  1.7076  0.1406 -0.4573
 5961SOL    HW229520   3.534   4.066   0.566 -1.2110 -0.8147 -1.9518
 5962SOL     OW29521   3.750   3.188   7.614 -0.1285 -0.0628 -0.0094
 5962SOL    HW129522   3.667   3.201   7.568  0.8425  2.2320 -1.1653
 5962SOL    HW229523   3.737   3.239   7.694 -2.4052  0.4231 -0.7011
 5963SOL     OW29524   1.384   0.824  17.519 -0.4089  0.4537  0.0313
 5963SOL    HW129525   1.371   0.912  17.483 -1.5497  0.0156 -0.6118
 5963SOL    HW229526   1.405   0.855  17.608 -0.9016  2.8929 -0.6864
 5964SOL     OW29527   3.509   0.715   5.493 -0.0483  0.7510  0.5253
 5964SOL    HW129528   3.526   0.729   5.400  1.7054 -0.3638  0.6735
 5964SOL    HW229529   3.516   0.620   5.499 -1.7828  0.6358  0.6236
 5965SOL     OW29530   3.300   2.397   2.223  0.5139 -0.2493  0.4442
 5965SOL    HW129531   3.220   2.446   2.242  0.4628  0.3569 -1.3632
 5965SOL    HW229532   3.306   2.407   2.128  0.5525  0.6053  0.5355
 5966SOL     OW29533   4.538   4.452   8.252 -0.2923  0.7437  0.3469
 5966SOL    HW129534   4.482   4.483   8.323 -0.6491  0.1157  0.3445
 5966SOL    HW229535   4.549   4.360   8.278  1.5315  0.8060 -0.2066
 5967SOL     OW29536   4.534   1.272  11.173 -0.2370 -0.7073  0.2276
 5967SOL    HW129537   4.574   1.292  11.089 -0.1353 -0.4739  0.3321
 5967SOL    HW229538   4.476   1.348  11.186  0.0712 -0.4887  0.3300
 5968SOL     OW29539   4.417   3.568   4.287 -0.0564  0.1208 -0.2138
 5968SOL    HW129540   4.465   3.521   4.355  0.2542  2.2628  1.0783
 5968SOL    HW229541   4.376   3.638   4.339  2.6120  1.7591 -0.2901
 5969SOL     OW29542   4.046   3.091  10.052  0.2262  0.2075 -0.5325
 5969SOL    HW129543   4.102   3.018  10.025 -1.7737 -0.8780 -1.7724
 5969SOL    HW229544   4.025   3.139   9.972  0.7488  1.1713 -0.0957
 5970SOL     OW29545   2.450   1.677   7.114 -0.6500 -0.9231  0.1560
 5970SOL    HW129546   2.544   1.675   7.130 -0.0034 -1.9816 -3.6548
 5970SOL    HW229547   2.415   1.735   7.182  2.9438  0.5544  0.7099
 5971SOL     OW29548   3.938   0.457   7.599 -0.3233 -0.5620 -0.4407
 5971SOL    HW129549   3.877   0.445   7.672  0.5511 -2.1226  0.0487
 5971SOL    HW229550   4.021   0.447   7.645 -0.4756  0.4699  0.0434
 5972SOL     OW29551   3.914   3.046   1.444 -0.2021  0.0979  0.4382
 5972SOL    HW129552   3.987   3.051   1.505  2.5278 -0.7310 -2.7764
 5972SOL    HW229553   3.943   2.967   1.398  1.5055  0.4577  0.8855
 5973SOL     OW29554   1.343   3.008   6.013 -0.0940  0.4233 -0.6675
 5973SOL    HW129555   1.255   2.991   5.980 -1.4093  2.7125  1.7330
 5973SOL    HW229556   1.358   3.095   5.977  2.5388  0.4812  0.5965
 5974SOL     OW29557   3.025   2.009   7.760 -0.1424 -0.7688  0.4733
 5974SOL    HW129558   2.991   2.053   7.682 -0.4544 -1.3160  0.2930
 5974SOL    HW229559   2.938   2.014   7.801 -0.0484  0.6422  0.4908
 5975SOL     OW29560   3.060   4.385   8.106 -0.0723 -0.4394 -0.5911
 5975SOL    HW129561   2.976   4.357   8.144 -0.6469  0.2406 -1.3510
 5975SOL    HW229562   3.040   4.429   8.024 -0.0124  1.6291  0.5063
 5976SOL     OW29563   1.524   2.276  11.358 -0.5678 -0.5682 -0.2932
 5976SOL    HW129564   1.485   2.267  11.445 -0.9817  1.2385 -0.2898
 5976SOL    HW229565   1.587   2.347  11.371 -1.0794 -0.3743  1.1039
 5977SOL     OW29566   1.306   2.614   5.219  0.0111 -0.6858  0.1445
 5977SOL    HW129567   1.391   2.602   5.177  0.1227  1.9917 -0.3797
 5977SOL    HW229568   1.269   2.679   5.160  1.8991 -0.2379 -0.5440
 5978SOL     OW29569   2.952   2.624  10.258 -0.2913  0.3602 -0.0513
 5978SOL    HW129570   2.989   2.684  10.194 -0.5127  0.4537 -0.0940
 5978SOL    HW229571   2.999   2.546  10.229  1.2384  1.6597 -1.0510
 5979SOL     OW29572   4.089   2.573   5.335 -0.3179  0.1304  0.4936
 5979SOL    HW129573   4.134   2.493   5.363 -0.4895 -0.0171  0.3526
 5979SOL    HW229574   4.101   2.632   5.410  2.2905 -1.5586  1.3943
 5980SOL     OW29575   0.491   4.120  13.799  0.3485  0.4961  0.3304
 5980SOL    HW129576   0.489   4.212  13.772  0.3480  0.8430  1.5226
 5980SOL    HW229577   0.401   4.116  13.833  0.2740 -0.8226  0.0061
 5981SOL     OW29578   3.343   4.032   2.747 -0.0334 -0.8083 -0.4923
 5981SOL    HW129579   3.407   4.053   2.679  0.8253 -0.4613  0.4254
 5981SOL    HW229580   3.270   3.998   2.695 -0.7752  1.7679 -1.1312
 5982SOL     OW29581   1.429   1.614   2.844  0.3256 -0.5437  0.2473
 5982SOL    HW129582   1.363   1.619   2.913 -1.2701 -0.6619 -1.2729
 5982SOL    HW229583   1.495   1.566   2.894  1.8974 -0.5279 -1.8385
 5983SOL     OW29584   2.716   2.868   8.722  0.1176  0.3375  0.7567
 5983SOL    HW129585   2.799   2.915   8.718  1.1242 -1.8687 -3.7430
 5983SOL    HW229586   2.738   2.777   8.743 -1.4157 -0.0289  0.7710
 5984SOL     OW29587   0.731   2.784   6.807 -0.0564  0.3929 -0.3237
 5984SOL    HW129588   0.777   2.800   6.725  0.7290 -3.6530 -0.6905
 5984SOL    HW229589   0.712   2.874   6.832 -0.7964  0.0629  0.3018
 5985SOL     OW29590   0.708   2.778   1.585 -0.4969  0.8188  0.0105
 5985SOL    HW129591   0.633   2.834   1.603 -1.5503 -1.1658  1.7905
 5985SOL    HW229592   0.708   2.764   1.490 -2.7236 -3.4578  0.6306
 5986SOL     OW29593   1.950   0.113   4.320  0.3850 -0.0582  0.1761
 5986SOL    HW129594   2.011   0.141   4.389 -0.9290  2.3213  0.3683
 5986SOL    HW229595   1.926   0.194   4.276 -1.8109 -0.5025  0.5557
 5987SOL     OW29596   0.258   2.661  15.510 -0.3425  0.3170  0.2211
 5987SOL    HW129597   0.192   2.624  15.451  2.0101  1.3615 -3.1227
 5987SOL    HW229598   0.264   2.584  15.566  1.1376  0.3456  0.0996
 5988SOL     OW29599   1.682   0.479   7.556  0.1474  0.0995 -0.3836
 5988SOL    HW129600   1.649   0.569   7.560  0.7544  0.2760  0.6903
 5988SOL    HW229601   1.642   0.435   7.630  0.6160  2.0420  1.0175
 5989SOL     OW29602   3.745   3.472   2.186  0.3375  0.1266  0.2640
 5989SOL    HW129603   3.767   3.395   2.239  1.5446  1.6527  1.9846
 5989SOL    HW229604   3.832   3.501   2.160 -0.0583  2.0070  1.0221
 5990SOL     OW29605   0.017   1.173   4.299 -0.3040 -0.3090 -0.1676
 5990SOL    HW129606   4.701   1.218   4.235 -1.4376  0.2669  1.2243
 5990SOL    HW229607   4.703   1.095   4.316 -2.1189  0.0039 -4.2311
 5991SOL     OW29608   3.269   1.515   5.135  0.5776  0.1739  0.6156
 5991SOL    HW129609   3.232   1.433   5.166  0.2710  0.6808  1.6124
 5991SOL    HW229610   3.194   1.574   5.126 -1.4474 -2.4538  0.2342
 5992SOL     OW29611   1.926   2.412  16.697  0.6018 -0.2961 -0.0859
 5992SOL    HW129612   1.860   2.403  16.766  0.8949  0.9388  0.3682
 5992SOL    HW229613   1.870   2.433  16.622  0.8111 -0.9052 -0.4127
 5993SOL     OW29614   4.372   3.423   8.936 -0.8212 -0.1377  0.2705
 5993SOL    HW129615   4.287   3.383   8.954 -0.1265 -1.5371  0.5040
 5993SOL    HW229616   4.421   3.414   9.019  2.1951  4.2345 -1.0739
 5994SOL     OW29617   4.186   1.873   5.391  0.0044 -0.0897  0.0803
 5994SOL    HW129618   4.126   1.827   5.450 -0.5471  0.8518  0.2655
 5994SOL    HW229619   4.228   1.932   5.454 -1.1664  1.6025 -0.7258
 5995SOL     OW29620   1.747   0.113  14.616 -0.1934  0.7399  0.5918
 5995SOL    HW129621   1.757   0.034  14.669 -1.9392  0.0936 -0.0444
 5995SOL    HW229622   1.839   0.138  14.615  0.0349 -0.1218  0.2144
 5996SOL     OW29623   1.292   3.552   6.633  0.3601 -0.5377  0.2137
 5996SOL    HW129624   1.314   3.590   6.719 -0.9107 -0.4328  0.4987
 5996SOL    HW229625   1.305   3.459   6.653  0.1791 -0.6298 -0.1052
 5997SOL     OW29626   3.653   2.303   5.252 -0.5064 -0.5432  0.4322
 5997SOL    HW129627   3.573   2.252   5.270 -0.5449 -0.3843  0.7112
 5997SOL    HW229628   3.711   2.227   5.252  0.6512  0.3430  1.3726
 5998SOL     OW29629   3.435   2.615   3.079 -1.0362 -0.2692  0.1562
 5998SOL    HW129630   3.489   2.693   3.068 -0.6677 -0.7571 -1.5179
 5998SOL    HW229631   3.449   2.574   2.994  1.7411  0.6903  0.1388
 5999SOL     OW29632   1.655   3.182   5.353  0.2408 -0.2431  0.0007
 5999SOL    HW129633   1.723   3.186   5.287  2.3861 -1.1516  2.1305
 5999SOL    HW229634   1.694   3.236   5.422 -1.7896 -1.5754  2.2400
 6000SOL     OW29635   2.825   2.303  11.208 -0.5461  0.1920 -0.1717
 6000SOL    HW129636   2.920   2.312  11.195 -0.4575 -0.7760 -0.2078
 6000SOL    HW229637   2.818   2.360  11.285 -0.3137 -0.4398  0.3132
 6001SOL     OW29638   3.498   3.482   5.789 -0.7356  0.3742  0.8969
 6001SOL    HW129639   3.458   3.447   5.868 -0.3529 -1.0583  0.4602
 6001SOL    HW229640   3.512   3.570   5.823 -0.8236  0.4945  0.6222
 6002SOL     OW29641   0.937   0.395  14.037 -0.2858  0.3879 -0.6567
 6002SOL    HW129642   0.863   0.394  14.097  0.6627  1.6813  0.5298
 6002SOL    HW229643   0.902   0.333  13.973  0.8949  0.1970 -1.1167
 6003SOL     OW29644   3.177   2.629   7.492  0.0136 -0.3151  0.1152
 6003SOL    HW129645   3.268   2.603   7.508 -0.0923 -0.6902  0.1160
 6003SOL    HW229646   3.192   2.721   7.514  3.6236 -0.7921 -0.2880
 6004SOL     OW29647   2.330   1.013  12.807  0.1405  0.3818  0.2372
 6004SOL    HW129648   2.346   1.099  12.769 -0.9118 -0.6960 -2.6884
 6004SOL    HW229649   2.236   1.000  12.796 -0.0748  1.2943  1.0833
 6005SOL     OW29650   2.011   0.099   2.394  0.3105  0.0672  0.3258
 6005SOL    HW129651   1.941   0.157   2.363 -0.3390 -2.0031 -2.1520
 6005SOL    HW229652   1.998   0.109   2.488  0.8448 -1.3470  0.5463
 6006SOL     OW29653   0.831   1.360   3.615 -0.0341 -0.0335 -0.2933
 6006SOL    HW129654   0.757   1.301   3.599 -0.0154 -0.1505  0.0490
 6006SOL    HW229655   0.823   1.379   3.708 -0.0587 -1.7185  0.0555
 6007SOL     OW29656   3.967   2.848   6.753 -0.3020 -0.2218 -0.0202
 6007SOL    HW129657   3.904   2.825   6.822  2.5237 -3.1772  1.5545
 6007SOL    HW229658   3.969   2.943   6.744  2.9484 -0.4120 -1.0510
 6008SOL     OW29659   1.797   2.747  17.713 -0.1780  0.3137 -0.2167
 6008SOL    HW129660   1.835   2.814  17.656  0.9109 -0.3447 -0.2632
 6008SOL    HW229661   1.726   2.790   0.006  0.4718  1.1156  0.0306
 6009SOL     OW29662   4.258   1.537  16.822 -0.3441 -0.4184 -0.2082
 6009SOL    HW129663   4.223   1.467  16.766 -0.1511  0.8671 -1.9531
 6009SOL    HW229664   4.196   1.605  16.795 -0.7341 -1.2402 -1.4187
 6010SOL     OW29665   4.392   2.560   9.083 -0.1133  0.0281  0.1888
 6010SOL    HW129666   4.426   2.568   9.172 -0.2698  1.9448  0.0732
 6010SOL    HW229667   4.435   2.637   9.044  1.2887 -0.4163  0.8861
 6011SOL     OW29668   0.685   4.611   1.019  0.6307 -0.4776  0.3078
 6011SOL    HW129669   0.618   4.628   0.952 -0.0802  0.5978  1.2989
 6011SOL    HW229670   0.726   4.535   0.977  0.0900 -0.9263  0.5985
 6012SOL     OW29671   4.319   1.491  14.407 -0.2739 -0.3714 -0.2913
 6012SOL    HW129672   4.274   1.464  14.487 -2.8792 -1.4836 -2.1626
 6012SOL    HW229673   4.300   1.584  14.399 -0.1388 -0.3497 -0.3752
 6013SOL     OW29674   0.556   0.288   8.145 -0.0992 -0.4175 -0.3177
 6013SOL    HW129675   0.600   0.288   8.230 -0.6598 -0.0748 -0.0309
 6013SOL    HW229676   0.605   0.363   8.111  0.4500 -0.3162  0.6788
 6014SOL     OW29677   0.272   0.579   3.541 -0.0579 -0.3224 -0.0684
 6014SOL    HW129678   0.218   0.556   3.616 -1.6058 -2.2062 -1.7505
 6014SOL    HW229679   0.337   0.510   3.528  0.0235 -0.3631  0.5906
 6015SOL     OW29680   0.969   0.133  17.181  0.0353  0.1770 -0.8025
 6015SOL    HW129681   1.048   0.154  17.132  0.1045  0.5256 -0.5381
 6015SOL    HW229682   0.995   0.047  17.214  3.7683  1.7206  0.2933
 6016SOL     OW29683   0.883   2.331   8.787  0.6271  0.2962  0.8145
 6016SOL    HW129684   0.836   2.288   8.715  1.8089 -0.3286  0.4204
 6016SOL    HW229685   0.955   2.380   8.746  1.4337 -0.0002  1.8929
 6017SOL     OW29686   3.103   3.551   7.382 -0.2910  0.7613  0.0168
 6017SOL    HW129687   3.055   3.533   7.463  0.0295  0.5054  0.1497
 6017SOL    HW229688   3.026   3.557   7.325  2.0724  1.1482 -3.0902
 6018SOL     OW29689   2.620   1.973  13.403 -0.2863  0.0960 -0.3186
 6018SOL    HW129690   2.629   1.878  13.394 -1.4330 -0.1636  1.4028
 6018SOL    HW229691   2.631   1.981  13.498 -1.4400  0.4895 -0.2212
 6019SOL     OW29692   4.143   0.812   5.182 -0.1134 -0.2385 -0.4994
 6019SOL    HW129693   4.111   0.900   5.159 -1.2913 -0.4329  0.3646
 6019SOL    HW229694   4.064   0.769   5.216  0.0846  0.4337  0.8146
 6020SOL     OW29695   4.591   2.557   3.882  0.1226  0.4910 -0.3004
 6020SOL    HW129696   4.584   2.517   3.969  0.2842  2.1133  0.4645
 6020SOL    HW229697   4.635   2.639   3.905 -0.2032  0.4316  0.5512
 6021SOL     OW29698   2.752   2.403   3.841  0.6791 -0.3392  0.2932
 6021SOL    HW129699   2.692   2.448   3.781  1.4287  1.7327  1.1097
 6021SOL    HW229700   2.836   2.442   3.818  0.5009  0.6156  1.2767
 6022SOL     OW29701   4.430   1.517   3.979 -0.0666 -0.1257  0.4204
 6022SOL    HW129702   4.481   1.523   3.899  0.7576  0.5249  1.0001
 6022SOL    HW229703   4.480   1.443   4.014  1.2003 -0.2221 -1.5723
 6023SOL     OW29704   4.307   3.014   9.030  0.1895  0.4695  0.2880
 6023SOL    HW129705   4.390   3.055   9.055  0.6867  0.5523 -1.5440
 6023SOL    HW229706   4.252   3.092   9.022 -2.4772 -1.4002  0.2646
 6024SOL     OW29707   1.915   3.460  14.119  0.1926  0.0540  0.8793
 6024SOL    HW129708   1.975   3.460  14.193  1.2192 -0.4868  0.0331
 6024SOL    HW229709   1.962   3.414  14.050  0.7512  0.7009  0.8344
 6025SOL     OW29710   1.958   1.721  10.461 -0.1289 -1.1492 -0.2448
 6025SOL    HW129711   2.015   1.769  10.400  1.5033 -2.6710  0.0951
 6025SOL    HW229712   1.948   1.784  10.533  2.5536 -0.0760 -0.8073
 6026SOL     OW29713   1.583   0.319   3.699 -0.1674 -0.0789  0.3407
 6026SOL    HW129714   1.601   0.402   3.654 -0.3829  0.5427  1.4119
 6026SOL    HW229715   1.621   0.349   3.782  2.0948 -0.9845 -0.3692
 6027SOL     OW29716   3.367   1.736   7.936 -0.5616  0.3533  0.1960
 6027SOL    HW129717   3.401   1.812   7.891 -1.0651  0.4276 -0.0613
 6027SOL    HW229718   3.275   1.741   7.910 -0.4999  0.8512  0.0769
 6028SOL     OW29719   3.656   2.771   6.275 -0.6001  0.6548 -0.0909
 6028SOL    HW129720   3.700   2.788   6.192 -0.2000 -0.0997 -0.0347
 6028SOL    HW229721   3.677   2.849   6.327  0.6773 -0.2388  0.7507
 6029SOL     OW29722   3.022   3.426  16.930 -0.0458  0.0728  0.6401
 6029SOL    HW129723   2.980   3.459  17.009  0.4971  0.6053  0.7006
 6029SOL    HW229724   3.002   3.480  16.854 -0.5859  1.6903  1.9466
 6030SOL     OW29725   3.537   4.144  12.933  0.1780 -0.2935  0.0371
 6030SOL    HW129726   3.600   4.215  12.941  1.9637 -2.3160  3.6826
 6030SOL    HW229727   3.516   4.121  13.024 -0.5287 -1.8469 -0.5047
 6031SOL     OW29728   4.028   0.514   4.754  0.1061  0.1022  0.1009
 6031SOL    HW129729   4.090   0.505   4.681 -0.1082 -2.8918  0.2848
 6031SOL    HW229730   4.080   0.559   4.820  0.7784  0.1144 -0.4320
 6032SOL     OW29731   2.871   0.540   1.122  0.3261 -0.3726 -0.0579
 6032SOL    HW129732   2.948   0.484   1.111 -1.5291 -2.4183 -2.5917
 6032SOL    HW229733   2.893   0.568   1.211 -0.0136 -0.9419  0.2016
 6033SOL     OW29734   1.546   0.357  12.153 -0.0828 -0.1532  0.1978
 6033SOL    HW129735   1.628   0.320  12.188 -0.5959  0.4450  2.0626
 6033SOL    HW229736   1.537   0.308  12.072 -4.2188 -1.7017  1.6120
 6034SOL     OW29737   0.399   0.905  12.986 -0.2719 -0.4398 -0.6414
 6034SOL    HW129738   0.477   0.854  12.963  1.0601  0.7634  1.2103
 6034SOL    HW229739   0.353   0.822  13.001 -1.1634  0.1143 -0.3663
 6035SOL     OW29740   0.157   0.314   6.391 -0.4540 -0.7223  0.3212
 6035SOL    HW129741   0.109   0.393   6.415  0.8819  0.6045 -1.3845
 6035SOL    HW229742   0.242   0.354   6.376 -1.4120  0.3466 -2.2233
 6036SOL     OW29743   2.577   3.715   5.915  0.0966 -0.2469  0.1870
 6036SOL    HW129744   2.588   3.638   5.970  2.8050  0.5242  0.7143
 6036SOL    HW229745   2.485   3.736   5.934  0.6891  1.6135  1.0198
 6037SOL     OW29746   2.679   1.945   2.108 -0.0102  0.4741  0.1104
 6037SOL    HW129747   2.773   1.929   2.100 -0.3206 -0.7289 -0.9845
 6037SOL    HW229748   2.668   1.937   2.202 -0.5820  3.2341  0.2824
 6038SOL     OW29749   3.751   0.438   5.579 -0.6183 -0.2245  0.5386
 6038SOL    HW129750   3.664   0.436   5.539 -0.2226 -0.4428 -0.3039
 6038SOL    HW229751   3.744   0.461   5.672  1.0133 -1.4835  0.9640
 6039SOL     OW29752   1.384   3.369   1.815  0.3172 -0.0087 -0.5480
 6039SOL    HW129753   1.467   3.410   1.790 -0.0868  1.6333  0.8725
 6039SOL    HW229754   1.334   3.448   1.836 -0.2541 -1.4208  3.3903
 6040SOL     OW29755   1.605   4.476   1.902 -0.4408 -0.1445  0.1847
 6040SOL    HW129756   1.578   4.397   1.948  1.1604 -1.9568 -1.9887
 6040SOL    HW229757   1.565   4.466   1.816 -0.4568  0.3346  0.1367
 6041SOL     OW29758   1.646   2.947  10.282  0.2140 -0.0210  0.1436
 6041SOL    HW129759   1.624   3.022  10.227 -2.1766 -0.9783 -0.1863
 6041SOL    HW229760   1.556   2.939  10.313  0.6177 -0.5345  1.1783
 6042SOL     OW29761   0.785   2.798  16.537  0.2696  0.3771  0.6586
 6042SOL    HW129762   0.692   2.777  16.545  0.5249 -1.5984 -1.4583
 6042SOL    HW229763   0.778   2.893  16.539 -0.1981  0.3703 -0.5772
 6043SOL     OW29764   4.332   1.246   3.264  0.0387 -0.8986 -0.1739
 6043SOL    HW129765   4.268   1.315   3.244 -0.1122 -0.7595  0.7860
 6043SOL    HW229766   4.318   1.183   3.194 -0.5171  0.9864 -1.7775
 6044SOL     OW29767   3.320   3.393   4.796 -0.2423 -0.6072  0.0430
 6044SOL    HW129768   3.384   3.324   4.814 -0.6913 -1.2701 -0.9193
 6044SOL    HW229769   3.259   3.345   4.740  0.8400 -0.9366 -0.8641
 6045SOL     OW29770   0.794   0.562   4.846 -0.1600  0.9316 -0.6695
 6045SOL    HW129771   0.831   0.625   4.908  0.4902  0.3545 -0.4708
 6045SOL    HW229772   0.730   0.619   4.803 -1.2561 -0.4757 -0.8874
 6046SOL     OW29773   0.847   3.859   2.109  0.0029  0.9786  0.2619
 6046SOL    HW129774   0.901   3.901   2.176  1.1500  0.4523 -0.3233
 6046SOL    HW229775   0.907   3.799   2.065 -0.5359  2.8151 -2.9956
 6047SOL     OW29776   4.642   4.126   9.921 -0.0526  0.2047  0.2698
 6047SOL    HW129777   4.723   4.086   9.953 -2.2488 -2.8041  2.0897
 6047SOL    HW229778   4.684   4.201   9.880 -0.0426  1.7114  3.0203
 6048SOL     OW29779   3.159   2.711   2.993  0.2246  0.0425 -0.5393
 6048SOL    HW129780   3.243   2.680   3.026  0.5197  0.9387 -0.4443
 6048SOL    HW229781   3.119   2.630   2.962  0.8686 -0.7632  0.7539
 6049SOL     OW29782   0.386   1.489   2.940  0.1566  0.0461  0.1657
 6049SOL    HW129783   0.388   1.394   2.928  0.6690  0.2513 -1.3053
 6049SOL    HW229784   0.366   1.485   3.034  1.9543  0.0874  0.5602
 6050SOL     OW29785   2.456   4.672   3.827 -0.0387 -0.0705 -0.4141
 6050SOL    HW129786   2.551   4.676   3.819 -0.0922 -0.5797 -1.3442
 6050SOL    HW229787   2.423   0.016   3.791  0.4671  0.0723 -0.5489
 6051SOL     OW29788   4.537   3.655   6.287 -0.0377 -0.2232 -0.0474
 6051SOL    HW129789   4.532   3.722   6.219  1.0863  0.4800  0.5524
 6051SOL    HW229790   4.551   3.575   6.237  0.6774 -0.6328  0.7913
 6052SOL     OW29791   3.903   3.461  12.353 -0.1369 -0.1095  0.1211
 6052SOL    HW129792   3.958   3.493  12.281  0.2130 -0.3783  0.2695
 6052SOL    HW229793   3.941   3.375  12.369  2.0782  0.4364 -2.2362
 6053SOL     OW29794   4.492   1.282   1.862  0.6177 -0.0792  0.5199
 6053SOL    HW129795   4.576   1.310   1.898 -0.2439 -0.0953  2.6015
 6053SOL    HW229796   4.506   1.190   1.886 -0.9332 -0.2026  0.9505
 6054SOL     OW29797   4.215   4.054  14.842  0.1524  0.3363  0.4053
 6054SOL    HW129798   4.245   4.008  14.921 -1.8337 -2.9641 -0.7476
 6054SOL    HW229799   4.121   4.062  14.861 -0.0256  0.5324 -0.5915
 6055SOL     OW29800   2.189   2.737   2.353 -0.1596 -0.2810  0.5884
 6055SOL    HW129801   2.224   2.654   2.322  0.1371 -0.7535  2.1707
 6055SOL    HW229802   2.167   2.728   2.446 -2.2835 -1.2552 -0.0056
 6056SOL     OW29803   1.505   3.342   9.630 -0.4144 -0.3518  0.4874
 6056SOL    HW129804   1.446   3.292   9.575  1.3917  0.3176 -2.0592
 6056SOL    HW229805   1.571   3.362   9.564 -0.8145 -0.1246  0.1595
 6057SOL     OW29806   4.316   0.444   6.006 -0.4804 -0.1497 -0.1878
 6057SOL    HW129807   4.225   0.423   6.027 -0.1978 -1.4151 -0.1807
 6057SOL    HW229808   4.325   0.420   5.914  0.1849 -0.4154 -0.0558
 6058SOL     OW29809   4.202   2.418   2.617  0.3603 -0.3166 -0.0228
 6058SOL    HW129810   4.283   2.369   2.602  0.8045  0.3186  0.2912
 6058SOL    HW229811   4.217   2.467   2.697 -1.5069  0.7227 -0.3239
 6059SOL     OW29812   1.486   1.790   6.218 -0.2689  0.7329  0.7895
 6059SOL    HW129813   1.435   1.809   6.140  2.8366  2.5189 -0.8321
 6059SOL    HW229814   1.514   1.699   6.202 -2.4146  0.2957 -0.3701
 6060SOL     OW29815   0.525   1.301   8.661 -0.3328  0.8051 -0.3505
 6060SOL    HW129816   0.436   1.276   8.685 -0.4939  0.2451 -1.5133
 6060SOL    HW229817   0.575   1.243   8.719  1.3119  0.9426 -1.6194
 6061SOL     OW29818   3.812   1.053   7.011 -0.5204 -0.3306 -0.2560
 6061SOL    HW129819   3.816   1.139   7.053  0.2947  0.0192 -1.0417
 6061SOL    HW229820   3.719   1.037   6.999 -0.4219 -1.1164  0.0447
 6062SOL     OW29821   2.998   3.449   0.889 -0.1186  0.0852  0.2005
 6062SOL    HW129822   3.021   3.445   0.796 -0.7167 -2.1775  0.1571
 6062SOL    HW229823   2.959   3.365   0.913  0.7025 -0.7128 -1.2509
 6063SOL     OW29824   0.591   3.451   5.159 -0.1125 -0.0252  0.1456
 6063SOL    HW129825   0.671   3.431   5.110 -0.6773 -3.7821  0.7917
 6063SOL    HW229826   0.533   3.471   5.086 -0.2487  1.2482  0.5921
 6064SOL     OW29827   1.482   2.282   1.906 -0.4531 -0.0210 -0.7985
 6064SOL    HW129828   1.498   2.265   1.813  0.1115  0.6704 -0.8235
 6064SOL    HW229829   1.388   2.282   1.887 -0.3211 -0.2692 -1.4770
 6065SOL     OW29830   4.427   0.322   8.985  0.2257 -0.6541 -0.0438
 6065SOL    HW129831   4.481   0.374   8.926  2.0378 -1.2869  1.0392
 6065SOL    HW229832   4.427   0.241   8.934 -0.7285 -0.7114  0.0457
 6066SOL     OW29833   1.692   4.108  12.989 -0.5145  0.0217  0.2929
 6066SOL    HW129834   1.626   4.080  13.052  1.2668  1.0694  2.6269
 6066SOL    HW229835   1.663   4.199  12.996  1.2748  0.5624  0.6824
 6067SOL     OW29836   3.427   0.241   5.262 -0.0340 -0.0167 -0.5110
 6067SOL    HW129837   3.399   0.175   5.325 -1.3484  0.1637 -0.9081
 6067SOL    HW229838   3.451   0.183   5.190  0.7908 -0.8765  0.4484
 6068SOL     OW29839   0.715   0.137   2.442 -0.5069  0.2094 -0.1085
 6068SOL    HW129840   0.740   0.178   2.359 -1.5876  0.8562 -0.1132
 6068SOL    HW229841   0.803   0.133   2.480 -0.5805  2.8258  0.3307
 6069SOL     OW29842   0.494   1.798   2.702  0.1410  0.2143  0.1020
 6069SOL    HW129843   0.422   1.835   2.651  1.3687  1.1229 -0.9539
 6069SOL    HW229844   0.485   1.709   2.666 -0.6611  0.6889 -0.8581
 6070SOL     OW29845   0.458   4.342   1.181 -0.0686  0.6388 -0.5453
 6070SOL    HW129846   0.513   4.349   1.259 -0.3619  1.2749 -0.3975
 6070SOL    HW229847   0.398   4.268   1.195  1.3571 -0.6323 -1.1927
 6071SOL     OW29848   3.603   0.168   3.474 -0.0176 -0.8936  0.4662
 6071SOL    HW129849   3.671   0.105   3.501  1.6205  0.0813 -1.3785
 6071SOL    HW229850   3.654   0.233   3.426  2.0774 -2.7457  0.1201
 6072SOL     OW29851   2.949   3.982  16.617 -0.0844  0.0532  0.0217
 6072SOL    HW129852   2.916   4.058  16.664  0.7689  0.1130  0.5200
 6072SOL    HW229853   3.038   4.015  16.602  0.6550 -2.4149 -1.1284
 6073SOL     OW29854   3.121   0.223   6.050  0.1486  0.1538  0.4405
 6073SOL    HW129855   3.145   0.139   6.089 -0.1440 -0.6108 -1.0279
 6073SOL    HW229856   3.165   0.285   6.108 -1.0928  2.1645 -0.7976
 6074SOL     OW29857   1.526   0.066   4.454 -0.2904 -0.0285  0.1255
 6074SOL    HW129858   1.599   0.017   4.417  1.4046  1.5226  1.3947
 6074SOL    HW229859   1.548   0.158   4.438 -2.6651  0.5699  0.2839
 6075SOL     OW29860   0.214   3.042   5.611 -0.7011 -0.1681  0.7367
 6075SOL    HW129861   0.217   3.138   5.615 -1.8467 -0.1153  0.3550
 6075SOL    HW229862   0.151   3.030   5.540  1.3898  1.2669 -1.4050
 6076SOL     OW29863   3.389   3.744   5.634 -0.5735  0.0628 -0.1344
 6076SOL    HW129864   3.420   3.754   5.544 -0.5832  3.0204  0.1920
 6076SOL    HW229865   3.311   3.690   5.624  0.0834 -0.6289 -1.6200
 6077SOL     OW29866   3.019   2.223  15.978  0.3413 -0.1680  0.1241
 6077SOL    HW129867   3.112   2.211  15.956  0.2963 -2.1497  1.0259
 6077SOL    HW229868   3.024   2.319  15.979  1.2595 -0.2357  1.4442
 6078SOL     OW29869   4.567   2.576   6.131  0.4729  0.1233 -0.3643
 6078SOL    HW129870   4.659   2.550   6.122  0.8003  0.5312  1.9054
 6078SOL    HW229871   4.550   2.564   6.224  3.0679  1.8230  0.3406
 6079SOL     OW29872   0.706   2.059   7.120  0.3258  0.1334  0.0090
 6079SOL    HW129873   0.612   2.045   7.106  0.2482  1.9342 -1.1968
 6079SOL    HW229874   0.701   2.140   7.170 -0.1967 -0.3702  0.7797
 6080SOL     OW29875   3.065   4.712   9.856  0.0129 -0.5075  0.1965
 6080SOL    HW129876   3.111   4.660   9.922  1.5349 -0.6109 -0.9529
 6080SOL    HW229877   3.116   4.696   9.777  2.8022 -2.0427  2.2978
 6081SOL     OW29878   3.981   3.551   9.086  0.0873 -0.3552 -0.6694
 6081SOL    HW129879   3.935   3.574   9.005 -0.4551 -0.6602 -0.4523
 6081SOL    HW229880   3.916   3.579   9.150  1.2779  2.3997 -0.6985
 6082SOL     OW29881   3.159   2.791   4.724 -0.2374  0.1247  0.6804
 6082SOL    HW129882   3.091   2.784   4.658 -0.2945 -0.7776  0.8439
 6082SOL    HW229883   3.129   2.734   4.795 -1.0606 -0.3341 -0.0486
 6083SOL     OW29884   3.416   2.038  16.184 -0.4445 -0.2664  0.0689
 6083SOL    HW129885   3.400   1.987  16.263  1.9361 -1.5900 -0.2868
 6083SOL    HW229886   3.509   2.059  16.186 -0.7756  1.2187 -0.2441
 6084SOL     OW29887   3.598   3.462   6.642 -0.2360 -0.0379  0.4031
 6084SOL    HW129888   3.546   3.389   6.675  0.1822  0.1536  1.4977
 6084SOL    HW229889   3.537   3.509   6.585  1.4413  0.3911 -1.0342
 6085SOL     OW29890   2.324   0.364   5.024  0.9604  0.2397 -0.1294
 6085SOL    HW129891   2.234   0.397   5.023  0.4893 -1.0674 -1.3707
 6085SOL    HW229892   2.349   0.365   4.932  0.9049 -1.8029 -0.1752
 6086SOL     OW29893   1.082   4.253  15.308  0.1483  0.1593 -0.1773
 6086SOL    HW129894   1.015   4.200  15.264  0.4384  1.3601 -2.0990
 6086SOL    HW229895   1.152   4.190  15.321  0.7361  0.8822  0.1365
 6087SOL     OW29896   4.672   3.946   3.443  0.1206  0.0107  0.1687
 6087SOL    HW129897   4.588   3.901   3.446  0.7765 -1.3248 -1.6978
 6087SOL    HW229898   4.725   3.898   3.507 -0.9503 -1.0343  0.2626
 6088SOL     OW29899   2.171   0.375   9.110  0.1184  0.0911  0.2923
 6088SOL    HW129900   2.197   0.305   9.050  0.6317  1.2303 -0.8253
 6088SOL    HW229901   2.080   0.387   9.082 -0.2710 -0.6085  1.2940
 6089SOL     OW29902   0.879   3.123   5.415 -0.2159 -0.2640 -0.6300
 6089SOL    HW129903   0.848   3.203   5.458  1.3415 -0.8755  1.6305
 6089SOL    HW229904   0.815   3.121   5.344 -0.4716 -1.4707 -0.3503
 6090SOL     OW29905   0.934   3.671   5.682 -0.3615 -0.7202  0.5627
 6090SOL    HW129906   0.927   3.685   5.776  1.0808 -0.6510  0.6543
 6090SOL    HW229907   0.863   3.721   5.642  0.1136 -0.9902 -0.6150
 6091SOL     OW29908   2.759   1.058   7.680  0.9750 -0.2113  0.0230
 6091SOL    HW129909   2.722   0.981   7.723  0.6964  0.6080  1.2430
 6091SOL    HW229910   2.788   1.020   7.597  0.1862  1.1252 -0.8576
 6092SOL     OW29911   4.135   2.025   7.973  0.5059 -0.0362 -0.4229
 6092SOL    HW129912   4.155   1.964   8.044  0.0823 -0.8318 -0.9866
 6092SOL    HW229913   4.177   1.980   7.900  4.1725  1.7270  0.6251
 6093SOL     OW29914   4.599   2.290   3.130 -0.0661 -0.0577  0.1692
 6093SOL    HW129915   4.509   2.277   3.158 -0.0123  1.5299  1.0568
 6093SOL    HW229916   4.586   2.362   3.069 -2.6592 -1.4640 -0.9321
 6094SOL     OW29917   3.895   2.749   3.962  0.1167  0.5368  0.2883
 6094SOL    HW129918   3.960   2.725   3.897  0.2495 -1.7940  1.2684
 6094SOL    HW229919   3.925   2.829   4.006  0.3058  0.8393 -0.3905
 6095SOL     OW29920   4.296   0.037  17.594 -0.4146 -0.2567  0.3187
 6095SOL    HW129921   4.269   4.685  17.581 -0.2820 -0.5874  2.4883
 6095SOL    HW229922   4.278   0.054  17.501 -5.2403 -1.9808  0.9425
 6096SOL     OW29923   4.241   0.899   4.480 -0.1209  0.4092 -0.1177
 6096SOL    HW129924   4.222   0.883   4.572  2.3115  2.9528  0.8211
 6096SOL    HW229925   4.187   0.843   4.424 -0.7605 -1.4158  2.3563
 6097SOL     OW29926   1.271   0.014  14.245 -0.3313  0.1521 -0.0301
 6097SOL    HW129927   1.363   4.738  14.223  0.3250 -0.1902  2.8731
 6097SOL    HW229928   1.277   0.107  14.224  1.9140  0.3278  1.3858
 6098SOL     OW29929   2.279   1.605   8.460 -0.4494 -0.0868  0.0568
 6098SOL    HW129930   2.218   1.611   8.534 -1.0164  0.6821 -0.4765
 6098SOL    HW229931   2.332   1.526   8.474  1.2270  0.8168 -1.2113
 6099SOL     OW29932   3.051   1.527   3.809 -0.2221  0.3774  0.4274
 6099SOL    HW129933   2.994   1.454   3.786 -0.6296  0.6624  0.5354
 6099SOL    HW229934   3.075   1.507   3.899  0.5108 -0.1100  0.1214
 6100SOL     OW29935   0.074   3.978   1.542 -0.2169  0.0875  0.5667
 6100SOL    HW129936   0.166   4.005   1.548 -1.1241  3.3602 -0.5684
 6100SOL    HW229937   0.041   4.027   1.617 -0.3591 -0.5820  0.9469
 6101SOL     OW29938   1.018   3.783   8.940 -0.0692 -0.1290 -0.4956
 6101SOL    HW129939   1.036   3.875   8.921 -1.9327  0.1029 -1.1605
 6101SOL    HW229940   0.922   3.786   8.944 -0.0849  0.1968 -1.2383
 6102SOL     OW29941   3.916   2.557   6.861  0.2751 -0.1091 -0.0388
 6102SOL    HW129942   3.873   2.542   6.777  2.1953 -0.3329 -0.9768
 6102SOL    HW229943   3.994   2.507   6.837  1.4537  1.2925  0.9023
 6103SOL     OW29944   0.914   1.953   0.229 -0.1036  0.3745 -0.2536
 6103SOL    HW129945   0.975   1.980   0.161 -0.3083  0.7002 -0.3102
 6103SOL    HW229946   0.967   1.939   0.307  0.7543 -1.0536 -1.1024
 6104SOL     OW29947   2.543   1.279   4.863 -0.3162 -0.3009  0.1350
 6104SOL    HW129948   2.630   1.240   4.855  0.4014  0.7658  2.5415
 6104SOL    HW229949   2.497   1.233   4.793 -2.4538 -1.1542  2.0942
 6105SOL     OW29950   0.911   1.356  17.610  0.3763 -0.1365  0.1271
 6105SOL    HW129951   0.908   1.297  17.534  1.0655 -0.1453  0.1074
 6105SOL    HW229952   0.921   1.441  17.569 -0.0880  0.7030  1.7559
 6106SOL     OW29953   1.166   4.005  15.183 -0.5291  0.4779 -0.7601
 6106SOL    HW129954   1.188   3.938  15.248  0.4409  0.2511 -1.3216
 6106SOL    HW229955   1.252   4.047  15.186  0.3478 -1.5462  2.6540
 6107SOL     OW29956   3.311   2.653  12.780  0.4366  0.4847  0.4511
 6107SOL    HW129957   3.380   2.708  12.744  2.6088 -2.5051  0.0480
 6107SOL    HW229958   3.352   2.612  12.856  0.0907 -1.1372 -0.2305
 6108SOL     OW29959   3.892   3.746  11.080 -0.8750  0.0470  0.0603
 6108SOL    HW129960   3.957   3.708  11.020  1.0840 -1.7354  3.3021
 6108SOL    HW229961   3.941   3.825  11.101 -1.1935  0.2184  0.1538
 6109SOL     OW29962   0.298   0.519   9.149 -0.0322  0.0459  0.2806
 6109SOL    HW129963   0.372   0.539   9.092  1.4677  1.0606  2.6036
 6109SOL    HW229964   0.326   0.432   9.177  1.1924 -0.0660 -1.3268
 6110SOL     OW29965   1.111   3.019   8.182  0.4104 -0.0564  0.5922
 6110SOL    HW129966   1.144   3.063   8.261  1.5008 -1.1938  0.7670
 6110SOL    HW229967   1.177   2.950   8.175  2.9126  2.2216  1.4077
 6111SOL     OW29968   3.921   3.817   6.671  0.0678 -0.0085  0.9158
 6111SOL    HW129969   3.975   3.755   6.621 -3.1102 -2.8933  1.0642
 6111SOL    HW229970   3.875   3.747   6.717 -2.3569  0.4751 -0.8080
 6112SOL     OW29971   1.518   0.153   5.490 -0.6416 -0.8602  0.3176
 6112SOL    HW129972   1.551   0.234   5.529 -1.5333  0.5251 -1.7961
 6112SOL    HW229973   1.588   0.126   5.430 -2.3970 -2.1354 -1.1620
 6113SOL     OW29974   0.687   0.460   7.430 -0.6635 -0.4867  0.1081
 6113SOL    HW129975   0.618   0.412   7.383 -0.3773  0.5084 -1.3302
 6113SOL    HW229976   0.622   0.523   7.460  0.8241  1.6547 -1.2345
 6114SOL     OW29977   3.361   4.086   8.242 -0.0140 -0.1101  0.6417
 6114SOL    HW129978   3.329   4.146   8.175  0.0512 -2.2636 -1.2983
 6114SOL    HW229979   3.327   4.122   8.325  2.5336  0.8798  1.2408
 6115SOL     OW29980   2.932   2.723   9.206 -0.0396 -0.1335 -0.0639
 6115SOL    HW129981   2.944   2.814   9.176  1.1164  0.6092  2.6089
 6115SOL    HW229982   3.015   2.680   9.187  0.6857  1.3754 -0.3693
 6116SOL     OW29983   4.330   3.338   5.459 -0.1542 -0.3004 -0.0147
 6116SOL    HW129984   4.383   3.286   5.518 -1.1942 -0.1963  1.0207
 6116SOL    HW229985   4.259   3.279   5.433  1.2855 -0.8726 -2.6124
 6117SOL     OW29986   0.174   0.899   2.040 -0.5165 -0.1175  0.3714
 6117SOL    HW129987   0.237   0.920   2.108 -1.2155 -0.3659  1.0932
 6117SOL    HW229988   0.165   0.805   2.054 -1.9145 -0.0171  0.1644
 6118SOL     OW29989   2.995   3.300   8.978 -0.3420 -0.2242 -0.1905
 6118SOL    HW129990   2.926   3.317   8.913  0.3575 -1.1907 -1.1865
 6118SOL    HW229991   3.072   3.334   8.933 -1.3734 -0.5559 -2.2412
 6119SOL     OW29992   0.680   4.215  17.549 -0.5060  0.0899  0.1855
 6119SOL    HW129993   0.690   4.125  17.578  0.3883  0.6798  1.7167
 6119SOL    HW229994   0.765   4.216  17.506  0.0822 -1.0517  1.3630
 6120SOL     OW29995   2.836   3.377   0.511 -0.5289 -0.4751 -0.1230
 6120SOL    HW129996   2.843   3.285   0.538 -4.3008 -1.5740 -2.9436
 6120SOL    HW229997   2.814   3.368   0.418  0.9094 -3.6853 -0.1439
 6121SOL     OW29998   1.597   1.548   5.504  0.1703  0.0765  0.0085
 6121SOL    HW129999   1.502   1.546   5.494  0.2146  1.8408 -0.8416
 6121SOL    HW230000   1.623   1.635   5.473  1.9835 -1.1449 -1.9407
 6122SOL     OW30001   1.061   2.284  14.066 -0.1896 -0.2413 -0.4080
 6122SOL    HW130002   1.111   2.234  14.002 -0.3705 -1.0011  0.0511
 6122SOL    HW230003   1.007   2.348  14.021  0.4582 -0.3465 -1.3389
 6123SOL     OW30004   2.783   0.002  10.507  0.4181 -0.2734  0.3077
 6123SOL    HW130005   2.714   4.726  10.572  1.9213  0.6168  2.1070
 6123SOL    HW230006   2.803   4.649  10.492 -1.2390 -0.5618 -0.2023
 6124SOL     OW30007   4.480   4.006  10.578 -0.0004 -0.1304 -0.0418
 6124SOL    HW130008   4.515   4.056  10.651 -1.3652  0.5441  0.1617
 6124SOL    HW230009   4.552   4.005  10.515 -0.3535 -0.2296 -0.4427
 6125SOL     OW30010   0.259   2.716  17.306 -0.0396 -0.1368  0.1210
 6125SOL    HW130011   0.323   2.648  17.289  0.4305  0.2611  0.2726
 6125SOL    HW230012   0.190   2.666  17.349  0.1637 -0.6517 -0.1527
 6126SOL     OW30013   3.688   3.098   1.049 -0.2166 -0.4411  0.4726
 6126SOL    HW130014   3.767   3.143   1.078  0.0999 -0.8489  0.2346
 6126SOL    HW230015   3.713   3.006   1.060 -0.4354 -0.6124 -0.4818
 6127SOL     OW30016   0.161   2.442   8.835  0.4443  0.3900  0.7089
 6127SOL    HW130017   0.084   2.406   8.878  0.2308 -0.5404 -0.4616
 6127SOL    HW230018   0.142   2.536   8.841 -1.6714 -0.1942  3.2239
 6128SOL     OW30019   0.100   4.368   7.738 -0.2352 -0.1514 -0.4833
 6128SOL    HW130020   0.168   4.310   7.773  1.4897  1.8994 -0.4097
 6128SOL    HW230021   0.028   4.312   7.710  1.2791 -0.8999 -2.7923
 6129SOL     OW30022   3.088   0.246   3.770 -0.0430  0.2919  0.1735
 6129SOL    HW130023   3.106   0.222   3.861 -2.6165  0.2177  0.6649
 6129SOL    HW230024   3.174   0.243   3.728 -0.1420  1.2466 -0.1148
 6130SOL     OW30025   0.934   2.773   3.387 -0.0752 -0.6583  0.4218
 6130SOL    HW130026   0.882   2.814   3.318  1.4114 -0.8073 -0.7892
 6130SOL    HW230027   0.913   2.680   3.379 -3.4059 -0.2299  3.9718
 6131SOL     OW30028   0.082   4.105  11.577  0.5583  0.7820  0.2498
 6131SOL    HW130029   0.149   4.127  11.642  0.8359 -0.1990  0.2898
 6131SOL    HW230030   0.073   4.188  11.530 -0.3519  1.1435  1.0676
 6132SOL     OW30031   1.776   3.657   1.795 -0.1038 -0.0040  0.0353
 6132SOL    HW130032   1.790   3.747   1.825  2.0241 -0.7616  1.2659
 6132SOL    HW230033   1.819   3.668   1.710  1.7579 -0.0827  0.9836
 6133SOL     OW30034   1.210   0.500   5.184 -0.4903 -0.2026  0.0436
 6133SOL    HW130035   1.291   0.450   5.173  0.4370  0.4498  3.9523
 6133SOL    HW230036   1.194   0.531   5.095  1.2046 -3.9900 -1.5747
 6134SOL     OW30037   2.540   2.658  12.819 -0.1379 -0.5409 -0.1005
 6134SOL    HW130038   2.627   2.631  12.789  0.5640  2.3257 -0.6602
 6134SOL    HW230039   2.503   2.575  12.847  0.5857 -0.8819 -0.1373
 6135SOL     OW30040   0.912   3.752   6.318 -0.4453 -0.0524  0.3203
 6135SOL    HW130041   0.971   3.692   6.363 -0.2315 -1.8204 -2.3157
 6135SOL    HW230042   0.839   3.695   6.293  0.5487 -0.3151 -2.0295
 6136SOL     OW30043   2.653   4.583  12.493  0.7496 -0.2602 -0.2770
 6136SOL    HW130044   2.593   4.579  12.568  0.6136  1.5370 -0.2828
 6136SOL    HW230045   2.591   4.569  12.420 -0.5801  1.6581  0.4817
 6137SOL     OW30046   3.250   4.137   2.241  0.1231  0.4875 -0.0739
 6137SOL    HW130047   3.274   4.162   2.330  0.2345  1.5219 -0.4001
 6137SOL    HW230048   3.161   4.107   2.261  0.3082  0.5768  0.8989
 6138SOL     OW30049   0.271   3.028   8.547  1.0103 -0.5484  0.0111
 6138SOL    HW130050   0.315   3.099   8.500  0.4369  0.2575  0.7003
 6138SOL    HW230051   0.253   3.071   8.630  2.4020  0.4946 -0.2371
 6139SOL     OW30052   3.219   1.152   5.031 -0.5445 -0.0457 -0.3570
 6139SOL    HW130053   3.253   1.139   5.120 -3.3416  1.4575  0.9339
 6139SOL    HW230054   3.291   1.190   4.979  0.5196 -2.0592 -0.3385
 6140SOL     OW30055   2.524   4.529  11.078  0.3416 -0.5757 -0.4866
 6140SOL    HW130056   2.525   4.521  10.982 -2.5802  2.7395 -0.7511
 6140SOL    HW230057   2.464   4.602  11.087 -0.3479 -1.2078 -0.0175
 6141SOL     OW30058   0.133   1.998  10.102 -0.0672 -0.0060  0.4671
 6141SOL    HW130059   0.108   2.077  10.054 -0.9355 -0.1466  0.6950
 6141SOL    HW230060   0.069   1.938  10.065 -0.5952  0.6309  0.3579
 6142SOL     OW30061   4.148   1.523   8.735 -0.7909  0.2139  0.1684
 6142SOL    HW130062   4.091   1.519   8.812  1.2697  1.1412  1.7511
 6142SOL    HW230063   4.234   1.500   8.772 -0.4919 -1.0838 -1.3523
 6143SOL     OW30064   0.173   1.744   7.297 -0.0266  0.2439  0.4581
 6143SOL    HW130065   0.102   1.683   7.277  0.7812 -0.9109  1.1001
 6143SOL    HW230066   0.143   1.820   7.247  0.1710 -0.3045 -0.5075
 6144SOL     OW30067   3.099   0.816  16.241 -0.1628  0.5317  0.4948
 6144SOL    HW130068   3.176   0.760  16.253  0.0644  0.8713  0.6124
 6144SOL    HW230069   3.136   0.902  16.258  1.3751 -0.3457  1.5705
 6145SOL     OW30070   0.973   2.020   6.317 -0.2352  0.4938 -0.3320
 6145SOL    HW130071   0.945   1.945   6.263 -1.9649  0.8633  0.0546
 6145SOL    HW230072   1.048   2.061   6.273 -1.2946  0.1906 -2.4458
 6146SOL     OW30073   2.415   0.219   5.899 -0.8758 -0.2234 -0.5354
 6146SOL    HW130074   2.506   0.237   5.923 -0.7837 -0.6990 -0.5299
 6146SOL    HW230075   2.426   0.158   5.826  1.0811 -0.1918 -0.2585
 6147SOL     OW30076   1.459   3.877  14.126  0.5609 -0.6201 -0.1743
 6147SOL    HW130077   1.427   3.886  14.216 -1.5649 -0.3082 -0.9780
 6147SOL    HW230078   1.416   3.796  14.103 -0.3035 -0.3954  0.6533
 6148SOL     OW30079   3.765   0.552   4.910 -0.8969  0.3435 -0.1950
 6148SOL    HW130080   3.845   0.538   4.859 -0.4537 -2.4965  1.2710
 6148SOL    HW230081   3.726   0.627   4.864  1.6611  0.9136 -1.4470
 6149SOL     OW30082   2.229   1.595   1.758 -0.4105 -0.8423  0.0881
 6149SOL    HW130083   2.188   1.650   1.825  0.4087 -0.1828  0.0540
 6149SOL    HW230084   2.173   1.518   1.768 -1.2603 -0.5573 -2.4418
 6150SOL     OW30085   2.514   3.122   7.640 -0.4233 -0.2950 -0.3640
 6150SOL    HW130086   2.431   3.081   7.667  0.1290 -1.4497 -0.4214
 6150SOL    HW230087   2.579   3.052   7.642 -0.4828 -0.3512 -0.3868
 6151SOL     OW30088   2.333   4.258  10.852 -0.4347  0.1198 -0.2318
 6151SOL    HW130089   2.261   4.243  10.914 -1.8113 -0.9476 -2.1021
 6151SOL    HW230090   2.290   4.229  10.771 -1.9021  3.5555 -0.7176
 6152SOL     OW30091   0.952   2.458   4.387 -0.0390 -0.2543  0.3510
 6152SOL    HW130092   0.873   2.431   4.341 -0.0062  0.8978 -0.3628
 6152SOL    HW230093   1.018   2.430   4.323  0.5643 -0.8343  1.2303
 6153SOL     OW30094   0.148   2.571   8.439  0.0578  0.0979 -0.1461
 6153SOL    HW130095   0.167   2.601   8.350  0.8845  2.3871  0.7766
 6153SOL    HW230096   0.189   2.641   8.490 -4.2769  0.4370  2.8799
 6154SOL     OW30097   4.435   0.996   5.743 -0.5601  0.2920  0.3398
 6154SOL    HW130098   4.392   0.969   5.662  0.7186  0.2029 -0.3163
 6154SOL    HW230099   4.498   0.924   5.747  0.4592  1.1372 -0.4614
 6155SOL     OW30100   1.270   1.665  14.640  0.1092  0.1265 -0.0533
 6155SOL    HW130101   1.284   1.673  14.545  1.4456 -0.6215  0.0813
 6155SOL    HW230102   1.301   1.748  14.674  1.4490  0.2877 -1.6691
 6156SOL     OW30103   3.541   3.250   7.402 -0.1316  0.1075 -0.5961
 6156SOL    HW130104   3.456   3.266   7.442 -0.1206 -0.4325 -0.3659
 6156SOL    HW230105   3.555   3.341   7.376  1.7239 -0.0111 -0.0155
 6157SOL     OW30106   1.012   0.344   9.052 -0.2198 -0.4455  0.7813
 6157SOL    HW130107   0.950   0.278   9.021 -1.7501  1.5977 -0.5046
 6157SOL    HW230108   0.994   0.415   8.990 -1.7122 -0.6345  0.9803
 6158SOL     OW30109   3.205   0.225  17.180 -0.3151  0.4125  0.5411
 6158SOL    HW130110   3.186   0.278  17.102  0.0691  0.2618  0.3476
 6158SOL    HW230111   3.114   0.209  17.206 -0.3590  3.4224  2.2762
 6159SOL     OW30112   4.215   1.017  13.429  0.4603 -0.4776 -0.0710
 6159SOL    HW130113   4.128   1.055  13.415  0.7018 -0.4289 -1.4915
 6159SOL    HW230114   4.195   0.937  13.477  1.6195 -1.0015 -0.4752
 6160SOL     OW30115   4.708   0.521   6.519  0.7822  0.0372 -0.0550
 6160SOL    HW130116   4.674   0.436   6.489  0.2932  1.3555 -3.2559
 6160SOL    HW230117   4.623   0.552   6.552  1.3565 -1.3060  2.7183
 6161SOL     OW30118   0.061   0.080   7.177  0.7722 -0.1507  0.6155
 6161SOL    HW130119   4.705   0.066   7.174  0.6283  1.3003 -1.5788
 6161SOL    HW230120   0.085   0.040   7.094  0.5966 -4.2069  2.5161
 6162SOL     OW30121   1.877   2.966   2.453  0.1517 -0.0671 -0.0686
 6162SOL    HW130122   1.882   2.941   2.361  0.6132 -1.4126  0.3178
 6162SOL    HW230123   1.847   2.884   2.491  0.5000  0.1677  0.7146
 6163SOL     OW30124   3.200   1.478  13.223  0.4120  0.6647 -0.1330
 6163SOL    HW130125   3.278   1.522  13.188  0.1176  0.8036 -0.6119
 6163SOL    HW230126   3.205   1.401  13.166  0.7429 -0.3198  1.2190
 6164SOL     OW30127   4.020   0.453  16.070  0.3772  0.5799  0.0312
 6164SOL    HW130128   3.976   0.368  16.067 -0.1865  0.9316 -2.2509
 6164SOL    HW230129   4.020   0.469  15.975  1.9462 -0.7609 -0.2007
 6165SOL     OW30130   3.148   0.795   3.484  0.5911  0.0660 -0.0988
 6165SOL    HW130131   3.087   0.854   3.529 -0.7127 -1.7625  0.5174
 6165SOL    HW230132   3.132   0.712   3.529  1.0507 -0.5263 -1.0237
 6166SOL     OW30133   0.034   4.685   3.782  0.0043  0.4568 -0.3144
 6166SOL    HW130134   4.701   4.631   3.751  1.6616 -1.5715 -0.5775
 6166SOL    HW230135   0.103   4.665   3.719  1.8376  2.7814  0.9293
 6167SOL     OW30136   0.992   3.329   4.259 -0.2687 -0.2358  0.2778
 6167SOL    HW130137   0.959   3.387   4.191 -0.1473  1.9633  2.1236
 6167SOL    HW230138   0.915   3.293   4.303  0.1941  1.1458  2.1958
 6168SOL     OW30139   3.820   0.728   2.651 -0.1790  0.2787  0.0876
 6168SOL    HW130140   3.756   0.660   2.672 -0.6365  0.5473 -0.4384
 6168SOL    HW230141   3.863   0.726   2.737 -0.2220 -0.0699  0.1023
 6169SOL     OW30142   0.367   0.205   9.114 -0.5057  0.3634  0.4464
 6169SOL    HW130143   0.414   0.122   9.122 -0.4211  0.5717  1.9811
 6169SOL    HW230144   0.370   0.246   9.200  0.2509  2.8832 -0.7851
 6170SOL     OW30145   3.777   1.464   2.850  0.1899 -0.6165 -0.1705
 6170SOL    HW130146   3.814   1.439   2.765  0.3274  1.0152 -0.5848
 6170SOL    HW230147   3.705   1.401   2.840 -0.0383 -0.4592  0.4472
 6171SOL     OW30148   4.480   0.746   6.285 -0.3150  0.2965  0.2156
 6171SOL    HW130149   4.523   0.751   6.199  1.6711  0.6391  1.2204
 6171SOL    HW230150   4.478   0.650   6.288  1.2167  0.3436  2.9616
 6172SOL     OW30151   4.450   4.586   6.925  0.2742  0.0180 -0.1682
 6172SOL    HW130152   4.472   4.524   6.856  1.4356 -1.2186  1.3469
 6172SOL    HW230153   4.369   4.552   6.962  0.2027  0.7726  0.3857
 6173SOL     OW30154   0.446   0.587  14.779  0.2417 -0.5461  0.3615
 6173SOL    HW130155   0.382   0.603  14.709  2.2640  1.4620 -0.9921
 6173SOL    HW230156   0.509   0.522  14.750  0.5497 -0.3469  0.5953
 6174SOL     OW30157   4.082   3.197   3.838 -0.2678  0.5195  0.0184
 6174SOL    HW130158   4.091   3.101   3.836  1.7099  0.7425 -2.1802
 6174SOL    HW230159   4.053   3.207   3.929  0.0742  1.9277 -0.0248
 6175SOL     OW30160   2.454   0.681   2.864  0.0650 -0.9194 -0.1392
 6175SOL    HW130161   2.466   0.593   2.899 -0.9926 -2.1406 -2.8325
 6175SOL    HW230162   2.533   0.695   2.812  0.9264  0.2421  1.4983
 6176SOL     OW30163   1.078   0.902   5.741 -0.3237  0.3567  0.1028
 6176SOL    HW130164   1.011   0.937   5.800  0.4894  0.8162  0.7473
 6176SOL    HW230165   1.146   0.901   5.808 -1.7034  0.7342  1.5328
 6177SOL     OW30166   3.843   2.756   9.893  0.1647 -0.0075  0.3870
 6177SOL    HW130167   3.835   2.688   9.826 -1.1395 -1.0533  1.6104
 6177SOL    HW230168   3.772   2.818   9.878  0.1819 -0.0380  0.1746
 6178SOL     OW30169   0.438   3.307   1.964  0.2191  0.3996  0.2192
 6178SOL    HW130170   0.351   3.291   1.927  0.1573  0.3233  0.3941
 6178SOL    HW230171   0.486   3.249   1.905 -2.9911  1.9545 -3.9245
 6179SOL     OW30172   3.089   4.534   2.153  0.0531  0.4597  0.1138
 6179SOL    HW130173   3.043   4.451   2.137 -0.6362  0.4522  2.0654
 6179SOL    HW230174   3.177   4.498   2.165 -1.0476 -2.0853  0.6965
 6180SOL     OW30175   0.457   1.653  14.233  0.0627 -0.1151 -0.2677
 6180SOL    HW130176   0.547   1.671  14.261 -0.2587  0.3872  0.4403
 6180SOL    HW230177   0.411   1.604  14.302  0.8261 -2.3241 -1.3372
 6181SOL     OW30178   1.854   3.091   8.528  0.0344  0.0215  0.1741
 6181SOL    HW130179   1.813   3.163   8.480  0.8356 -0.1688 -0.8147
 6181SOL    HW230180   1.925   3.131   8.578  0.1540 -1.3612  1.1056
 6182SOL     OW30181   2.857   2.097  13.238 -0.1364  0.4199 -0.0285
 6182SOL    HW130182   2.779   2.049  13.264 -0.6244  1.0233 -0.3791
 6182SOL    HW230183   2.815   2.141  13.164  0.6327 -0.2840 -0.8764
 6183SOL     OW30184   1.456   1.503   1.521 -0.7944  0.4410  0.4324
 6183SOL    HW130185   1.535   1.548   1.553 -0.1346 -0.0280 -0.5485
 6183SOL    HW230186   1.483   1.489   1.430  2.5210 -1.4742  1.6963
 6184SOL     OW30187   1.946   1.488   6.803 -0.8124  0.0801 -0.1222
 6184SOL    HW130188   1.940   1.450   6.716 -0.2289 -1.3834  0.4845
 6184SOL    HW230189   1.891   1.564   6.784  0.9136  1.8291  1.7507
 6185SOL     OW30190   1.364   4.623   6.089 -0.0218  0.3743 -0.0055
 6185SOL    HW130191   1.403   4.692   6.142 -2.2401  2.2924 -0.8680
 6185SOL    HW230192   1.392   4.541   6.129  0.8425 -0.2083 -1.8083
 6186SOL     OW30193   0.613   2.686  15.914 -0.2994  0.6479  0.0855
 6186SOL    HW130194   0.679   2.756  15.918 -1.0927  1.3891  0.0961
 6186SOL    HW230195   0.528   2.729  15.918 -1.1700 -1.4420  3.9444
 6187SOL     OW30196   2.850   3.975   3.397 -0.5337 -0.1544 -0.6723
 6187SOL    HW130197   2.882   3.950   3.484  1.5041 -0.3058 -1.4689
 6187SOL    HW230198   2.933   3.977   3.348  1.8583 -3.0563  3.2123
 6188SOL     OW30199   4.399   2.254  11.137  0.0693 -0.6722  0.3831
 6188SOL    HW130200   4.442   2.334  11.107 -0.8680  1.0086  3.5014
 6188SOL    HW230201   4.421   2.254  11.230 -0.2080 -0.3220  0.4456
 6189SOL     OW30202   0.313   4.038  10.601 -0.2185  0.2692  0.5756
 6189SOL    HW130203   0.221   4.013  10.611 -0.3923  0.6721 -0.0461
 6189SOL    HW230204   0.362   3.989  10.668 -1.0967 -2.0216 -0.4416
 6190SOL     OW30205   0.355   4.103   3.459 -0.6153 -0.3517 -0.5542
 6190SOL    HW130206   0.381   4.027   3.407  0.8283  0.0474 -0.4026
 6190SOL    HW230207   0.306   4.070   3.535  0.9822 -1.4200  0.0091
 6191SOL     OW30208   1.977   3.398   6.350 -0.5697 -0.3280 -0.0547
 6191SOL    HW130209   2.067   3.401   6.319 -0.2838  0.4870  0.8766
 6191SOL    HW230210   1.990   3.358   6.436 -1.0692  1.3229  0.7900
 6192SOL     OW30211   1.895   2.638   6.210 -0.1322  0.0968 -0.4258
 6192SOL    HW130212   1.923   2.563   6.263 -0.5920  0.3772  0.2083
 6192SOL    HW230213   1.931   2.623   6.123  1.5644  0.3630  0.2179
 6193SOL     OW30214   3.092   1.287   2.756 -0.2832 -0.1067 -0.2727
 6193SOL    HW130215   3.100   1.258   2.665  0.4271 -2.7098  0.6288
 6193SOL    HW230216   3.184   1.303   2.776 -0.2039  0.2934 -0.9618
 6194SOL     OW30217   0.585   1.338   0.924 -0.0682 -0.0873 -0.1141
 6194SOL    HW130218   0.548   1.417   0.963 -0.8314  0.4321 -1.8742
 6194SOL    HW230219   0.507   1.292   0.893 -0.8534 -0.8656  3.0703
 6195SOL     OW30220   2.675   4.119   1.337  0.3674  0.0167 -0.3383
 6195SOL    HW130221   2.632   4.056   1.394 -0.7148 -0.8626 -2.1345
 6195SOL    HW230222   2.709   4.175   1.407 -1.1282  0.6723 -0.1494
 6196SOL     OW30223   4.542   0.530   8.415  0.3855  0.0144 -0.0763
 6196SOL    HW130224   4.582   0.581   8.345  0.9248 -1.5986 -0.9299
 6196SOL    HW230225   4.485   0.592   8.461  0.6241 -0.8972  1.4535
 6197SOL     OW30226   3.204   2.872  16.744 -0.5581  0.3140  0.2439
 6197SOL    HW130227   3.118   2.895  16.779 -1.7186 -0.7487 -1.9268
 6197SOL    HW230228   3.213   2.915  16.659  1.6552  4.1050  2.3987
 6198SOL     OW30229   0.976   3.749   8.567  0.7419 -0.1199  0.4555
 6198SOL    HW130230   0.894   3.777   8.607 -0.0189 -2.4688  0.5290
 6198SOL    HW230231   1.018   3.834   8.581  0.1273  0.3394 -0.4565
 6199SOL     OW30232   1.445   3.501   7.059 -0.1273 -0.2754  0.0117
 6199SOL    HW130233   1.453   3.406   7.049 -0.2068 -0.1656 -1.0454
 6199SOL    HW230234   1.445   3.500   7.155 -2.3547 -0.6001  0.0034
 6200SOL     OW30235   4.671   2.427   7.544 -0.0884  0.1907  0.3869
 6200SOL    HW130236   0.011   2.426   7.490 -1.3290  1.0472 -1.4295
 6200SOL    HW230237   4.715   2.445   7.627 -0.1120 -1.9557  0.8579
 6201SOL     OW30238   4.413   3.524   3.831  0.1504  0.1966  0.4342
 6201SOL    HW130239   4.352   3.467   3.785  1.6470 -0.8340 -0.2589
 6201SOL    HW230240   4.427   3.586   3.759 -1.1170 -0.0565 -0.0327
 6202SOL     OW30241   1.878   2.303  14.949  0.1775  0.3733 -0.4902
 6202SOL    HW130242   1.858   2.253  14.869 -3.1149  2.7744 -1.1647
 6202SOL    HW230243   1.953   2.351  14.913  0.8188 -0.8499 -0.8154
 6203SOL     OW30244   2.823   4.502   8.984  0.6300  0.5018 -0.6545
 6203SOL    HW130245   2.748   4.550   9.020  0.5250  1.1341 -1.7219
 6203SOL    HW230246   2.895   4.537   9.036 -0.4186  2.1265 -0.2767
 6204SOL     OW30247   0.448   4.108   1.819 -0.4554 -0.2781 -0.0550
 6204SOL    HW130248   0.371   4.165   1.826 -0.6667 -0.3496 -1.8593
 6204SOL    HW230249   0.462   4.089   1.912  0.1936 -4.2533 -0.9690
 6205SOL     OW30250   0.607   1.590  17.009  0.3606 -0.1102 -0.0463
 6205SOL    HW130251   0.582   1.547  16.927 -1.2446  0.7355  0.0065
 6205SOL    HW230252   0.608   1.680  16.975  0.4671  0.1836  0.7490
 6206SOL     OW30253   0.221   2.294   4.877 -0.0258  0.5948 -0.1416
 6206SOL    HW130254   0.167   2.237   4.931  2.4733 -0.1086  1.6086
 6206SOL    HW230255   0.308   2.267   4.908 -0.4942 -1.0497 -0.2615
 6207SOL     OW30256   0.356   1.768  11.090 -0.3686 -0.3539  0.0819
 6207SOL    HW130257   0.271   1.749  11.129 -0.5767 -0.2723 -0.3252
 6207SOL    HW230258   0.390   1.812  11.167  3.0003  1.9383 -2.7048
 6208SOL     OW30259   3.929   4.477  13.249  0.7497  0.3028 -0.2394
 6208SOL    HW130260   3.935   4.556  13.195  0.0875  1.0333  0.7456
 6208SOL    HW230261   3.934   4.513  13.338  1.7934  1.1953 -0.6788
 6209SOL     OW30262   0.081   4.587  11.863 -0.0804  0.4578 -0.8748
 6209SOL    HW130263   0.110   4.546  11.782 -1.4046 -0.2135 -1.0128
 6209SOL    HW230264   0.010   4.531  11.893  1.2044 -1.3768 -1.2611
 6210SOL     OW30265   3.771   2.288   3.919  0.1270 -0.0683 -0.0441
 6210SOL    HW130266   3.697   2.316   3.972  0.7692  1.8982 -0.1911
 6210SOL    HW230267   3.785   2.198   3.950 -0.3001  0.8173  2.6640
 6211SOL     OW30268   4.691   1.583   7.199 -0.2518 -0.2775  0.0077
 6211SOL    HW130269   0.013   1.567   7.126 -1.1476 -0.0227 -0.8023
 6211SOL    HW230270   4.618   1.624   7.153 -0.7064  0.2674  1.2247
 6212SOL     OW30271   4.486   3.094   4.008 -0.2490 -0.9010  0.0252
 6212SOL    HW130272   4.536   3.056   4.081 -0.2219 -0.0417  0.4544
 6212SOL    HW230273   4.552   3.090   3.938  0.7511  1.5496  0.8070
 6213SOL     OW30274   2.421   0.228   8.962  0.4269  0.1870  0.1045
 6213SOL    HW130275   2.480   0.227   8.886  0.0784  0.1245 -0.1635
 6213SOL    HW230276   2.485   0.227   9.033  0.2071 -3.7349  0.2360
 6214SOL     OW30277   0.184   1.398   8.333 -0.0748 -0.6922 -0.2444
 6214SOL    HW130278   0.223   1.486   8.336  1.0742 -1.0994 -2.9199
 6214SOL    HW230279   0.181   1.380   8.239  1.1233  0.3058 -0.4785
 6215SOL     OW30280   1.428   4.427   4.438  0.1940  0.0111 -0.7787
 6215SOL    HW130281   1.501   4.413   4.378  0.7214 -2.1250  0.3484
 6215SOL    HW230282   1.382   4.493   4.387  0.3868 -0.5965 -1.7431
 6216SOL     OW30283   0.115   0.558   1.650 -0.0500 -0.6170  0.1099
 6216SOL    HW130284   0.055   0.557   1.724  1.7514  0.8631  1.5667
 6216SOL    HW230285   0.092   0.472   1.614 -0.5623  0.4447 -2.0921
 6217SOL     OW30286   0.639   4.644  17.670  0.5671 -0.7143  0.0356
 6217SOL    HW130287   0.650   4.549  17.681  1.6132 -0.9345 -2.8041
 6217SOL    HW230288   0.576   4.656  17.741 -0.2629  1.4750 -1.1078
 6218SOL     OW30289   3.858   3.945   7.879 -0.2660 -0.0995 -0.0191
 6218SOL    HW130290   3.843   3.981   7.792 -0.1149  0.4588  0.1824
 6218SOL    HW230291   3.860   4.028   7.926  2.2294 -2.2656  3.8131
 6219SOL     OW30292   2.928   2.003  11.406 -0.0273 -0.4372 -0.4826
 6219SOL    HW130293   2.851   1.946  11.403 -0.2280 -0.1516 -0.8374
 6219SOL    HW230294   2.913   2.051  11.487 -1.0731 -1.0435 -0.3114
 6220SOL     OW30295   0.184   0.793  11.350  0.1903  0.0609 -0.0847
 6220SOL    HW130296   0.105   0.805  11.297 -0.5339 -1.1991  0.7022
 6220SOL    HW230297   0.204   0.700  11.337 -1.3885 -0.4972  1.4101
 6221SOL     OW30298   0.151   0.135   1.111 -0.0073  0.2295 -0.0031
 6221SOL    HW130299   0.157   0.094   1.198  0.9077 -0.8316 -0.5684
 6221SOL    HW230300   0.157   0.067   1.044  1.1627  0.0970  0.2355
 6222SOL     OW30301   0.123   4.095   8.470  0.0190  0.3592  0.0178
 6222SOL    HW130302   0.121   4.070   8.563  0.6732 -0.0469 -0.0736
 6222SOL    HW230303   0.211   4.132   8.463 -0.1400  0.8596  0.6393
 6223SOL     OW30304   4.667   0.657   9.053 -0.4350 -0.2349 -0.2657
 6223SOL    HW130305   4.580   0.660   9.091 -0.2699 -0.0926  0.1005
 6223SOL    HW230306   4.705   0.594   9.114  0.4417  0.0486 -0.5123
 6224SOL     OW30307   3.951   2.520   9.480 -0.1039 -0.1261  0.3628
 6224SOL    HW130308   3.960   2.553   9.391 -0.1018  0.0651  0.4332
 6224SOL    HW230309   4.002   2.439   9.478  0.3523  0.3032 -3.7096
 6225SOL     OW30310   4.470   1.117  13.569  0.5257 -0.2469 -0.1767
 6225SOL    HW130311   4.525   1.041  13.588  1.7546  0.8241  0.5413
 6225SOL    HW230312   4.382   1.078  13.577  0.2378 -0.2039 -3.0864
 6226SOL     OW30313   1.849   0.772  16.044 -0.5065 -0.3229  0.6923
 6226SOL    HW130314   1.923   0.720  16.076  0.9626 -0.0176 -2.2561
 6226SOL    HW230315   1.786   0.711  16.084 -1.4772  1.2641  1.5640
 6227SOL     OW30316   0.356   2.896  17.490 -0.2886 -0.1298 -0.3453
 6227SOL    HW130317   0.265   2.890  17.521 -0.0253 -0.9587  0.2839
 6227SOL    HW230318   0.362   2.825  17.425  0.4219 -1.9423  1.6890
 6228SOL     OW30319   2.106   0.596   6.292  0.0472  0.2363 -0.1225
 6228SOL    HW130320   2.071   0.582   6.380  0.2309 -0.1006 -0.1032
 6228SOL    HW230321   2.031   0.602   6.233  0.5346 -1.9508 -0.9495
 6229SOL     OW30322   2.179   3.803  10.902  0.1607  0.1764  0.5969
 6229SOL    HW130323   2.155   3.865  10.970 -0.1122  1.0607 -0.2934
 6229SOL    HW230324   2.266   3.780  10.934 -0.9344 -0.2259  3.2267
 6230SOL     OW30325   1.068   3.979   5.253 -0.5406 -0.3402  0.0711
 6230SOL    HW130326   1.104   3.945   5.335  1.3169  1.2910 -0.0608
 6230SOL    HW230327   1.142   4.036   5.230 -1.4794  0.3118 -1.3464
 6231SOL     OW30328   2.451   4.373  17.450  0.0231  0.5762 -0.0313
 6231SOL    HW130329   2.465   4.282  17.423 -0.5849  0.9636 -1.6820
 6231SOL    HW230330   2.359   4.373  17.479 -0.0345  2.4819 -0.2225
 6232SOL     OW30331   4.042   0.468   6.956 -0.0395  0.0600  0.2671
 6232SOL    HW130332   4.131   0.455   6.988 -0.0851 -1.7801 -0.3737
 6232SOL    HW230333   4.002   0.503   7.035  2.9360 -0.6037  2.0837
 6233SOL     OW30334   2.337   0.302   8.385  0.0592 -0.2237 -0.2075
 6233SOL    HW130335   2.297   0.215   8.395 -0.8647  0.1281 -0.8587
 6233SOL    HW230336   2.260   0.358   8.371  0.2703  0.1097 -0.0343
 6234SOL     OW30337   3.178   2.364   3.020 -0.0039  0.8424  0.3097
 6234SOL    HW130338   3.266   2.394   2.997  0.3623 -1.5820 -1.4087
 6234SOL    HW230339   3.125   2.409   2.955 -2.4582 -1.5810  0.6536
 6235SOL     OW30340   1.657   4.569   2.818  0.0370  0.1374  0.2519
 6235SOL    HW130341   1.697   4.546   2.734  2.2291 -1.9155  1.8352
 6235SOL    HW230342   1.590   4.628   2.783 -0.7078  0.2298  1.8340
 6236SOL     OW30343   3.840   3.981   0.625 -0.2526  0.6657  0.1111
 6236SOL    HW130344   3.791   3.933   0.692  1.8253  0.8660  1.7644
 6236SOL    HW230345   3.927   3.983   0.663  0.3109  2.4092 -1.3039
 6237SOL     OW30346   0.946   3.931   1.315  0.0660 -0.1400  0.5122
 6237SOL    HW130347   0.896   4.004   1.278  0.5591  1.0383  2.1514
 6237SOL    HW230348   0.937   3.945   1.409  0.4482  4.0321 -0.0607
 6238SOL     OW30349   0.625   0.791   1.386 -0.5316  0.2835 -0.5027
 6238SOL    HW130350   0.640   0.845   1.464 -0.4801  0.3076 -0.5291
 6238SOL    HW230351   0.545   0.742   1.405  0.9207 -1.3964  1.2540
 6239SOL     OW30352   1.936   2.413   9.363  0.1653  0.1877  0.1456
 6239SOL    HW130353   1.845   2.430   9.387  0.7000  1.6435  1.1314
 6239SOL    HW230354   1.931   2.419   9.268 -1.1306  0.0882  0.2123
 6240SOL     OW30355   1.643   4.139   5.342 -0.0783 -0.0019  0.6329
 6240SOL    HW130356   1.637   4.229   5.373  1.5248  1.1371 -2.4644
 6240SOL    HW230357   1.559   4.103   5.371 -0.9275  1.8541  0.4358
 6241SOL     OW30358   0.926   0.846   4.385  0.0612 -0.3478  0.4036
 6241SOL    HW130359   0.969   0.850   4.470 -1.3147  2.6427  0.9454
 6241SOL    HW230360   0.845   0.894   4.403  0.4461  0.1165  0.8722
 6242SOL     OW30361   3.479   3.362   3.891 -0.0499 -0.0867  0.3800
 6242SOL    HW130362   3.517   3.346   3.978 -1.6366 -0.6129  0.9927
 6242SOL    HW230363   3.433   3.279   3.873  0.8721 -0.8154  1.3633
 6243SOL     OW30364   4.130   3.915   8.825 -0.2119  0.3362 -0.0701
 6243SOL    HW130365   4.213   3.873   8.847  0.3640  2.3355  1.5558
 6243SOL    HW230366   4.150   3.999   8.865  2.1467  0.5192 -1.6165
 6244SOL     OW30367   1.531   3.774   0.600 -0.0749  0.0181  0.2433
 6244SOL    HW130368   1.520   3.842   0.666 -0.4335 -0.4570  0.6679
 6244SOL    HW230369   1.621   3.748   0.624 -1.6465 -4.3238  1.5371
 6245SOL     OW30370   3.342   0.844   5.063  0.4299 -0.2160 -0.3100
 6245SOL    HW130371   3.306   0.922   5.107  0.5925  0.5485 -1.5427
 6245SOL    HW230372   3.262   0.800   5.037  0.1311  0.2527 -0.1840
 6246SOL     OW30373   1.214   1.999  10.218  0.4141  0.8907  0.1735
 6246SOL    HW130374   1.227   2.048  10.137  4.8009  0.4854  0.6362
 6246SOL    HW230375   1.148   1.935  10.189 -0.2429  1.6347  0.0284
 6247SOL     OW30376   0.901   1.418   3.869  0.7108  0.3449  0.1230
 6247SOL    HW130377   0.838   1.464   3.925  0.1697  1.2170 -1.1901
 6247SOL    HW230378   0.986   1.443   3.905  0.4478  2.0724 -0.4518
 6248SOL     OW30379   1.554   4.679   9.927 -0.7722 -0.0101 -0.4446
 6248SOL    HW130380   1.623   4.700   9.990 -0.9400 -0.8547  0.0086
 6248SOL    HW230381   1.496   0.013   9.949 -1.1442 -0.9142  1.6026
 6249SOL     OW30382   2.438   4.461  12.330  0.2119  0.1288 -0.3232
 6249SOL    HW130383   2.462   4.410  12.408  0.1840  1.7708  0.7665
 6249SOL    HW230384   2.344   4.449  12.322  0.1007  0.0644  1.0269
 6250SOL     OW30385   4.337   4.508  17.454 -0.1397 -0.1258  0.6977
 6250SOL    HW130386   4.383   4.578  17.408  1.8514 -3.1590 -1.9352
 6250SOL    HW230387   4.267   4.499  17.389 -0.6642  1.2465  1.0825
 6251SOL     OW30388   1.605   1.400   3.223 -1.0301 -0.4487  0.1389
 6251SOL    HW130389   1.638   1.426   3.138  0.1983  0.8990  1.0225
 6251SOL    HW230390   1.521   1.359   3.204 -1.3265  0.2078  0.0288
 6252SOL     OW30391   3.586   3.657   5.370 -0.0701 -0.3141  0.0784
 6252SOL    HW130392   3.564   3.588   5.308 -0.0762  0.8518 -1.2207
 6252SOL    HW230393   3.510   3.715   5.361 -0.6499 -1.0714  0.1055
 6253SOL     OW30394   0.845   1.930  12.433 -0.3615  0.7649  0.2417
 6253SOL    HW130395   0.791   1.897  12.361 -0.9853  1.0093  0.5988
 6253SOL    HW230396   0.930   1.926  12.388 -1.5513  0.9195 -2.0237
 6254SOL     OW30397   1.559   2.952  13.207 -0.4243  0.0149 -0.1879
 6254SOL    HW130398   1.650   2.939  13.179 -0.2882  0.2800  0.1349
 6254SOL    HW230399   1.558   3.002  13.288  0.2146 -0.0922 -0.1178
 6255SOL     OW30400   0.203   0.588   9.760  0.4765  0.4371  0.2930
 6255SOL    HW130401   0.131   0.537   9.724  1.0730  0.4064 -0.8784
 6255SOL    HW230402   0.257   0.518   9.796  1.0876 -0.3386 -2.0854
 6256SOL     OW30403   1.110   1.422   6.233  0.5514  0.3504 -0.0733
 6256SOL    HW130404   1.196   1.428   6.276 -0.6709  1.5213  2.2196
 6256SOL    HW230405   1.063   1.498   6.267  0.0059  0.0527 -0.1607
 6257SOL     OW30406   4.605   3.005   1.303 -0.4459 -0.2445 -0.6154
 6257SOL    HW130407   4.691   3.034   1.334  0.0666 -2.2903 -0.1746
 6257SOL    HW230408   4.550   3.075   1.341 -0.6977 -1.6481  1.6267
 6258SOL     OW30409   1.934   0.686   3.114 -0.1210 -0.1658  0.5060
 6258SOL    HW130410   1.944   0.776   3.146 -1.5927 -0.6958  2.4466
 6258SOL    HW230411   1.929   0.649   3.203  0.0912 -1.7545 -0.1356
 6259SOL     OW30412   1.715   4.715  11.666  0.4084 -0.3977 -0.4147
 6259SOL    HW130413   1.787   4.673  11.620  1.6473  1.9908 -0.6322
 6259SOL    HW230414   1.710   0.057  11.616  1.1251  1.2240  2.1401
 6260SOL     OW30415   3.148   4.386   4.287 -0.1958  0.1855  0.9552
 6260SOL    HW130416   3.184   4.420   4.205  0.3740 -0.3765  0.9711
 6260SOL    HW230417   3.140   4.472   4.329  1.1846  1.1016 -0.6329
 6261SOL     OW30418   1.757   4.409  10.079  0.1271 -0.1194  0.0736
 6261SOL    HW130419   1.744   4.441   9.990 -1.2962 -5.8524 -1.8100
 6261SOL    HW230420   1.728   4.318  10.077 -0.1809 -0.0762  2.0158
 6262SOL     OW30421   0.892   1.005  14.285 -0.7074 -0.1410 -0.8983
 6262SOL    HW130422   0.935   0.946  14.222  0.3922  0.3713 -0.6229
 6262SOL    HW230423   0.813   1.034  14.238 -1.3681  0.2655  0.4781
 6263SOL     OW30424   0.594   2.522   5.397 -0.4650 -0.3159 -0.1964
 6263SOL    HW130425   0.632   2.463   5.332  0.3870 -1.7250  1.5736
 6263SOL    HW230426   0.658   2.592   5.402 -0.9812  0.0929  0.7093
 6264SOL     OW30427   3.284   0.551  15.799  0.4187 -0.2789  0.1468
 6264SOL    HW130428   3.253   0.635  15.764 -1.3136 -1.1280 -0.3370
 6264SOL    HW230429   3.240   0.486  15.745  0.4892 -0.2039 -0.0025
 6265SOL     OW30430   3.943   3.631   5.059  0.0589  0.0226  0.0450
 6265SOL    HW130431   4.004   3.582   5.113 -1.4788 -2.8855 -0.8710
 6265SOL    HW230432   3.989   3.627   4.975 -1.7384 -0.6863 -0.9138
 6266SOL     OW30433   0.923   1.838  17.551 -0.3636  0.2756 -0.2346
 6266SOL    HW130434   0.897   1.813  17.462 -0.1104 -2.0189  0.3459
 6266SOL    HW230435   0.901   1.931  17.555  0.4941  0.4008  1.6057
 6267SOL     OW30436   4.082   3.119   7.718  0.5304 -0.8847  0.5238
 6267SOL    HW130437   4.084   3.202   7.766 -2.2130 -1.7461  2.1323
 6267SOL    HW230438   4.092   3.061   7.794 -1.3268 -2.3141 -0.3314
 6268SOL     OW30439   1.094   4.638   7.327 -0.0226 -0.1752  0.1513
 6268SOL    HW130440   1.109   4.619   7.235 -0.4799  0.7644 -0.1104
 6268SOL    HW230441   1.066   4.551   7.356 -2.0098  0.5234  0.2971
 6269SOL     OW30442   4.404   2.830   4.988 -0.0639  0.1967  0.0017
 6269SOL    HW130443   4.414   2.872   5.074 -3.5444 -1.1894  1.0873
 6269SOL    HW230444   4.319   2.851   4.948 -0.5583 -0.4172  0.7212
 6270SOL     OW30445   2.989   0.240   9.458 -0.1931 -0.8790 -0.0629
 6270SOL    HW130446   2.895   0.257   9.446 -0.3105 -1.8267 -0.5257
 6270SOL    HW230447   3.000   0.256   9.552  0.0532  3.2072 -0.7618
 6271SOL     OW30448   2.695   1.783   4.781 -0.0609  0.1432 -0.0210
 6271SOL    HW130449   2.703   1.857   4.721  0.4106 -0.6875 -0.9746
 6271SOL    HW230450   2.782   1.748   4.765  0.1807  0.2699  1.0112
 6272SOL     OW30451   2.248   2.314   6.300  0.1283  0.0736 -0.5492
 6272SOL    HW130452   2.308   2.387   6.316  0.3519 -0.2368  0.0348
 6272SOL    HW230453   2.206   2.351   6.222 -1.4761 -0.7397 -0.0658
 6273SOL     OW30454   1.586   2.006   8.007 -0.4225 -0.2895  0.3551
 6273SOL    HW130455   1.618   2.078   7.953 -1.9411 -0.2909 -0.5447
 6273SOL    HW230456   1.639   1.935   7.972  1.7865  1.1859  0.7148
 6274SOL     OW30457   1.820   0.787  12.063  0.6177 -0.0749 -0.7933
 6274SOL    HW130458   1.758   0.730  12.017  0.5171 -0.0757 -0.6599
 6274SOL    HW230459   1.758   0.855  12.090 -0.4707 -1.3595 -0.0646
 6275SOL     OW30460   3.891   3.431   2.805  0.0676 -0.0524 -0.3961
 6275SOL    HW130461   3.847   3.462   2.885  1.5247  0.8146  0.0687
 6275SOL    HW230462   3.918   3.344   2.835 -1.9034  0.1033  1.9462
 6276SOL     OW30463   3.002   1.892   8.543  0.3706  0.1796 -0.6998
 6276SOL    HW130464   2.923   1.837   8.541 -0.6089  1.5522  0.1842
 6276SOL    HW230465   3.067   1.823   8.529  0.4211  0.0575  0.1217
 6277SOL     OW30466   0.610   3.525   2.401  0.1055  0.3458 -0.4510
 6277SOL    HW130467   0.581   3.615   2.416 -0.2914  0.3582 -1.2675
 6277SOL    HW230468   0.520   3.495   2.385  1.0351 -1.6437 -2.0731
 6278SOL     OW30469   0.276   0.666  14.574  0.4271  0.5738  0.0010
 6278SOL    HW130470   0.331   0.742  14.591 -0.3305  0.8450  1.2257
 6278SOL    HW230471   0.243   0.684  14.485  1.5038  0.7643 -0.3604
 6279SOL     OW30472   4.133   0.440   9.126 -0.2580  0.0293  0.1212
 6279SOL    HW130473   4.154   0.523   9.083 -1.7183 -0.9648 -2.5366
 6279SOL    HW230474   4.204   0.414   9.185  0.6775  0.4487 -0.8267
 6280SOL     OW30475   1.984   3.203   3.206 -0.0963 -0.2654  0.6161
 6280SOL    HW130476   1.890   3.186   3.212 -0.4579  1.8114  0.7547
 6280SOL    HW230477   1.987   3.297   3.224  2.2337 -0.1009 -0.5989
 6281SOL     OW30478   3.688   0.780   5.923 -0.0611 -0.1179  0.6127
 6281SOL    HW130479   3.642   0.839   5.983  0.7660  1.1799 -0.0456
 6281SOL    HW230480   3.641   0.699   5.940  1.6093 -1.3595 -0.6305
 6282SOL     OW30481   3.831   1.904   1.834  0.4339 -0.4496 -0.5110
 6282SOL    HW130482   3.854   1.825   1.884  1.8453 -0.6913 -1.5482
 6282SOL    HW230483   3.771   1.868   1.769  0.9480 -1.9882 -0.1438
 6283SOL     OW30484   4.601   2.131   5.843 -0.1786  0.3346 -0.3482
 6283SOL    HW130485   4.643   2.084   5.915  0.9357  0.3168 -1.0212
 6283SOL    HW230486   4.634   2.221   5.841  1.1000 -0.1914 -2.0613
 6284SOL     OW30487   1.501   3.997  17.578 -0.2438 -0.0875  0.1749
 6284SOL    HW130488   1.459   4.064  17.524  1.3992  1.3095  0.6224
 6284SOL    HW230489   1.524   4.053  17.652  1.9914 -0.0745 -0.5245
 6285SOL     OW30490   3.955   2.114   8.310 -0.1090  0.5608 -0.3223
 6285SOL    HW130491   3.967   2.176   8.239  2.7885 -1.3282 -1.4517
 6285SOL    HW230492   3.863   2.088   8.304  0.1853 -0.2746 -1.0534
 6286SOL     OW30493   3.289   3.407   8.941  0.0938  0.1363  0.3438
 6286SOL    HW130494   3.347   3.361   9.002 -1.0362 -0.4076  1.0258
 6286SOL    HW230495   3.278   3.497   8.974  0.1004  0.1651  0.2667
 6287SOL     OW30496   3.205   0.461   2.895 -0.4697  0.4567  0.8339
 6287SOL    HW130497   3.218   0.410   2.815  2.4835  0.6870  1.1554
 6287SOL    HW230498   3.254   0.403   2.953 -0.2151  1.3023  1.4625
 6288SOL     OW30499   1.915   0.651  11.781 -0.0286 -0.3623  0.7180
 6288SOL    HW130500   1.891   0.559  11.783 -0.4730 -0.2402  0.9450
 6288SOL    HW230501   1.960   0.646  11.866 -0.0005  1.6042  0.8276
 6289SOL     OW30502   1.912   0.493   5.967 -0.6579 -0.1121  0.5435
 6289SOL    HW130503   1.981   0.444   5.922 -1.0419  2.4802 -2.8554
 6289SOL    HW230504   1.910   0.434   6.042 -1.5839  0.2648  0.8090
 6290SOL     OW30505   0.857   0.517   0.142 -0.6125  0.0662 -0.5802
 6290SOL    HW130506   0.949   0.535   0.128 -0.7153 -0.5041 -1.9408
 6290SOL    HW230507   0.820   0.532   0.055 -1.2375  1.4217 -0.0774
 6291SOL     OW30508   1.549   4.367  15.368 -0.0758  0.5995  0.2039
 6291SOL    HW130509   1.494   4.395  15.442  1.4122 -0.6734  1.8011
 6291SOL    HW230510   1.596   4.450  15.371 -0.4867  0.8040  1.3112
 6292SOL     OW30511   2.980   3.905   9.156 -0.2421 -0.1519 -0.5516
 6292SOL    HW130512   3.025   3.988   9.172 -1.2124 -0.0911  1.8890
 6292SOL    HW230513   2.949   3.921   9.067 -1.1578  1.1943  0.0147
 6293SOL     OW30514   2.657   2.773   4.422  0.4632 -0.3739  0.2359
 6293SOL    HW130515   2.709   2.761   4.502  1.4132 -0.2768 -0.3585
 6293SOL    HW230516   2.575   2.736   4.453  0.6148 -0.4803  0.5119
 6294SOL     OW30517   4.098   3.571   3.246  0.7076  0.6444  0.1602
 6294SOL    HW130518   4.042   3.494   3.258  0.9144  0.6776  1.3863
 6294SOL    HW230519   4.130   3.558   3.157 -1.3496 -0.4375 -0.4233
 6295SOL     OW30520   4.587   3.887   3.091  0.2551  0.7516 -0.4016
 6295SOL    HW130521   4.550   3.842   3.167  2.7294  1.0941  1.0234
 6295SOL    HW230522   4.662   3.929   3.135  1.1885 -0.8720 -0.4516
 6296SOL     OW30523   2.982   2.949   2.610  0.4939  0.5067  0.0074
 6296SOL    HW130524   3.047   2.910   2.668 -1.0520  0.2302  1.5511
 6296SOL    HW230525   3.000   3.042   2.625 -2.8122  1.2758 -0.7278
 6297SOL     OW30526   0.077   0.324   9.061  0.4877  0.0367 -0.5658
 6297SOL    HW130527   0.119   0.401   9.100  0.9111 -0.8383  0.7093
 6297SOL    HW230528   0.013   0.292   9.124 -1.5234 -0.4696 -2.8588
 6298SOL     OW30529   2.598   1.355   3.421 -0.0958 -0.0080 -0.7055
 6298SOL    HW130530   2.667   1.349   3.487 -0.2275  2.3369 -0.3463
 6298SOL    HW230531   2.525   1.378   3.479  1.4177  1.6520  0.5577
 6299SOL     OW30532   2.603   2.380   4.887 -0.0132  0.1146 -0.2227
 6299SOL    HW130533   2.611   2.309   4.824 -2.5324  0.3716 -0.8413
 6299SOL    HW230534   2.686   2.427   4.879  0.1289  0.0171  0.7154
 6300SOL     OW30535   1.268   3.598   3.441  0.3696  0.5241  0.6437
 6300SOL    HW130536   1.297   3.681   3.403  1.3471  0.7013  1.7899
 6300SOL    HW230537   1.222   3.632   3.518  0.5115 -1.4802  1.6000
 6301SOL     OW30538   1.632   3.488   3.161 -0.0693 -0.0770 -0.1344
 6301SOL    HW130539   1.617   3.553   3.230 -1.7140 -0.5569 -0.0437
 6301SOL    HW230540   1.579   3.421   3.204 -1.4595  1.1573  0.0766
 6302SOL     OW30541   3.168   1.842   6.392 -0.5724 -0.0653  0.6915
 6302SOL    HW130542   3.155   1.755   6.355  1.4494  1.1024 -2.7572
 6302SOL    HW230543   3.262   1.846   6.404 -0.4052  0.2545 -0.7410
 6303SOL     OW30544   2.627   1.479   3.159 -0.5340  0.0505  0.5087
 6303SOL    HW130545   2.581   1.400   3.132 -0.1943  0.5780 -1.6243
 6303SOL    HW230546   2.651   1.465   3.251  1.2378  1.7352  0.3027
 6304SOL     OW30547   2.351   1.121  17.389 -0.5039  0.2517  0.7088
 6304SOL    HW130548   2.385   1.170  17.314 -1.4631  0.0749  0.1613
 6304SOL    HW230549   2.274   1.084  17.345 -1.5296  2.7889  0.3885
 6305SOL     OW30550   2.445   1.012  17.030 -0.0604  0.3109 -0.4963
 6305SOL    HW130551   2.468   1.085  17.087 -0.2068  0.1534 -0.2332
 6305SOL    HW230552   2.361   1.035  16.989 -1.2837  0.6163  2.1970
 6306SOL     OW30553   0.782   3.162   4.371 -0.0981  0.2563  0.6137
 6306SOL    HW130554   0.827   3.081   4.398  0.4149  0.1998 -0.4124
 6306SOL    HW230555   0.749   3.136   4.286  0.9723 -1.4152  0.7005
 6307SOL     OW30556   3.565   3.743   2.724 -0.5007  0.5449 -0.2400
 6307SOL    HW130557   3.653   3.781   2.718 -1.1142  1.5355 -2.7969
 6307SOL    HW230558   3.550   3.759   2.818 -2.8314  0.6415 -0.6230
 6308SOL     OW30559   4.497   1.877  13.883 -0.9968  0.1311  0.1475
 6308SOL    HW130560   4.421   1.844  13.834  0.5506 -2.4187 -0.5675
 6308SOL    HW230561   4.480   1.970  13.871  0.9277  0.3102 -1.1137
 6309SOL     OW30562   2.026   1.458   1.247 -1.2065  0.6607  0.4082
 6309SOL    HW130563   2.103   1.450   1.304 -1.2243  0.1530  0.3614
 6309SOL    HW230564   2.028   1.366   1.220 -3.6594  0.9542 -0.7806
 6310SOL     OW30565   2.402   3.992  14.354  0.0744  0.4868  0.2699
 6310SOL    HW130566   2.462   4.066  14.348  2.3348 -1.3710 -0.2755
 6310SOL    HW230567   2.375   3.997  14.446  1.7842  0.7634  0.7659
 6311SOL     OW30568   0.118   1.701  15.472  0.4379 -0.4724  0.3735
 6311SOL    HW130569   0.210   1.694  15.494  0.1725 -1.5290  1.1585
 6311SOL    HW230570   0.104   1.668  15.383  0.8775  0.5532 -0.0759
 6312SOL     OW30571   0.238   4.442  10.316 -0.6464 -0.0466  0.1064
 6312SOL    HW130572   0.225   4.458  10.409  1.6915  1.4637  0.1821
 6312SOL    HW230573   0.265   4.531  10.292 -0.0864  0.2734  1.8898
 6313SOL     OW30574   4.092   0.471  12.383  0.2015 -0.2128 -0.1583
 6313SOL    HW130575   4.180   0.506  12.400 -0.6115  1.7495  0.0011
 6313SOL    HW230576   4.033   0.541  12.411  0.7513  0.9592 -1.9565
 6314SOL     OW30577   3.415   4.428   7.878  0.1331 -0.3436 -0.4383
 6314SOL    HW130578   3.397   4.443   7.785  3.3087  1.1591 -0.7986
 6314SOL    HW230579   3.509   4.416   7.890  0.1534  0.4492  0.2374
 6315SOL     OW30580   4.314   2.506   8.565  0.4550  0.4282 -0.3967
 6315SOL    HW130581   4.385   2.480   8.624  1.1558 -0.7679 -1.7647
 6315SOL    HW230582   4.299   2.422   8.521 -2.1003  1.2302 -1.0157
 6316SOL     OW30583   2.064   4.710   9.249  0.0166  0.1415  0.4186
 6316SOL    HW130584   2.108   0.004   9.170  2.6261  0.7514  2.1066
 6316SOL    HW230585   2.014   0.049   9.275 -0.5004 -0.2099  0.4623
 6317SOL     OW30586   3.773   4.725  14.115  0.3750  0.6231 -0.7269
 6317SOL    HW130587   3.831   0.013  14.043  2.4447 -0.7167  0.4286
 6317SOL    HW230588   3.690   0.032  14.103  1.4886  2.9046  0.1916
 6318SOL     OW30589   1.045   4.515  14.609  0.0696 -0.1779 -0.2752
 6318SOL    HW130590   1.102   4.589  14.589 -0.8671  1.0215  1.4895
 6318SOL    HW230591   1.087   4.465  14.679  1.4892 -1.8382 -2.3118
 6319SOL     OW30592   2.924   1.604   7.716 -0.2410 -0.2852 -0.2421
 6319SOL    HW130593   2.907   1.543   7.644 -1.6845  0.7046 -0.7389
 6319SOL    HW230594   2.998   1.560   7.757  1.9077  2.1288 -1.5237
 6320SOL     OW30595   1.034   0.810   7.822 -0.7525  0.2005  0.3673
 6320SOL    HW130596   1.076   0.724   7.829  1.0806  1.1592  1.0287
 6320SOL    HW230597   1.012   0.809   7.729 -0.5946  2.3014  0.3244
 6321SOL     OW30598   2.403   0.569   0.067  0.2550 -0.1723  0.3063
 6321SOL    HW130599   2.404   0.474   0.058  1.9026 -0.1836  0.5705
 6321SOL    HW230600   2.441   0.588   0.153 -0.4073 -0.5285  0.6720
 6322SOL     OW30601   2.673   0.653   5.199  0.2283 -0.0235 -0.6013
 6322SOL    HW130602   2.666   0.567   5.157  0.6035 -0.9231  1.1829
 6322SOL    HW230603   2.603   0.643   5.263  0.6000  0.6598 -0.0983
 6323SOL     OW30604   0.434   3.787  15.626  0.1585 -0.1483 -0.5379
 6323SOL    HW130605   0.362   3.842  15.596 -1.3647 -2.3980 -1.0076
 6323SOL    HW230606   0.446   3.723  15.555 -0.0638 -2.1913  1.2632
 6324SOL     OW30607   1.281   3.630   8.238 -0.1996 -1.0749 -0.1207
 6324SOL    HW130608   1.363   3.646   8.190  0.7980  2.5907  2.8020
 6324SOL    HW230609   1.283   3.710   8.290  0.9847 -0.5712 -0.9384
 6325SOL     OW30610   1.379   0.799  13.088  1.0472 -0.2670 -0.3931
 6325SOL    HW130611   1.422   0.721  13.053  0.2045 -0.6712 -0.5158
 6325SOL    HW230612   1.289   0.773  13.071  1.3863 -1.0354 -1.0103
 6326SOL     OW30613   0.081   0.367   4.685  0.1173 -0.0963 -0.7037
 6326SOL    HW130614   0.155   0.322   4.727  2.0458  2.7272 -1.0566
 6326SOL    HW230615   0.036   0.297   4.637 -1.9901  0.2602  0.7397
 6327SOL     OW30616   2.668   2.524   3.594 -0.5154  0.0740  0.8379
 6327SOL    HW130617   2.741   2.488   3.544 -1.3422 -1.4128  0.7102
 6327SOL    HW230618   2.670   2.615   3.563  0.0084 -1.1544 -2.6681
 6328SOL     OW30619   2.701   3.019   1.494  0.5821  0.1233 -0.5273
 6328SOL    HW130620   2.768   3.062   1.441  2.6989 -0.8930  1.3009
 6328SOL    HW230621   2.644   3.096   1.493  1.1644  0.5524 -0.6400
 6329SOL     OW30622   1.109   3.930  13.321 -0.7454 -0.2113  0.1678
 6329SOL    HW130623   1.091   3.976  13.403  1.5818  1.9348 -0.5191
 6329SOL    HW230624   1.093   4.003  13.261  1.1366 -0.1045 -0.2108
 6330SOL     OW30625   3.448   2.020  10.342 -0.2913  0.0011  0.3154
 6330SOL    HW130626   3.384   1.969  10.392  0.0454 -0.5258  0.2017
 6330SOL    HW230627   3.517   2.044  10.404  2.3768  0.6716 -2.9508
 6331SOL     OW30628   0.785   1.449  13.002 -0.0609 -0.2780  0.6614
 6331SOL    HW130629   0.815   1.371  12.956 -2.1990 -0.5256 -0.3144
 6331SOL    HW230630   0.719   1.420  13.064 -0.0291 -1.6715  0.0337
 6332SOL     OW30631   0.761   2.121   4.883 -0.1850  0.3177  0.1172
 6332SOL    HW130632   0.724   2.209   4.873  1.4822  1.0794  0.4531
 6332SOL    HW230633   0.764   2.086   4.794  2.1187 -0.6093  0.5595
 6333SOL     OW30634   1.910   1.724   0.931 -0.6605 -0.0326  0.0456
 6333SOL    HW130635   1.965   1.748   1.005 -1.6571 -0.3566  0.8806
 6333SOL    HW230636   1.958   1.645   0.906  1.2153  0.9570  0.4841
 6334SOL     OW30637   0.102   3.829   7.136 -0.5228 -0.1845  0.3287
 6334SOL    HW130638   0.152   3.825   7.055 -0.3991 -3.8340  0.6046
 6334SOL    HW230639   0.045   3.752   7.132 -1.9296  1.0135 -2.8678
 6335SOL     OW30640   0.428   0.596  11.781 -0.1035  0.4130  0.1298
 6335SOL    HW130641   0.408   0.531  11.713 -0.6839  2.0860 -1.2991
 6335SOL    HW230642   0.428   0.545  11.862  1.5973 -1.0585 -0.7835
 6336SOL     OW30643   2.415   0.014  13.862 -0.2108 -0.4418  0.2579
 6336SOL    HW130644   2.431   0.066  13.784  0.9317 -3.5773 -1.6061
 6336SOL    HW230645   2.476   0.057  13.921 -0.7004 -0.3097  0.6703
 6337SOL     OW30646   2.164   2.084  11.575  0.2621 -0.0794 -0.3978
 6337SOL    HW130647   2.225   2.120  11.510 -0.5384  1.7023 -0.1565
 6337SOL    HW230648   2.147   2.169  11.614  1.2024  0.0872 -0.3408
 6338SOL     OW30649   2.486   3.080   6.724  0.4903 -0.1674 -0.1370
 6338SOL    HW130650   2.457   3.009   6.781  0.3491 -1.1405 -1.4230
 6338SOL    HW230651   2.511   3.032   6.645 -0.7639  2.0158 -1.8557
 6339SOL     OW30652   0.539   1.735  16.567  0.0411  0.4375  0.2359
 6339SOL    HW130653   0.459   1.710  16.521  0.1818 -1.4843  1.0485
 6339SOL    HW230654   0.532   1.665  16.632  1.4551  1.0998  1.1031
 6340SOL     OW30655   2.421   1.171  17.659 -0.6308 -0.3826 -0.6020
 6340SOL    HW130656   2.397   1.199  17.570  0.7492 -1.0669 -1.1863
 6340SOL    HW230657   2.354   1.215  17.711  1.7150  0.8220  1.3470
 6341SOL     OW30658   2.875   1.016   8.002 -0.2215  0.7382  0.4972
 6341SOL    HW130659   2.865   1.098   7.953  1.8815  0.1646 -0.9037
 6341SOL    HW230660   2.932   1.036   8.077  0.7038  1.9008 -0.5219
 6342SOL     OW30661   1.211   1.385   1.927  0.2536 -0.3079  0.1612
 6342SOL    HW130662   1.214   1.480   1.933 -1.1274 -0.2922  0.7182
 6342SOL    HW230663   1.266   1.365   1.851  1.2208  3.4741 -0.1227
 6343SOL     OW30664   2.403   2.403  17.283  0.5106 -0.0464 -0.1189
 6343SOL    HW130665   2.309   2.406  17.267  0.4089  0.5447  0.5848
 6343SOL    HW230666   2.442   2.452  17.211 -0.6697  0.3935 -0.4512
 6344SOL     OW30667   3.767   0.736   8.737  0.2790  0.1695  0.9058
 6344SOL    HW130668   3.800   0.657   8.696  0.1120  0.1556  0.7972
 6344SOL    HW230669   3.676   0.737   8.706  0.7085 -1.6833 -0.4219
 6345SOL     OW30670   0.950   4.060  12.668 -0.3849  0.0014 -0.2155
 6345SOL    HW130671   0.890   4.130  12.641 -0.6009 -0.0759  0.0562
 6345SOL    HW230672   0.930   4.001  12.596  1.4135  0.6737 -1.2672
 6346SOL     OW30673   0.607   4.105  11.959  0.4760  0.1245  0.1232
 6346SOL    HW130674   0.637   4.014  11.968 -1.4822 -0.4238  1.1483
 6346SOL    HW230675   0.634   4.127  11.870  0.2757 -1.1434 -0.2589
 6347SOL     OW30676   4.206   3.200   7.267  0.4979  1.1934  0.5743
 6347SOL    HW130677   4.267   3.128   7.254  0.5559  1.5615 -1.1929
 6347SOL    HW230678   4.125   3.151   7.258  2.8340 -2.8901  1.7309
 6348SOL     OW30679   2.584   1.119   6.179 -0.5940 -0.1000  0.1300
 6348SOL    HW130680   2.570   1.210   6.203 -0.6300 -0.3935  1.2334
 6348SOL    HW230681   2.644   1.087   6.246 -0.4148  0.3279  0.1735
 6349SOL     OW30682   1.233   3.840   2.627  0.2431  0.2428  0.6351
 6349SOL    HW130683   1.251   3.881   2.711  0.6028  0.5243  0.4188
 6349SOL    HW230684   1.174   3.911   2.599 -0.8512 -0.6994  0.5144
 6350SOL     OW30685   2.960   0.786   3.857  0.1583  0.4760  0.1935
 6350SOL    HW130686   3.021   0.714   3.837  1.0246  0.6090  2.3669
 6350SOL    HW230687   2.995   0.818   3.940 -1.2168 -0.8708  1.2795
 6351SOL     OW30688   2.960   0.795   2.085 -0.6305  0.1215 -0.0537
 6351SOL    HW130689   3.026   0.861   2.105  0.6126 -0.7719 -1.1892
 6351SOL    HW230690   2.900   0.804   2.159 -1.6711 -2.5267 -0.5605
 6352SOL     OW30691   0.449   3.494  10.936 -0.0118  0.1982 -0.4527
 6352SOL    HW130692   0.528   3.475  10.987  0.3452  2.6042 -0.1330
 6352SOL    HW230693   0.380   3.480  11.002  0.5415  0.1693  0.1260
 6353SOL     OW30694   2.067   3.836  16.660 -0.2618 -0.2900 -0.2633
 6353SOL    HW130695   1.975   3.863  16.652 -0.5043  0.0734  3.6012
 6353SOL    HW230696   2.054   3.749  16.698 -1.2101 -0.8428 -1.8145
 6354SOL     OW30697   2.199   0.239  10.197  1.4081  0.7288  0.1684
 6354SOL    HW130698   2.120   0.189  10.179  2.2462 -1.3739  2.2375
 6354SOL    HW230699   2.260   0.171  10.228 -1.0904 -0.8966  1.4898
 6355SOL     OW30700   3.001   3.376   1.943  0.5188  0.1669 -0.2000
 6355SOL    HW130701   3.082   3.326   1.944  1.3158  1.5026  2.4186
 6355SOL    HW230702   2.932   3.311   1.959  2.2450 -1.6643 -0.2318
 6356SOL     OW30703   2.599   3.257   1.482  0.4075 -0.5860 -0.0247
 6356SOL    HW130704   2.591   3.283   1.390 -2.2649  0.9124  0.6289
 6356SOL    HW230705   2.583   3.340   1.527 -1.0126 -0.7714 -0.1953
 6357SOL     OW30706   1.689   2.401   5.257  0.3252  0.2995 -0.2428
 6357SOL    HW130707   1.677   2.307   5.266  0.5413  0.5034  2.1230
 6357SOL    HW230708   1.697   2.419   5.350 -0.5833 -1.6071  0.2044
 6358SOL     OW30709   0.817   3.750   8.077 -0.3271  0.5709  0.4544
 6358SOL    HW130710   0.868   3.825   8.049 -0.0357  0.6149  1.0890
 6358SOL    HW230711   0.867   3.717   8.152  1.8565  0.8263 -0.9103
 6359SOL     OW30712   2.153   2.178   4.287  0.3053 -0.2525  0.1927
 6359SOL    HW130713   2.065   2.169   4.250  0.1461  0.8981  0.3042
 6359SOL    HW230714   2.170   2.087   4.311 -0.5361 -0.2368  0.8368
 6360SOL     OW30715   3.271   4.582   8.744  0.3668 -0.0519 -0.1206
 6360SOL    HW130716   3.189   4.532   8.749  0.1881  0.3379  0.9195
 6360SOL    HW230717   3.298   4.593   8.835 -0.8779 -1.9688  0.4981
 6361SOL     OW30718   3.327   1.730   4.791 -0.1991  0.0584 -0.5350
 6361SOL    HW130719   3.270   1.657   4.769 -0.5305  0.7274 -1.8837
 6361SOL    HW230720   3.348   1.775   4.709 -1.2308 -0.0559 -0.8564
 6362SOL     OW30721   1.221   3.327   7.728 -0.0455  0.3984  0.0678
 6362SOL    HW130722   1.140   3.376   7.742 -0.1272  0.0956  0.6547
 6362SOL    HW230723   1.211   3.251   7.786  1.2483  0.3039  0.1575
 6363SOL     OW30724   3.622   4.251   4.740  0.3664 -0.3390 -0.3327
 6363SOL    HW130725   3.592   4.326   4.791 -0.0397 -1.3802  0.9703
 6363SOL    HW230726   3.543   4.216   4.699  0.1824 -0.1940 -0.1028
 6364SOL     OW30727   1.265   1.031   3.075 -0.3559  0.2404  0.0140
 6364SOL    HW130728   1.334   0.981   3.031 -0.3088 -0.6817  1.1189
 6364SOL    HW230729   1.202   0.960   3.087  0.7497 -1.1540 -2.3726
 6365SOL     OW30730   4.178   3.379   9.206 -0.3981  0.2249 -0.5181
 6365SOL    HW130731   4.104   3.432   9.177 -0.4749  0.3478 -0.0958
 6365SOL    HW230732   4.175   3.379   9.302  1.5691 -0.6665 -0.4688
 6366SOL     OW30733   4.563   1.937  10.939  0.7488  0.5826 -0.2548
 6366SOL    HW130734   4.643   1.956  10.891  0.4948 -0.3974 -1.0552
 6366SOL    HW230735   4.599   1.926  11.027  0.5897 -1.9838 -0.5309
 6367SOL     OW30736   4.048   3.995   4.209  0.1477 -0.1539  0.4679
 6367SOL    HW130737   4.071   3.968   4.120  0.0176 -2.5538  1.1596
 6367SOL    HW230738   3.985   3.926   4.231  0.5879  0.0656  2.4498
 6368SOL     OW30739   4.216   4.448  15.076  0.6923  0.1880 -0.0444
 6368SOL    HW130740   4.154   4.520  15.067 -0.6516 -0.6055  3.2018
 6368SOL    HW230741   4.238   4.456  15.169 -0.2902  0.6078  0.1440
 6369SOL     OW30742   1.907   1.048   2.166 -0.6906  0.1014 -0.6183
 6369SOL    HW130743   1.833   1.005   2.209  0.9413 -0.3105  1.8196
 6369SOL    HW230744   1.899   1.139   2.193  0.0563 -0.1558  0.4751
 6370SOL     OW30745   4.166   4.722   3.949 -0.4890 -0.5627  0.2050
 6370SOL    HW130746   4.095   4.728   4.013 -1.2959 -1.2920 -0.6151
 6370SOL    HW230747   4.245   4.713   4.002 -0.1897  0.6354 -0.0469
 6371SOL     OW30748   3.234   0.310  14.589 -0.1180 -0.3862 -0.2695
 6371SOL    HW130749   3.231   0.278  14.679  1.5701 -1.2671 -0.5358
 6371SOL    HW230750   3.194   0.240  14.538  1.0452 -0.7026 -0.7285
 6372SOL     OW30751   2.143   2.375  11.639 -0.3409  0.0969  0.1662
 6372SOL    HW130752   2.095   2.403  11.717  2.2177  1.8580  1.1105
 6372SOL    HW230753   2.092   2.418  11.571 -0.6978  0.5823  0.7366
 6373SOL     OW30754   2.024   1.174   1.297 -0.0417  0.3640  0.0780
 6373SOL    HW130755   2.070   1.137   1.372  1.3230  0.2121 -0.8360
 6373SOL    HW230756   1.935   1.154   1.326  0.7277 -0.6969  1.7074
 6374SOL     OW30757   1.892   0.640   8.106 -0.9372 -0.0529 -0.4033
 6374SOL    HW130758   1.854   0.646   8.193 -1.9615 -0.6397 -0.8042
 6374SOL    HW230759   1.875   0.548   8.088 -1.1246  0.1442 -1.2510
 6375SOL     OW30760   4.592   0.104  15.442 -0.0144  0.1181 -0.2937
 6375SOL    HW130761   4.551   0.164  15.504 -1.3370  0.3174 -1.3528
 6375SOL    HW230762   4.675   0.152  15.434  0.9562 -1.6513 -0.7461
 6376SOL     OW30763   2.942   2.810   7.663  0.0886  0.5444  0.4350
 6376SOL    HW130764   2.986   2.727   7.644  0.7699  1.0816 -0.3509
 6376SOL    HW230765   2.996   2.859   7.724  1.1985  0.5171 -0.5250
 6377SOL     OW30766   0.058   1.378   4.917 -0.3319 -0.2874 -0.0030
 6377SOL    HW130767   0.022   1.455   4.962  1.1655 -0.1219  0.9067
 6377SOL    HW230768   0.015   1.360   4.833  1.3271 -0.2849 -0.8519
 6378SOL     OW30769   0.276   2.938   9.142  0.1725  0.1277 -0.4060
 6378SOL    HW130770   0.323   2.879   9.201  1.3361  2.2739  0.8248
 6378SOL    HW230771   0.325   3.020   9.143 -0.4815  0.4739  1.8750
 6379SOL     OW30772   1.840   4.087   4.421 -0.1348 -0.0197 -0.4454
 6379SOL    HW130773   1.923   4.039   4.409  0.0453 -0.4183  2.3373
 6379SOL    HW230774   1.863   4.179   4.426  0.0230 -0.1555  1.3044
 6380SOL     OW30775   0.264   4.161   2.220  0.1568  0.0106  0.0331
 6380SOL    HW130776   0.229   4.207   2.296 -1.9285 -0.8725 -0.3869
 6380SOL    HW230777   0.210   4.083   2.209  0.9778 -0.7737  1.6036
 6381SOL     OW30778   1.004   4.403   7.464  0.4422  0.3157  0.7139
 6381SOL    HW130779   0.920   4.381   7.506 -0.9844  0.9749 -1.8028
 6381SOL    HW230780   1.024   4.323   7.417  0.3324  0.7266 -0.0246
 6382SOL     OW30781   4.560   3.899  13.280  0.3266  0.0125 -0.1860
 6382SOL    HW130782   4.468   3.882  13.260 -0.1795  1.2842  1.0720
 6382SOL    HW230783   4.612   3.889  13.201 -2.2387 -0.9232 -1.7493
 6383SOL     OW30784   4.634   4.221  10.640 -0.4816 -0.4920 -0.3543
 6383SOL    HW130785   4.691   4.293  10.670 -0.1688 -0.1829 -1.6873
 6383SOL    HW230786   4.564   4.271  10.599 -0.1893 -1.3788 -1.9286
 6384SOL     OW30787   2.185   1.753  13.308 -0.3301 -0.0187 -0.0420
 6384SOL    HW130788   2.156   1.830  13.259 -0.9802  0.2445  0.7660
 6384SOL    HW230789   2.113   1.732  13.367 -1.3226  0.4275 -1.0897
 6385SOL     OW30790   4.190   2.988   2.909 -0.1561 -0.4702 -0.5540
 6385SOL    HW130791   4.155   2.952   2.828  1.4988 -1.3923 -0.8723
 6385SOL    HW230792   4.243   3.063   2.880 -1.1596  0.2544 -0.4937
 6386SOL     OW30793   1.460   3.694   4.921 -0.7475 -0.7164 -0.4105
 6386SOL    HW130794   1.464   3.705   4.826  0.9636 -3.2574 -0.6092
 6386SOL    HW230795   1.453   3.784   4.955  1.3896 -0.5359 -0.4697
 6387SOL     OW30796   1.564   4.166  13.715  0.0389  0.2280  1.4156
 6387SOL    HW130797   1.555   4.240  13.655  3.1535 -1.1964 -0.7965
 6387SOL    HW230798   1.539   4.206  13.798 -0.8661 -1.4988  1.9691
 6388SOL     OW30799   3.971   2.226   6.203 -0.4554 -0.0092 -0.5942
 6388SOL    HW130800   3.985   2.259   6.291 -2.6918 -1.0150  0.1263
 6388SOL    HW230801   3.967   2.308   6.153 -2.0467  1.2162  1.5553
 6389SOL     OW30802   1.509   2.566   8.736  0.0194  0.0391 -0.0493
 6389SOL    HW130803   1.481   2.482   8.771  3.1540 -0.6379  0.8848
 6389SOL    HW230804   1.440   2.596   8.677 -0.1643  1.3512  0.8317
 6390SOL     OW30805   1.245   2.588   2.228 -0.0485 -0.1998 -0.5460
 6390SOL    HW130806   1.266   2.592   2.321 -0.8279  0.7741 -0.4123
 6390SOL    HW230807   1.212   2.498   2.224 -3.0639  0.8225  1.0862
 6391SOL     OW30808   0.424   0.263   8.528 -0.5995 -0.1510  0.3578
 6391SOL    HW130809   0.369   0.187   8.509 -1.0870  0.2203  0.2680
 6391SOL    HW230810   0.451   0.246   8.619 -0.7599 -1.2353  0.1961
 6392SOL     OW30811   1.968   0.490   7.068  0.1932  0.3907  0.1522
 6392SOL    HW130812   1.887   0.492   7.119 -0.8117  1.2962 -1.4867
 6392SOL    HW230813   2.009   0.411   7.104 -2.2671 -0.4752  1.0485
 6393SOL     OW30814   0.039   1.059   2.579  0.4736 -0.0464 -0.5660
 6393SOL    HW130815   0.123   1.045   2.623  0.7538  0.9893 -0.7794
 6393SOL    HW230816   0.067   1.129   2.520 -0.2999  0.7342  0.0047
 6394SOL     OW30817   2.058   0.296   3.516  0.8113  0.1383  0.0818
 6394SOL    HW130818   2.089   0.296   3.426 -0.7751 -0.6235 -0.4706
 6394SOL    HW230819   2.026   0.207   3.533 -0.2145  0.0917 -2.0741
 6395SOL     OW30820   0.375   0.067   9.811 -0.5275 -0.5517 -0.0560
 6395SOL    HW130821   0.394   0.036   9.900  1.7518 -0.1812 -0.4080
 6395SOL    HW230822   0.279   0.068   9.809 -0.4981 -1.1007 -1.4359
 6396SOL     OW30823   3.165   3.152   8.061  0.2672  0.3589  0.8372
 6396SOL    HW130824   3.253   3.166   8.097  0.3853 -0.2727  0.8046
 6396SOL    HW230825   3.151   3.237   8.019  0.3962  0.6682  1.4119
 6397SOL     OW30826   4.249   3.766  16.996 -0.3224  0.4808  0.2420
 6397SOL    HW130827   4.208   3.684  17.023  3.8964 -2.4714 -2.4581
 6397SOL    HW230828   4.181   3.799  16.938  0.1953 -0.6181 -0.9612
 6398SOL     OW30829   0.248   2.550   2.516 -0.5649  0.1195  0.2657
 6398SOL    HW130830   0.330   2.549   2.566 -0.6221  2.0072  0.3620
 6398SOL    HW230831   0.227   2.457   2.531 -0.3006  0.0230  0.0473
 6399SOL     OW30832   4.201   1.983   0.495  0.1254  0.3476  0.0033
 6399SOL    HW130833   4.197   2.044   0.569 -2.4916  1.5523 -1.1357
 6399SOL    HW230834   4.296   1.968   0.499 -0.4525 -3.1714  0.5449
 6400SOL     OW30835   2.168   4.692  17.151  0.0203  0.3184 -0.0115
 6400SOL    HW130836   2.213   0.013  17.210 -0.8986 -0.2658  1.2843
 6400SOL    HW230837   2.203   4.733  17.072 -1.4087  0.9671 -0.3012
 6401SOL     OW30838   4.499   4.035   4.031  0.2215  0.4055 -0.3087
 6401SOL    HW130839   4.527   3.944   4.016  0.3373  0.4208 -0.1822
 6401SOL    HW230840   4.487   4.077   3.946 -1.9235 -0.0212 -0.2252
 6402SOL     OW30841   0.800   2.977  14.920  0.1011 -0.5070 -0.3754
 6402SOL    HW130842   0.777   3.042  14.985 -2.7777  0.6566 -2.5630
 6402SOL    HW230843   0.851   3.031  14.859 -0.0963  0.1984  0.0891
 6403SOL     OW30844   2.182   2.421  11.056 -0.5545  0.0971 -0.0487
 6403SOL    HW130845   2.191   2.467  11.140  1.1875  0.4717 -0.4590
 6403SOL    HW230846   2.264   2.454  11.019  0.9326 -0.7095  2.4924
 6404SOL     OW30847   0.238   0.688   0.769 -0.8787 -0.0064 -0.0379
 6404SOL    HW130848   0.183   0.762   0.794 -3.0798 -1.7859  0.3811
 6404SOL    HW230849   0.189   0.614   0.805  1.9214 -0.6655  2.4240
 6405SOL     OW30850   0.536   4.486  12.295 -0.0316  0.5250  0.1841
 6405SOL    HW130851   0.508   4.395  12.282 -0.3152  0.6408  0.0027
 6405SOL    HW230852   0.632   4.486  12.291 -0.0559  1.4473 -0.3464
 6406SOL     OW30853   3.898   1.171  12.633  0.2448 -0.2258  0.2326
 6406SOL    HW130854   3.914   1.182  12.539  0.2964  0.5417  0.3342
 6406SOL    HW230855   3.986   1.160  12.669  0.5175 -0.5776 -0.5286
 6407SOL     OW30856   1.063   0.051  15.899  0.5111  0.8153 -0.3017
 6407SOL    HW130857   1.120   0.098  15.960 -3.6583  1.8327  2.9003
 6407SOL    HW230858   1.019   4.728  15.958  3.0306  0.8570  1.6105
 6408SOL     OW30859   1.133   1.517  17.568  0.9251  0.4972 -0.3441
 6408SOL    HW130860   1.122   1.491  17.659  1.4351  1.0535 -0.1205
 6408SOL    HW230861   1.229   1.519  17.565  1.0063 -1.0469  0.9612
 6409SOL     OW30862   4.643   1.678   8.709 -0.2433 -0.3288  0.5543
 6409SOL    HW130863   4.574   1.671   8.644 -1.5723  0.2581  1.8965
 6409SOL    HW230864   4.702   1.628   8.653 -2.0745 -2.6194  0.7079
 6410SOL     OW30865   3.779   1.004   8.678  0.2205 -0.1591  0.3373
 6410SOL    HW130866   3.769   0.913   8.706  0.3289  0.1548  1.3608
 6410SOL    HW230867   3.819   0.978   8.594  0.8655 -0.3665  0.7118
 6411SOL     OW30868   3.138   2.828   2.048  0.4887 -0.3343 -0.2511
 6411SOL    HW130869   3.104   2.877   1.974  0.8721  0.8124  0.3387
 6411SOL    HW230870   3.103   2.742   2.025 -1.7526  0.0878  1.5247
 6412SOL     OW30871   3.223   3.497   2.361  0.2444  0.5561 -0.2374
 6412SOL    HW130872   3.264   3.582   2.374  1.0401  0.1681 -0.2033
 6412SOL    HW230873   3.302   3.454   2.327  0.5528  1.2760 -0.4132
 6413SOL     OW30874   0.804   0.460   6.736  0.5330 -0.7498 -0.1632
 6413SOL    HW130875   0.845   0.383   6.773 -1.4782 -2.4110 -1.3555
 6413SOL    HW230876   0.787   0.411   6.655 -1.0544 -0.7436  0.1563
 6414SOL     OW30877   4.737   1.215   7.939 -0.1435  0.6655 -0.5117
 6414SOL    HW130878   4.656   1.190   7.983  0.3176 -0.4801 -0.3238
 6414SOL    HW230879   0.031   1.135   7.898 -1.4662  0.8416 -1.9534
 6415SOL     OW30880   4.019   1.133  11.655 -0.1409 -0.2756 -0.0709
 6415SOL    HW130881   4.092   1.162  11.710 -0.1241 -2.0293  0.8283
 6415SOL    HW230882   4.069   1.072  11.600 -0.0218 -2.6809  2.6965
 6416SOL     OW30883   0.647   1.695   4.383  0.1067  0.6201 -0.3599
 6416SOL    HW130884   0.734   1.679   4.420 -0.5959  1.8076  1.8224
 6416SOL    HW230885   0.627   1.784   4.413 -0.3412  0.5394 -0.4228
 6417SOL     OW30886   2.419   3.048   8.945  0.1070 -0.3464  0.3103
 6417SOL    HW130887   2.405   2.966   8.897  1.1055 -0.1538 -0.3094
 6417SOL    HW230888   2.336   3.093   8.933  0.7823  1.2571  1.6530
 6418SOL     OW30889   3.506   2.886   8.963 -0.0441  0.2702  0.2869
 6418SOL    HW130890   3.515   2.866   9.056 -2.8014 -1.5804  0.1427
 6418SOL    HW230891   3.474   2.976   8.972 -1.9441 -0.3289 -0.6694
 6419SOL     OW30892   4.083   0.828   5.717 -0.1014  0.7600  0.4843
 6419SOL    HW130893   4.004   0.825   5.664  0.6464  2.5413 -0.7452
 6419SOL    HW230894   4.062   0.770   5.790 -0.2870  1.7719  1.2402
 6420SOL     OW30895   0.541   1.895   0.763  0.7206 -0.3522  0.0240
 6420SOL    HW130896   0.588   1.889   0.680  1.5593 -0.3229  0.4944
 6420SOL    HW230897   0.546   1.802   0.783  1.9326 -0.7954 -2.4284
 6421SOL     OW30898   2.433   2.362   3.468  0.0493 -0.3681 -0.0286
 6421SOL    HW130899   2.420   2.328   3.379 -1.9361 -2.0147  0.9051
 6421SOL    HW230900   2.523   2.395   3.468 -1.0021  2.4517 -0.2282
 6422SOL     OW30901   3.191   2.073   3.893 -0.2642 -0.4284 -0.3772
 6422SOL    HW130902   3.118   2.101   3.947 -0.9980  0.2723 -1.7354
 6422SOL    HW230903   3.267   2.120   3.929 -1.1361  1.4477 -0.9578
 6423SOL     OW30904   1.572   2.250  14.860 -0.0992  0.2357  0.1335
 6423SOL    HW130905   1.590   2.333  14.904  0.4443  1.7877 -3.0039
 6423SOL    HW230906   1.655   2.235  14.813  2.0443  4.1926  2.6446
 6424SOL     OW30907   4.646   4.509   6.214  0.1418 -0.2231  0.3517
 6424SOL    HW130908   4.638   4.471   6.301 -0.5157  2.2571  1.3920
 6424SOL    HW230909   4.658   4.597   6.249 -0.6794  0.2434 -0.5094
 6425SOL     OW30910   2.433   3.198  12.654 -0.6268  0.5373 -0.3336
 6425SOL    HW130911   2.482   3.280  12.653 -0.8824  0.6774 -1.3591
 6425SOL    HW230912   2.375   3.204  12.578 -0.2178 -0.2629 -0.7089
 6426SOL     OW30913   4.316   1.527   3.615 -1.0374  0.3862  0.6759
 6426SOL    HW130914   4.276   1.610   3.638 -1.4288 -0.4397  2.9791
 6426SOL    HW230915   4.256   1.497   3.547 -0.8084 -1.3253  1.2306
 6427SOL     OW30916   0.247   2.697   8.196 -0.0058  0.1181 -0.0934
 6427SOL    HW130917   0.264   2.789   8.218 -1.3627  0.2865  0.2402
 6427SOL    HW230918   0.182   2.697   8.125  0.1973 -2.0496 -0.2658
 6428SOL     OW30919   2.676   1.828   5.482 -0.6170 -0.1816  0.2561
 6428SOL    HW130920   2.691   1.923   5.478  2.5356 -0.7757 -2.5173
 6428SOL    HW230921   2.653   1.818   5.574  0.4889  1.4926  0.7283
 6429SOL     OW30922   1.683   1.951   1.937  0.2963  0.3776  0.0832
 6429SOL    HW130923   1.679   1.861   1.968 -1.2896  0.4886  0.1964
 6429SOL    HW230924   1.758   1.950   1.877  1.5980 -0.7580  1.7313
 6430SOL     OW30925   4.093   0.057   1.814  0.4250 -0.3419  0.0364
 6430SOL    HW130926   4.002   0.027   1.806  0.2113  0.2618  0.1689
 6430SOL    HW230927   4.080   0.139   1.862 -0.8510  0.3121 -1.4422
 6431SOL     OW30928   1.072   0.117  13.948  0.1467 -0.4136 -0.1162
 6431SOL    HW130929   0.997   0.096  14.004 -0.8869  3.2548 -0.1411
 6431SOL    HW230930   1.035   0.202  13.923 -0.8927 -0.9406 -0.3699
 6432SOL     OW30931   2.378   1.066   0.228 -0.1555  0.1738 -0.4527
 6432SOL    HW130932   2.335   0.981   0.237  0.2796 -0.1107 -1.0301
 6432SOL    HW230933   2.322   1.112   0.165  1.0428 -2.5052 -3.4484
 6433SOL     OW30934   0.523   3.741   7.833  0.1297 -0.1369  0.4556
 6433SOL    HW130935   0.609   3.781   7.820  0.4530 -1.3279 -1.0627
 6433SOL    HW230936   0.524   3.675   7.764 -1.9445  1.8639 -1.4982
 6434SOL     OW30937   4.044   3.041   0.877  0.4074 -0.1410 -0.2457
 6434SOL    HW130938   4.048   3.124   0.924 -0.4833 -0.7580  0.9143
 6434SOL    HW230939   4.025   2.985   0.952  3.3472 -1.7978 -0.7272
 6435SOL     OW30940   1.586   0.303   1.977 -0.8564 -0.0707  0.1986
 6435SOL    HW130941   1.513   0.295   1.915 -0.1657 -0.6117 -0.5566
 6435SOL    HW230942   1.613   0.212   1.964 -1.1398 -0.3226  1.3866
 6436SOL     OW30943   1.678   2.311   3.071 -0.5643  0.0650 -0.1951
 6436SOL    HW130944   1.703   2.317   2.979 -3.3374 -0.4209 -0.9966
 6436SOL    HW230945   1.608   2.245   3.074 -0.8953  0.3507 -1.6657
 6437SOL     OW30946   3.487   0.194   4.958  0.0749 -0.1852 -0.1337
 6437SOL    HW130947   3.492   0.203   4.863  0.6628  0.9379  0.0162
 6437SOL    HW230948   3.555   0.255   4.986  2.3472 -2.0785 -1.5359
 6438SOL     OW30949   4.282   0.878   5.521 -0.6868  0.0202 -0.4730
 6438SOL    HW130950   4.210   0.857   5.581  0.4994 -2.9501 -0.0887
 6438SOL    HW230951   4.307   0.787   5.502 -0.9898  0.3266 -2.3544
 6439SOL     OW30952   0.036   0.697  11.753  0.4267 -0.3090 -0.0376
 6439SOL    HW130953   0.076   0.612  11.733 -1.3289 -1.4108  1.1177
 6439SOL    HW230954   4.694   0.670  11.796 -0.6036  3.5964  0.4400
 6440SOL     OW30955   0.184   0.371   6.001  0.2526  0.5837 -0.3433
 6440SOL    HW130956   0.125   0.414   5.939 -2.8376 -1.2948  1.3106
 6440SOL    HW230957   0.145   0.285   6.015 -0.4445  0.9064 -0.2688
 6441SOL     OW30958   0.208   2.819   9.510 -0.2097 -0.0580 -0.0539
 6441SOL    HW130959   0.260   2.872   9.570  0.7163 -1.8303  0.7204
 6441SOL    HW230960   0.260   2.738   9.509  1.2455  0.9109 -2.7145
 6442SOL     OW30961   4.591   3.909  13.003 -0.0230  0.4079 -0.0397
 6442SOL    HW130962   4.604   3.972  12.932  0.2187  0.9756  0.4998
 6442SOL    HW230963   4.525   3.852  12.965  1.3532 -1.4842  0.4107
 6443SOL     OW30964   3.482   0.244   7.324  0.6232 -0.4483 -0.3907
 6443SOL    HW130965   3.535   0.243   7.244  2.4800  2.8032  0.8145
 6443SOL    HW230966   3.487   0.151   7.349  1.2575  0.1229  1.6070
 6444SOL     OW30967   4.436   1.368  13.568 -0.1992  0.1815 -0.3411
 6444SOL    HW130968   4.465   1.277  13.563  0.5146  0.3335  0.8671
 6444SOL    HW230969   4.412   1.378  13.660 -2.5314 -0.7675 -0.8510
 6445SOL     OW30970   0.151   0.539   8.840  0.0943 -0.4924 -0.3601
 6445SOL    HW130971   0.070   0.566   8.884  0.2275  0.3825 -0.6366
 6445SOL    HW230972   0.159   0.445   8.827  0.9182 -0.4289 -0.3348
 6446SOL     OW30973   0.780   0.494   7.719  0.3488  0.1293  0.3508
 6446SOL    HW130974   0.768   0.412   7.768 -0.9412  0.4930  0.6569
 6446SOL    HW230975   0.780   0.467   7.627  1.7372  3.0064 -0.4884
 6447SOL     OW30976   1.922   3.380  15.205  0.0459  0.1680 -0.9316
 6447SOL    HW130977   1.826   3.372  15.202 -0.1524  0.2518  3.9300
 6447SOL    HW230978   1.944   3.393  15.298  1.6363  0.2849 -1.3400
 6448SOL     OW30979   3.906   2.125   2.233 -0.2049 -0.3566 -0.2585
 6448SOL    HW130980   3.885   2.147   2.143  0.9039 -0.7676 -0.6250
 6448SOL    HW230981   3.879   2.034   2.224  0.9545 -0.7150 -0.1493
 6449SOL     OW30982   1.988   3.166   7.800 -0.0200 -0.0158 -0.4157
 6449SOL    HW130983   1.991   3.077   7.834  0.2311 -0.4235 -1.5017
 6449SOL    HW230984   2.023   3.142   7.714 -0.8871 -1.6336 -0.3147
 6450SOL     OW30985   1.323   1.229  15.241  0.5007  0.1254 -0.6693
 6450SOL    HW130986   1.345   1.277  15.161  0.7959  0.1922 -0.5481
 6450SOL    HW230987   1.345   1.140  15.213 -0.0826  0.0942 -1.0277
 6451SOL     OW30988   0.481   0.562   0.698 -0.4267 -0.1908 -0.7471
 6451SOL    HW130989   0.508   0.506   0.770 -1.0156  1.3583  0.6762
 6451SOL    HW230990   0.406   0.611   0.731  0.6556  0.7443  0.3334
 6452SOL     OW30991   3.437   4.313  15.174 -0.2392 -0.1382 -0.5670
 6452SOL    HW130992   3.421   4.332  15.267  0.6225  0.3556 -0.5258
 6452SOL    HW230993   3.517   4.362  15.156 -0.6025  0.2272 -1.1681
 6453SOL     OW30994   1.748   4.353   3.928  0.3418  0.7386 -0.0004
 6453SOL    HW130995   1.720   4.272   3.970 -0.3170  0.7126 -0.4786
 6453SOL    HW230996   1.836   4.362   3.964  0.5056 -1.8957  0.2513
 6454SOL     OW30997   2.977   1.046   7.113  0.4758  0.5048  0.3431
 6454SOL    HW130998   2.992   1.052   7.018 -1.2554 -0.0161  0.0308
 6454SOL    HW230999   3.056   1.000   7.140  0.3998 -0.4855 -1.0994
 6455SOL     OW31000   1.874   3.794  17.234 -0.4143  0.4699 -0.3434
 6455SOL    HW131001   1.808   3.847  17.188 -1.8827  0.0688  1.2603
 6455SOL    HW231002   1.845   3.804  17.325  0.1841 -1.4922  0.0608
 6456SOL     OW31003   1.600   0.779  12.474  0.1955 -0.8271  0.4087
 6456SOL    HW131004   1.562   0.718  12.411  4.1231  1.2251 -3.9434
 6456SOL    HW231005   1.554   0.856  12.441 -0.4814 -0.8430  1.3023
 6457SOL     OW31006   0.934   2.157   7.680 -0.3914  0.0635  0.1279
 6457SOL    HW131007   0.954   2.192   7.593 -0.1334 -0.9970 -0.2440
 6457SOL    HW231008   0.846   2.125   7.661 -0.0561 -2.1940  2.3516
 6458SOL     OW31009   3.597   2.231  15.038 -0.7576  0.2215 -0.0055
 6458SOL    HW131010   3.655   2.155  15.041 -0.3770  0.5300  0.3867
 6458SOL    HW231011   3.618   2.271  14.953 -1.3399 -0.8201 -0.6563
 6459SOL     OW31012   2.940   2.886  10.743 -0.4455  0.0730  0.0314
 6459SOL    HW131013   3.027   2.911  10.774  0.0930 -1.8817  0.0829
 6459SOL    HW231014   2.884   2.876  10.820 -1.9107 -1.8120 -1.2823
 6460SOL     OW31015   4.573   2.979   2.402 -0.1973 -0.1858 -0.3238
 6460SOL    HW131016   4.668   2.970   2.400 -0.4193 -2.6210  0.0370
 6460SOL    HW231017   4.543   2.892   2.428 -3.5738  1.0812  0.0650
 6461SOL     OW31018   0.100   3.886   8.672  0.3462  0.8553 -0.3542
 6461SOL    HW131019   0.028   3.893   8.735  1.1158  0.2042  0.5919
 6461SOL    HW231020   0.044   3.856   8.600 -2.6385 -0.3747  2.4674
 6462SOL     OW31021   2.691   2.658   8.441 -0.2167 -0.2470 -0.3172
 6462SOL    HW131022   2.616   2.715   8.457 -1.9550 -2.8844  0.8514
 6462SOL    HW231023   2.703   2.608   8.521 -2.0428 -0.2112 -0.0227
 6463SOL     OW31024   1.077   3.798  13.046 -0.0555 -0.7088  0.0049
 6463SOL    HW131025   1.137   3.805  13.120 -0.4167  3.3948 -0.0818
 6463SOL    HW231026   1.056   3.885  13.011  1.1265 -0.3492  0.1815
 6464SOL     OW31027   3.654   1.483   0.319 -0.1389 -0.4713  0.2631
 6464SOL    HW131028   3.651   1.454   0.410 -0.1358 -0.2914  0.3219
 6464SOL    HW231029   3.732   1.439   0.287  0.3716  0.2581  0.4914
 6465SOL     OW31030   4.612   4.223   8.356  0.0130  0.0452  0.2378
 6465SOL    HW131031   4.702   4.189   8.366  0.3483  1.0487  0.6217
 6465SOL    HW231032   4.555   4.149   8.376 -2.2380  1.4052 -1.2007
 6466SOL     OW31033   0.765   2.451  16.022 -0.0596 -0.4511  0.1482
 6466SOL    HW131034   0.707   2.523  15.995 -2.2559 -1.6640  1.6860
 6466SOL    HW231035   0.847   2.492  16.049 -0.5808 -0.3749  1.5873
 6467SOL     OW31036   1.959   3.940   2.258 -0.2262  0.1266  0.2191
 6467SOL    HW131037   2.044   3.917   2.295 -1.1303 -2.4597  0.6663
 6467SOL    HW231038   1.927   3.855   2.229  2.8127 -1.1381  0.5503
 6468SOL     OW31039   4.677   0.703  14.493  0.3684  0.0761 -0.1747
 6468SOL    HW131040   4.686   0.700  14.588  0.9270 -0.5714 -0.2436
 6468SOL    HW231041   4.641   0.615  14.485  2.7409 -1.0650  1.7374
 6469SOL     OW31042   2.045   3.815   8.151  0.0133 -0.1612  0.0568
 6469SOL    HW131043   2.084   3.832   8.237  1.0568  0.2227 -0.4892
 6469SOL    HW231044   1.992   3.895   8.145 -1.0558 -0.7269  1.7207
 6470SOL     OW31045   4.451   4.732  15.740  0.2238 -0.1455  0.1994
 6470SOL    HW131046   4.401   0.005  15.821  1.8679 -0.6472  1.2736
 6470SOL    HW231047   4.504   0.072  15.747 -2.3665  1.5417  0.8981
 6471SOL     OW31048   4.688   2.292   8.916  0.5986  0.4591  0.4712
 6471SOL    HW131049   4.726   2.215   8.875 -1.3683  0.4816 -1.3554
 6471SOL    HW231050   4.668   2.249   8.999  2.9728  0.0835  0.8304
 6472SOL     OW31051   3.825   0.339   2.953 -0.3977  0.7233 -0.1428
 6472SOL    HW131052   3.738   0.348   2.990 -1.3773 -0.5813 -2.1229
 6472SOL    HW231053   3.877   0.380   3.022 -0.4270 -0.7369  0.7491
 6473SOL     OW31054   1.853   2.332   0.068  0.1519  0.0938 -0.6389
 6473SOL    HW131055   1.806   2.382   0.001  0.0388 -1.0610 -1.4235
 6473SOL    HW231056   1.815   2.372   0.146 -1.4248 -0.1428 -1.2959
 6474SOL     OW31057   3.398   2.799   1.891 -0.4626  0.2533  0.4133
 6474SOL    HW131058   3.314   2.801   1.938 -0.1852 -0.2724  0.9326
 6474SOL    HW231059   3.455   2.751   1.951 -0.1647  0.4045  0.2522
 6475SOL     OW31060   0.055   2.461  12.061  0.2495  0.3828 -0.3564
 6475SOL    HW131061   0.047   2.445  11.967  0.0806 -0.7808 -0.1489
 6475SOL    HW231062   0.066   2.376  12.104 -0.3829  0.4933  0.0168
 6476SOL     OW31063   2.903   3.472   5.598  0.2082 -0.4368  0.2388
 6476SOL    HW131064   2.823   3.504   5.640 -0.7010  0.3057 -2.0567
 6476SOL    HW231065   2.870   3.385   5.576  0.5186 -0.2950 -0.8027
 6477SOL     OW31066   1.588   3.947   0.814  0.4010  0.0097 -0.3369
 6477SOL    HW131067   1.646   3.944   0.889 -0.8551 -0.3184  0.6336
 6477SOL    HW231068   1.502   3.949   0.856  1.0386  1.8579  0.8479
 6478SOL     OW31069   1.000   4.666   5.650 -0.5766  0.5331 -0.0231
 6478SOL    HW131070   1.050   4.631   5.724  0.5283  0.7953 -0.6398
 6478SOL    HW231071   1.033   0.017   5.641  4.9911 -1.4867  0.1114
 6479SOL     OW31072   2.089   2.615   0.423 -0.1335 -0.2628 -0.4888
 6479SOL    HW131073   2.019   2.647   0.366  0.3305 -0.9978 -1.4525
 6479SOL    HW231074   2.162   2.646   0.369  0.6391 -2.2611 -0.5725
 6480SOL     OW31075   4.300   3.407   7.125 -0.1089  0.1442  0.1909
 6480SOL    HW131076   4.255   3.329   7.157  2.6679  0.0358  3.7843
 6480SOL    HW231077   4.389   3.378   7.146 -0.2414 -0.4401 -0.0556
 6481SOL     OW31078   3.695   3.884   3.646 -0.4809 -0.1966  0.1055
 6481SOL    HW131079   3.725   3.799   3.613  0.2247  0.1199 -0.0673
 6481SOL    HW231080   3.779   3.928   3.630 -0.3148 -1.4475 -2.4296
 6482SOL     OW31081   3.069   1.750   1.217 -0.1735  0.0039  0.1369
 6482SOL    HW131082   3.143   1.809   1.232  0.1414 -0.2051 -0.6251
 6482SOL    HW231083   3.072   1.760   1.122  0.7161  0.0198  0.1661
 6483SOL     OW31084   1.836   4.619   5.392 -0.6098  0.6854  0.3397
 6483SOL    HW131085   1.902   4.550   5.388  0.7604  1.9227  1.8289
 6483SOL    HW231086   1.859   4.661   5.475 -1.2378  0.7055  0.5085
 6484SOL     OW31087   1.932   2.032   2.798  0.0708  0.5650 -0.1678
 6484SOL    HW131088   1.904   2.060   2.711  3.5024 -0.2466 -1.5303
 6484SOL    HW231089   1.873   1.958   2.813  0.8710 -0.0486 -0.0428
 6485SOL     OW31090   0.898   1.561  14.968 -0.5836 -0.2621 -0.3294
 6485SOL    HW131091   0.967   1.613  15.009  1.3351 -2.1089 -1.2419
 6485SOL    HW231092   0.873   1.507  15.044  2.2232 -0.1510  0.6745
 6486SOL     OW31093   2.066   1.280  14.523  0.0664  0.1819  0.1843
 6486SOL    HW131094   2.139   1.237  14.569 -0.5694 -1.9838 -0.8301
 6486SOL    HW231095   2.097   1.296  14.434  3.2900  0.0850  1.2652
 6487SOL     OW31096   0.804   1.286   4.204  0.4541 -0.6502 -0.0784
 6487SOL    HW131097   0.746   1.217   4.172  0.4202 -0.2516 -0.8734
 6487SOL    HW231098   0.788   1.354   4.138  1.4753 -1.2024 -0.8960
 6488SOL     OW31099   4.248   3.777   1.191 -0.3580  0.5823  0.4092
 6488SOL    HW131100   4.157   3.805   1.182 -0.6230 -0.2403  0.4575
 6488SOL    HW231101   4.262   3.837   1.265  1.7520  1.4669 -0.7107
 6489SOL     OW31102   0.039   2.328  10.421  0.5303 -0.8813  0.1473
 6489SOL    HW131103   4.730   2.254  10.459  0.2475 -1.0714 -0.5906
 6489SOL    HW231104   0.124   2.325  10.466  1.2587  0.8765 -1.1035
 6490SOL     OW31105   4.249   3.940  14.572 -0.5902  0.7842  0.4786
 6490SOL    HW131106   4.239   3.998  14.648  0.9761  0.0677  1.2322
 6490SOL    HW231107   4.207   3.859  14.600 -1.4124  1.1953  0.4365
 6491SOL     OW31108   1.553   2.304   2.524  0.5117  0.4477  0.1732
 6491SOL    HW131109   1.482   2.258   2.480  2.7939 -1.2231 -1.6762
 6491SOL    HW231110   1.526   2.396   2.514  0.7433  0.4602 -0.2952
 6492SOL     OW31111   1.866   0.884   0.237 -0.4544  0.1286  0.5319
 6492SOL    HW131112   1.880   0.899   0.144 -0.7515  1.4292  0.6871
 6492SOL    HW231113   1.908   0.798   0.246  0.4221  0.4143 -0.7855
 6493SOL     OW31114   3.499   1.519   8.868 -0.9355  0.0381 -0.7293
 6493SOL    HW131115   3.555   1.572   8.926 -0.2018 -0.0790 -1.3272
 6493SOL    HW231116   3.540   1.436   8.895  3.5449  2.6605  0.6760
 6494SOL     OW31117   3.339   2.008   2.217  0.0245 -0.2249 -0.7281
 6494SOL    HW131118   3.291   1.958   2.151  1.0498  0.9404 -2.3548
 6494SOL    HW231119   3.403   2.046   2.156 -2.7394  2.9457 -1.6797
 6495SOL     OW31120   3.261   1.518   8.750 -0.0177 -0.0662  0.4183
 6495SOL    HW131121   3.332   1.547   8.808  2.5247  1.4445 -3.4464
 6495SOL    HW231122   3.306   1.443   8.709 -0.0758 -0.8540  1.7908
 6496SOL     OW31123   4.420   2.863   5.997  0.0279 -0.1947 -0.2202
 6496SOL    HW131124   4.476   2.939   5.979 -0.6876  0.7160  1.4871
 6496SOL    HW231125   4.334   2.902   5.983  0.4797  0.0736 -2.3821
 6497SOL     OW31126   1.689   3.659  15.055  0.0501 -1.0447 -0.0117
 6497SOL    HW131127   1.638   3.593  15.007 -0.5593 -0.1616 -0.5679
 6497SOL    HW231128   1.773   3.621  15.029  0.9433  1.0096 -0.0644
 6498SOL     OW31129   0.739   4.485   4.318  0.1909 -0.0297 -0.2126
 6498SOL    HW131130   0.787   4.431   4.381  0.7355 -0.2243 -0.7928
 6498SOL    HW231131   0.799   4.488   4.244  0.5253 -2.5047 -0.0464
 6499SOL     OW31132   1.983   2.056  14.925  0.2008 -0.1680 -0.3544
 6499SOL    HW131133   1.980   2.151  14.935  0.2003 -0.0030 -1.9814
 6499SOL    HW231134   1.895   2.030  14.952 -0.8902  1.1343 -2.6242
 6500SOL     OW31135   2.640   4.168   2.550  0.0487  0.0496  0.1037
 6500SOL    HW131136   2.582   4.157   2.474  0.7786  0.3813 -0.5010
 6500SOL    HW231137   2.594   4.237   2.599 -0.3167 -1.3636  1.7342
 6501SOL     OW31138   2.079   3.283  16.145 -0.7542 -0.3905 -0.3369
 6501SOL    HW131139   2.108   3.206  16.096 -1.2469 -1.4261  1.0087
 6501SOL    HW231140   2.150   3.295  16.209 -0.6496  1.2564 -0.7540
 6502SOL     OW31141   2.408   4.107   9.664 -0.2592 -0.1347  0.0543
 6502SOL    HW131142   2.331   4.159   9.687 -0.6294 -0.7824  0.2957
 6502SOL    HW231143   2.473   4.177   9.653  0.3958 -1.1085 -2.3228
 6503SOL     OW31144   0.547   4.622   5.281 -0.4125  0.1558  0.0764
 6503SOL    HW131145   0.556   4.527   5.274 -0.2523  0.1263  0.7403
 6503SOL    HW231146   0.582   4.637   5.369  0.8982 -0.7407 -0.2952
 6504SOL     OW31147   1.222   4.161   9.155  0.0284  0.3340  0.1603
 6504SOL    HW131148   1.205   4.235   9.213  0.5001 -2.0816  3.3786
 6504SOL    HW231149   1.208   4.095   9.223 -0.3460 -0.3528 -0.5915
 6505SOL     OW31150   2.129   2.843   8.068 -0.4184  0.6903 -0.2061
 6505SOL    HW131151   2.184   2.873   8.140  0.7598  0.2046 -0.9012
 6505SOL    HW231152   2.183   2.768   8.045 -1.0353  0.3782 -0.6391
 6506SOL     OW31153   2.287   0.353   9.586 -0.5712  0.2874 -0.1318
 6506SOL    HW131154   2.365   0.404   9.606 -0.7117 -0.4952  2.3718
 6506SOL    HW231155   2.222   0.413   9.548 -1.4844  0.5555  1.8638
 6507SOL     OW31156   2.037   4.373   1.754  0.1049 -1.0004  0.1403
 6507SOL    HW131157   2.006   4.461   1.777  1.9068 -0.2376 -0.3164
 6507SOL    HW231158   1.958   4.320   1.758 -0.8160  0.3412 -0.3237
 6508SOL     OW31159   1.360   0.171   6.802  0.7574 -0.2372  0.4798
 6508SOL    HW131160   1.371   0.240   6.867 -2.4197 -0.7475  1.5332
 6508SOL    HW231161   1.361   0.096   6.861  0.1774 -0.6414 -0.0249
 6509SOL     OW31162   4.284   0.311   5.792 -0.2907 -0.2275  0.1351
 6509SOL    HW131163   4.270   0.217   5.779 -0.8790 -0.2917  1.2328
 6509SOL    HW231164   4.201   0.350   5.764 -1.2484 -1.8613  0.6756
 6510SOL     OW31165   1.020   4.551   4.309 -0.5151 -0.2844  0.0494
 6510SOL    HW131166   1.066   4.474   4.276 -0.3496 -0.7661  1.4275
 6510SOL    HW231167   1.087   4.609   4.344  0.1116 -2.4644  2.3761
 6511SOL     OW31168   2.935   2.783  13.159  0.3602  0.4091 -0.0035
 6511SOL    HW131169   2.849   2.824  13.164  0.3357  0.5267 -1.4398
 6511SOL    HW231170   2.942   2.775  13.064 -0.8863 -2.2051  0.1267
 6512SOL     OW31171   2.667   0.585  12.798 -0.7661 -0.0160  0.7439
 6512SOL    HW131172   2.606   0.658  12.788 -0.5488  0.1831  0.8776
 6512SOL    HW231173   2.629   0.513  12.748 -0.6334  1.4912 -1.5372
 6513SOL     OW31174   3.792   0.254  15.367 -0.8661 -0.0791 -0.3046
 6513SOL    HW131175   3.794   0.267  15.462 -1.1116  2.1785 -0.6143
 6513SOL    HW231176   3.822   0.338  15.334 -0.2564 -0.3968 -0.5489
 6514SOL     OW31177   2.388   1.365   8.903  0.6951 -0.2844  0.1489
 6514SOL    HW131178   2.389   1.279   8.861 -2.6936 -0.3189  0.1043
 6514SOL    HW231179   2.419   1.346   8.992  0.9544  1.8751  0.5201
 6515SOL     OW31180   3.699   0.186   9.498  0.2073  0.5520  0.0430
 6515SOL    HW131181   3.782   0.219   9.464 -0.0067  1.8212  0.7861
 6515SOL    HW231182   3.656   0.147   9.422  1.4111 -0.4238 -0.1438
 6516SOL     OW31183   0.535   2.388  14.979  0.9147 -0.0609  0.4386
 6516SOL    HW131184   0.489   2.355  14.903 -0.3360 -1.4078  1.7783
 6516SOL    HW231185   0.619   2.419  14.946  0.6042 -0.0833 -0.3629
 6517SOL     OW31186   1.604   4.563  12.231  0.0526  0.5458  0.2516
 6517SOL    HW131187   1.622   4.630  12.296  0.6206  0.6449 -0.0095
 6517SOL    HW231188   1.551   4.508  12.288  0.5557 -0.4148 -0.1976
 6518SOL     OW31189   0.155   4.529  14.459 -0.0957 -0.0151  0.0556
 6518SOL    HW131190   0.156   4.459  14.525  0.9567  0.1275  0.1839
 6518SOL    HW231191   0.194   4.488  14.382 -0.2115 -2.5492  1.3487
 6519SOL     OW31192   0.846   2.133   1.693  0.9929 -0.1299 -0.4907
 6519SOL    HW131193   0.754   2.107   1.701  0.9861 -0.1167 -0.5212
 6519SOL    HW231194   0.881   2.051   1.659  1.7291 -0.3071  0.7264
 6520SOL     OW31195   0.498   2.222   4.496  0.2190  0.1147 -0.2737
 6520SOL    HW131196   0.438   2.285   4.457 -0.9314 -1.6505 -1.3310
 6520SOL    HW231197   0.437   2.176   4.553 -0.9951  0.9829 -0.8737
 6521SOL     OW31198   0.401   2.473   8.191  0.2712 -0.0839  0.2268
 6521SOL    HW131199   0.339   2.544   8.177  0.9878  0.1796 -1.6417
 6521SOL    HW231200   0.469   2.523   8.236 -0.0723 -1.3692  2.2023
 6522SOL     OW31201   1.521   1.536   1.871  0.2576  0.0660  0.3836
 6522SOL    HW131202   1.442   1.579   1.901  0.2965 -1.0562  2.0875
 6522SOL    HW231203   1.479   1.463   1.825 -0.4233  1.2939 -0.9211
 6523SOL     OW31204   0.566   2.557   9.358 -0.6454 -0.7997 -0.2063
 6523SOL    HW131205   0.592   2.625   9.296 -3.4219  0.3626 -0.1042
 6523SOL    HW231206   0.586   2.478   9.308  0.5812 -0.7374  0.1739
 6524SOL     OW31207   0.931   1.489  15.863 -0.1114 -0.3298  0.7190
 6524SOL    HW131208   0.872   1.438  15.808  0.4015 -2.4732  2.1628
 6524SOL    HW231209   0.950   1.433  15.938 -2.1948 -0.5636  1.0543
 6525SOL     OW31210   2.049   1.636   8.639 -0.2947  0.1824 -0.2207
 6525SOL    HW131211   1.994   1.714   8.627 -1.4641 -0.6796 -0.4622
 6525SOL    HW231212   1.987   1.573   8.674 -0.9153  0.9195  0.0070
 6526SOL     OW31213   3.464   3.009   7.006  0.2947  0.5450 -0.6851
 6526SOL    HW131214   3.398   2.987   7.072  0.5215  2.9637  0.3592
 6526SOL    HW231215   3.450   2.942   6.939  1.2351 -1.3132  0.9709
 6527SOL     OW31216   3.614   4.595   9.429 -0.3026 -0.2487 -0.0912
 6527SOL    HW131217   3.568   4.667   9.387  0.5738  0.5816  0.3637
 6527SOL    HW231218   3.687   4.596   9.367 -1.0236 -0.8066 -0.9375
 6528SOL     OW31219   4.686   4.490   2.654 -0.0242 -0.4600  0.3076
 6528SOL    HW131220   4.633   4.419   2.617  3.9549 -3.4788  0.4966
 6528SOL    HW231221   0.012   4.507   2.586 -0.3697  0.3057  0.1606
 6529SOL     OW31222   0.479   4.074   5.379 -0.0059 -0.5207  0.1545
 6529SOL    HW131223   0.568   4.038   5.373  0.2485 -0.0338  1.0078
 6529SOL    HW231224   0.503   4.164   5.360 -1.4873  0.9143  5.0854
 6530SOL     OW31225   1.578   3.986   4.459  0.1035 -0.0774 -0.5306
 6530SOL    HW131226   1.671   4.001   4.443 -0.0261  0.1074 -1.0934
 6530SOL    HW231227   1.534   4.019   4.381  0.9830  0.9207 -0.6072
 6531SOL     OW31228   4.549   4.296   2.492 -0.3102 -0.3004 -0.7495
 6531SOL    HW131229   4.617   4.242   2.451  0.8673  0.1857  0.5472
 6531SOL    HW231230   4.507   4.225   2.541  0.1391 -0.6021 -0.8029
 6532SOL     OW31231   0.554   4.501  14.281 -0.9089 -0.5991  0.0981
 6532SOL    HW131232   0.621   4.471  14.344  0.0442  0.3734 -0.4588
 6532SOL    HW231233   0.479   4.453  14.315 -0.3633 -1.2982  0.3356
 6533SOL     OW31234   3.142   3.133  12.202  0.7427 -0.3443  0.4729
 6533SOL    HW131235   3.064   3.082  12.179 -1.0006  1.7126  1.8481
 6533SOL    HW231236   3.204   3.066  12.231  0.9536 -0.2002  0.3478
 6534SOL     OW31237   3.416   1.080   6.013 -0.2311 -0.6783  0.4366
 6534SOL    HW131238   3.482   1.014   6.035 -0.3276 -1.4777 -1.6746
 6534SOL    HW231239   3.350   1.029   5.966 -0.5315  1.9214 -1.9425
 6535SOL     OW31240   4.288   2.784  13.078 -0.6673 -0.1705 -0.1695
 6535SOL    HW131241   4.202   2.747  13.060 -1.1623  0.5189  0.7350
 6535SOL    HW231242   4.266   2.875  13.099  0.2853  0.0990 -0.3429
 6536SOL     OW31243   4.120   2.778   8.707  0.1468 -0.0588 -0.5365
 6536SOL    HW131244   4.214   2.768   8.721  0.2784  1.3677 -0.4257
 6536SOL    HW231245   4.092   2.693   8.741 -2.2269  1.8707  2.3271
 6537SOL     OW31246   3.031   3.916  17.692  0.1877 -0.0361 -0.0707
 6537SOL    HW131247   3.031   3.863   0.017 -0.3197  0.8144  0.5005
 6537SOL    HW231248   3.066   4.002  17.717  0.6335 -0.6486  1.4325
 6538SOL     OW31249   2.314   4.463   2.506 -0.2454 -0.4512  0.2347
 6538SOL    HW131250   2.291   4.554   2.487 -1.4154 -0.8027  0.0046
 6538SOL    HW231251   2.238   4.428   2.460 -0.3825 -1.6276  1.3552
 6539SOL     OW31252   3.041   2.229   3.210  0.2158 -0.3717 -0.0205
 6539SOL    HW131253   3.111   2.280   3.169  1.0655 -1.7243 -0.2921
 6539SOL    HW231254   2.962   2.279   3.191  0.4088 -0.2508 -0.5124
 6540SOL     OW31255   1.977   0.392   1.300  0.1511  0.5596  0.1100
 6540SOL    HW131256   1.962   0.441   1.381 -1.5994  0.3636 -0.1020
 6540SOL    HW231257   2.033   0.452   1.250  1.8299  0.4487  1.8636
 6541SOL     OW31258   0.428   2.899  15.931 -0.5390  0.1755 -0.2457
 6541SOL    HW131259   0.334   2.888  15.950 -0.5540  0.8989  0.1004
 6541SOL    HW231260   0.436   2.990  15.958 -1.9021  0.5623 -1.1031
 6542SOL     OW31261   0.046   1.407  13.736  0.0989  0.3311 -0.3299
 6542SOL    HW131262   0.008   1.494  13.735 -0.6830  0.0208  2.7981
 6542SOL    HW231263   0.126   1.423  13.686  0.5093 -1.0046 -0.1055
 6543SOL     OW31264   0.697   3.754   4.103  0.4316 -0.5014  0.0227
 6543SOL    HW131265   0.635   3.761   4.031 -0.3073  0.7232  0.7734
 6543SOL    HW231266   0.782   3.778   4.066  1.2475 -0.3730  1.9540
 6544SOL     OW31267   3.424   3.877   9.183  0.0784  0.1134 -0.0253
 6544SOL    HW131268   3.454   3.825   9.258  2.4353  0.3657 -0.7912
 6544SOL    HW231269   3.496   3.935   9.156 -0.9950  0.0882 -2.9212
 6545SOL     OW31270   2.522   1.067  16.444  0.2209 -0.3200  0.2873
 6545SOL    HW131271   2.457   1.014  16.489 -1.4662  0.9148 -0.6868
 6545SOL    HW231272   2.594   1.012  16.474 -0.4880 -0.7794  1.1259
 6546SOL     OW31273   3.989   1.384   3.633 -0.6630  0.0260 -0.4777
 6546SOL    HW131274   4.029   1.417   3.553  0.6534  0.5357  0.3888
 6546SOL    HW231275   4.041   1.430   3.699 -0.0818 -1.8485  0.3701
 6547SOL     OW31276   3.524   0.792  11.335 -1.1718  0.1282  0.0772
 6547SOL    HW131277   3.512   0.872  11.386  2.0233  1.1886 -0.7988
 6547SOL    HW231278   3.437   0.757  11.316  0.2003 -1.3615 -3.3984
 6548SOL     OW31279   1.396   1.152   2.651  0.0124  0.2143  0.1516
 6548SOL    HW131280   1.376   1.083   2.714  0.6930  1.1434  1.3950
 6548SOL    HW231281   1.314   1.202   2.651 -0.0034  0.1893  0.5487
 6549SOL     OW31282   1.875   0.256   7.829  0.6476 -0.6248  0.4480
 6549SOL    HW131283   1.889   0.187   7.763 -1.8485 -0.7895  0.0887
 6549SOL    HW231284   1.925   0.326   7.788 -0.9281 -0.3751 -1.0580
 6550SOL     OW31285   1.895   0.595   3.483 -0.2213  0.1523  0.0028
 6550SOL    HW131286   1.948   0.663   3.524 -0.8956  1.2076 -0.8632
 6550SOL    HW231287   1.947   0.522   3.516 -1.1057 -1.3660 -1.9448
 6551SOL     OW31288   4.102   0.186  11.449  0.0237 -0.6570  0.4348
 6551SOL    HW131289   4.057   0.195  11.365  1.3398 -0.2368 -0.2214
 6551SOL    HW231290   4.137   0.098  11.460  0.5220 -0.6958 -1.3558
 6552SOL     OW31291   4.678   2.125   3.516  0.0154 -0.5509 -0.2123
 6552SOL    HW131292   0.003   2.184   3.556  0.2204 -2.1167  1.7607
 6552SOL    HW231293   4.611   2.128   3.584 -0.9138  1.1256 -1.1921
 6553SOL     OW31294   2.387   0.570   8.084  0.3665  0.4193 -0.1888
 6553SOL    HW131295   2.321   0.511   8.048 -0.2401  0.9832  0.0061
 6553SOL    HW231296   2.344   0.629   8.145 -0.3426 -0.9980  0.6798
 6554SOL     OW31297   2.910   4.603   9.532 -0.1616 -0.0911  0.7393
 6554SOL    HW131298   2.993   4.590   9.487  0.0922  2.1488  0.5334
 6554SOL    HW231299   2.867   4.683   9.502  2.4827  1.4700  1.0796
 6555SOL     OW31300   2.842   3.525   4.583 -0.1096 -0.5037  0.0678
 6555SOL    HW131301   2.924   3.503   4.540 -0.7479  0.1419 -1.4976
 6555SOL    HW231302   2.862   3.535   4.676 -1.5006 -1.8862  0.5218
 6556SOL     OW31303   1.278   2.911  12.278 -0.2728 -0.0770 -0.4208
 6556SOL    HW131304   1.262   2.866  12.361 -0.3638  1.3381  0.3161
 6556SOL    HW231305   1.262   2.841  12.214 -1.0017 -1.5810  1.3720
 6557SOL     OW31306   1.791   4.167  11.008 -0.3481 -0.3292 -0.1403
 6557SOL    HW131307   1.823   4.100  10.948 -2.7463 -0.7615 -0.9359
 6557SOL    HW231308   1.869   4.190  11.059 -1.3252  0.5518  0.9640
 6558SOL     OW31309   0.389   3.173  15.988  0.1216  0.2840 -0.2064
 6558SOL    HW131310   0.305   3.218  15.973  0.1455  0.2308 -0.5049
 6558SOL    HW231311   0.411   3.226  16.064 -0.6816  1.3884 -0.7489
 6559SOL     OW31312   4.561   2.406   5.595  0.1920 -0.1651 -0.3554
 6559SOL    HW131313   4.649   2.370   5.584  1.2360  2.3641 -0.3248
 6559SOL    HW231314   4.571   2.474   5.662 -1.6007 -2.0582  1.8600
 6560SOL     OW31315   1.784   4.466   7.296 -0.0698  0.1124 -0.0904
 6560SOL    HW131316   1.727   4.392   7.275 -1.3751  1.4041 -1.1157
 6560SOL    HW231317   1.868   4.422   7.285 -0.2818 -0.3107 -0.0099
 6561SOL     OW31318   4.646   4.724   8.181 -0.0723 -0.0945  0.1445
 6561SOL    HW131319   4.584   0.035   8.236 -0.7201  0.9116 -1.5031
 6561SOL    HW231320   4.610   4.635   8.184  2.0529 -0.9192  0.8335
 6562SOL     OW31321   2.804   0.401   9.257  0.0166 -0.3802  0.0053
 6562SOL    HW131322   2.812   0.488   9.219  1.7099 -0.4405  0.2133
 6562SOL    HW231323   2.775   0.427   9.344 -0.8685 -2.0844  0.2332
 6563SOL     OW31324   1.134   4.688   4.948  0.5390 -0.1160 -0.2481
 6563SOL    HW131325   1.111   4.672   5.040  1.9595  2.6918  0.5841
 6563SOL    HW231326   1.223   4.651   4.955  0.1376 -0.5336  2.5538
 6564SOL     OW31327   2.702   1.330   8.160  0.0485 -0.0160 -0.3775
 6564SOL    HW131328   2.792   1.302   8.175 -0.4951 -0.4159  2.0955
 6564SOL    HW231329   2.670   1.320   8.249  0.2570 -1.0059 -0.4054
 6565SOL     OW31330   0.278   0.973   2.825  0.6282  0.1270 -0.0674
 6565SOL    HW131331   0.341   0.901   2.830 -0.4332 -0.7797  0.2826
 6565SOL    HW231332   0.215   0.942   2.890 -1.4512  0.6942 -1.8036
 6566SOL     OW31333   0.100   2.509   6.119 -0.1357 -0.4321 -0.0018
 6566SOL    HW131334   0.191   2.540   6.124 -0.1188 -0.1581 -1.7429
 6566SOL    HW231335   0.086   2.483   6.210  2.7127 -0.4930  0.4356
 6567SOL     OW31336   0.319   0.148  12.004 -0.3583 -0.0429  0.2820
 6567SOL    HW131337   0.370   0.133  11.924  0.4207  1.6489  0.4630
 6567SOL    HW231338   0.388   0.154  12.070 -0.1053 -4.0241  0.4101
 6568SOL     OW31339   1.452   2.161   4.764 -0.0326  0.4432 -0.3637
 6568SOL    HW131340   1.362   2.176   4.792 -0.9273 -0.3050 -2.8226
 6568SOL    HW231341   1.506   2.218   4.818  0.9407 -1.8734  1.1176
 6569SOL     OW31342   1.931   2.693   0.233 -0.2969 -0.0123 -0.0129
 6569SOL    HW131343   1.956   2.618   0.180 -0.8546  0.1019 -0.4431
 6569SOL    HW231344   1.880   2.739   0.166  0.2925 -0.1886 -0.5785
 6570SOL     OW31345   0.874   3.270  13.757  0.0896  0.2532 -0.3298
 6570SOL    HW131346   0.806   3.287  13.693 -0.6035 -1.0378  0.0604
 6570SOL    HW231347   0.831   3.302  13.836 -0.4012 -0.1150 -0.4538
 6571SOL     OW31348   0.875   1.366   2.382  0.2071 -0.9005 -0.0039
 6571SOL    HW131349   0.824   1.314   2.446 -1.0194 -0.7794 -0.8872
 6571SOL    HW231350   0.952   1.314   2.359  0.9244  0.6979 -1.1363
 6572SOL     OW31351   4.064   2.349   2.236 -0.2014 -0.7734  0.7134
 6572SOL    HW131352   4.070   2.355   2.331 -2.5159  0.3257  0.8081
 6572SOL    HW231353   4.003   2.276   2.226 -1.0293  0.2420 -1.6032
 6573SOL     OW31354   1.452   0.323  14.111  0.5553 -0.0550 -0.0815
 6573SOL    HW131355   1.453   0.352  14.019 -1.5624  0.3545  0.0226
 6573SOL    HW231356   1.470   0.405  14.157  1.8417 -0.4673  0.1520
 6574SOL     OW31357   0.110   2.116  12.987  0.0137 -0.2494 -1.0185
 6574SOL    HW131358   0.039   2.075  13.035  0.7794  0.0702  0.4018
 6574SOL    HW231359   0.073   2.175  12.922  0.2896  1.7447  0.6251
 6575SOL     OW31360   3.129   1.710   2.231 -0.1351  0.5656  0.0162
 6575SOL    HW131361   3.107   1.692   2.322 -0.4838 -1.2580 -0.4355
 6575SOL    HW231362   3.225   1.702   2.224 -0.3061  0.3969 -2.0561
 6576SOL     OW31363   4.022   1.094   3.403  0.2798 -0.4269 -0.3213
 6576SOL    HW131364   4.117   1.108   3.409  0.2839 -1.1534  1.2764
 6576SOL    HW231365   4.012   1.006   3.367  0.5772 -1.1141  1.2760
 6577SOL     OW31366   3.541   0.761   9.091  0.0008  0.2818 -0.0300
 6577SOL    HW131367   3.473   0.741   9.155  0.5803 -1.2312  0.1009
 6577SOL    HW231368   3.602   0.689   9.084 -1.4275 -1.0671  1.3439
 6578SOL     OW31369   2.630   4.631   0.275  0.0569 -0.0863 -0.3028
 6578SOL    HW131370   2.699   4.690   0.243  0.4092  1.3909  3.2348
 6578SOL    HW231371   2.695   4.575   0.317 -0.8769 -0.4910  0.5755
 6579SOL     OW31372   3.469   3.386   2.770 -0.4587 -0.1591 -0.0406
 6579SOL    HW131373   3.395   3.365   2.712  0.9194 -1.7716 -1.2145
 6579SOL    HW231374   3.428   3.424   2.848 -0.9801 -1.5446  0.3601
 6580SOL     OW31375   3.646   2.376   1.382 -0.4973  0.3161  0.1547
 6580SOL    HW131376   3.589   2.381   1.459 -0.3847  1.0146  0.1882
 6580SOL    HW231377   3.672   2.284   1.381 -0.1039  0.4373 -0.4137
 6581SOL     OW31378   0.764   1.986   3.513  0.1447  0.6543 -0.1563
 6581SOL    HW131379   0.694   1.946   3.461  1.3240 -0.1064 -1.1506
 6581SOL    HW231380   0.837   1.988   3.450 -0.5928  0.2196 -1.0310
 6582SOL     OW31381   0.557   1.095   3.522  0.2375  0.1075 -0.3401
 6582SOL    HW131382   0.474   1.068   3.562  0.2334  0.9055  0.1821
 6582SOL    HW231383   0.608   1.014   3.525  0.0485 -0.0965 -2.7235
 6583SOL     OW31384   2.397   2.809   3.004 -0.0673  0.1276 -0.1899
 6583SOL    HW131385   2.428   2.750   2.935  1.0836  0.1488  0.3100
 6583SOL    HW231386   2.360   2.745   3.064 -0.4536  0.2456 -0.3058
 6584SOL     OW31387   1.124   3.076   5.490  0.0923 -0.5645 -0.5478
 6584SOL    HW131388   1.196   3.127   5.452 -0.8557  1.3877  0.3166
 6584SOL    HW231389   1.045   3.109   5.447 -0.3888 -0.9152  0.0658
 6585SOL     OW31390   1.270   0.327  12.012  0.4675 -0.1554 -0.2459
 6585SOL    HW131391   1.293   0.237  12.036 -2.7121 -0.9539 -0.2916
 6585SOL    HW231392   1.256   0.372  12.095  2.8315  0.1052  0.0212
 6586SOL     OW31393   1.384   3.889  15.503 -0.1644 -0.0297  0.0169
 6586SOL    HW131394   1.331   3.840  15.440 -0.1081 -0.4177  0.2726
 6586SOL    HW231395   1.314   3.940  15.543  0.4418  0.6930  0.1438
 6587SOL     OW31396   0.025   0.477   5.800 -0.1351 -0.2364  0.5259
 6587SOL    HW131397   0.052   0.538   5.731  1.9183 -2.3758 -0.5718
 6587SOL    HW231398   4.736   0.534   5.871 -0.6716 -1.3873  1.2435
 6588SOL     OW31399   1.541   0.699   6.924  0.1773 -0.3116  0.2978
 6588SOL    HW131400   1.614   0.645   6.893 -1.8476 -2.9738  0.1256
 6588SOL    HW231401   1.469   0.655   6.879  0.1061  0.8926 -0.7647
 6589SOL     OW31402   2.750   2.802   2.557  0.3867 -0.1618 -0.2139
 6589SOL    HW131403   2.823   2.863   2.559 -0.1479  0.5219 -1.3900
 6589SOL    HW231404   2.676   2.860   2.573  1.7320  1.8421 -1.2064
 6590SOL     OW31405   0.545   0.285   2.101  0.0110  0.2456  0.1049
 6590SOL    HW131406   0.509   0.299   2.013 -2.1594 -1.9239  0.6499
 6590SOL    HW231407   0.557   0.372   2.138  0.4130 -0.1344  0.8554
 6591SOL     OW31408   1.557   3.409  16.167  0.0985 -0.1575 -0.4821
 6591SOL    HW131409   1.566   3.503  16.152 -0.1500 -0.2852 -1.4266
 6591SOL    HW231410   1.641   3.377  16.199 -0.1571 -1.3295 -0.9741
 6592SOL     OW31411   4.531   2.400   6.793 -0.0534 -0.0038  0.3428
 6592SOL    HW131412   4.579   2.349   6.728 -2.8813 -0.1993 -1.6106
 6592SOL    HW231413   4.560   2.488   6.769  1.4910 -0.4978  0.3882
 6593SOL     OW31414   3.978   3.680  17.451  0.0226 -0.2991 -0.4376
 6593SOL    HW131415   3.953   3.706  17.362 -0.8659 -0.0197 -0.1088
 6593SOL    HW231416   3.917   3.607  17.464  0.3425 -0.6099 -0.6735
 6594SOL     OW31417   1.172   0.689  13.880 -0.2187  0.8301  0.3776
 6594SOL    HW131418   1.191   0.595  13.886 -1.7922  0.4059 -1.3147
 6594SOL    HW231419   1.219   0.714  13.960  2.7215  0.8583 -1.3599
 6595SOL     OW31420   3.831   2.685  15.983  0.0312 -0.0308 -0.2610
 6595SOL    HW131421   3.824   2.599  15.941 -3.1457 -0.4215  1.1248
 6595SOL    HW231422   3.808   2.746  15.913  0.1293 -0.4181 -0.6326
 6596SOL     OW31423   1.896   1.327   2.260 -0.2658 -0.1007 -0.4577
 6596SOL    HW131424   1.846   1.349   2.339  0.3003  0.2405 -0.1953
 6596SOL    HW231425   1.981   1.305   2.299 -1.3775  0.2634  2.1375
 6597SOL     OW31426   3.057   1.499   6.561 -0.0941  0.0039  0.0668
 6597SOL    HW131427   3.109   1.495   6.481  0.9205  1.1965  0.6544
 6597SOL    HW231428   3.039   1.405   6.566 -0.1320 -0.0681 -1.4911
 6598SOL     OW31429   0.998   1.522   2.207  0.1585  0.1084  0.5147
 6598SOL    HW131430   0.944   1.508   2.129 -0.5593 -0.2065  1.0819
 6598SOL    HW231431   0.949   1.479   2.276 -1.7692  1.6457  0.1012
 6599SOL     OW31432   0.329   2.185   8.296  0.3735  0.6468  0.0187
 6599SOL    HW131433   0.309   2.256   8.357 -0.9242  0.2302  0.0864
 6599SOL    HW231434   0.421   2.202   8.277  0.2621 -1.1028 -2.1424
 6600SOL     OW31435   1.854   2.912   1.631 -0.7974  0.1906  0.5847
 6600SOL    HW131436   1.886   2.995   1.595 -1.3788  0.2584  0.2365
 6600SOL    HW231437   1.812   2.872   1.556  0.3158 -2.0818  1.1724
 6601SOL     OW31438   3.436   2.303   8.623 -0.1889  0.2268  0.0559
 6601SOL    HW131439   3.372   2.236   8.646  1.4278 -0.9600  1.1420
 6601SOL    HW231440   3.517   2.269   8.662 -0.1713 -0.1351 -0.2950
 6602SOL     OW31441   1.640   4.434   3.376 -0.1277 -0.2063 -0.6288
 6602SOL    HW131442   1.656   4.520   3.415 -1.8008 -0.2210  0.1042
 6602SOL    HW231443   1.650   4.451   3.283 -0.7659 -0.8658 -0.8153
 6603SOL     OW31444   3.141   4.577  11.301  0.0799  0.3226 -0.6297
 6603SOL    HW131445   3.067   4.637  11.298 -1.5274 -1.5548  1.4930
 6603SOL    HW231446   3.112   4.511  11.364 -0.4929  1.5206  0.3707
 6604SOL     OW31447   1.744   1.358   1.738 -0.8748  0.4736  0.3629
 6604SOL    HW131448   1.701   1.438   1.708  0.3743  0.6262 -1.0003
 6604SOL    HW231449   1.763   1.366   1.832 -0.2431 -0.5994  0.3252
 6605SOL     OW31450   1.314   3.757   6.340  0.1391  0.4378 -0.5344
 6605SOL    HW131451   1.244   3.822   6.344 -2.4344 -2.4891  2.5595
 6605SOL    HW231452   1.347   3.756   6.430 -0.1254  0.3387 -0.4377
 6606SOL     OW31453   3.089   3.585   6.949  0.9244  0.3380 -0.4567
 6606SOL    HW131454   3.026   3.558   6.882 -0.5873  0.0568  1.0753
 6606SOL    HW231455   3.119   3.506   6.993  1.3907  0.7882  0.0299
 6607SOL     OW31456   0.956   4.628   7.659  0.0798  0.2841  0.4546
 6607SOL    HW131457   0.873   4.580   7.653  0.6409 -0.2833 -2.8552
 6607SOL    HW231458   1.013   4.582   7.597  0.9015  2.4935 -0.4507
 6608SOL     OW31459   3.350   3.461   8.686  0.0498 -0.4027 -0.5315
 6608SOL    HW131460   3.283   3.448   8.619 -0.3597  2.0562 -0.5925
 6608SOL    HW231461   3.313   3.438   8.771  1.4182  0.8354  0.4001
 6609SOL     OW31462   2.991   1.680   5.051 -0.6424  0.0757 -0.3053
 6609SOL    HW131463   2.912   1.684   5.105  0.0675  5.4497  0.3302
 6609SOL    HW231464   3.060   1.712   5.110  1.1397 -0.5269 -2.0590
 6610SOL     OW31465   3.833   0.526  12.210  0.2230 -0.0583  0.3652
 6610SOL    HW131466   3.862   0.562  12.294 -1.4029  1.1442  0.4137
 6610SOL    HW231467   3.741   0.554  12.204  0.6495  1.2955  0.0569
 6611SOL     OW31468   4.735   2.196  13.635 -0.4658  0.7671  0.4179
 6611SOL    HW131469   4.681   2.269  13.603  0.8011  0.5086 -2.2768
 6611SOL    HW231470   4.670   2.148  13.688  1.5507 -2.3761  0.0357
 6612SOL     OW31471   0.601   2.720   8.878 -0.0154  0.2457  0.1640
 6612SOL    HW131472   0.559   2.642   8.839  3.1818 -1.0233 -0.7176
 6612SOL    HW231473   0.535   2.786   8.860 -0.3860  0.1693  1.2047
 6613SOL     OW31474   1.872   3.281   9.217  0.0308  0.6032  0.0070
 6613SOL    HW131475   1.856   3.252   9.127  0.1705  0.7635 -0.0692
 6613SOL    HW231476   1.914   3.367   9.210 -1.1098  1.1685  0.1255
 6614SOL     OW31477   3.448   2.364   3.769  0.1391  0.2878  0.1109
 6614SOL    HW131478   3.389   2.329   3.703 -0.4400  1.7499 -0.1474
 6614SOL    HW231479   3.511   2.409   3.713  0.7018 -1.0444 -0.3203
 6615SOL     OW31480   3.961   0.265  14.153 -0.1330  0.3493  0.2678
 6615SOL    HW131481   3.955   0.244  14.059  2.9815  0.6562  0.0048
 6615SOL    HW231482   3.894   0.332  14.161 -0.8332 -0.2702 -0.3310
 6616SOL     OW31483   1.140   2.279   3.274  0.2794 -0.2527  0.1096
 6616SOL    HW131484   1.115   2.317   3.358  0.3782  0.6418 -0.2645
 6616SOL    HW231485   1.134   2.355   3.216 -1.5186 -1.2327 -0.9741
 6617SOL     OW31486   4.255   2.603   9.384 -0.0935  0.3947 -0.5723
 6617SOL    HW131487   4.258   2.522   9.435 -0.0891  0.5886 -0.2663
 6617SOL    HW231488   4.349   2.614   9.370  0.3920 -1.3156  1.2159
 6618SOL     OW31489   1.746   3.909   0.079  0.3163  0.1482  0.1945
 6618SOL    HW131490   1.685   3.835   0.079 -0.5547  0.8804 -2.0386
 6618SOL    HW231491   1.692   3.986   0.061  1.3986  0.6413 -0.9436
 6619SOL     OW31492   4.144   2.698   6.097  0.1439  1.0545 -0.3386
 6619SOL    HW131493   4.123   2.612   6.133  0.0851  0.8269 -0.9178
 6619SOL    HW231494   4.213   2.674   6.035  1.8776 -0.0498  2.0080
 6620SOL     OW31495   3.043   1.638   2.921  0.1431  0.0284  0.1966
 6620SOL    HW131496   3.106   1.566   2.921  0.2477  0.1239 -1.2421
 6620SOL    HW231497   3.093   1.703   2.971  0.4164  0.6035 -0.8369
 6621SOL     OW31498   2.698   0.474   3.825  0.1101  0.1052  0.0864
 6621SOL    HW131499   2.719   0.406   3.762  2.4043  0.5296  0.3938
 6621SOL    HW231500   2.697   0.549   3.766 -0.8325 -1.2113 -1.5655
 6622SOL     OW31501   2.171   4.537  14.267  0.8726  0.1250  0.7318
 6622SOL    HW131502   2.137   4.448  14.279  2.1079 -0.2644  1.2932
 6622SOL    HW231503   2.248   4.526  14.211  0.8311 -1.4272  0.9731
 6623SOL     OW31504   0.464   0.629  12.656 -0.2248  0.5793  0.2083
 6623SOL    HW131505   0.519   0.624  12.577  0.6654 -0.4260  0.8978
 6623SOL    HW231506   0.469   0.542  12.694 -1.0443  0.2996 -0.3315
 6624SOL     OW31507   1.081   2.479   3.114 -0.5697 -0.6685  0.4117
 6624SOL    HW131508   0.993   2.484   3.077 -0.5932  2.2056  0.8737
 6624SOL    HW231509   1.110   2.569   3.101 -0.9263 -0.5800  0.2199
 6625SOL     OW31510   2.906   1.888  13.779  0.4246 -0.4264  0.0631
 6625SOL    HW131511   2.955   1.828  13.723 -1.0939 -2.2006  0.6336
 6625SOL    HW231512   2.976   1.935  13.824  0.6374  0.4605 -1.2019
 6626SOL     OW31513   1.694   3.348   9.417 -0.5594  0.4743 -0.2541
 6626SOL    HW131514   1.766   3.323   9.359 -0.2153  0.8613  0.0092
 6626SOL    HW231515   1.625   3.367   9.354 -0.3644  0.9159 -0.3322
 6627SOL     OW31516   4.313   4.300  14.884  0.2314  0.6694  0.2258
 6627SOL    HW131517   4.260   4.225  14.857  0.3833  1.0891 -1.2514
 6627SOL    HW231518   4.259   4.339  14.953 -0.1600  1.9865 -0.8123
 6628SOL     OW31519   2.721   0.918   5.660  0.1639  0.5965  0.0218
 6628SOL    HW131520   2.713   0.946   5.751  0.5733  0.7949 -0.0069
 6628SOL    HW231521   2.782   0.845   5.655 -0.2014  0.4317 -2.1517
 6629SOL     OW31522   4.617   0.034   0.256  0.0439 -0.1042  0.6649
 6629SOL    HW131523   4.642   0.121   0.225  1.3075 -0.8532 -0.4316
 6629SOL    HW231524   4.550   0.010   0.191  0.0005  2.1392 -0.1148
 6630SOL     OW31525   4.138   3.560  10.092 -0.0834 -0.1707  0.5316
 6630SOL    HW131526   4.116   3.618  10.165  0.4175  0.2335  0.3631
 6630SOL    HW231527   4.228   3.589  10.077 -0.0028 -0.1324  1.0747
 6631SOL     OW31528   4.537   2.018   7.767 -0.3398  0.4034 -0.3818
 6631SOL    HW131529   4.523   2.109   7.790 -0.9113  0.1541  0.2744
 6631SOL    HW231530   4.603   1.989   7.830 -3.2533 -1.9757  1.5868
 6632SOL     OW31531   3.107   3.299   3.341 -0.3962  0.1008 -0.4904
 6632SOL    HW131532   3.190   3.331   3.374 -0.7491  1.2968 -0.7572
 6632SOL    HW231533   3.054   3.370   3.378  0.6424  0.8236 -0.3923
 6633SOL     OW31534   2.229   2.096  12.197  0.4250  0.1748  0.3379
 6633SOL    HW131535   2.278   2.036  12.142 -1.9004 -0.0754 -1.4362
 6633SOL    HW231536   2.236   2.178  12.147  1.5265  0.2996  0.6877
 6634SOL     OW31537   1.255   0.167   8.245 -0.4661  0.3552  0.2212
 6634SOL    HW131538   1.297   0.125   8.320 -1.2869 -1.7794 -0.5187
 6634SOL    HW231539   1.329   0.185   8.187 -0.1176  2.1555  1.2284
 6635SOL     OW31540   0.183   0.633   1.327  0.1552 -0.6564  0.3518
 6635SOL    HW131541   0.222   0.635   1.239  0.8848 -0.8014  0.6710
 6635SOL    HW231542   0.195   0.541   1.348  0.0869 -0.5869  0.6836
 6636SOL     OW31543   4.255   3.593   3.594 -0.3041 -0.4887  0.0565
 6636SOL    HW131544   4.212   3.508   3.590  2.6307 -2.0412  1.9698
 6636SOL    HW231545   4.277   3.614   3.503 -2.2613  0.1363 -0.2717
 6637SOL     OW31546   1.248   4.451   9.727 -0.6591  0.7313 -0.1014
 6637SOL    HW131547   1.307   4.386   9.689 -0.5060  0.7735  0.0665
 6637SOL    HW231548   1.298   4.469   9.807  0.3065  0.2495 -0.5962
 6638SOL     OW31549   4.686   0.317   0.289  0.4714 -0.0246  0.1223
 6638SOL    HW131550   4.679   0.325   0.384  0.5587  1.5067  0.0063
 6638SOL    HW231551   0.034   0.354   0.274  1.8745 -3.3843  0.0414
 6639SOL     OW31552   3.328   0.887   2.710  0.6597  0.8220 -0.4491
 6639SOL    HW131553   3.405   0.830   2.702  1.1661  1.5329 -0.6918
 6639SOL    HW231554   3.299   0.880   2.801  1.4255  1.5570 -0.1456
 6640SOL     OW31555   2.940   4.516   4.967 -0.0278 -0.0959  0.1500
 6640SOL    HW131556   2.913   4.455   5.036 -1.6109  2.3909  1.7568
 6640SOL    HW231557   2.857   4.563   4.961 -0.0190 -0.0200  0.6136
 6641SOL     OW31558   0.204   3.000   4.152 -0.1657 -0.6639 -0.5190
 6641SOL    HW131559   0.195   3.088   4.116 -1.1519 -1.0194 -1.1440
 6641SOL    HW231560   0.273   3.013   4.216  0.3336  4.1217 -2.0561
 6642SOL     OW31561   3.584   0.769   3.971 -0.1573 -0.1092  0.3415
 6642SOL    HW131562   3.549   0.682   3.952 -1.1050  0.5094 -0.7299
 6642SOL    HW231563   3.570   0.813   3.887  0.2032 -0.4216  0.1160
 6643SOL     OW31564   4.270   4.106   4.454  0.3881 -0.5972 -0.1965
 6643SOL    HW131565   4.203   4.070   4.395 -1.1965  0.4327  0.9432
 6643SOL    HW231566   4.222   4.129   4.534  2.7482  1.2002  0.6873
 6644SOL     OW31567   1.797   1.794   9.528 -0.1543  0.3071  0.3257
 6644SOL    HW131568   1.807   1.782   9.433  2.6690  0.5675  0.5968
 6644SOL    HW231569   1.799   1.890   9.526 -2.3518  0.3587  1.0787
 6645SOL     OW31570   4.061   1.926  17.032  0.4868 -0.2241  0.7178
 6645SOL    HW131571   4.092   1.841  17.001 -0.9920 -1.0166  1.3874
 6645SOL    HW231572   4.108   1.942  17.114  0.4904 -0.3413  0.7378
 6646SOL     OW31573   2.629   4.367  11.712  0.2216  0.1549  0.2433
 6646SOL    HW131574   2.576   4.436  11.670 -2.6873 -1.0117  1.9885
 6646SOL    HW231575   2.711   4.416  11.712  0.6190 -0.5079 -0.9329
 6647SOL     OW31576   4.553   4.695   2.456 -1.1458 -0.9048  0.4959
 6647SOL    HW131577   4.485   4.629   2.472  0.4917 -2.4913  0.8578
 6647SOL    HW231578   4.630   4.644   2.432 -1.1586 -2.0741  2.8735
 6648SOL     OW31579   3.260   2.565   6.100 -0.1598  0.4097  0.3358
 6648SOL    HW131580   3.309   2.627   6.153  2.0113 -0.8735 -0.1376
 6648SOL    HW231581   3.219   2.496   6.152  2.3467 -1.4803 -0.2017
 6649SOL     OW31582   0.534   2.309   6.078 -0.6021 -0.3139 -0.2858
 6649SOL    HW131583   0.590   2.305   6.001  0.9475  1.5172  0.7534
 6649SOL    HW231584   0.569   2.381   6.131 -0.7308 -0.8957  0.6059
 6650SOL     OW31585   2.715   2.963  11.139  0.6570  0.0571 -0.2923
 6650SOL    HW131586   2.771   2.990  11.212 -0.0194 -0.0870  0.2810
 6650SOL    HW231587   2.627   2.971  11.177  0.1654  0.3742 -1.4957
 6651SOL     OW31588   0.359   4.094   0.820 -0.1512 -0.1812 -0.3533
 6651SOL    HW131589   0.431   4.145   0.856  0.0695 -1.6366  1.2933
 6651SOL    HW231590   0.301   4.170   0.829  2.7902  1.8984  1.1228
 6652SOL     OW31591   2.163   3.676  11.219 -0.0696  0.5062  0.7601
 6652SOL    HW131592   2.114   3.601  11.185 -0.7922  1.1202  0.4409
 6652SOL    HW231593   2.252   3.686  11.185 -1.1432  0.1366 -2.1451
 6653SOL     OW31594   0.692   0.554   2.079  0.1846  0.1192  0.4604
 6653SOL    HW131595   0.737   0.609   2.015  0.2485  0.1018  0.4903
 6653SOL    HW231596   0.602   0.588   2.081  1.2404  2.9653  0.3466
 6654SOL     OW31597   2.806   1.888   0.190  0.0127  0.4272 -0.2199
 6654SOL    HW131598   2.758   1.899   0.108 -0.3558  2.8247  0.3179
 6654SOL    HW231599   2.883   1.836   0.167 -1.6327 -2.8896  1.8417
 6655SOL     OW31600   1.873   3.396   2.005 -0.0809 -0.1457  0.3722
 6655SOL    HW131601   1.965   3.422   2.004 -0.0284 -0.2627  2.9517
 6655SOL    HW231602   1.861   3.352   1.921 -0.6268 -0.5567  0.6695
 6656SOL     OW31603   3.798   2.888   9.441  0.0179 -0.1939  0.0217
 6656SOL    HW131604   3.877   2.875   9.494  1.3484  0.4192 -1.8023
 6656SOL    HW231605   3.836   2.880   9.353 -0.5456 -0.3302 -0.2112
 6657SOL     OW31606   2.170   0.504  14.240  0.1515  0.0353  0.4630
 6657SOL    HW131607   2.102   0.571  14.233 -1.7352 -1.6749  2.2820
 6657SOL    HW231608   2.216   0.529  14.160 -0.4316 -1.5325 -0.3600
 6658SOL     OW31609   3.603   0.314  10.422  0.7685 -0.1701  0.3437
 6658SOL    HW131610   3.544   0.388  10.437 -0.7982 -1.0886 -1.2774
 6658SOL    HW231611   3.591   0.310  10.327  1.9531 -1.4134  0.2479
 6659SOL     OW31612   3.045   1.631  12.362  0.4360 -0.4814  0.1952
 6659SOL    HW131613   2.989   1.681  12.422  0.3464 -1.1565  0.6689
 6659SOL    HW231614   3.060   1.686  12.285  0.4023 -1.4106 -0.4637
 6660SOL     OW31615   2.444   3.413  13.992 -0.2578 -0.8936 -0.2582
 6660SOL    HW131616   2.506   3.474  13.952 -2.6332  0.5282 -1.7901
 6660SOL    HW231617   2.484   3.337  13.950  0.1253 -2.3855  2.8302
 6661SOL     OW31618   0.839   3.725  12.866  0.0370  0.3003  0.0677
 6661SOL    HW131619   0.860   3.676  12.945  0.3791  0.2966 -0.0268
 6661SOL    HW231620   0.925   3.718  12.824 -1.4717  1.3360 -3.2081
 6662SOL     OW31621   3.277   4.067   7.118  0.1628  0.0946  0.1695
 6662SOL    HW131622   3.263   4.158   7.093 -0.4877 -0.2680 -0.7653
 6662SOL    HW231623   3.191   4.026   7.109  1.0952 -1.8345  0.0449
 6663SOL     OW31624   3.422   4.248  16.473  0.2059 -0.0824 -0.3423
 6663SOL    HW131625   3.503   4.281  16.513 -0.6833  0.7091  0.7757
 6663SOL    HW231626   3.363   4.291  16.534 -1.0886 -0.7755 -1.1155
 6664SOL     OW31627   3.466   0.731  12.420 -0.3109  0.0086 -0.1259
 6664SOL    HW131628   3.520   0.808  12.402 -3.1162  2.1276  0.6724
 6664SOL    HW231629   3.529   0.659  12.433 -0.4487 -0.1529 -0.3433
 6665SOL     OW31630   0.847   0.678  17.445 -0.8404  0.5506  0.3592
 6665SOL    HW131631   0.940   0.656  17.449 -1.1387 -0.7193  0.2126
 6665SOL    HW231632   0.818   0.680  17.536 -0.6262  1.3628  0.4132
 6666SOL     OW31633   4.403   1.104  16.639 -0.1631 -0.0175  0.8009
 6666SOL    HW131634   4.467   1.048  16.595  0.4588 -0.6905  2.5748
 6666SOL    HW231635   4.455   1.138  16.711  0.0433 -0.6401  0.9405
 6667SOL     OW31636   0.096   0.089   6.028 -0.4716 -0.2113 -0.2108
 6667SOL    HW131637   0.118   0.063   6.118 -1.0978 -0.0876 -0.0244
 6667SOL    HW231638   0.001   0.090   6.027 -0.4665  2.0830  0.5583
 6668SOL     OW31639   0.286   3.418   3.757  0.1448  0.1313  0.2690
 6668SOL    HW131640   0.213   3.456   3.710  0.9543 -0.4771 -1.4761
 6668SOL    HW231641   0.347   3.425   3.683 -0.1349  0.2109  0.0499
 6669SOL     OW31642   0.770   1.601   7.969 -0.0896 -0.4367 -0.0466
 6669SOL    HW131643   0.743   1.510   7.982  0.3104 -0.3243  1.5121
 6669SOL    HW231644   0.704   1.648   8.021  2.0925  0.3431  2.0176
 6670SOL     OW31645   4.709   1.656   8.098 -0.2495  0.3516  0.0848
 6670SOL    HW131646   0.017   1.661   8.181 -0.6028 -1.7116  0.4133
 6670SOL    HW231647   4.714   1.564   8.069  0.3183  0.6668 -0.8145
 6671SOL     OW31648   4.305   2.057   8.881  0.7834  0.2123 -0.1145
 6671SOL    HW131649   4.346   2.128   8.931 -0.3185  0.8423 -0.1196
 6671SOL    HW231650   4.384   2.005   8.866  2.0296  1.2907  2.6775
 6672SOL     OW31651   3.495   0.899   6.703  0.0021 -0.4309  0.5848
 6672SOL    HW131652   3.495   0.995   6.711  0.8717 -0.3830 -0.0579
 6672SOL    HW231653   3.581   0.876   6.739 -0.4546 -0.6072  1.5563
 6673SOL     OW31654   1.476   2.057   2.069 -0.0860  0.3619 -0.0882
 6673SOL    HW131655   1.558   2.028   2.027  0.0378  1.2318 -0.4474
 6673SOL    HW231656   1.453   2.124   2.004  1.3536  1.9779  1.0598
 6674SOL     OW31657   0.673   4.453   2.995  0.1609 -0.7370 -0.3549
 6674SOL    HW131658   0.760   4.489   2.976 -0.3555  0.3623 -0.6113
 6674SOL    HW231659   0.689   4.359   2.997  0.2707 -0.7547 -1.6951
 6675SOL     OW31660   4.609   3.756   5.002  0.4357 -0.2826  0.2212
 6675SOL    HW131661   4.640   3.829   4.949  2.0956 -3.0782 -2.6015
 6675SOL    HW231662   4.542   3.807   5.048  0.1995  0.0229 -0.4593
 6676SOL     OW31663   4.358   2.719   5.673 -0.7649 -0.0220 -0.0721
 6676SOL    HW131664   4.407   2.638   5.690  3.1605  2.1231 -1.2682
 6676SOL    HW231665   4.385   2.779   5.743  1.1114  0.1625 -0.9770
 6677SOL     OW31666   2.399   1.903   4.807 -0.1090 -0.5725 -0.3729
 6677SOL    HW131667   2.450   1.823   4.817  0.5828 -0.1624 -0.5910
 6677SOL    HW231668   2.310   1.873   4.827 -0.7987  2.4184  1.1035
 6678SOL     OW31669   4.176   0.477   7.731 -1.3132 -0.0739 -0.3728
 6678SOL    HW131670   4.223   0.407   7.776 -0.0625 -0.5362 -2.3631
 6678SOL    HW231671   4.162   0.527   7.811  2.4014 -0.7907  0.7458
 6679SOL     OW31672   4.453   0.531   9.455 -0.4165 -0.6727  0.2126
 6679SOL    HW131673   4.496   0.608   9.493 -1.7367 -0.6959  1.7130
 6679SOL    HW231674   4.446   0.471   9.529 -0.3701  0.7368  1.3708
 6680SOL     OW31675   0.046   3.994   1.277  0.2113 -0.4241  0.0510
 6680SOL    HW131676   0.038   3.986   1.372  2.2673 -1.5266  0.1355
 6680SOL    HW231677   0.069   3.909   1.241 -1.9349 -0.5403 -1.0178
 6681SOL     OW31678   1.285   1.074   6.389 -0.3674  0.4792 -0.2042
 6681SOL    HW131679   1.365   1.076   6.336 -0.0340 -0.0788  0.2750
 6681SOL    HW231680   1.268   0.980   6.395  0.2321  0.3317 -0.7540
 6682SOL     OW31681   1.320   0.648   9.346  0.3923  1.1111  0.0010
 6682SOL    HW131682   1.250   0.621   9.406 -0.5538 -1.0622 -2.0962
 6682SOL    HW231683   1.397   0.660   9.402  1.5503  0.9374 -1.5679
 6683SOL     OW31684   3.273   1.393   7.841  0.1772 -0.0301 -0.2783
 6683SOL    HW131685   3.338   1.322   7.837 -1.2970 -1.3512 -1.0805
 6683SOL    HW231686   3.304   1.453   7.774 -0.3691 -0.6498 -1.0913
 6684SOL     OW31687   2.472   2.180   2.616  0.0586 -0.2910  0.0428
 6684SOL    HW131688   2.427   2.195   2.532  1.5935 -0.8211 -0.8758
 6684SOL    HW231689   2.446   2.254   2.671  0.7509 -2.1805  2.8640
 6685SOL     OW31690   2.951   3.880   3.934 -0.0757 -0.2330  0.4018
 6685SOL    HW131691   2.966   3.943   4.005  1.5561 -1.2777  0.9901
 6685SOL    HW231692   3.032   3.829   3.932 -0.0749 -0.2713  1.3047
 6686SOL     OW31693   1.309   3.589   5.281 -0.3498 -0.0816 -0.1816
 6686SOL    HW131694   1.229   3.578   5.332  0.5583 -0.0428  1.2388
 6686SOL    HW231695   1.286   3.515   5.225  0.8102  0.5878 -1.5199
 6687SOL     OW31696   3.810   2.709   8.611  0.2110  0.2995 -0.2900
 6687SOL    HW131697   3.730   2.700   8.664 -0.7493 -0.0676 -1.7996
 6687SOL    HW231698   3.878   2.744   8.668  1.5753 -2.4955 -0.1871
 6688SOL     OW31699   0.562   0.350   0.833 -0.4931 -0.1144  0.0919
 6688SOL    HW131700   0.652   0.342   0.864 -0.1663 -4.2326 -1.8399
 6688SOL    HW231701   0.515   0.287   0.888 -2.2465  0.2867 -0.9451
 6689SOL     OW31702   4.733   3.160   4.618 -0.4490 -0.3450 -0.2293
 6689SOL    HW131703   0.083   3.182   4.646 -0.4286  0.6776 -1.1397
 6689SOL    HW231704   4.687   3.162   4.701  0.8149 -0.1985  0.4757
 6690SOL     OW31705   1.515   1.027   4.765  0.1843  0.3240 -0.7325
 6690SOL    HW131706   1.578   1.075   4.711 -0.5517  1.0752 -0.9300
 6690SOL    HW231707   1.478   0.961   4.706  0.7967 -0.9196  0.2788
 6691SOL     OW31708   3.463   0.149   1.375 -0.0838  0.1279  0.3334
 6691SOL    HW131709   3.510   0.117   1.452 -1.0417 -2.4088 -0.1555
 6691SOL    HW231710   3.372   0.121   1.386 -0.4466  1.1076 -0.1536
 6692SOL     OW31711   2.708   1.478   5.376  0.2899  0.1221  0.1913
 6692SOL    HW131712   2.750   1.555   5.338  1.0669  0.2517  1.3312
 6692SOL    HW231713   2.620   1.485   5.339  0.0365 -0.9963  0.5854
 6693SOL     OW31714   2.946   2.864   9.506  0.7846  0.2662  0.3194
 6693SOL    HW131715   3.039   2.844   9.507  0.8053  0.3578  0.2124
 6693SOL    HW231716   2.924   2.820   9.424  1.1318 -2.0444  1.4818
 6694SOL     OW31717   0.516   0.478   3.726 -0.0660  0.7770  0.1096
 6694SOL    HW131718   0.490   0.570   3.716 -0.9861  0.2902 -2.0548
 6694SOL    HW231719   0.574   0.485   3.801  0.3295  4.5045 -0.5387
 6695SOL     OW31720   4.182   1.284   9.070 -0.6375  0.0959  0.3978
 6695SOL    HW131721   4.095   1.281   9.030  0.1274 -0.7306 -1.1851
 6695SOL    HW231722   4.188   1.192   9.094  0.4391 -0.1573 -0.8458
 6696SOL     OW31723   0.678   2.712   1.299 -0.4789 -0.3772  0.1052
 6696SOL    HW131724   0.736   2.743   1.229 -0.3054 -1.6611 -0.3026
 6696SOL    HW231725   0.626   2.650   1.249  0.2813 -0.5122 -0.5213
 6697SOL     OW31726   0.640   0.750   4.641  0.4667 -0.6479  0.4657
 6697SOL    HW131727   0.550   0.718   4.631  0.5006 -0.4719 -0.4134
 6697SOL    HW231728   0.647   0.814   4.570  2.5027  1.0384  2.1694
 6698SOL     OW31729   1.786   2.553   4.102  0.1827 -0.5464  0.1642
 6698SOL    HW131730   1.724   2.602   4.155 -0.0464  0.9765 -1.4815
 6698SOL    HW231731   1.735   2.523   4.026  1.1905 -1.1637 -0.2749
 6699SOL     OW31732   1.921   2.330   6.054 -0.0292 -0.2927  0.1559
 6699SOL    HW131733   1.966   2.372   6.127  0.6041 -1.4143  0.4180
 6699SOL    HW231734   1.898   2.245   6.093  0.4658 -0.2313  0.5826
 6700SOL     OW31735   4.127   4.013   4.839 -1.0337 -0.4420 -0.3040
 6700SOL    HW131736   4.055   3.972   4.790 -1.4364  2.9629 -2.6236
 6700SOL    HW231737   4.085   4.052   4.916 -0.6016  2.5023 -1.5512
 6701SOL     OW31738   1.303   4.138   6.336 -0.3950  0.3574 -0.2141
 6701SOL    HW131739   1.281   4.159   6.426  0.5365 -1.1445  0.3603
 6701SOL    HW231740   1.255   4.059   6.312 -0.1363 -0.1395  0.9381
 6702SOL     OW31741   2.135   4.162   4.546 -0.0301 -0.0212 -0.0662
 6702SOL    HW131742   2.205   4.157   4.481 -1.9250  0.5333 -2.1694
 6702SOL    HW231743   2.113   4.070   4.561  1.2745 -0.5671 -1.5257
 6703SOL     OW31744   2.672   3.295   8.403 -0.2529 -0.4269 -0.0219
 6703SOL    HW131745   2.752   3.271   8.356 -0.7648  2.4814 -2.3291
 6703SOL    HW231746   2.696   3.373   8.452 -0.5862 -0.6470  0.4865
 6704SOL     OW31747   4.231   3.191   0.718 -0.2699 -0.0177  0.1578
 6704SOL    HW131748   4.153   3.159   0.673 -1.6244  3.6974 -0.1266
 6704SOL    HW231749   4.215   3.181   0.811 -0.6940 -0.2107  0.0639
 6705SOL     OW31750   2.478   3.458   6.165  0.3733 -0.7474  0.7166
 6705SOL    HW131751   2.541   3.428   6.231  0.7225  0.6557  1.0071
 6705SOL    HW231752   2.512   3.442   6.077 -1.1147 -0.5356  0.1065
 6706SOL     OW31753   0.405   1.735  13.553 -0.0697  0.0232  0.1731
 6706SOL    HW131754   0.407   1.735  13.458 -0.0072  0.6019  0.1786
 6706SOL    HW231755   0.376   1.825  13.567  0.9652  0.4300 -0.3555
 6707SOL     OW31756   1.434   3.357  12.405 -0.1881  0.1080 -1.0635
 6707SOL    HW131757   1.344   3.342  12.376 -0.9251 -1.1206  1.8721
 6707SOL    HW231758   1.480   3.304  12.340  0.0732  0.7689 -1.4119
 6708SOL     OW31759   3.541   1.764   3.794 -0.3311 -0.0468  0.4684
 6708SOL    HW131760   3.567   1.851   3.765  0.8514 -0.9309 -1.0713
 6708SOL    HW231761   3.588   1.746   3.876  0.0845  0.3778  0.3235
 6709SOL     OW31762   1.195   1.008   7.379 -0.4725  0.0476  0.2651
 6709SOL    HW131763   1.150   1.030   7.461  0.5856 -2.1983  1.4359
 6709SOL    HW231764   1.136   1.050   7.316  0.0798 -1.6043 -1.3459
 6710SOL     OW31765   0.271   1.872   2.577  0.2605  0.3203 -0.3783
 6710SOL    HW131766   0.187   1.916   2.586  0.9069  0.8311  3.1522
 6710SOL    HW231767   0.300   1.895   2.489  1.6676 -0.8177 -0.2141
 6711SOL     OW31768   4.017   4.600  14.804  0.1269  0.7942 -0.0588
 6711SOL    HW131769   3.976   4.614  14.719  0.1197 -0.8404 -0.3115
 6711SOL    HW231770   4.069   4.681  14.807  2.6705 -0.9643  2.8805
 6712SOL     OW31771   3.308   2.613   1.492  0.5877  0.0402 -0.0923
 6712SOL    HW131772   3.330   2.632   1.401  0.6169  2.1111  0.3370
 6712SOL    HW231773   3.279   2.701   1.519  2.9261  0.5513  0.6812
 6713SOL     OW31774   2.242   1.921   8.523 -0.6352  0.1316  0.0650
 6713SOL    HW131775   2.238   1.929   8.618 -0.7213  1.8811 -0.0867
 6713SOL    HW231776   2.259   1.827   8.528  1.1404  0.4119 -0.8332
 6714SOL     OW31777   1.709   1.765   1.180  0.7467  0.1665  0.2988
 6714SOL    HW131778   1.750   1.786   1.265 -1.0494 -0.0939  1.2202
 6714SOL    HW231779   1.615   1.763   1.197  0.9304 -2.6373  0.9737
 6715SOL     OW31780   2.811   0.335   4.036  0.2997 -0.3086  0.6898
 6715SOL    HW131781   2.774   0.394   3.971 -0.6751 -0.3432  1.2099
 6715SOL    HW231782   2.774   0.378   4.113 -0.2659 -0.0582  0.2782
 6716SOL     OW31783   4.474   4.270   6.798  0.6646  0.1287 -0.2121
 6716SOL    HW131784   4.515   4.189   6.766 -0.3205 -0.7638  0.7732
 6716SOL    HW231785   4.488   4.338   6.733  3.7320  0.6528  0.9839
 6717SOL     OW31786   1.465   1.636   7.041 -0.2235 -0.3739  0.6564
 6717SOL    HW131787   1.375   1.668   7.040 -1.1145 -2.8623  0.8500
 6717SOL    HW231788   1.458   1.568   6.974 -1.8735  1.2000 -0.7654
 6718SOL     OW31789   0.369   1.670  13.252  0.0965 -0.1224  0.1458
 6718SOL    HW131790   0.275   1.685  13.260 -0.0004 -1.0438  0.6702
 6718SOL    HW231791   0.354   1.576  13.261  0.0902 -0.0724  0.6661
 6719SOL     OW31792   4.216   2.025  11.188  0.2560 -0.0294  0.3392
 6719SOL    HW131793   4.129   2.064  11.199  0.4858  0.0645  1.7540
 6719SOL    HW231794   4.262   2.107  11.171 -1.0794  0.3901 -1.3386
 6720SOL     OW31795   1.745   4.347   3.668 -0.3688 -0.0440  0.7180
 6720SOL    HW131796   1.758   4.361   3.762 -1.5256 -0.0292  0.8682
 6720SOL    HW231797   1.706   4.429   3.636 -0.0112  0.7288  2.2731
 6721SOL     OW31798   4.527   1.940   4.267  0.1132  0.4562  0.1946
 6721SOL    HW131799   4.584   1.914   4.340 -0.2711  3.8706  1.7319
 6721SOL    HW231800   4.484   1.858   4.244  3.1153 -0.6352 -1.5085
 6722SOL     OW31801   2.173   2.523   7.160 -0.2364 -0.2137 -0.8641
 6722SOL    HW131802   2.206   2.440   7.196  0.2027  0.0627 -0.6329
 6722SOL    HW231803   2.171   2.575   7.240  0.4772  1.6053 -2.0429
 6723SOL     OW31804   0.317   3.774   8.274  0.6150 -0.2323 -0.0566
 6723SOL    HW131805   0.328   3.741   8.363 -1.4875 -1.0835 -0.0976
 6723SOL    HW231806   0.404   3.812   8.264  0.9651 -1.3982 -1.4906
 6724SOL     OW31807   1.367   0.827  12.215  0.5368 -0.2218 -0.1335
 6724SOL    HW131808   1.399   0.885  12.284 -1.0696 -2.0342  2.1287
 6724SOL    HW231809   1.401   0.742  12.242  0.8267 -0.0149  0.1459
 6725SOL     OW31810   1.368   3.177   3.345  0.1582 -0.2625  0.3376
 6725SOL    HW131811   1.425   3.254   3.351  0.1312 -0.2954  0.9904
 6725SOL    HW231812   1.355   3.159   3.438  0.8173 -0.0734  0.4669
 6726SOL     OW31813   3.185   0.029   4.902 -0.0571  0.3809 -0.7386
 6726SOL    HW131814   3.269   0.072   4.918  1.1542 -1.6009 -1.9165
 6726SOL    HW231815   3.140   0.084   4.838 -1.1524  0.6271  0.2386
 6727SOL     OW31816   1.513   3.141   7.348  0.1978  0.2429 -0.3612
 6727SOL    HW131817   1.487   3.075   7.413 -2.2761  1.5657 -0.0379
 6727SOL    HW231818   1.430   3.162   7.306 -0.6306 -1.7443  0.2390
 6728SOL     OW31819   4.159   3.575  12.245 -0.5382  0.9967  0.8005
 6728SOL    HW131820   4.189   3.601  12.332 -0.3138 -0.0522  1.0378
 6728SOL    HW231821   4.216   3.498  12.237 -1.0966  0.5574  1.0137
 6729SOL     OW31822   1.652   1.264   5.583  0.5947 -0.1726 -0.4926
 6729SOL    HW131823   1.573   1.260   5.638 -0.5312  0.5162 -2.0403
 6729SOL    HW231824   1.653   1.355   5.553  0.8936  0.5294  1.6676
 6730SOL     OW31825   3.804   4.600   9.222  0.2464 -0.0499 -0.3136
 6730SOL    HW131826   3.885   4.650   9.215  0.3296 -0.3687 -1.5570
 6730SOL    HW231827   3.763   4.627   9.140 -0.7215 -1.1860 -0.1991
 6731SOL     OW31828   2.874   4.382  11.007 -0.3525  0.4114  0.3529
 6731SOL    HW131829   2.957   4.348  11.038 -0.0338 -0.1581 -1.1494
 6731SOL    HW231830   2.899   4.445  10.940  3.5184 -0.6206  0.8337
 6732SOL     OW31831   0.873   2.345  17.522 -0.5266  0.1877  0.2750
 6732SOL    HW131832   0.840   2.388  17.600  0.7176  0.1485  0.8329
 6732SOL    HW231833   0.904   2.422  17.474 -2.4362 -0.8024 -2.5339
 6733SOL     OW31834   1.547   2.153  17.611 -0.4763 -0.3539 -0.6043
 6733SOL    HW131835   1.561   2.059  17.624  0.9420 -0.2020 -1.0726
 6733SOL    HW231836   1.452   2.153  17.622 -0.4753 -2.4932 -0.5524
 6734SOL     OW31837   3.853   1.897  10.669  0.0859 -0.7815  0.3299
 6734SOL    HW131838   3.814   1.867  10.751 -0.3592  0.2928  0.5077
 6734SOL    HW231839   3.921   1.838  10.635 -0.8227 -1.6760  0.0439
 6735SOL     OW31840   0.795   3.602   2.024  0.5426 -0.2072 -0.1562
 6735SOL    HW131841   0.722   3.663   2.033  2.5574  1.9464  1.6126
 6735SOL    HW231842   0.742   3.523   2.023  0.8932 -0.4579  0.8483
 6736SOL     OW31843   1.084   3.952   3.020 -0.1173  0.2142  0.1772
 6736SOL    HW131844   1.065   3.959   3.113 -0.5865  3.0763 -0.1265
 6736SOL    HW231845   1.005   3.997   2.990  0.6551  0.5728 -1.3489
 6737SOL     OW31846   0.374   3.920  10.350  0.4559 -0.1020  0.2542
 6737SOL    HW131847   0.335   3.983  10.410  1.8998  0.3630  0.6891
 6737SOL    HW231848   0.462   3.957  10.350  0.3722  0.1256  4.1223
 6738SOL     OW31849   0.458   2.940   1.647 -0.0761  0.1591  0.5938
 6738SOL    HW131850   0.380   2.966   1.598 -0.5372 -3.6076 -0.7048
 6738SOL    HW231851   0.418   2.903   1.726 -1.2292 -0.1626 -0.1448
 6739SOL     OW31852   4.374   1.924   8.309 -0.0880 -0.9902 -0.2252
 6739SOL    HW131853   4.285   1.934   8.275  0.0879  2.4259  0.3058
 6739SOL    HW231854   4.411   1.894   8.226  2.0062  3.3999 -0.9101
 6740SOL     OW31855   3.469   1.569  12.504 -0.2590 -0.2184 -0.2064
 6740SOL    HW131856   3.400   1.511  12.473  1.8130 -2.5821 -0.4139
 6740SOL    HW231857   3.532   1.511  12.547  2.1294  3.6619  1.4618
 6741SOL     OW31858   1.764   3.616   8.123  0.6825 -0.3071 -0.1640
 6741SOL    HW131859   1.856   3.599   8.146  0.9557  0.3847 -0.7305
 6741SOL    HW231860   1.768   3.586   8.032 -0.1323  0.5899 -0.4998
 6742SOL     OW31861   2.175   3.919   4.112 -0.1237  0.1252 -0.1929
 6742SOL    HW131862   2.101   3.962   4.068 -1.3106 -1.8966 -0.1572
 6742SOL    HW231863   2.135   3.834   4.131  0.7122  0.1270  1.5616
 6743SOL     OW31864   3.326   0.679  16.322  0.2013  0.8298  0.1147
 6743SOL    HW131865   3.386   0.605  16.315 -0.8503  0.0516 -0.7854
 6743SOL    HW231866   3.290   0.683  16.411  1.3083 -1.3697  0.6488
 6744SOL     OW31867   2.881   2.209   7.293 -0.0833  0.4644  0.1398
 6744SOL    HW131868   2.811   2.145   7.278 -0.5320  1.0616 -0.3099
 6744SOL    HW231869   2.945   2.169   7.235 -0.8559 -0.5332 -0.0305
 6745SOL     OW31870   0.347   0.952   0.284 -0.2883 -0.3809  0.3119
 6745SOL    HW131871   0.385   1.037   0.309 -1.0472  0.0953 -0.1457
 6745SOL    HW231872   0.315   0.980   0.198  1.1606  0.1703 -0.0482
 6746SOL     OW31873   2.733   2.459   7.286 -0.5332  0.0077  0.1368
 6746SOL    HW131874   2.767   2.488   7.371  0.6728  1.5081 -0.8464
 6746SOL    HW231875   2.787   2.382   7.270 -0.0661  0.9016 -2.5977
 6747SOL     OW31876   4.466   2.184   4.514 -0.3359  0.2075  0.0960
 6747SOL    HW131877   4.415   2.162   4.593 -1.7742 -3.4029 -1.8197
 6747SOL    HW231878   4.551   2.154   4.545 -0.5677 -1.3911 -0.8319
 6748SOL     OW31879   3.725   1.323   3.555 -0.0703 -0.0395  0.9735
 6748SOL    HW131880   3.730   1.283   3.642  1.3820 -0.4380  0.6959
 6748SOL    HW231881   3.814   1.355   3.549 -0.3696  0.5256 -0.3277
 6749SOL     OW31882   2.545   1.602   8.329  0.2049  0.3676 -0.2086
 6749SOL    HW131883   2.494   1.527   8.359  1.3946  1.0123  3.4444
 6749SOL    HW231884   2.479   1.647   8.276 -0.2202 -1.9947 -1.6984
 6750SOL     OW31885   0.227   0.045   4.653  0.2028  0.3953 -0.0674
 6750SOL    HW131886   0.221   0.101   4.576  0.5729 -0.6360 -0.8443
 6750SOL    HW231887   0.228   0.109   4.725 -0.3136  0.2728  0.0497
 6751SOL     OW31888   3.544   0.489  16.526  0.1339  0.0329 -0.1885
 6751SOL    HW131889   3.507   0.457  16.443  0.2331 -1.5659  0.3804
 6751SOL    HW231890   3.509   0.578  16.530  1.2016  0.4219  0.2358
 6752SOL     OW31891   0.968   2.571   4.631  0.3067 -0.7234 -0.4175
 6752SOL    HW131892   1.059   2.599   4.638 -0.3516  0.8303  1.9260
 6752SOL    HW231893   0.966   2.527   4.546 -0.1262 -0.2133 -0.6683
 6753SOL     OW31894   0.190   1.798  14.194  0.2378  0.1895  0.0939
 6753SOL    HW131895   0.198   1.717  14.144  1.5814 -0.1282  0.8274
 6753SOL    HW231896   0.130   1.857  14.147  0.6794  0.8634  0.3713
 6754SOL     OW31897   4.493   2.479  11.020 -0.0659 -0.7849 -0.1523
 6754SOL    HW131898   4.565   2.431  10.980  0.8747 -0.6490  1.3642
 6754SOL    HW231899   4.420   2.465  10.961 -1.2526 -0.0215  1.1265
 6755SOL     OW31900   1.217   3.515   5.833  0.4302  0.4024  0.7731
 6755SOL    HW131901   1.228   3.563   5.751 -1.7707 -2.7681 -1.3615
 6755SOL    HW231902   1.127   3.486   5.841  0.5348 -0.1434 -0.1163
 6756SOL     OW31903   3.650   3.649   9.795  0.4952 -0.1876  0.4736
 6756SOL    HW131904   3.677   3.617   9.881 -0.5182 -2.8479 -0.1888
 6756SOL    HW231905   3.716   3.714   9.771 -0.3279  0.3925 -0.1943
 6757SOL     OW31906   0.202   1.633   4.351  0.9065 -0.3870 -0.5587
 6757SOL    HW131907   0.121   1.668   4.316  1.1425  0.4885 -0.2458
 6757SOL    HW231908   0.191   1.538   4.352 -0.9918 -0.1451  0.4936
 6758SOL     OW31909   3.671   3.238   6.046  0.1496 -0.5167 -0.3590
 6758SOL    HW131910   3.690   3.324   6.009  3.4091 -1.3907 -0.7290
 6758SOL    HW231911   3.635   3.186   5.974  0.0808  0.0103 -0.7039
 6759SOL     OW31912   3.602   2.077   8.615  0.6165  0.0806  0.0071
 6759SOL    HW131913   3.541   2.021   8.567  0.8181 -0.2030  0.0818
 6759SOL    HW231914   3.666   2.098   8.547  0.7263  1.1580  0.4425
 6760SOL     OW31915   4.558   1.700   9.485 -0.2930 -0.0669  0.0762
 6760SOL    HW131916   4.630   1.701   9.549 -0.4937 -2.6925  0.3334
 6760SOL    HW231917   4.484   1.676   9.539 -1.2009  0.0927 -1.0983
 6761SOL     OW31918   1.480   1.249   2.082  0.1237  0.3648  0.0830
 6761SOL    HW131919   1.406   1.217   2.133  0.9848  0.8285  1.6408
 6761SOL    HW231920   1.516   1.309   2.148 -1.0762 -1.6622  2.5819
 6762SOL     OW31921   0.951   3.621  10.386  0.0379 -0.5453 -0.7448
 6762SOL    HW131922   0.938   3.563  10.462  0.6246 -0.1418 -0.3460
 6762SOL    HW231923   0.986   3.555  10.326  0.6528 -0.0538 -0.9230
 6763SOL     OW31924   2.416   4.604   5.026  0.0794  0.1257  0.5837
 6763SOL    HW131925   2.334   4.563   5.001  0.2764 -0.5821  1.0812
 6763SOL    HW231926   2.381   4.668   5.087 -0.9045 -1.0816  1.2960
 6764SOL     OW31927   1.349   0.963  15.210  0.0130  0.7382  0.0521
 6764SOL    HW131928   1.335   0.897  15.278  0.2787 -0.0801 -0.6854
 6764SOL    HW231929   1.411   0.918  15.152  1.2437  2.8667 -0.2759
 6765SOL     OW31930   3.125   3.240   0.609  0.0928 -0.3657 -0.3486
 6765SOL    HW131931   3.046   3.193   0.585  0.2337 -0.2250 -1.0706
 6765SOL    HW231932   3.171   3.174   0.660  0.8424 -1.2479 -2.1680
 6766SOL     OW31933   4.569   3.087   5.969 -0.1505 -0.2260 -0.1165
 6766SOL    HW131934   4.622   3.164   5.949 -0.8700  1.2707  3.6793
 6766SOL    HW231935   4.484   3.132   5.964 -0.5231 -0.6303  2.2848
 6767SOL     OW31936   0.505   0.932   5.621 -0.2706  0.8138 -0.1164
 6767SOL    HW131937   0.561   0.997   5.576 -0.7854 -0.4545 -2.5962
 6767SOL    HW231938   0.443   0.897   5.558  0.3924 -1.0319  0.2684
 6768SOL     OW31939   4.709   1.737   4.155 -0.5192  0.4992 -0.0962
 6768SOL    HW131940   0.026   1.813   4.139 -1.1833  0.3602 -3.0646
 6768SOL    HW231941   4.622   1.766   4.128 -0.8676 -0.5257 -0.0817
 6769SOL     OW31942   4.690   4.321  11.807 -0.2598  0.4635  0.6876
 6769SOL    HW131943   4.685   4.251  11.742 -0.0934  0.8313  0.2772
 6769SOL    HW231944   4.634   4.281  11.874  1.4935 -1.3579  1.0621
 6770SOL     OW31945   2.610   2.848   7.933 -0.2178  0.3902  0.5755
 6770SOL    HW131946   2.682   2.790   7.956 -0.8122 -0.2535  0.8266
 6770SOL    HW231947   2.662   2.926   7.913 -0.3270  0.4079  0.3553
 6771SOL     OW31948   2.436   2.260  10.385 -0.0726 -0.3751  0.2178
 6771SOL    HW131949   2.516   2.241  10.336 -0.0597 -1.5474  0.6974
 6771SOL    HW231950   2.463   2.336  10.436  3.8536 -1.4340 -0.3002
 6772SOL     OW31951   0.625   1.538   3.309  0.4843 -0.2245 -0.2568
 6772SOL    HW131952   0.547   1.486   3.330  0.8504 -0.2912  0.9234
 6772SOL    HW231953   0.689   1.472   3.282 -1.1870 -0.5656 -3.3985
 6773SOL     OW31954   3.053   3.723   1.281  0.3053 -0.0355 -0.2138
 6773SOL    HW131955   3.050   3.711   1.186  0.3026 -1.8630  0.0047
 6773SOL    HW231956   3.133   3.674   1.303  0.3800  0.6433  1.0009
 6774SOL     OW31957   3.226   1.654   0.275 -0.3000  0.0382 -1.1315
 6774SOL    HW131958   3.270   1.737   0.259 -0.1446  0.1693 -0.0685
 6774SOL    HW231959   3.151   1.670   0.218 -1.5065  0.4456  0.5495
 6775SOL     OW31960   2.367   3.549   8.579 -0.2419 -0.2254 -0.3280
 6775SOL    HW131961   2.342   3.586   8.494  0.0257 -1.6754 -1.0290
 6775SOL    HW231962   2.416   3.620   8.621 -1.2758 -0.7262  1.7615
 6776SOL     OW31963   0.208   0.905   6.747 -0.7643 -1.0470  0.2033
 6776SOL    HW131964   0.145   0.881   6.678  1.1083 -0.8116 -1.5799
 6776SOL    HW231965   0.171   0.854   6.820  1.1912 -0.7215  1.4089
 6777SOL     OW31966   0.910   3.999  17.243  0.3013  0.3221  0.4825
 6777SOL    HW131967   0.851   3.924  17.256  0.5706 -0.0420 -0.4646
 6777SOL    HW231968   0.879   4.029  17.157 -1.9625  2.2624  1.9470
 6778SOL     OW31969   3.857   2.128  13.660 -0.1878  0.6720  0.0556
 6778SOL    HW131970   3.891   2.053  13.611  0.3865 -0.4364  2.1791
 6778SOL    HW231971   3.764   2.108  13.645 -0.5678  3.4071 -1.2791
 6779SOL     OW31972   2.280   2.855   5.069 -0.2178  0.3342  0.4033
 6779SOL    HW131973   2.245   2.770   5.097  1.3477 -0.5042 -0.1115
 6779SOL    HW231974   2.372   2.828   5.061 -0.2303  0.1793  0.7920
 6780SOL     OW31975   4.673   0.388   7.618 -0.4570 -0.2056  0.1685
 6780SOL    HW131976   4.640   0.324   7.681 -1.1597 -1.8221 -1.8631
 6780SOL    HW231977   4.700   0.466   7.667  0.3485  1.4509 -2.9316
 6781SOL     OW31978   1.895   3.323  10.102  0.2194 -0.6107  0.0115
 6781SOL    HW131979   1.913   3.333  10.008  0.4678 -0.5931  0.0600
 6781SOL    HW231980   1.981   3.346  10.137 -1.1210 -0.3568  3.0899
 6782SOL     OW31981   3.294   1.086   4.079 -0.1848  0.0082  0.4463
 6782SOL    HW131982   3.261   1.118   3.995 -0.8835 -0.1706  0.6534
 6782SOL    HW231983   3.319   1.171   4.115 -2.9865 -0.1435  2.7665
 6783SOL     OW31984   3.086   2.937   7.312 -0.0169 -0.5936 -0.6491
 6783SOL    HW131985   3.133   2.965   7.390 -0.5250 -2.9385  0.5092
 6783SOL    HW231986   3.062   3.023   7.277  0.6970 -0.1097  0.0795
 6784SOL     OW31987   2.857   0.242   8.259  0.0396  0.6955 -0.0485
 6784SOL    HW131988   2.766   0.258   8.231  0.3261  1.9533 -0.2574
 6784SOL    HW231989   2.850   0.253   8.354  2.9195 -0.9129  0.3369
 6785SOL     OW31990   4.347   4.697   4.149  0.3454  0.5071  0.5232
 6785SOL    HW131991   4.364   0.046   4.183 -0.0601  1.0697 -0.7203
 6785SOL    HW231992   4.426   4.650   4.178 -0.6190 -0.6591  1.2295
 6786SOL     OW31993   2.374   0.919   3.324  0.0356 -0.4589 -0.3226
 6786SOL    HW131994   2.354   0.876   3.240 -1.0777  2.3561 -1.5116
 6786SOL    HW231995   2.450   0.972   3.298 -0.4210 -1.4397 -3.6640
 6787SOL     OW31996   2.442   4.601   9.899  0.4802  0.1345 -0.1059
 6787SOL    HW131997   2.534   4.610   9.875  0.4426  1.3064  0.1849
 6787SOL    HW231998   2.432   4.696   9.912  0.0372  0.4600 -2.7336
 6788SOL     OW31999   2.495   1.743   1.101 -0.2319  0.1772  0.0106
 6788SOL    HW132000   2.430   1.755   1.032  1.3135  0.2387 -1.4287
 6788SOL    HW232001   2.461   1.664   1.144  4.3020 -0.0060  3.1716
 6789SOL     OW32002   0.008   3.607  11.983 -0.6268 -0.1508 -0.0197
 6789SOL    HW132003   0.079   3.549  11.953  0.7808 -0.2812  3.6357
 6789SOL    HW232004   0.054   3.690  11.994  1.9718 -1.5435 -0.4741
 6790SOL     OW32005   3.544   3.211   4.754 -0.4297  0.0873 -0.5955
 6790SOL    HW132006   3.633   3.218   4.721 -1.0716 -1.2456 -2.7032
 6790SOL    HW232007   3.563   3.161   4.833 -0.0465  3.2853  1.2983
 6791SOL     OW32008   0.194   0.022   4.034 -0.1549 -0.0964 -0.3905
 6791SOL    HW132009   0.144   4.691   4.076 -2.0817  1.6405  0.2438
 6791SOL    HW232010   0.161   0.023   3.944 -0.7189 -2.3930 -0.2020
 6792SOL     OW32011   4.633   1.113   5.905 -0.8804 -0.0501  0.1185
 6792SOL    HW132012   4.607   1.205   5.916 -1.5009 -0.1460 -0.5677
 6792SOL    HW232013   4.571   1.094   5.835 -1.2218  0.7166  0.2106
 6793SOL     OW32014   3.767   2.206   2.485  0.2909 -0.1652 -0.1173
 6793SOL    HW132015   3.841   2.224   2.427  1.0746  1.5390  1.4044
 6793SOL    HW232016   3.778   2.112   2.496 -0.8553  0.2106  4.1547
 6794SOL     OW32017   2.561   3.667   7.619 -0.1786 -0.4735  0.0077
 6794SOL    HW132018   2.522   3.584   7.647  0.5581 -0.8793 -0.1770
 6794SOL    HW232019   2.608   3.641   7.540 -0.4115 -1.3995  0.1781
 6795SOL     OW32020   0.451   1.465   6.966  0.0768  0.1033 -0.3279
 6795SOL    HW132021   0.485   1.521   6.896 -2.1878 -0.7039 -2.0511
 6795SOL    HW232022   0.415   1.391   6.916 -2.3021  0.7584  0.4557
 6796SOL     OW32023   4.492   4.603   9.707 -0.2306  0.2323  0.2218
 6796SOL    HW132024   4.561   4.596   9.773 -0.5674  2.5825  0.8232
 6796SOL    HW232025   4.415   4.573   9.754  2.7175 -3.8223  2.4762
 6797SOL     OW32026   4.292   1.871  13.691 -0.0707 -0.0372  0.0066
 6797SOL    HW132027   4.278   1.776  13.681  0.8907 -0.4388  2.4469
 6797SOL    HW232028   4.330   1.901  13.609 -1.5475 -1.2344 -1.0971
 6798SOL     OW32029   3.434   2.439   5.101  0.5537  0.0983 -0.3410
 6798SOL    HW132030   3.473   2.526   5.090 -0.1495  0.7022  2.1486
 6798SOL    HW232031   3.448   2.414   5.192  0.4356 -0.6370 -0.5256
 6799SOL     OW32032   2.750   4.517   7.068 -0.7996 -0.0650 -0.2248
 6799SOL    HW132033   2.709   4.486   7.149 -1.5707  2.5100  0.3415
 6799SOL    HW232034   2.825   4.566   7.101 -0.8350  0.7515 -1.3707
 6800SOL     OW32035   2.691   3.632   0.803 -0.6265  0.5253 -0.0578
 6800SOL    HW132036   2.727   3.544   0.812 -1.2177  0.3402  0.5588
 6800SOL    HW232037   2.733   3.668   0.725  1.3354  0.1401  0.8256
 6801SOL     OW32038   1.510   3.043   2.115 -0.3336  0.0212 -0.4045
 6801SOL    HW132039   1.472   2.974   2.061 -1.7553  1.8859 -1.7773
 6801SOL    HW232040   1.605   3.029   2.111 -0.2477  0.8581 -1.2031
 6802SOL     OW32041   4.719   1.117   5.011  0.6979 -0.1905  0.1086
 6802SOL    HW132042   0.003   1.192   4.955  1.8975 -0.0003  0.8341
 6802SOL    HW232043   4.686   1.155   5.092  0.3041 -1.4396  0.5268
 6803SOL     OW32044   0.010   0.474  11.426  0.3560  0.3510  0.4958
 6803SOL    HW132045   4.690   0.547  11.408 -2.6675 -2.8051 -2.3655
 6803SOL    HW232046   0.030   0.479  11.519 -1.9283 -0.4550  1.0338
 6804SOL     OW32047   3.896   3.232   9.878 -0.6590 -0.3173  0.0214
 6804SOL    HW132048   3.865   3.179   9.805  0.5687 -0.5908 -0.3002
 6804SOL    HW232049   3.830   3.218   9.946 -0.8085  0.3153  0.0115
 6805SOL     OW32050   1.586   4.201   2.332  0.3518  0.4216 -0.1298
 6805SOL    HW132051   1.594   4.157   2.247  1.9816 -0.0774  0.2773
 6805SOL    HW232052   1.512   4.157   2.373  0.9289 -0.8789 -0.4827
 6806SOL     OW32053   4.238   1.339   0.877 -0.7255  0.2792  0.0391
 6806SOL    HW132054   4.300   1.281   0.922  0.9491  1.0734 -1.2449
 6806SOL    HW232055   4.259   1.417   0.929 -0.1536  1.2692 -1.6859
 6807SOL     OW32056   3.364   3.075  17.535 -0.0948  0.5805  0.2598
 6807SOL    HW132057   3.364   3.015  17.610  0.0835  1.5165  1.0052
 6807SOL    HW232058   3.447   3.059  17.490 -0.3157  0.4719 -0.1163
 6808SOL     OW32059   3.365   2.710  11.079  0.1704 -0.4274  0.1495
 6808SOL    HW132060   3.386   2.654  11.004 -0.1504  0.5402 -0.6538
 6808SOL    HW232061   3.391   2.792  11.038 -1.0453  0.8174  1.8650
 6809SOL     OW32062   2.858   4.346   3.755 -0.2014  0.2432 -0.1381
 6809SOL    HW132063   2.925   4.412   3.739 -0.1127  0.0821 -0.4208
 6809SOL    HW232064   2.841   4.321   3.664 -1.0767 -0.3435  0.1832
 6810SOL     OW32065   0.901   2.748   9.395  0.1526  0.1494 -0.1453
 6810SOL    HW132066   0.831   2.794   9.441  2.5247  1.5790  2.0429
 6810SOL    HW232067   0.932   2.687   9.462 -1.0307  0.1494  0.3960
 6811SOL     OW32068   2.664   3.484   1.356 -0.4175  0.4340 -0.4078
 6811SOL    HW132069   2.717   3.471   1.278  0.4999  0.0403  0.2745
 6811SOL    HW232070   2.678   3.579   1.361 -1.2738  0.4923  1.1243
 6812SOL     OW32071   1.231   2.726  11.193 -0.3333 -0.3166 -0.3605
 6812SOL    HW132072   1.287   2.684  11.258 -0.6869 -1.4436 -0.7905
 6812SOL    HW232073   1.287   2.765  11.126  0.3173  0.0591  0.4069
 6813SOL     OW32074   2.521   4.723   6.436 -0.0466  0.5699 -0.1493
 6813SOL    HW132075   2.515   4.642   6.487  0.3358 -0.0005 -1.0052
 6813SOL    HW232076   2.578   0.036   6.493  0.7949 -1.1592  0.6121
 6814SOL     OW32077   4.495   3.721  10.364  0.0733  0.3646  0.0702
 6814SOL    HW132078   4.499   3.683  10.452  1.6027  3.0392  1.1699
 6814SOL    HW232079   4.477   3.815  10.368  0.3253  0.4028  0.2790
 6815SOL     OW32080   0.064   1.659  14.436 -0.0636  0.4007 -0.4164
 6815SOL    HW132081   0.126   1.585  14.440 -1.0596 -0.3414  1.3832
 6815SOL    HW232082   0.121   1.728  14.403  0.7345 -0.0805 -0.0514
 6816SOL     OW32083   2.868   4.103   7.648 -0.0142 -0.1914 -0.2525
 6816SOL    HW132084   2.958   4.128   7.667 -0.3534  2.1344 -1.6075
 6816SOL    HW232085   2.867   4.019   7.603 -0.5324 -0.7314  0.7667
 6817SOL     OW32086   3.816   2.366  16.720 -0.2828 -0.0927 -0.0898
 6817SOL    HW132087   3.885   2.309  16.686 -0.2251 -0.1397  0.1055
 6817SOL    HW232088   3.775   2.393  16.638  0.4714 -0.7993 -0.7056
 6818SOL     OW32089   2.831   0.492   4.318  0.2923  0.0912 -0.3641
 6818SOL    HW132090   2.881   0.517   4.396  1.3035  0.1082 -1.0086
 6818SOL    HW232091   2.766   0.434   4.358  0.0250  0.0512 -0.8599
 6819SOL     OW32092   3.348   0.720   5.706  0.2894 -0.1351  0.5589
 6819SOL    HW132093   3.419   0.705   5.644  1.2127  0.5307  1.4603
 6819SOL    HW232094   3.294   0.646   5.677 -2.8098  1.9022  1.1046
 6820SOL     OW32095   2.276   1.894   1.835  0.3327 -0.3592  0.1345
 6820SOL    HW132096   2.246   1.943   1.758  0.9877 -1.3420 -0.7534
 6820SOL    HW232097   2.370   1.894   1.819  0.3296  0.0938  0.1261
 6821SOL     OW32098   1.508   3.696   8.109 -0.1809 -0.4128  0.1624
 6821SOL    HW132099   1.599   3.674   8.129 -0.7168 -2.1177  0.7907
 6821SOL    HW232100   1.507   3.787   8.079  1.4187 -0.1476  0.9072
 6822SOL     OW32101   3.247   2.150   2.435  0.1496  0.6274 -0.0960
 6822SOL    HW132102   3.314   2.216   2.454 -0.0033  0.5533  0.6715
 6822SOL    HW232103   3.288   2.100   2.364 -1.3936 -2.1780  1.0031
 6823SOL     OW32104   4.529   3.894   6.117  0.0218 -0.2076 -0.6344
 6823SOL    HW132105   4.503   3.871   6.028 -0.5247 -3.8879  0.4785
 6823SOL    HW232106   4.578   3.976   6.108 -0.6598  0.3242  0.3923
 6824SOL     OW32107   3.999   4.697   3.417  0.3090  0.5225  0.6674
 6824SOL    HW132108   4.076   0.013   3.435 -0.6204  3.0767 -3.3665
 6824SOL    HW232109   4.030   4.607   3.407  0.6310  0.7256 -0.1531
 6825SOL     OW32110   2.058   4.736   7.350 -0.2923  0.2484  0.8979
 6825SOL    HW132111   2.130   0.058   7.359  0.5553 -0.7384  0.7878
 6825SOL    HW232112   1.980   0.053   7.347 -0.7332 -0.3982  0.2363
 6826SOL     OW32113   2.561   4.020   3.595  0.2266  0.1037 -0.5008
 6826SOL    HW132114   2.631   4.057   3.649  0.9417  0.2638 -1.5431
 6826SOL    HW232115   2.577   4.085   3.526  0.2172  0.6443  0.0071
 6827SOL     OW32116   3.331   4.694  16.513 -0.7091 -0.2947  0.4087
 6827SOL    HW132117   3.317   4.684  16.419 -3.9107  1.0189  0.7403
 6827SOL    HW232118   3.411   4.643  16.520 -0.7184  0.1175  3.6326
 6828SOL     OW32119   2.673   1.053  17.594  0.3302 -0.0058  0.2169
 6828SOL    HW132120   2.587   1.084  17.620 -0.3767  0.3460 -2.6119
 6828SOL    HW232121   2.649   0.997  17.521 -0.4191  0.9973 -0.2959
 6829SOL     OW32122   1.770   1.360   6.965 -0.2010 -0.6256  0.4592
 6829SOL    HW132123   1.806   1.318   7.043 -0.2222  0.1468  0.8835
 6829SOL    HW232124   1.848   1.402   6.928  0.3370 -2.4341 -0.4790
 6830SOL     OW32125   1.279   3.309   2.282  0.4489 -0.1529 -0.0139
 6830SOL    HW132126   1.356   3.323   2.227 -0.9101  0.8111 -1.6895
 6830SOL    HW232127   1.206   3.279   2.228 -0.3024  1.9680 -0.1693
 6831SOL     OW32128   1.651   4.418   4.262  0.0884  0.1160  0.2575
 6831SOL    HW132129   1.732   4.387   4.301  1.6263  2.3619 -1.1721
 6831SOL    HW232130   1.663   4.513   4.264  0.0802  0.1262 -0.2064
 6832SOL     OW32131   1.201   0.408  16.157  0.3669  0.2333  0.6055
 6832SOL    HW132132   1.207   0.500  16.182  2.2235  0.5873 -1.1810
 6832SOL    HW232133   1.230   0.374  16.242  1.0908 -0.6778 -0.0134
 6833SOL     OW32134   4.686   1.834   3.715  0.5901  0.2051  0.3790
 6833SOL    HW132135   4.626   1.789   3.656  0.3990  0.2988  0.5002
 6833SOL    HW232136   0.017   1.769   3.719 -1.1260 -1.8773 -3.3006
 6834SOL     OW32137   2.877   3.184   3.934 -0.2671  0.5131 -0.3210
 6834SOL    HW132138   2.950   3.245   3.928 -0.0946  0.2489 -0.9806
 6834SOL    HW232139   2.885   3.144   3.847 -0.2019  0.1959 -0.1689
 6835SOL     OW32140   1.744   0.906   9.102  0.2110 -0.6011 -0.9258
 6835SOL    HW132141   1.742   0.822   9.149 -2.0646 -0.2403 -0.3623
 6835SOL    HW232142   1.824   0.943   9.138  0.0998 -1.1261 -0.1480
 6836SOL     OW32143   4.244   1.813   4.524 -0.9574 -0.0691 -0.7129
 6836SOL    HW132144   4.254   1.732   4.474 -0.9039  1.1108 -2.6002
 6836SOL    HW232145   4.314   1.801   4.588  0.7363  0.7864 -2.4081
 6837SOL     OW32146   3.377   2.589   0.490  0.1138 -0.0827 -0.4560
 6837SOL    HW132147   3.337   2.561   0.408 -3.5301 -0.6160  1.4868
 6837SOL    HW232148   3.415   2.669   0.454 -0.2164  0.6833  0.9120
 6838SOL     OW32149   4.088   1.368  17.089 -0.1226 -0.1056  0.4747
 6838SOL    HW132150   4.015   1.320  17.127 -0.3993  0.5026  0.7104
 6838SOL    HW232151   4.054   1.458  17.084 -0.5116 -0.2282  0.9441
 6839SOL     OW32152   3.897   4.022  14.539  0.3556  0.1352 -1.1099
 6839SOL    HW132153   3.888   4.071  14.621  0.9294 -3.0139  0.8329
 6839SOL    HW232154   3.991   4.014  14.524  0.6844  1.4820  0.2093
 6840SOL     OW32155   4.306   3.781   2.991 -0.1268 -0.2405  0.4810
 6840SOL    HW132156   4.354   3.864   2.985  0.4735 -0.5857  0.5178
 6840SOL    HW232157   4.221   3.816   3.018 -0.7173 -1.9363  0.8490
 6841SOL     OW32158   0.087   3.165   9.574  0.2594  0.4937  0.3146
 6841SOL    HW132159   0.156   3.215   9.529  1.6847 -1.1666  0.6188
 6841SOL    HW232160   0.058   3.112   9.499 -1.6187 -1.2805  2.2878
 6842SOL     OW32161   3.657   4.220   2.073  0.1041 -0.1325 -0.0066
 6842SOL    HW132162   3.710   4.164   2.017 -1.7135 -0.2706 -1.5868
 6842SOL    HW232163   3.566   4.197   2.055  0.2818 -0.5719 -0.3164
 6843SOL     OW32164   2.642   4.700  15.679 -0.0500 -0.2435 -0.0090
 6843SOL    HW132165   2.556   4.737  15.701 -0.4457  0.5411 -2.8703
 6843SOL    HW232166   2.687   0.042  15.655  2.0805 -1.0229  1.4290
 6844SOL     OW32167   1.328   2.110   4.328  0.3169 -0.1323 -0.0170
 6844SOL    HW132168   1.420   2.114   4.354  0.6437  2.2437 -1.5131
 6844SOL    HW232169   1.332   2.121   4.233  0.2723  0.4371  0.0459
 6845SOL     OW32170   0.314   1.459  13.604  0.4344  0.1836  0.2474
 6845SOL    HW132171   0.384   1.410  13.561 -1.3869 -2.3887  0.2030
 6845SOL    HW232172   0.339   1.550  13.585  1.4164  0.3630  2.3815
 6846SOL     OW32173   1.199   1.727   7.014 -0.0792 -0.4790 -0.1003
 6846SOL    HW132174   1.152   1.644   7.010 -0.9428 -0.0351  0.9893
 6846SOL    HW232175   1.132   1.795   7.007 -0.7649 -1.2554 -1.0896
 6847SOL     OW32176   0.752   2.724   0.705 -0.0168  0.2223  0.3634
 6847SOL    HW132177   0.704   2.659   0.655 -3.8301  1.5326  2.3269
 6847SOL    HW232178   0.689   2.793   0.723  0.7567  0.9832  0.1922
 6848SOL     OW32179   3.908   3.862   5.181 -0.3652 -0.5038  0.0565
 6848SOL    HW132180   3.936   3.833   5.268  2.0364 -1.1164 -0.9429
 6848SOL    HW232181   3.925   3.781   5.133 -0.5017 -0.8348  0.5698
 6849SOL     OW32182   2.263   2.320   8.902 -0.2591  0.0492  0.4331
 6849SOL    HW132183   2.172   2.350   8.905 -0.3398  0.0145 -1.4336
 6849SOL    HW232184   2.252   2.230   8.933  1.0325  0.0226  0.7957
 6850SOL     OW32185   4.314   1.386   6.902 -0.2198  0.0009 -0.1079
 6850SOL    HW132186   4.222   1.366   6.922 -0.5851 -0.2032 -1.9280
 6850SOL    HW232187   4.313   1.405   6.808  1.9821 -1.2022 -0.3705
 6851SOL     OW32188   0.253   3.249   4.613 -0.5556 -0.1461 -0.0974
 6851SOL    HW132189   0.260   3.343   4.631 -2.1867 -0.2679  1.1243
 6851SOL    HW232190   0.289   3.240   4.525 -1.9073  0.3831 -0.7071
 6852SOL     OW32191   0.902   1.011  17.191  0.4321  0.0974 -0.1028
 6852SOL    HW132192   0.935   0.924  17.169 -0.5736 -0.7243  1.6857
 6852SOL    HW232193   0.904   1.067  17.114  2.5116 -0.2671 -0.3254
 6853SOL     OW32194   3.465   0.870   7.685  0.0271  0.1257 -0.3301
 6853SOL    HW132195   3.489   0.800   7.746 -2.3699 -2.1980 -2.0757
 6853SOL    HW232196   3.387   0.828   7.650  0.1271  0.6435 -1.1809
 6854SOL     OW32197   0.087   2.566  16.022 -0.3731  0.3558  0.0607
 6854SOL    HW132198   0.144   2.501  15.982 -1.2511 -0.1134 -0.4123
 6854SOL    HW232199   0.024   2.512  16.070  0.9779 -0.7590  0.5734
 6855SOL     OW32200   3.319   1.205  15.513 -0.0353  0.1883  0.0739
 6855SOL    HW132201   3.302   1.285  15.563  0.6187 -0.4685  1.3530
 6855SOL    HW232202   3.235   1.183  15.475  0.3015  2.0169 -1.7517
 6856SOL     OW32203   3.800   0.103   8.399 -0.6409  0.1730 -0.1067
 6856SOL    HW132204   3.825   0.073   8.487  2.4994 -0.2523 -1.1606
 6856SOL    HW232205   3.708   0.076   8.393 -0.6426 -0.0567  0.9187
 6857SOL     OW32206   0.479   1.992  16.121 -0.1596 -0.7666  0.7094
 6857SOL    HW132207   0.541   2.001  16.193  1.9310  1.7981 -1.4477
 6857SOL    HW232208   0.518   2.057  16.063 -0.2997 -1.4444 -0.1324
 6858SOL     OW32209   0.248   2.117  14.252 -0.3842  0.7873 -0.0042
 6858SOL    HW132210   0.292   2.042  14.291  1.3360  0.8943 -1.7414
 6858SOL    HW232211   0.224   2.171  14.328 -2.7562  1.4952 -1.2661
 6859SOL     OW32212   0.707   3.982   5.632  0.1674 -0.0708 -0.0605
 6859SOL    HW132213   0.718   4.036   5.710  1.6082 -0.7550  0.2138
 6859SOL    HW232214   0.767   4.027   5.572  1.7870  0.4676  1.9728
 6860SOL     OW32215   0.691   4.180  14.455  0.0022 -0.2901 -0.1591
 6860SOL    HW132216   0.661   4.186  14.365  0.7037  0.0733 -0.3755
 6860SOL    HW232217   0.739   4.263  14.463 -1.0356  0.2280  0.5937
 6861SOL     OW32218   2.426   2.072   5.196 -0.4281 -0.3503  0.5687
 6861SOL    HW132219   2.444   2.072   5.102  0.1556 -1.8981  0.6868
 6861SOL    HW232220   2.338   2.035   5.204 -0.6601  0.1044  0.1862
 6862SOL     OW32221   0.544   4.162   7.550  0.0544 -0.1941 -0.3113
 6862SOL    HW132222   0.558   4.130   7.639 -0.1685 -0.0385 -0.2186
 6862SOL    HW232223   0.456   4.127   7.537 -0.4842  1.4932 -1.2137
 6863SOL     OW32224   4.591   1.017  13.904  0.2774  0.7989 -0.5279
 6863SOL    HW132225   4.645   1.092  13.931  0.1194  0.6925  0.0765
 6863SOL    HW232226   4.628   0.975  13.826  0.4170  0.6903 -0.4037
 6864SOL     OW32227   0.010   2.466  15.670 -0.2513 -0.1571  0.4486
 6864SOL    HW132228   0.105   2.455  15.673 -0.1602  0.2391 -0.7687
 6864SOL    HW232229   4.712   2.383  15.698 -1.4225  0.1098 -0.3079
 6865SOL     OW32230   4.012   2.242   8.087  0.6942 -0.0334  0.2425
 6865SOL    HW132231   4.069   2.177   8.046  1.2753  0.5202  0.1758
 6865SOL    HW232232   3.959   2.272   8.013  2.4025  3.4736  0.4601
 6866SOL     OW32233   1.193   1.160   5.938  0.0193 -0.2149 -0.6549
 6866SOL    HW132234   1.237   1.076   5.928 -1.1353 -0.6274 -2.3538
 6866SOL    HW232235   1.102   1.130   5.935  0.4550 -1.5803  0.0633
 6867SOL     OW32236   2.228   2.037   6.359  0.6359  0.0031 -0.1431
 6867SOL    HW132237   2.228   2.132   6.367  2.9245  0.0339 -0.4672
 6867SOL    HW232238   2.173   2.023   6.282  0.9388 -3.7269  0.2964
 6868SOL     OW32239   3.785   0.607  11.603  0.0609  0.5772 -0.3825
 6868SOL    HW132240   3.799   0.701  11.612  0.8916  0.5606 -1.5478
 6868SOL    HW232241   3.742   0.607  11.518 -0.3338 -0.8341 -0.1780
 6869SOL     OW32242   1.282   1.771   5.383 -0.2639 -0.1199 -0.1749
 6869SOL    HW132243   1.334   1.692   5.401 -0.2653  0.1323  0.9623
 6869SOL    HW232244   1.216   1.734   5.324 -0.3182 -0.6970  0.2455
 6870SOL     OW32245   3.440   0.714   3.443 -0.0234  0.0895 -0.0189
 6870SOL    HW132246   3.385   0.785   3.476  1.4203  0.6306  1.1968
 6870SOL    HW232247   3.524   0.759   3.439 -0.4674  1.0766  1.8979
 6871SOL     OW32248   2.877   2.194   2.553 -0.0665  0.4146  0.0624
 6871SOL    HW132249   2.861   2.171   2.644 -0.1810  0.3988  0.0379
 6871SOL    HW232250   2.832   2.278   2.562  0.1692  0.0514  4.3815
 6872SOL     OW32251   0.036   1.653   5.974  0.6844 -0.1903 -0.2079
 6872SOL    HW132252   4.703   1.683   5.920 -0.6461  0.5386  1.9712
 6872SOL    HW232253   0.104   1.717   5.951  0.8439 -0.5806 -0.8086
 6873SOL     OW32254   3.781   4.632  12.658  0.1839  0.3431 -0.1251
 6873SOL    HW132255   3.769   4.549  12.613 -1.1777  0.3220  0.2816
 6873SOL    HW232256   3.729   4.613  12.736 -0.7162  1.1952 -0.5129
 6874SOL     OW32257   1.830   3.816   7.818 -0.2006  0.0175  0.3695
 6874SOL    HW132258   1.808   3.819   7.911  0.8035 -2.0496  0.6815
 6874SOL    HW232259   1.819   3.906   7.786  0.1332  1.0898  3.2363
 6875SOL     OW32260   0.862   3.559   6.695 -0.2563  0.2864 -0.3789
 6875SOL    HW132261   0.891   3.507   6.770  0.1295  0.3142 -0.5096
 6875SOL    HW232262   0.935   3.557   6.633  0.8611 -2.7617  1.0045
 6876SOL     OW32263   0.121   0.783   2.986 -0.7180  0.1757  0.6145
 6876SOL    HW132264   0.028   0.762   2.974 -0.3972 -1.0269  0.2638
 6876SOL    HW232265   0.162   0.697   2.992 -0.0243  0.5276  0.8718
 6877SOL     OW32266   1.438   3.386  12.677 -0.2841 -0.0225  0.5718
 6877SOL    HW132267   1.448   3.374  12.583 -1.6318  0.5438  0.3635
 6877SOL    HW232268   1.410   3.477  12.677 -2.3323 -0.6367  0.2759
 6878SOL     OW32269   4.000   4.115   9.083  0.4807 -0.2997  0.1252
 6878SOL    HW132270   3.980   4.153   9.168 -1.2513 -1.9392  0.4415
 6878SOL    HW232271   4.012   4.023   9.107 -1.1132 -0.6452 -0.4462
 6879SOL     OW32272   0.514   2.873   2.078  0.5633  0.0104 -0.6193
 6879SOL    HW132273   0.599   2.914   2.057  0.8682 -1.0449 -1.4212
 6879SOL    HW232274   0.475   2.946   2.125 -0.2294 -1.4287  0.9520
 6880SOL     OW32275   0.587   2.108  17.012 -0.1675 -0.2933 -0.2147
 6880SOL    HW132276   0.594   2.131  16.919  3.1840 -0.2587  0.0532
 6880SOL    HW232277   0.504   2.061  17.001  0.4067 -1.1600 -0.8667
 6881SOL     OW32278   0.993   4.067   2.265  0.5004 -0.0607  0.3717
 6881SOL    HW132279   1.064   4.105   2.214 -0.2209  0.2579 -0.4103
 6881SOL    HW232280   0.983   4.128   2.338  0.9416  0.4684 -0.0044
 6882SOL     OW32281   2.203   3.604  13.878  0.1371  0.0241 -0.0251
 6882SOL    HW132282   2.192   3.575  13.787 -1.4300  1.3994 -0.2807
 6882SOL    HW232283   2.118   3.640  13.904 -0.0788 -1.5063  1.3410
 6883SOL     OW32284   1.093   0.304   8.463  0.0625  0.2993 -0.0935
 6883SOL    HW132285   1.027   0.353   8.413  1.6569  1.7029 -0.8771
 6883SOL    HW232286   1.160   0.286   8.397 -0.6459 -2.7869  0.0345
 6884SOL     OW32287   2.747   3.194   1.228 -0.2383  0.1635 -0.6015
 6884SOL    HW132288   2.761   3.286   1.209 -2.1239  0.5255 -0.2573
 6884SOL    HW232289   2.712   3.160   1.146  1.0339  2.3292 -2.0196
 6885SOL     OW32290   0.748   3.448  16.782 -0.1635  0.4765  0.1866
 6885SOL    HW132291   0.708   3.501  16.713 -2.4104 -2.8613 -1.0605
 6885SOL    HW232292   0.841   3.470  16.769 -1.0940  2.0601 -3.7367
 6886SOL     OW32293   1.988   2.196   6.958 -0.1559 -0.5977 -0.7520
 6886SOL    HW132294   1.911   2.139   6.966 -0.0827 -0.7821 -1.3891
 6886SOL    HW232295   1.955   2.251   6.887  2.2410 -0.7882 -2.0304
 6887SOL     OW32296   2.139   2.325   2.132 -0.1343  0.2998 -0.4583
 6887SOL    HW132297   2.208   2.292   2.075 -1.7656 -2.3833 -0.8587
 6887SOL    HW232298   2.061   2.278   2.102 -0.2018 -1.2617  2.1305
 6888SOL     OW32299   4.597   2.261   7.285  0.2622 -0.3128  0.3841
 6888SOL    HW132300   4.521   2.316   7.266  1.4167  0.6125 -1.5323
 6888SOL    HW232301   4.661   2.331   7.273 -1.2507  0.9671 -0.2513
 6889SOL     OW32302   2.559   3.426   5.909  1.0194 -0.4862 -0.3144
 6889SOL    HW132303   2.534   3.379   5.830 -0.1536 -0.7642  0.2294
 6889SOL    HW232304   2.651   3.400   5.907  1.3922  0.8762 -1.5939
 6890SOL     OW32305   2.921   4.109   8.609  0.2937 -0.0207 -0.4607
 6890SOL    HW132306   2.883   4.027   8.577  2.8547 -1.6338  0.6229
 6890SOL    HW232307   2.875   4.130   8.690 -1.6119  0.1786 -1.6111
 6891SOL     OW32308   4.472   4.730   6.519  0.4145 -0.2500  0.3345
 6891SOL    HW132309   4.534   0.002   6.447  3.0993  0.4113  2.7510
 6891SOL    HW232310   4.408   0.057   6.492 -1.3045 -2.3736 -0.7238
 6892SOL     OW32311   1.116   1.003   3.916  0.0533 -0.5754 -0.2179
 6892SOL    HW132312   1.096   0.911   3.901 -0.4201 -0.6035  0.5857
 6892SOL    HW232313   1.181   1.020   3.848 -0.3112 -1.6594 -0.8393
 6893SOL     OW32314   2.793   0.645   9.149  0.5289 -0.2004  0.4428
 6893SOL    HW132315   2.798   0.701   9.071 -0.0911 -0.6638  0.0734
 6893SOL    HW232316   2.817   0.714   9.211 -0.0061  1.1233 -0.7924
 6894SOL     OW32317   0.627   0.158   3.009 -0.6749 -0.2300  0.1217
 6894SOL    HW132318   0.578   0.104   2.946 -1.3300 -0.3074  0.7057
 6894SOL    HW232319   0.716   0.133   2.985 -0.2327  0.8589  0.6410
 6895SOL     OW32320   4.530   4.114   7.441  0.1588  0.1933 -0.5715
 6895SOL    HW132321   4.457   4.093   7.383  0.7136  0.4598 -1.3560
 6895SOL    HW232322   4.603   4.090   7.384 -1.0660 -0.4084 -1.8751
 6896SOL     OW32323   1.185   4.340   2.758 -0.0328  0.9191 -0.7417
 6896SOL    HW132324   1.248   4.343   2.687  1.0976  0.7973  0.2647
 6896SOL    HW232325   1.243   4.375   2.825 -1.8765  1.9203  0.3509
 6897SOL     OW32326   2.885   1.773   3.814  0.1919 -0.0901 -0.1854
 6897SOL    HW132327   2.950   1.702   3.817 -0.3378 -0.5912 -0.5787
 6897SOL    HW232328   2.934   1.839   3.764 -0.9281 -0.0174 -1.1706
 6898SOL     OW32329   0.661   2.967   4.661 -0.8169 -0.0101  0.0708
 6898SOL    HW132330   0.670   2.884   4.614 -0.7467  0.0886 -0.0914
 6898SOL    HW232331   0.753   2.995   4.654 -0.9356  0.4107  0.2065
 6899SOL     OW32332   0.598   3.060   9.469 -0.4500 -0.3065 -0.5220
 6899SOL    HW132333   0.625   2.979   9.514 -1.0000 -0.6606 -0.8291
 6899SOL    HW232334   0.594   3.025   9.380  1.7447 -1.7592 -0.0647
 6900SOL     OW32335   2.411   1.503   1.238  0.4055 -0.6081 -0.6623
 6900SOL    HW132336   2.364   1.547   1.309 -0.8706 -0.2702 -1.6979
 6900SOL    HW232337   2.472   1.448   1.286  1.0385  0.2243 -0.5077
 6901SOL     OW32338   1.126   3.665   7.220 -0.7671  0.5021 -0.7680
 6901SOL    HW132339   1.073   3.587   7.234  0.7411 -0.6541 -1.6016
 6901SOL    HW232340   1.120   3.674   7.125 -2.4455  0.7302 -0.6495
 6902SOL     OW32341   2.794   3.352   7.040 -0.3432 -0.6335  0.5057
 6902SOL    HW132342   2.712   3.322   6.999 -1.1621  1.8164  0.3175
 6902SOL    HW232343   2.784   3.320   7.130 -0.7744  2.8289  1.6947
 6903SOL     OW32344   2.833   3.776   4.516  0.7043  0.6294 -0.3291
 6903SOL    HW132345   2.800   3.836   4.584  2.4910 -1.1947  2.1513
 6903SOL    HW232346   2.796   3.695   4.550  1.8272  0.2209 -0.0667
 6904SOL     OW32347   3.472   1.676   5.309 -0.1645  0.0795 -0.2384
 6904SOL    HW132348   3.402   1.729   5.347 -0.2088  0.1533 -0.4243
 6904SOL    HW232349   3.424   1.615   5.253 -0.4738 -1.7103  1.9802
 6905SOL     OW32350   3.569   2.460   8.304  0.6015 -0.5226 -0.1923
 6905SOL    HW132351   3.609   2.459   8.392 -0.4416  2.1666  0.3044
 6905SOL    HW232352   3.517   2.539   8.294  0.8845 -0.3258 -0.1281
 6906SOL     OW32353   4.306   4.616  11.754  0.1336 -0.4546  0.1271
 6906SOL    HW132354   4.216   4.637  11.730  0.4874 -0.5869 -1.3388
 6906SOL    HW232355   4.303   4.539  11.811 -0.7072 -0.1324  0.5176
 6907SOL     OW32356   0.160   4.175   5.703  0.0341  0.2268  0.2139
 6907SOL    HW132357   0.194   4.256   5.665  2.9209 -0.9606  0.2992
 6907SOL    HW232358   0.185   4.179   5.795 -1.5805 -0.5164  0.6858
 6908SOL     OW32359   2.742   3.082  16.048 -0.3643 -0.4455 -0.1051
 6908SOL    HW132360   2.733   3.062  16.141 -2.9020  2.8642  0.3656
 6908SOL    HW232361   2.818   3.141  16.050 -1.4964  0.9963  0.2780
 6909SOL     OW32362   4.686   2.803   9.598  0.3134 -0.0847 -0.2499
 6909SOL    HW132363   0.031   2.798   9.553  0.7960  0.1675  0.6203
 6909SOL    HW232364   4.667   2.710   9.582 -2.9482  0.7329 -1.2040
 6910SOL     OW32365   2.530   0.392   5.184  0.0472  0.1764  0.6386
 6910SOL    HW132366   2.453   0.403   5.130  2.0983 -1.4131 -2.6074
 6910SOL    HW232367   2.487   0.427   5.263 -1.0961 -2.5239  1.2048
 6911SOL     OW32368   1.787   3.068   7.294  0.1865 -0.0307 -0.1977
 6911SOL    HW132369   1.843   3.078   7.217  2.0891  0.0402  1.2077
 6911SOL    HW232370   1.700   3.098   7.265  0.2579  1.6279  1.3054
 6912SOL     OW32371   1.578   2.740  11.343 -0.2233  0.0519  0.5136
 6912SOL    HW132372   1.636   2.691  11.284 -2.5867  0.3215 -2.0165
 6912SOL    HW232373   1.500   2.691  11.368 -1.1103  1.6828  0.9099
 6913SOL     OW32374   3.759   0.494   2.276 -0.8982 -0.1959 -0.2978
 6913SOL    HW132375   3.718   0.580   2.290 -1.1635 -0.1126 -1.6112
 6913SOL    HW232376   3.687   0.433   2.292 -1.9019  1.0264 -0.1329
 6914SOL     OW32377   0.315   0.803  17.554  0.3028  0.5305 -0.6122
 6914SOL    HW132378   0.223   0.778  17.541  0.5672 -0.9139  0.2271
 6914SOL    HW232379   0.354   0.785  17.469  1.4625  0.8411 -0.1400
 6915SOL     OW32380   2.623   3.379   8.040  0.0236 -0.8523  0.2997
 6915SOL    HW132381   2.539   3.420   8.024 -0.2787 -1.3621  0.5681
 6915SOL    HW232382   2.591   3.290   8.055  2.4813 -1.4847  1.8029
 6916SOL     OW32383   2.419   4.366  11.917  0.8244 -0.3298  0.3262
 6916SOL    HW132384   2.389   4.309  11.847 -1.4434 -0.0451  1.0775
 6916SOL    HW232385   2.511   4.359  11.891  1.2105  0.0863  1.5457
 6917SOL     OW32386   3.263   0.515   2.392 -0.0254 -0.3249 -0.3244
 6917SOL    HW132387   3.239   0.441   2.337 -0.2148 -0.1273 -0.5072
 6917SOL    HW232388   3.345   0.498   2.439  0.4083 -0.9781 -1.3250
 6918SOL     OW32389   1.896   3.205   8.947  0.4203 -0.8192 -0.1450
 6918SOL    HW132390   1.944   3.129   8.980  1.2176  0.4839  1.6778
 6918SOL    HW232391   1.952   3.226   8.872 -0.4620 -0.4555 -0.7003
 6919SOL     OW32392   1.947   3.227   8.218  0.2479  0.1655 -0.7440
 6919SOL    HW132393   2.033   3.213   8.256 -1.2262  1.6138  3.0938
 6919SOL    HW232394   1.910   3.286   8.284  1.0156  2.1174 -2.0536
 6920SOL     OW32395   1.295   4.642   4.361 -0.0626  0.0141 -0.7782
 6920SOL    HW132396   1.372   4.698   4.368 -0.0752  0.2223 -2.3722
 6920SOL    HW232397   1.240   4.675   4.432 -0.3784 -0.1221 -0.9576
 6921SOL     OW32398   0.273   4.539   7.854  0.2975 -0.2252  0.4576
 6921SOL    HW132399   0.308   4.575   7.772 -2.3545 -1.4276 -1.1971
 6921SOL    HW232400   0.203   4.479   7.828  0.6535  0.0908 -1.2270
 6922SOL     OW32401   3.174   2.673   2.437 -0.2282 -0.0081  0.1863
 6922SOL    HW132402   3.107   2.649   2.501  0.1397  0.4835  0.7598
 6922SOL    HW232403   3.143   2.627   2.360  1.8698 -1.1712  0.0269
 6923SOL     OW32404   0.922   4.544   2.993 -0.3475  0.1799  0.0283
 6923SOL    HW132405   0.963   4.514   2.912  0.7175  1.3819  0.1372
 6923SOL    HW232406   0.985   4.613   3.010 -2.1488  1.6894  0.5352
 6924SOL     OW32407   4.199   0.143   2.689  0.1645 -0.6164  0.1964
 6924SOL    HW132408   4.219   0.236   2.699  1.0462 -0.5261 -2.4118
 6924SOL    HW232409   4.280   0.093   2.682  0.4662 -0.3268  1.6263
 6925SOL     OW32410   2.245   2.196  10.691  0.0234 -0.1677 -0.6930
 6925SOL    HW132411   2.198   2.199  10.775 -1.7778  1.4268 -1.7706
 6925SOL    HW232412   2.255   2.289  10.673 -0.1374  0.4451  2.3167
 6926SOL     OW32413   3.781   4.515   9.639 -0.0326  0.1595 -0.3282
 6926SOL    HW132414   3.734   4.594   9.663  0.6018  1.0015 -1.8553
 6926SOL    HW232415   3.733   4.497   9.558 -0.9887 -0.9207  0.4855
 6927SOL     OW32416   2.642   0.589   8.833  0.0049  0.0331  0.0822
 6927SOL    HW132417   2.569   0.555   8.884  0.7747 -2.6553 -0.6153
 6927SOL    HW232418   2.604   0.622   8.751 -2.0852 -2.6360 -0.0160
 6928SOL     OW32419   3.020   3.515   7.622 -0.2103 -0.0317  0.1847
 6928SOL    HW132420   3.089   3.537   7.685 -1.5813 -2.6152  2.5574
 6928SOL    HW232421   2.944   3.557   7.662  0.5673  1.0614  0.5320
 6929SOL     OW32422   3.007   0.974   3.624 -0.0148  0.2233 -0.1601
 6929SOL    HW132423   3.041   1.060   3.650 -0.0601 -0.1142  1.0138
 6929SOL    HW232424   2.984   0.936   3.709 -0.0076 -1.3512 -0.8568
 6930SOL     OW32425   2.766   1.934  16.600 -0.0708  0.2018  0.0558
 6930SOL    HW132426   2.807   1.871  16.542  1.0052  0.1045  0.9252
 6930SOL    HW232427   2.710   1.969  16.531 -1.6432 -0.1280  1.1503
 6931SOL     OW32428   1.459   2.650   6.358  0.1274 -0.5983 -0.0303
 6931SOL    HW132429   1.468   2.744   6.342 -1.1311 -0.7639 -1.6849
 6931SOL    HW232430   1.530   2.605   6.312  0.8853  0.2938  0.2519
 6932SOL     OW32431   2.072   1.105   7.477 -0.3627 -0.0247 -0.4904
 6932SOL    HW132432   2.098   1.018   7.446 -3.6673 -1.6880  1.5066
 6932SOL    HW232433   2.153   1.135   7.519 -0.8872 -1.9135  1.8680
 6933SOL     OW32434   4.122   4.730   9.226  0.3104 -0.1263  0.5565
 6933SOL    HW132435   4.203   0.007   9.178  0.9687  0.8603  1.9621
 6933SOL    HW232436   4.140   0.057   9.293  1.1870  3.0086 -2.7640
 6934SOL     OW32437   0.549   3.108  12.600  0.3394  0.0571  0.4434
 6934SOL    HW132438   0.585   3.093  12.687 -1.7501 -0.1631  1.2670
 6934SOL    HW232439   0.515   3.019  12.592  0.7872  0.2151 -3.3464
 6935SOL     OW32440   1.350   2.203  16.711  0.4821  0.0367  0.5185
 6935SOL    HW132441   1.269   2.237  16.749  0.4560  0.1254  0.3872
 6935SOL    HW232442   1.319   2.118  16.677  0.1039  0.7222 -0.8748
 6936SOL     OW32443   4.075   3.473   6.940  0.4467 -0.0229  0.2734
 6936SOL    HW132444   4.127   3.543   6.979  1.6171 -1.1597  0.7511
 6936SOL    HW232445   4.099   3.402   7.000 -0.6163  0.1539  0.9293
 6937SOL     OW32446   0.611   4.725   4.423  0.5883  0.0418 -0.2426
 6937SOL    HW132447   0.570   4.727   4.509  2.7300  1.2591  0.7617
 6937SOL    HW232448   0.628   4.632   4.409 -0.1668  0.2038 -2.2965
 6938SOL     OW32449   0.999   3.500   7.643 -0.1674  0.2175  0.0068
 6938SOL    HW132450   1.036   3.579   7.602  0.8668  0.2389  0.9701
 6938SOL    HW232451   0.977   3.540   7.727  0.2261 -1.4435  0.8923
 6939SOL     OW32452   1.171   1.296   7.857  0.1689  0.2081  0.2024
 6939SOL    HW132453   1.117   1.375   7.850 -0.5428 -0.1944  1.1462
 6939SOL    HW232454   1.146   1.251   7.775  2.4141 -0.5014 -0.0817
 6940SOL     OW32455   0.689   0.042   4.949  0.2303  0.1333 -0.1146
 6940SOL    HW132456   0.705   0.102   5.021 -2.9977  1.8757 -0.9006
 6940SOL    HW232457   0.755   0.067   4.883 -1.1605  2.7749 -0.4947
 6941SOL     OW32458   1.946   4.177  16.189 -0.4500 -0.5076  0.0055
 6941SOL    HW132459   1.924   4.133  16.107 -2.7281 -0.9363  0.8669
 6941SOL    HW232460   1.870   4.164  16.245  0.8134 -0.0609  1.8219
 6942SOL     OW32461   2.170   0.741   1.360 -0.6230  0.1845  0.4150
 6942SOL    HW132462   2.185   0.773   1.449 -0.6007 -1.9039  1.1676
 6942SOL    HW232463   2.099   0.803   1.342 -0.8915  0.1119  1.1762
 6943SOL     OW32464   1.217   2.829   0.086  0.2197 -0.0069  0.3029
 6943SOL    HW132465   1.132   2.874   0.085 -0.0305 -0.5023 -1.2243
 6943SOL    HW232466   1.232   2.830   0.180 -1.8773  1.7034  0.6389
 6944SOL     OW32467   2.110   1.640   5.335  0.4211 -0.5121  0.0736
 6944SOL    HW132468   2.071   1.557   5.307 -1.2409 -0.4517  2.2458
 6944SOL    HW232469   2.166   1.607   5.405 -1.5551 -0.9497  1.4322
 6945SOL     OW32470   3.045   4.689   6.586  0.1057  0.2751  0.4331
 6945SOL    HW132471   3.010   0.024   6.537 -1.3815 -0.0371  1.0233
 6945SOL    HW232472   3.135   4.697   6.556 -0.5778 -3.7523 -2.6238
 6946SOL     OW32473   1.687   0.668   9.245 -0.2979  0.0470  0.0475
 6946SOL    HW132474   1.632   0.696   9.318 -2.0290  1.2117 -1.6949
 6946SOL    HW232475   1.626   0.614   9.194  2.3372 -2.9124  0.0663
 6947SOL     OW32476   1.989   2.949   5.632  0.4756  0.4695  0.3374
 6947SOL    HW132477   1.970   3.040   5.610  0.4816  0.6817  1.2169
 6947SOL    HW232478   2.047   2.925   5.560  0.0263  0.1626  0.0758
 6948SOL     OW32479   1.958   0.134  10.132 -0.6455 -0.4833  0.2351
 6948SOL    HW132480   1.920   0.052  10.161  0.8210 -1.5494 -0.8619
 6948SOL    HW232481   1.873   0.169  10.106  0.6519  2.0161 -0.7615
 6949SOL     OW32482   1.380   4.085   4.195  0.3792 -0.6479 -0.0921
 6949SOL    HW132483   1.364   4.058   4.104  0.7181 -0.1878 -0.2930
 6949SOL    HW232484   1.421   4.171   4.187 -2.3657  0.9451  3.2169
 6950SOL     OW32485   0.041   2.859  14.790  0.0712  0.1638  0.2895
 6950SOL    HW132486   0.048   2.764  14.793 -0.3211  0.2143  2.7215
 6950SOL    HW232487   4.687   2.863  14.812  0.1837 -1.9866  1.1659
 6951SOL     OW32488   0.560   0.517  10.173 -0.2886 -0.2639 -0.1351
 6951SOL    HW132489   0.547   0.595  10.119 -1.4405  0.1363  0.7065
 6951SOL    HW232490   0.649   0.525  10.206 -0.6497  0.3229  0.7235
 6952SOL     OW32491   1.912   2.081  12.123  0.1040  0.2728  0.2932
 6952SOL    HW132492   1.873   2.169  12.128 -1.2329 -0.2301 -1.3787
 6952SOL    HW232493   2.001   2.106  12.097 -0.0337  1.9789  1.4138
 6953SOL     OW32494   1.267   0.354  17.549 -0.2252 -0.1975 -0.5571
 6953SOL    HW132495   1.190   0.316  17.594  2.4749 -0.2419  4.0453
 6953SOL    HW232496   1.300   0.279  17.499  1.0799 -0.3027  0.4801
 6954SOL     OW32497   0.073   1.925   4.415  0.1948  0.6075 -0.0299
 6954SOL    HW132498   0.129   1.956   4.344  0.0656 -0.3101 -0.5298
 6954SOL    HW232499   0.133   1.861   4.454 -0.1292  1.2437  1.5358
 6955SOL     OW32500   0.797   1.379   5.955  0.0524  0.0381  0.2962
 6955SOL    HW132501   0.880   1.391   6.000  0.4583  0.8555 -0.6856
 6955SOL    HW232502   0.816   1.384   5.862 -1.0808 -2.2405 -0.0786
 6956SOL     OW32503   3.188   2.352  13.483  0.2097  0.1773 -0.0029
 6956SOL    HW132504   3.123   2.285  13.503  1.2231 -1.1322 -1.0717
 6956SOL    HW232505   3.130   2.428  13.475 -0.8542 -0.7661 -1.2342
 6957SOL     OW32506   3.251   3.072  16.519 -0.5393  0.6541 -0.1782
 6957SOL    HW132507   3.278   3.093  16.429  0.6457  0.1582  0.0675
 6957SOL    HW232508   3.303   3.130  16.574  2.4780  0.9612 -3.3642
 6958SOL     OW32509   1.893   0.020   0.398  0.0302 -0.2694  0.7962
 6958SOL    HW132510   1.897   0.105   0.441  0.7155  0.2195 -0.2407
 6958SOL    HW232511   1.962   4.718   0.449  0.1535  0.2930  1.0734
 6959SOL     OW32512   0.097   4.582   5.320 -0.7885 -0.1030  0.2798
 6959SOL    HW132513   0.162   4.652   5.313 -1.8282  0.9742  1.2495
 6959SOL    HW232514   0.047   4.593   5.239 -0.1489 -1.2978 -0.2665
 6960SOL     OW32515   1.089   4.476   3.339 -0.5086  0.2156 -0.0163
 6960SOL    HW132516   1.099   4.396   3.288  1.9766  0.8064 -0.4556
 6960SOL    HW232517   1.106   4.446   3.428 -0.3611 -0.7194 -0.3644
 6961SOL     OW32518   2.863   1.311   2.362  0.1916 -0.1429 -0.3039
 6961SOL    HW132519   2.783   1.258   2.365 -0.4495  0.7051 -2.0983
 6961SOL    HW232520   2.824   1.391   2.396  1.0848 -0.8867  2.4710
 6962SOL     OW32521   1.842   2.368   0.976  0.0079 -0.3104 -0.3069
 6962SOL    HW132522   1.749   2.348   0.981  0.5787 -3.0994 -1.0232
 6962SOL    HW232523   1.858   2.416   0.895  1.9429  0.2721  0.4028
 6963SOL     OW32524   0.642   0.143  17.526  0.0861  0.0843  0.2311
 6963SOL    HW132525   0.644   0.051  17.551  0.7817  0.0418  0.0126
 6963SOL    HW232526   0.555   0.155  17.489  0.5852  1.0344 -0.6417
 6964SOL     OW32527   4.631   4.591   5.143  0.1102 -0.0628 -0.6162
 6964SOL    HW132528   4.542   4.561   5.161 -0.0530  0.6966 -0.1413
 6964SOL    HW232529   4.631   4.591   5.047 -1.8144 -0.4672 -0.6112
 6965SOL     OW32530   3.083   0.776   7.861 -0.1496  0.4693  0.1718
 6965SOL    HW132531   3.140   0.788   7.785  0.2872 -0.3563  0.3698
 6965SOL    HW232532   3.063   0.866   7.890  0.0020  0.6410 -0.2510
 6966SOL     OW32533   3.939   1.776   3.887 -0.3779  0.2239 -0.2660
 6966SOL    HW132534   4.025   1.816   3.900 -1.4394  2.5294 -0.3040
 6966SOL    HW232535   3.974   1.688   3.872  0.7682  0.8690 -1.4373
 6967SOL     OW32536   3.164   3.439   2.903 -0.2073  0.6240 -0.4100
 6967SOL    HW132537   3.173   3.482   2.818 -0.1255 -1.1161 -1.2926
 6967SOL    HW232538   3.229   3.489   2.952  1.5658 -1.4719 -0.6096
 6968SOL     OW32539   3.534   4.678   9.035  0.1854 -0.0392  0.2553
 6968SOL    HW132540   3.473   4.606   9.050 -0.4735  0.6524  0.8662
 6968SOL    HW232541   3.617   4.651   8.996  1.4256 -0.0881  2.9807
 6969SOL     OW32542   0.159   1.559   7.883 -0.3786  0.0995 -0.6106
 6969SOL    HW132543   0.078   1.580   7.837 -0.1023  0.2313 -1.0333
 6969SOL    HW232544   0.213   1.524   7.812  0.2287 -1.8101  0.7920
 6970SOL     OW32545   0.488   1.638   4.153 -0.2802  0.1397 -0.1655
 6970SOL    HW132546   0.473   1.732   4.145 -4.0633 -0.3489  1.0579
 6970SOL    HW232547   0.473   1.623   4.247  1.6010 -1.4638 -0.1278
 6971SOL     OW32548   3.075   1.298   6.183 -0.0387  0.0762 -0.1752
 6971SOL    HW132549   3.168   1.294   6.206 -0.1469 -0.6775  0.1393
 6971SOL    HW232550   3.079   1.291   6.088  3.0844  0.3331 -0.0648
 6972SOL     OW32551   1.071   3.909   7.253  0.0387 -0.0649  0.4011
 6972SOL    HW132552   1.090   3.815   7.261 -1.1829 -0.3778 -0.3192
 6972SOL    HW232553   1.126   3.929   7.177  2.1025 -3.7186  0.9520
 6973SOL     OW32554   0.232   3.017  17.219 -0.5163 -0.1458  0.2181
 6973SOL    HW132555   0.184   2.937  17.243  0.3210 -0.9593 -0.7983
 6973SOL    HW232556   0.269   3.045  17.303 -2.0127  0.7208  0.5858
 6974SOL     OW32557   3.468   3.537   7.246  0.4323 -0.3453  0.0884
 6974SOL    HW132558   3.562   3.554   7.236  0.6505 -0.2068  2.4156
 6974SOL    HW232559   3.432   3.575   7.166  1.0346 -0.7431 -0.3709
 6975SOL     OW32560   3.534   2.448   6.182 -0.3283 -0.2465 -0.2831
 6975SOL    HW132561   3.445   2.452   6.146 -1.1885  0.3714  1.9455
 6975SOL    HW232562   3.554   2.356   6.165 -1.8655 -0.9715  1.8708
 6976SOL     OW32563   4.069   2.397   7.128  0.0196 -0.1019  0.0441
 6976SOL    HW132564   4.163   2.402   7.112  0.3847 -3.1224  1.3224
 6976SOL    HW232565   4.047   2.490   7.134  2.5023  0.6195 -2.1075
 6977SOL     OW32566   2.844   4.183  16.758  0.0623  0.2226 -0.3185
 6977SOL    HW132567   2.827   4.258  16.700 -0.4190  0.4998  0.1840
 6977SOL    HW232568   2.918   4.214  16.810 -1.4442  0.4500  1.6909
 6978SOL     OW32569   3.902   4.538   6.574  0.2390  0.3049  0.2644
 6978SOL    HW132570   3.874   4.500   6.491 -0.0988  1.5822 -0.2023
 6978SOL    HW232571   3.936   4.621   6.540  2.4295  0.2954  2.3527
 6979SOL     OW32572   3.058   0.834   5.174  0.6648  0.6475  0.2513
 6979SOL    HW132573   3.058   0.876   5.261 -0.5429 -2.1735  1.5994
 6979SOL    HW232574   3.042   0.744   5.201 -0.2149  0.6601 -0.2391
 6980SOL     OW32575   2.211   4.553   7.206 -0.3369  0.1622  0.3777
 6980SOL    HW132576   2.227   4.563   7.113 -1.6001  2.0582  0.3811
 6980SOL    HW232577   2.141   4.618   7.211 -0.3554  0.2385 -1.1231
 6981SOL     OW32578   4.495   3.365   8.038  0.0505  0.1700 -0.2561
 6981SOL    HW132579   4.407   3.367   8.000  0.2461 -1.8991 -0.8094
 6981SOL    HW232580   4.467   3.356   8.129 -2.0544 -0.1928 -0.9460
 6982SOL     OW32581   3.425   2.752  13.139 -0.5828  0.0896  0.7279
 6982SOL    HW132582   3.452   2.707  13.059  1.3518  1.3833  0.6352
 6982SOL    HW232583   3.411   2.841  13.106 -0.4319  0.3420  1.3404
 6983SOL     OW32584   4.708   1.050   2.115  0.0068 -0.0004 -0.2221
 6983SOL    HW132585   0.020   1.130   2.123  0.9444 -0.6490  0.3319
 6983SOL    HW232586   0.041   0.990   2.094  2.4195  2.5292  0.7273
 6984SOL     OW32587   3.337   0.467   7.273  0.7444 -0.2839  0.1865
 6984SOL    HW132588   3.361   0.377   7.297  3.7385  0.6975  0.8513
 6984SOL    HW232589   3.417   0.516   7.290 -0.3753  0.9764  1.7880
 6985SOL     OW32590   2.031   4.719  14.146 -0.6055 -0.5860  0.1390
 6985SOL    HW132591   2.085   4.649  14.182 -1.6548 -2.3461 -1.6248
 6985SOL    HW232592   2.083   4.726  14.066  0.0476  0.5260  0.6659
 6986SOL     OW32593   4.350   3.713  11.832  0.3929 -0.1405 -0.1784
 6986SOL    HW132594   4.345   3.806  11.855 -2.4359  0.3912 -2.9477
 6986SOL    HW232595   4.273   3.672  11.872  2.0605 -0.2645  2.9506
 6987SOL     OW32596   0.331   3.828   5.319  0.0597  0.2396 -0.1882
 6987SOL    HW132597   0.395   3.801   5.254  0.6210 -2.2079  1.3655
 6987SOL    HW232598   0.368   3.910   5.351 -2.4234  1.7147 -1.0861
 6988SOL     OW32599   0.193   4.686   1.701 -0.2804  0.1633 -0.1804
 6988SOL    HW132600   0.146   4.620   1.650  0.4667  0.3651 -1.1335
 6988SOL    HW232601   0.124   0.004   1.735  0.7206  0.6892  0.9739
 6989SOL     OW32602   4.692   3.850   2.838 -0.0397 -0.3411  0.0293
 6989SOL    HW132603   4.664   3.758   2.836  1.0208 -0.6480 -0.3717
 6989SOL    HW232604   4.679   3.873   2.931  4.9886  2.3757  0.0520
 6990SOL     OW32605   1.097   2.329   0.428 -0.2179  0.0393 -0.1506
 6990SOL    HW132606   1.165   2.263   0.416  0.6277  0.7524  0.6670
 6990SOL    HW232607   1.095   2.380   0.347 -2.0221 -0.1047 -0.1888
 6991SOL     OW32608   0.780   2.772   2.905 -0.3015  0.0648  0.2992
 6991SOL    HW132609   0.833   2.808   2.834  0.0105 -0.6863  0.1482
 6991SOL    HW232610   0.703   2.829   2.903  1.2966  2.2786  1.3759
 6992SOL     OW32611   1.374   1.534  14.860 -0.4516  0.5906  0.0626
 6992SOL    HW132612   1.301   1.539  14.922 -0.3396  1.3909  0.1290
 6992SOL    HW232613   1.355   1.599  14.793  1.5971  0.9469 -0.1772
 6993SOL     OW32614   1.931   4.264   6.407  0.0548 -0.1703  0.1210
 6993SOL    HW132615   2.007   4.288   6.354 -1.0072  3.7315  0.3778
 6993SOL    HW232616   1.886   4.203   6.349 -0.6649  1.6002 -1.1739
 6994SOL     OW32617   3.328   1.090   5.262 -0.5328 -0.2061 -0.7229
 6994SOL    HW132618   3.275   1.168   5.278 -1.2100 -0.7398 -0.3083
 6994SOL    HW232619   3.335   1.059   5.352  1.0612 -0.2883 -0.8763
 6995SOL     OW32620   3.051   0.358  17.002 -0.2174 -0.1551 -0.1723
 6995SOL    HW132621   3.008   0.279  16.969 -1.6079  0.6029 -0.1826
 6995SOL    HW232622   2.987   0.415  16.960 -2.7648 -2.2770  0.8051
 6996SOL     OW32623   4.391   0.408   5.129 -0.0955  0.4564  0.1546
 6996SOL    HW132624   4.384   0.502   5.145  0.1951  0.1472  2.0137
 6996SOL    HW232625   4.486   0.399   5.122 -0.0466  0.7550  0.4525
 6997SOL     OW32626   2.611   0.000   4.420  0.4885 -0.3736  0.0279
 6997SOL    HW132627   2.606   4.690   4.339  0.6718  1.1200 -0.8864
 6997SOL    HW232628   2.552   0.074   4.406  2.9324  2.2646  3.3224
 6998SOL     OW32629   3.023   3.338   9.638  0.4643  0.6769 -0.0565
 6998SOL    HW132630   3.065   3.421   9.661  1.7144  0.4953 -1.6987
 6998SOL    HW232631   2.969   3.325   9.716 -2.6213 -1.7696 -2.5931
 6999SOL     OW32632   0.284   0.429   2.261 -0.9111  0.4806 -0.3644
 6999SOL    HW132633   0.335   0.485   2.203  1.5598 -0.8320  0.5301
 6999SOL    HW232634   0.193   0.459   2.262 -0.8322  0.7714 -1.9793
 7000SOL     OW32635   2.284   2.981   7.720 -0.8781 -0.0371  0.5136
 7000SOL    HW132636   2.288   2.886   7.708 -0.2944  0.0533  0.0142
 7000SOL    HW232637   2.208   2.989   7.662  0.1120 -0.6579 -0.8923
 7001SOL     OW32638   4.536   0.349   4.828 -0.3928 -0.0416  0.7509
 7001SOL    HW132639   4.522   0.275   4.887 -0.7985 -0.4770  0.1089
 7001SOL    HW232640   4.631   0.362   4.827 -0.3624 -0.3656 -0.3242
 7002SOL     OW32641   2.318   0.376   2.074  0.0454  0.6063 -0.2680
 7002SOL    HW132642   2.329   0.441   2.005  0.2427 -0.3999 -1.1816
 7002SOL    HW232643   2.282   0.299   2.031  2.9674 -0.0825 -1.4621
 7003SOL     OW32644   2.201   4.221   9.168 -0.2235 -1.0237 -0.3307
 7003SOL    HW132645   2.149   4.298   9.146  0.7467  0.3545  2.1913
 7003SOL    HW232646   2.152   4.194   9.246 -2.1292  2.4213 -0.3273
 7004SOL     OW32647   2.804   4.577   6.520 -0.0041  0.2518  0.1010
 7004SOL    HW132648   2.890   4.574   6.563 -0.2085 -0.0838  0.4834
 7004SOL    HW232649   2.835   4.602   6.433 -0.9419 -0.0680 -0.3285
 7005SOL     OW32650   4.068   2.491   8.730  0.5088 -0.2984 -0.2167
 7005SOL    HW132651   4.065   2.462   8.639  1.2047  0.8826 -0.6205
 7005SOL    HW232652   4.067   2.405   8.771 -1.6120 -1.4765 -2.7314
 7006SOL     OW32653   0.527   2.592   4.537 -0.0157  0.6556  0.2172
 7006SOL    HW132654   0.605   2.647   4.545  0.6624 -0.1188 -1.1987
 7006SOL    HW232655   0.485   2.602   4.623 -1.7906  1.6408 -0.7692
 7007SOL     OW32656   0.333   4.467   3.452  0.1714 -0.3905 -0.1224
 7007SOL    HW132657   0.322   4.454   3.546 -0.5786 -2.2699 -0.4496
 7007SOL    HW232658   0.383   4.547   3.439  1.7451 -1.0984  1.5192
 7008SOL     OW32659   2.323   3.787   7.849 -0.0114  0.3171 -0.1327
 7008SOL    HW132660   2.299   3.864   7.797 -0.7363 -0.0040 -0.2703
 7008SOL    HW232661   2.233   3.756   7.861 -0.2771  0.5490 -1.5016
 7009SOL     OW32662   1.685   1.808   7.496  0.2337  0.4556  0.0082
 7009SOL    HW132663   1.709   1.839   7.409 -3.4882  3.2423 -0.0177
 7009SOL    HW232664   1.592   1.793   7.481  0.2627 -0.1396  0.3913
 7010SOL     OW32665   0.780   3.826   7.775  0.1048 -0.2091 -0.0798
 7010SOL    HW132666   0.811   3.783   7.855  0.6363 -0.1973 -0.2814
 7010SOL    HW232667   0.796   3.918   7.793  0.4122 -0.0573 -1.1468
 7011SOL     OW32668   0.791   0.782   3.759  0.0818  0.2180 -0.1234
 7011SOL    HW132669   0.705   0.760   3.723 -0.2770  1.1579  0.1775
 7011SOL    HW232670   0.854   0.773   3.688  0.2406  0.8708 -0.0623
 7012SOL     OW32671   1.620   4.005   3.800  0.0587  0.2138 -0.0010
 7012SOL    HW132672   1.635   4.044   3.886  2.2824  0.8378 -0.6842
 7012SOL    HW232673   1.710   3.994   3.771 -0.1952 -1.3609 -0.1925
 7013SOL     OW32674   0.855   3.256  11.346 -0.0571 -0.1140 -0.1012
 7013SOL    HW132675   0.876   3.188  11.282 -1.3968 -0.3982 -0.2416
 7013SOL    HW232676   0.782   3.217  11.394 -0.1516 -1.7880 -1.5722
 7014SOL     OW32677   0.583   1.751   8.101 -0.1388 -0.3057 -0.4632
 7014SOL    HW132678   0.521   1.791   8.040  1.3955  1.7605 -0.6569
 7014SOL    HW232679   0.519   1.691   8.138 -0.9096 -0.1046 -1.4875
 7015SOL     OW32680   3.788   0.138   2.211 -0.5854  0.3270  0.3783
 7015SOL    HW132681   3.713   0.191   2.239 -1.0352  0.2524 -0.6516
 7015SOL    HW232682   3.865   0.190   2.230 -0.6824  0.3370  0.7351
 7016SOL     OW32683   2.128   0.122  16.099  0.4124  0.5020  0.5205
 7016SOL    HW132684   2.087   0.041  16.128 -2.0132  0.5653 -2.7639
 7016SOL    HW232685   2.159   0.098  16.012  2.1983 -2.7020  2.0367
 7017SOL     OW32686   3.695   2.562   1.647 -0.6223 -0.2012 -0.1531
 7017SOL    HW132687   3.667   2.607   1.567  1.4195 -0.2344 -0.8838
 7017SOL    HW232688   3.615   2.560   1.699 -0.2309  0.2685  0.4751
 7018SOL     OW32689   4.413   1.141   6.978 -0.1667  0.0093 -0.2487
 7018SOL    HW132690   4.400   1.236   6.982  0.8737  0.1331  0.3149
 7018SOL    HW232691   4.480   1.141   6.910  0.4526  0.9422  0.3474
 7019SOL     OW32692   1.518   0.070   6.577 -0.3985 -0.1299  0.3651
 7019SOL    HW132693   1.472   0.098   6.656 -1.4913  0.4921 -0.4793
 7019SOL    HW232694   1.585   0.014   6.616 -1.2146 -1.6816 -0.4795
 7020SOL     OW32695   4.685   3.146   4.873  0.2980 -0.1107  0.2783
 7020SOL    HW132696   4.619   3.206   4.909  1.8685  0.9129  1.4545
 7020SOL    HW232697   4.691   3.074   4.936  1.6683 -0.4385 -0.2190
 7021SOL     OW32698   2.596   0.775   7.669 -0.4551  0.1952  0.0652
 7021SOL    HW132699   2.676   0.745   7.712  0.0520  0.5692 -0.6097
 7021SOL    HW232700   2.532   0.749   7.736 -0.1553 -1.0564 -0.1389
 7022SOL     OW32701   3.838   0.554  13.934 -0.0103  0.4272  0.4116
 7022SOL    HW132702   3.934   0.555  13.927 -0.1172  0.7497 -1.0669
 7022SOL    HW232703   3.822   0.487  14.000  0.3740  1.3232  1.4147
 7023SOL     OW32704   4.471   0.306   3.470  0.2007 -0.2600  0.0156
 7023SOL    HW132705   4.518   0.227   3.443  0.5731 -2.1189  5.9699
 7023SOL    HW232706   4.482   0.361   3.393 -2.5906  1.3791  0.7699
 7024SOL     OW32707   0.278   3.718  10.541 -0.4151  0.5399  0.3156
 7024SOL    HW132708   0.332   3.773  10.484  0.7024 -0.8479  0.0519
 7024SOL    HW232709   0.270   3.642  10.483  0.8507  0.0516  0.7742
 7025SOL     OW32710   2.504   4.029   7.038 -0.7220  0.5469 -0.4485
 7025SOL    HW132711   2.483   3.937   7.054  2.5684  0.0316  1.1021
 7025SOL    HW232712   2.533   4.051   7.127 -0.7379 -0.0143 -0.3019
 7026SOL     OW32713   3.353   1.975   4.632 -0.6624 -0.1489  0.4467
 7026SOL    HW132714   3.355   2.063   4.594 -1.4453 -1.2233 -2.0338
 7026SOL    HW232715   3.444   1.945   4.627 -0.5988  0.3819 -1.6658
 7027SOL     OW32716   1.100   4.061   6.042 -1.0350  0.2433 -0.0625
 7027SOL    HW132717   1.042   4.114   6.097 -0.4267  0.7110  0.1143
 7027SOL    HW232718   1.182   4.109   6.044 -1.5830  1.1429  0.9055
 7028SOL     OW32719   4.622   1.226   5.263  0.1985 -0.0124 -0.2643
 7028SOL    HW132720   4.615   1.178   5.345  3.4275 -0.6359 -0.3791
 7028SOL    HW232721   4.681   1.295   5.292 -1.5187  1.3535  0.0158
 7029SOL     OW32722   2.427   3.698   4.320 -0.1046  0.2001 -0.6395
 7029SOL    HW132723   2.432   3.788   4.353 -0.8689 -0.0761  0.2449
 7029SOL    HW232724   2.507   3.663   4.359 -0.7490 -0.8249 -0.2571
 7030SOL     OW32725   3.186   2.229   4.686  0.5390 -0.2534 -0.0241
 7030SOL    HW132726   3.254   2.262   4.745  1.2669 -2.4113  0.3858
 7030SOL    HW232727   3.174   2.139   4.717 -0.7432 -0.3050 -0.6683
 7031SOL     OW32728   3.746   3.829   5.493  0.1505  0.1724  0.3099
 7031SOL    HW132729   3.700   3.782   5.423  1.3395  0.1216 -0.4332
 7031SOL    HW232730   3.674   3.885   5.522 -0.6786 -1.2204  0.9540
 7032SOL     OW32731   3.852   3.804   1.566  0.0123 -0.6126  0.5756
 7032SOL    HW132732   3.863   3.869   1.497 -0.3184 -0.7641  0.3795
 7032SOL    HW232733   3.786   3.850   1.618  1.8106  2.0521  0.5069
 7033SOL     OW32734   1.529   0.212  14.751 -0.0528 -0.1849  0.6268
 7033SOL    HW132735   1.482   0.196  14.669  3.0349 -0.9180 -1.0114
 7033SOL    HW232736   1.611   0.167  14.728  0.2371  0.4539  0.4121
 7034SOL     OW32737   4.659   0.748  16.712 -0.1441 -0.0596  0.2806
 7034SOL    HW132738   4.673   0.735  16.806 -0.3044  0.6184  0.3954
 7034SOL    HW232739   4.685   0.666  16.670  0.0963  0.0613  0.1911
 7035SOL     OW32740   4.502   3.200   5.633 -0.3900 -0.1574  0.1607
 7035SOL    HW132741   4.595   3.219   5.622 -0.8483  1.6631 -0.4987
 7035SOL    HW232742   4.494   3.105   5.623 -3.4346  0.1457 -0.0752
 7036SOL     OW32743   2.156   2.911   5.884 -0.3540 -0.1562 -0.6909
 7036SOL    HW132744   2.174   2.818   5.898  0.8097  0.0847 -0.5598
 7036SOL    HW232745   2.099   2.919   5.808  0.3621  1.7258 -1.0276
 7037SOL     OW32746   3.879   3.436   2.528  0.0517 -0.5788 -0.2874
 7037SOL    HW132747   3.821   3.360   2.534  0.1873 -0.6341  0.3441
 7037SOL    HW232748   3.879   3.450   2.623  0.1459 -0.2906 -0.3311
 7038SOL     OW32749   0.046   4.518   0.774  0.4566  0.4276  0.7213
 7038SOL    HW132750   0.005   4.521   0.688  0.4839 -0.4271  0.6766
 7038SOL    HW232751   0.009   4.600   0.805 -2.3562 -0.2241 -0.9367
 7039SOL     OW32752   1.296   4.454  13.659 -0.3097  0.4219 -0.9028
 7039SOL    HW132753   1.379   4.446  13.706 -0.3189  1.1363 -0.7714
 7039SOL    HW232754   1.247   4.485  13.735 -0.2909  0.2853 -0.8348
 7040SOL     OW32755   0.003   2.176   1.959  0.1292  0.0641 -0.3280
 7040SOL    HW132756   0.039   2.259   1.991 -1.1791 -0.5797  2.7771
 7040SOL    HW232757   0.039   2.167   1.871 -0.4828 -1.1620 -0.4558
 7041SOL     OW32758   3.289   3.288   0.948 -0.1417  0.2040  0.5011
 7041SOL    HW132759   3.373   3.250   0.920 -0.1869  1.0941 -0.8027
 7041SOL    HW232760   3.275   3.344   0.872  2.1578  0.7353  0.4702
 7042SOL     OW32761   0.786   2.883  16.910 -0.0446  0.5780 -0.4098
 7042SOL    HW132762   0.789   2.959  16.968 -0.9805  1.1637 -1.1457
 7042SOL    HW232763   0.705   2.906  16.864  0.7318  2.8531 -0.6116
 7043SOL     OW32764   4.058   0.201  12.682  0.4438  0.2047  0.0029
 7043SOL    HW132765   3.968   0.170  12.669 -0.6074  4.1846 -2.1362
 7043SOL    HW232766   4.042   0.293  12.700  0.0667  0.9147 -3.9518
 7044SOL     OW32767   1.382   3.664   3.922  0.6188  0.2963 -0.5790
 7044SOL    HW132768   1.395   3.751   3.960 -0.5885 -0.1377  0.8316
 7044SOL    HW232769   1.395   3.687   3.830  4.8065 -0.5129 -0.2161
 7045SOL     OW32770   3.452   2.907  10.908 -0.3788 -0.4587  0.3144
 7045SOL    HW132771   3.532   2.955  10.929  0.0430 -1.1131  0.1972
 7045SOL    HW232772   3.391   2.981  10.899  0.5465  0.2631  0.0617
 7046SOL     OW32773   0.209   1.321   8.972 -0.0506  0.1462 -0.3754
 7046SOL    HW132774   0.277   1.312   9.040 -1.0337  0.7626  0.6857
 7046SOL    HW232775   0.173   1.403   9.005 -1.5391 -0.6268 -0.1194
 7047SOL     OW32776   3.061   3.628  12.025 -0.3458 -0.3528  0.7349
 7047SOL    HW132777   3.136   3.655  11.973 -1.6442  1.6007 -0.1104
 7047SOL    HW232778   3.095   3.543  12.052  1.8516  0.8016  1.5678
 7048SOL     OW32779   0.111   4.535   4.619 -0.2235 -0.2213  0.2921
 7048SOL    HW132780   0.048   4.572   4.558  1.5531  0.9663 -0.8046
 7048SOL    HW232781   0.160   4.615   4.636  0.6063 -0.6009 -0.3047
 7049SOL     OW32782   0.111   2.035   6.655  0.1778  0.5305 -0.1470
 7049SOL    HW132783   0.112   1.972   6.727 -2.0312 -0.8078 -1.3004
 7049SOL    HW232784   0.133   1.972   6.587 -0.7866 -0.2075  0.2202
 7050SOL     OW32785   0.675   1.274   9.835 -0.6006  0.5064  0.4596
 7050SOL    HW132786   0.710   1.360   9.858  3.2097  0.1162 -3.6140
 7050SOL    HW232787   0.744   1.216   9.869  1.4849  1.2485 -2.4358
 7051SOL     OW32788   2.864   4.152   5.723  0.5121  1.1559 -0.1342
 7051SOL    HW132789   2.870   4.218   5.791  1.4397  0.3850  0.5396
 7051SOL    HW232790   2.818   4.078   5.763  0.5765  2.0109  1.5197
 7052SOL     OW32791   4.342   4.508   8.443  0.1155  0.2803  0.4073
 7052SOL    HW132792   4.278   4.437   8.450  0.7193 -0.2759  0.2430
 7052SOL    HW232793   4.282   4.582   8.454 -1.3749 -0.8775  0.1163
 7053SOL     OW32794   3.609   1.489   1.238 -0.6251  0.1260  0.9489
 7053SOL    HW132795   3.611   1.554   1.168  3.2637 -0.0648  0.8940
 7053SOL    HW232796   3.525   1.447   1.220  1.6432 -3.7468 -0.5094
 7054SOL     OW32797   1.786   2.543   8.618 -0.2070  0.6624  0.9365
 7054SOL    HW132798   1.708   2.583   8.657 -0.1216 -0.1774  1.9571
 7054SOL    HW232799   1.746   2.466   8.579 -0.9902  0.2467  2.5718
 7055SOL     OW32800   2.996   2.095   9.581 -0.8464  0.1182 -0.8851
 7055SOL    HW132801   3.012   2.068   9.491 -0.9289  1.3592 -1.2668
 7055SOL    HW232802   2.988   2.005   9.612  2.1844  0.2473  0.2681
 7056SOL     OW32803   0.622   3.504  14.576  0.8825  1.0579 -0.3507
 7056SOL    HW132804   0.563   3.515  14.501  0.7059  2.7429  0.0238
 7056SOL    HW232805   0.660   3.592  14.572  3.7824 -0.1580  0.6930
 7057SOL     OW32806   1.228   4.109   5.053  0.3846  0.2029  0.8367
 7057SOL    HW132807   1.294   4.046   5.020 -0.4480  0.1844 -0.8097
 7057SOL    HW232808   1.280   4.181   5.088  2.2388 -0.8193  0.1939
 7058SOL     OW32809   4.271   4.008   1.333  0.0170 -0.1597 -0.0924
 7058SOL    HW132810   4.293   4.043   1.246 -0.8059 -0.4746 -0.4181
 7058SOL    HW232811   4.334   4.052   1.391 -0.2051  0.9997 -0.7201
 7059SOL     OW32812   2.257   4.242   0.319 -0.3500  0.4238 -0.5432
 7059SOL    HW132813   2.320   4.294   0.370 -1.2700  2.3409 -1.3894
 7059SOL    HW232814   2.176   4.290   0.334 -0.8060 -0.1484 -1.1460
 7060SOL     OW32815   1.748   2.652   4.706  0.0823 -0.3614 -0.5973
 7060SOL    HW132816   1.662   2.692   4.694  0.7295  0.2080 -3.4439
 7060SOL    HW232817   1.753   2.609   4.620 -1.2529  1.5196 -1.6051
 7061SOL     OW32818   0.872   0.148   8.883 -0.2133  0.6429 -0.4589
 7061SOL    HW132819   0.860   0.155   8.789  0.2902 -0.7583 -0.6214
 7061SOL    HW232820   0.833   0.062   8.904 -2.4921  1.2677 -2.1342
 7062SOL     OW32821   2.168   0.369   6.797 -0.1474  0.7786 -0.4627
 7062SOL    HW132822   2.156   0.278   6.769  0.7901  0.3491  0.5068
 7062SOL    HW232823   2.080   0.406   6.794  0.0453  1.4228  1.8378
 7063SOL     OW32824   0.851   3.945  14.458 -0.0244 -0.3219 -0.0299
 7063SOL    HW132825   0.784   4.012  14.469  0.7354  0.6883 -1.5154
 7063SOL    HW232826   0.853   3.917  14.367 -1.1435  1.7256 -0.6818
 7064SOL     OW32827   3.919   1.233   0.453  0.2096  0.1773  0.3107
 7064SOL    HW132828   3.912   1.256   0.545 -2.3694 -1.9768  0.6468
 7064SOL    HW232829   3.994   1.174   0.462 -1.3469 -2.1562 -1.7012
 7065SOL     OW32830   3.211   3.885   6.602  0.2800  0.0358  0.5780
 7065SOL    HW132831   3.148   3.905   6.671  0.0353 -0.9217  0.6408
 7065SOL    HW232832   3.154   3.842   6.538 -1.0400  1.6634  0.6636
 7066SOL     OW32833   1.917   2.475   2.187 -0.4451  0.6424 -0.7837
 7066SOL    HW132834   1.873   2.414   2.246 -2.3364  1.0068 -1.7900
 7066SOL    HW232835   1.997   2.428   2.165  0.1588  2.0080 -1.5183
 7067SOL     OW32836   3.650   2.126  15.930 -0.0160 -0.1945 -0.2920
 7067SOL    HW132837   3.637   2.111  16.024 -0.5969 -1.3705 -0.5673
 7067SOL    HW232838   3.739   2.160  15.919 -0.5853  0.5359 -2.6577
 7068SOL     OW32839   3.690   0.846   7.351  0.1647 -0.3018 -0.0546
 7068SOL    HW132840   3.762   0.861   7.290  0.3107  1.2610  0.4935
 7068SOL    HW232841   3.687   0.751   7.365  1.0678 -0.2964  0.1625
 7069SOL     OW32842   2.668   2.985   7.316  0.1328 -0.6529  0.3996
 7069SOL    HW132843   2.587   2.946   7.283  0.2380 -1.3052  0.9199
 7069SOL    HW232844   2.723   2.908   7.305  1.4619  0.3423  0.1460
 7070SOL     OW32845   0.754   1.450  16.570  0.1404  0.1448  0.5662
 7070SOL    HW132846   0.803   1.491  16.498  0.3565  0.0738  0.6716
 7070SOL    HW232847   0.821   1.408  16.623  1.7866 -0.0473 -1.6187
 7071SOL     OW32848   4.689   0.287   2.839  0.8144 -0.6989  0.0233
 7071SOL    HW132849   0.004   0.210   2.856  0.3821 -0.7539  1.1339
 7071SOL    HW232850   4.657   0.275   2.750  0.6361 -0.5250  0.0636
 7072SOL     OW32851   0.362   3.834   1.821 -0.2092  0.5790 -0.0998
 7072SOL    HW132852   0.449   3.821   1.858 -0.9398 -0.0101  1.4401
 7072SOL    HW232853   0.365   3.927   1.800 -2.0066  1.4207  3.3005
 7073SOL     OW32854   3.434   0.281  15.624 -0.3427 -0.2648 -0.2330
 7073SOL    HW132855   3.523   0.246  15.624 -0.8128 -1.4325  0.2134
 7073SOL    HW232856   3.405   0.206  15.573 -0.9144  0.2983 -0.7344
 7074SOL     OW32857   2.233   3.863   5.435 -0.6768  0.3407  0.8856
 7074SOL    HW132858   2.168   3.853   5.365 -0.6004 -2.8091  1.2898
 7074SOL    HW232859   2.302   3.919   5.398 -2.1656  0.5757 -1.5600
 7075SOL     OW32860   3.541   1.787   8.303 -0.3344 -0.5861 -0.5172
 7075SOL    HW132861   3.475   1.730   8.264  0.7085 -2.3861  0.3880
 7075SOL    HW232862   3.606   1.721   8.324  0.2907  0.2771  0.2349
 7076SOL     OW32863   2.572   0.087   5.204 -0.6818  0.4907 -0.2279
 7076SOL    HW132864   2.488   0.053   5.233 -0.0293 -2.4770 -1.8564
 7076SOL    HW232865   2.545   0.162   5.151 -1.0600  1.6126  1.5639
 7077SOL     OW32866   1.111   0.590  10.700  0.1708 -0.6139  0.1373
 7077SOL    HW132867   1.119   0.685  10.707 -1.2319 -0.4047 -1.0549
 7077SOL    HW232868   1.196   0.576  10.742  0.6869  0.4228 -0.5688
 7078SOL     OW32869   1.221   0.093   8.638  0.3561  0.0268  0.1273
 7078SOL    HW132870   1.169   0.061   8.564  1.4388 -1.6375  0.1045
 7078SOL    HW232871   1.310   0.094   8.605 -0.0831 -1.7014 -1.0961
 7079SOL     OW32872   3.574   1.406   6.944 -0.0596 -0.0346  0.0103
 7079SOL    HW132873   3.524   1.326   6.930  0.6931 -0.8599  2.1015
 7079SOL    HW232874   3.580   1.433   6.852 -1.5825 -0.8081 -0.3007
 7080SOL     OW32875   3.743   2.603  13.806  0.6115 -0.1007 -0.2626
 7080SOL    HW132876   3.827   2.647  13.791  1.5679 -0.9335  2.7702
 7080SOL    HW232877   3.741   2.534  13.739  1.1565  0.3670 -0.7617
 7081SOL     OW32878   3.491   2.596   6.689  0.5245  0.0571 -0.1458
 7081SOL    HW132879   3.567   2.647   6.660  0.9135 -0.2306  0.3689
 7081SOL    HW232880   3.535   2.515   6.715  0.2875 -0.3054 -0.8899
 7082SOL     OW32881   2.169   0.551   1.164 -0.1151 -0.2665 -0.2692
 7082SOL    HW132882   2.184   0.620   1.099  1.0832 -0.4503 -0.1960
 7082SOL    HW232883   2.160   0.606   1.242  2.5010 -1.5010  0.9105
 7083SOL     OW32884   0.597   1.812  16.826 -0.3381  0.2470 -0.0943
 7083SOL    HW132885   0.540   1.885  16.849  0.1590  0.2275  1.2181
 7083SOL    HW232886   0.573   1.796  16.735 -1.6833  2.6189 -0.1418
 7084SOL     OW32887   2.220   2.841  10.697 -0.0745 -0.1231 -0.1480
 7084SOL    HW132888   2.152   2.854  10.630 -0.8460 -2.7783  0.1499
 7084SOL    HW232889   2.206   2.748  10.714  1.4461 -0.4038 -0.4693
 7085SOL     OW32890   1.673   3.966  15.771  0.5277  0.0937 -0.0240
 7085SOL    HW132891   1.694   3.970  15.678 -0.7434  0.9166 -0.2866
 7085SOL    HW232892   1.694   4.052  15.807  0.4373  0.4676 -0.8837
 7086SOL     OW32893   3.277   1.464   2.534 -0.2591 -0.0700 -0.5314
 7086SOL    HW132894   3.211   1.528   2.561 -0.0205 -0.0501 -0.0060
 7086SOL    HW232895   3.217   1.394   2.506 -1.0073 -0.7432  2.7456
 7087SOL     OW32896   4.272   0.591   3.968 -0.3446 -0.5820  0.5456
 7087SOL    HW132897   4.263   0.496   3.970  1.0409 -0.6673  2.3458
 7087SOL    HW232898   4.333   0.595   3.895 -2.7245  1.2920 -1.3322
 7088SOL     OW32899   0.457   1.928   7.412  0.0950 -0.0629 -0.6696
 7088SOL    HW132900   0.434   1.914   7.320 -2.2393  0.3998 -0.1579
 7088SOL    HW232901   0.477   1.837   7.434 -1.0915 -0.4562 -1.1740
 7089SOL     OW32902   4.338   3.711  11.248  0.2852 -0.3710  0.8550
 7089SOL    HW132903   4.369   3.638  11.194  0.5570 -1.5086  2.5787
 7089SOL    HW232904   4.326   3.777  11.179  0.1600  0.8328  2.0156
 7090SOL     OW32905   4.536   4.431   1.000  0.3670 -0.2739  0.2286
 7090SOL    HW132906   4.478   4.389   0.937  2.9027  1.2672 -3.1179
 7090SOL    HW232907   4.576   4.350   1.032  1.8439  0.1206 -0.6011
 7091SOL     OW32908   3.487   0.580   5.924  0.9814 -0.1271 -0.3489
 7091SOL    HW132909   3.403   0.583   5.969  2.1362 -1.2803  1.8618
 7091SOL    HW232910   3.469   0.627   5.843  0.4252  2.7684  1.4628
 7092SOL     OW32911   2.886   2.052   3.389 -0.5887  0.2175 -0.1276
 7092SOL    HW132912   2.940   1.988   3.342 -2.0269 -2.0424  1.3538
 7092SOL    HW232913   2.923   2.134   3.355 -3.5996  0.1417 -3.6708
 7093SOL     OW32914   3.018   3.119   1.631 -0.7537  0.1115 -0.6806
 7093SOL    HW132915   3.003   3.211   1.606 -1.0856 -0.5079 -2.7763
 7093SOL    HW232916   3.004   3.081   1.544 -1.5803 -0.4197 -0.3119
 7094SOL     OW32917   1.218   0.412   0.562 -0.1559  0.8536  0.2933
 7094SOL    HW132918   1.178   0.493   0.531 -1.3505  0.4010  0.6097
 7094SOL    HW232919   1.275   0.400   0.487 -0.1046  1.5834  0.2135
 7095SOL     OW32920   3.279   3.952   5.123 -0.4087 -0.2859 -0.4921
 7095SOL    HW132921   3.203   3.988   5.078 -1.6912 -0.2609  1.7004
 7095SOL    HW232922   3.343   4.022   5.108 -0.1297 -0.2323  0.9997
 7096SOL     OW32923   0.755   0.883   1.150  0.1897 -0.2522  0.2566
 7096SOL    HW132924   0.728   0.973   1.168 -1.1159 -1.0992  2.5421
 7096SOL    HW232925   0.704   0.839   1.217 -1.5170 -0.2171 -1.0085
 7097SOL     OW32926   2.634   2.065  15.220  0.1992  0.3667 -0.0943
 7097SOL    HW132927   2.593   2.129  15.278 -2.3327 -1.8121  0.4826
 7097SOL    HW232928   2.726   2.059  15.248  0.4791  0.4364 -0.9705
 7098SOL     OW32929   3.349   2.482   2.629  0.4787  0.7091 -0.0920
 7098SOL    HW132930   3.257   2.507   2.619 -0.0876 -1.2379  0.2169
 7098SOL    HW232931   3.381   2.473   2.539  1.6377  2.4944  0.1454
 7099SOL     OW32932   3.761   4.036   6.321  0.3978  0.0303  0.2782
 7099SOL    HW132933   3.846   4.000   6.344  0.0909 -1.4288 -0.9260
 7099SOL    HW232934   3.778   4.076   6.235  0.9921  3.0296  1.7893
 7100SOL     OW32935   4.691   0.973  14.361 -0.3159 -0.0609 -0.1203
 7100SOL    HW132936   4.607   0.986  14.318 -0.6476 -1.3044  0.1424
 7100SOL    HW232937   4.677   0.888  14.405 -2.1234  0.7930  0.9517
 7101SOL     OW32938   4.560   2.252   6.138  0.3409 -0.4876 -0.3598
 7101SOL    HW132939   4.605   2.169   6.120  1.1323 -0.1938  0.2286
 7101SOL    HW232940   4.594   2.282   6.222 -0.4998  3.4193 -1.3948
 7102SOL     OW32941   2.935   1.238  17.328 -0.1406 -0.1031 -0.1950
 7102SOL    HW132942   2.968   1.297  17.260  3.5303 -0.7337  1.0388
 7102SOL    HW232943   2.878   1.180  17.278  0.0640  1.8104 -2.6980
 7103SOL     OW32944   1.223   4.545   7.799  0.3472  0.1538  0.2442
 7103SOL    HW132945   1.196   4.604   7.869  0.1342 -0.1249  0.3976
 7103SOL    HW232946   1.242   4.600   7.724  1.0045 -0.3551  0.0301
 7104SOL     OW32947   2.311   1.638   2.120 -0.0328  0.3884 -0.7584
 7104SOL    HW132948   2.261   1.697   2.063 -2.3322  1.1279  2.0617
 7104SOL    HW232949   2.350   1.566   2.069 -0.8861  1.8455 -3.4939
 7105SOL     OW32950   0.357   3.446   2.328 -0.5819  0.5583 -0.0541
 7105SOL    HW132951   0.278   3.478   2.283 -1.2205 -1.2358 -0.2180
 7105SOL    HW232952   0.343   3.352   2.319 -0.5167  0.4792  0.7186
 7106SOL     OW32953   1.974   3.107   4.041  0.4950  0.0704  0.5419
 7106SOL    HW132954   2.029   3.113   3.963  0.8088  0.7289  0.8174
 7106SOL    HW232955   2.021   3.169   4.096  1.7663 -0.2079 -0.2368
 7107SOL     OW32956   0.139   1.553  14.078 -0.5177  0.3216  0.1930
 7107SOL    HW132957   0.149   1.487  14.147 -1.7142 -0.7153 -0.6263
 7107SOL    HW232958   0.192   1.507  14.013 -3.1490 -0.2331 -1.5539
 7108SOL     OW32959   2.488   0.080   7.479 -0.4510 -0.3074 -0.1607
 7108SOL    HW132960   2.578   0.112   7.488  0.0613 -1.3998 -1.4513
 7108SOL    HW232961   2.456   0.096   7.567 -1.9517 -1.4317 -0.5140
 7109SOL     OW32962   3.031   3.864   1.736 -0.2087  0.1218  0.5898
 7109SOL    HW132963   3.113   3.909   1.711 -0.7943 -1.3304 -3.9548
 7109SOL    HW232964   3.065   3.775   1.731  0.4167  0.4329 -0.7530
 7110SOL     OW32965   2.700   1.921   5.996  0.4135 -0.4435  0.1515
 7110SOL    HW132966   2.689   1.894   5.905  0.3304 -1.6076  0.4962
 7110SOL    HW232967   2.792   1.900   6.013  1.0096  1.9368 -0.1553
 7111SOL     OW32968   1.460   0.827   4.589 -0.3032  0.3650 -0.0032
 7111SOL    HW132969   1.462   0.849   4.496 -0.2994 -0.4303 -0.1880
 7111SOL    HW232970   1.459   0.732   4.596 -0.7114  0.3533 -0.1933
 7112SOL     OW32971   0.397   0.606   4.519 -0.0380 -0.1087  0.3989
 7112SOL    HW132972   0.304   0.627   4.531 -0.1483  0.4316 -1.3729
 7112SOL    HW232973   0.386   0.547   4.445  1.3806  2.1101 -1.5769
 7113SOL     OW32974   0.863   0.198   8.604  0.3888 -0.9995 -0.6159
 7113SOL    HW132975   0.829   0.159   8.523  0.9345 -2.7836  0.0319
 7113SOL    HW232976   0.947   0.232   8.571 -0.8235  1.1036 -1.5915
 7114SOL     OW32977   2.920   0.262   5.680 -0.4168  0.2746 -0.4160
 7114SOL    HW132978   2.996   0.213   5.711  0.1080  1.8086  0.7129
 7114SOL    HW232979   2.922   0.247   5.585  3.8629 -2.0531  0.0325
 7115SOL     OW32980   2.059   4.122   3.016  0.3140 -0.0215 -0.3591
 7115SOL    HW132981   2.119   4.111   3.089  0.8647  0.5415 -0.7265
 7115SOL    HW232982   2.040   4.030   2.998  1.4931  0.2586 -3.1215
 7116SOL     OW32983   2.675   4.682   7.704 -0.5083 -0.4691 -0.3156
 7116SOL    HW132984   2.735   4.736   7.653 -1.9124 -1.2917 -2.8233
 7116SOL    HW232985   2.625   4.629   7.642  0.0583 -0.1766 -1.0145
 7117SOL     OW32986   3.988   0.758  11.786 -0.4667 -0.0406 -0.1305
 7117SOL    HW132987   4.081   0.781  11.785 -0.7335  1.0496 -0.3314
 7117SOL    HW232988   3.992   0.697  11.859 -1.8744 -1.2407 -1.0695
 7118SOL     OW32989   0.339   3.350   4.357 -0.1071 -0.2408 -0.0164
 7118SOL    HW132990   0.390   3.361   4.277  0.6801 -0.5573  0.4406
 7118SOL    HW232991   0.410   3.332   4.418  1.7702 -0.6473 -2.3597
 7119SOL     OW32992   2.348   2.514   2.280 -0.4170  0.3504  0.1820
 7119SOL    HW132993   2.414   2.520   2.211 -1.3391  1.3145 -0.6130
 7119SOL    HW232994   2.278   2.455   2.254 -1.1345  0.2528  2.3142
 7120SOL     OW32995   3.701   1.245   4.170 -0.1878  0.1329 -0.2142
 7120SOL    HW132996   3.639   1.259   4.241  0.3625  0.2083  0.2498
 7120SOL    HW232997   3.666   1.168   4.124 -1.8650  0.2399  0.9007
 7121SOL     OW32998   2.409   4.243   6.035 -0.5290 -0.2215  0.6011
 7121SOL    HW132999   2.321   4.206   6.032 -0.3303 -0.6104 -0.4944
 7121SOL    HW233000   2.417   4.308   5.965 -1.3431  2.0162  2.5822
 7122SOL     OW33001   2.525   1.458   0.767  0.0080  0.0628 -0.6567
 7122SOL    HW133002   2.500   1.373   0.803 -0.8116  1.0427  1.0869
 7122SOL    HW233003   2.597   1.435   0.707  2.3976  1.1920  1.7737
 7123SOL     OW33004   3.916   2.471   8.163  0.0071  0.1706  0.1273
 7123SOL    HW133005   3.981   2.403   8.146 -0.0460  0.0141  0.5743
 7123SOL    HW233006   3.838   2.429   8.200  0.9286 -1.2529  0.4290
 7124SOL     OW33007   2.903   3.272   8.256 -0.6531  0.3647  0.3443
 7124SOL    HW133008   2.998   3.257   8.256 -0.8828 -1.0668  0.3518
 7124SOL    HW233009   2.887   3.333   8.184 -0.8959 -2.0909 -1.6548
 7125SOL     OW33010   0.500   0.677   7.066  0.6667  0.5389  0.0341
 7125SOL    HW133011   0.501   0.714   6.978 -0.6801  1.5175  0.4343
 7125SOL    HW233012   0.408   0.666   7.089  0.5251 -1.6360 -1.5760
 7126SOL     OW33013   3.517   1.599   3.067 -0.3742 -0.3286 -0.1651
 7126SOL    HW133014   3.605   1.636   3.074  0.6873 -3.0396  0.6505
 7126SOL    HW233015   3.486   1.605   3.157 -1.5279  0.5390 -0.6155
 7127SOL     OW33016   1.367   0.048   7.088 -0.0892  0.3593  0.0221
 7127SOL    HW133017   1.279   0.025   7.118 -0.7331  1.2970 -1.1290
 7127SOL    HW233018   1.395   0.123   7.141 -1.0774  1.2047 -0.6368
 7128SOL     OW33019   3.284   3.985  15.092  0.2644  0.5767 -0.5183
 7128SOL    HW133020   3.202   3.942  15.066  0.4947  0.7562 -1.5256
 7128SOL    HW233021   3.262   4.077  15.082 -0.4280  0.4675 -0.0479
 7129SOL     OW33022   3.526   3.527   8.486 -0.4976 -0.3347 -0.3420
 7129SOL    HW133023   3.525   3.607   8.538 -1.1431 -0.2002 -0.5584
 7129SOL    HW233024   3.504   3.468   8.558 -0.3296  1.8790  1.5276
 7130SOL     OW33025   1.898   1.003   0.719 -0.4623  0.7542  0.1089
 7130SOL    HW133026   1.937   1.086   0.748 -0.0484 -0.8156  4.0369
 7130SOL    HW233027   1.871   1.016   0.628  0.1924  3.8987  0.3583
 7131SOL     OW33028   2.884   1.174   3.187 -0.0974  0.1224  0.1309
 7131SOL    HW133029   2.870   1.267   3.170  3.2980  0.8481  1.2581
 7131SOL    HW233030   2.971   1.160   3.148 -1.1535  2.2646 -2.9762
 7132SOL     OW33031   3.572   3.725   3.004  0.1340  0.2946  0.5926
 7132SOL    HW133032   3.638   3.737   3.072 -1.7693 -0.9716  2.6450
 7132SOL    HW233033   3.528   3.810   3.007  1.0259  0.7587  0.8218
 7133SOL     OW33034   0.463   0.475   4.760  0.1691  0.0921 -0.3934
 7133SOL    HW133035   0.445   0.383   4.742  0.2683 -0.0330  0.1552
 7133SOL    HW233036   0.471   0.507   4.670  1.7971  3.0296  0.7696
 7134SOL     OW33037   3.548   1.418   7.339  0.1683  0.4031  0.4668
 7134SOL    HW133038   3.548   1.514   7.338 -1.4598  0.3977 -0.7250
 7134SOL    HW233039   3.628   1.400   7.387  1.5027  1.2468 -1.4639
 7135SOL     OW33040   2.620   2.693  14.424 -0.6603 -0.6758  0.3950
 7135SOL    HW133041   2.712   2.687  14.399 -0.0723  0.5739  2.2578
 7135SOL    HW233042   2.612   2.780  14.464  0.2239 -1.1112  1.5297
 7136SOL     OW33043   4.643   4.437   2.167  0.0518 -0.1213  0.1881
 7136SOL    HW133044   4.587   4.383   2.223 -1.0448  0.5957 -0.2151
 7136SOL    HW233045   4.602   4.426   2.081  3.5545  0.6949 -1.5843
 7137SOL     OW33046   3.352   3.332  13.614 -0.5208  0.1142  0.0170
 7137SOL    HW133047   3.327   3.285  13.694  0.4582  0.5253  0.5614
 7137SOL    HW233048   3.441   3.359  13.637  0.2908 -1.1758 -1.6067
 7138SOL     OW33049   4.671   4.439   7.243  0.0345 -0.3718 -0.4951
 7138SOL    HW133050   4.596   4.383   7.220  1.0350 -3.0177  2.7535
 7138SOL    HW233051   4.624   4.490   7.308  0.4272 -0.9030  0.2051
 7139SOL     OW33052   4.423   0.428   2.981 -0.0826  0.4480 -0.2227
 7139SOL    HW133053   4.389   0.355   3.032  0.7223  0.0819 -0.2045
 7139SOL    HW233054   4.363   0.425   2.907 -1.4248 -0.6591  0.9116
 7140SOL     OW33055   3.182   4.019  13.603  0.2387 -0.0604  0.1362
 7140SOL    HW133056   3.145   4.092  13.554  0.8435  0.1160 -0.0645
 7140SOL    HW233057   3.109   3.962  13.628  0.8979 -1.2876 -0.7371
 7141SOL     OW33058   1.573   1.453   4.192  0.2749  0.0546  0.4276
 7141SOL    HW133059   1.509   1.511   4.233 -0.6620 -0.6379 -0.0653
 7141SOL    HW233060   1.621   1.417   4.267  1.3007  3.1243  1.2367
 7142SOL     OW33061   0.044   4.322  12.077 -0.6903 -0.2487  0.6224
 7142SOL    HW133062   4.708   4.381  12.085 -0.1708  0.6666 -1.2275
 7142SOL    HW233063   0.115   4.387  12.071  0.4606 -1.6351 -0.9976
 7143SOL     OW33064   1.711   4.674   4.304 -0.2665 -0.2023 -0.4705
 7143SOL    HW133065   1.797   4.715   4.317  0.1449 -0.7699 -1.4304
 7143SOL    HW233066   1.679   4.729   4.232 -0.1027  3.4656  2.2118
 7144SOL     OW33067   4.379   4.486  17.129  0.2108  0.1173 -0.2537
 7144SOL    HW133068   4.447   4.422  17.111 -1.6304 -2.9658  3.8223
 7144SOL    HW233069   4.313   4.438  17.079 -1.9737  1.8592  0.9863
 7145SOL     OW33070   0.577   2.132  14.318  0.3714 -0.6577  0.3301
 7145SOL    HW133071   0.541   2.214  14.283 -0.1690  0.1280  2.7154
 7145SOL    HW233072   0.577   2.150  14.412  1.3856  0.8204  0.0528
 7146SOL     OW33073   0.155   3.158  12.117 -0.0017 -0.4002 -0.0258
 7146SOL    HW133074   0.102   3.173  12.038 -0.4605 -0.0489  0.3491
 7146SOL    HW233075   0.133   3.239  12.164  1.3442  0.4549 -0.8643
 7147SOL     OW33076   2.622   2.639   5.863 -0.1390  0.4459  0.4101
 7147SOL    HW133077   2.566   2.714   5.885 -0.6366 -0.1193  1.0588
 7147SOL    HW233078   2.641   2.613   5.953 -1.1349 -1.9431 -0.0747
 7148SOL     OW33079   4.039   3.480   8.111 -0.4268 -0.4061  0.2423
 7148SOL    HW133080   4.056   3.452   8.201 -0.1596 -1.0765 -0.0157
 7148SOL    HW233081   4.110   3.431   8.068 -2.3762 -0.6442 -2.6818
 7149SOL     OW33082   3.715   1.637   5.497 -0.2768  0.0603  0.4359
 7149SOL    HW133083   3.771   1.579   5.446 -2.0858 -0.6267 -0.7616
 7149SOL    HW233084   3.629   1.633   5.457  0.3319 -0.6190 -0.7948
 7150SOL     OW33085   1.748   4.250   5.109  0.7312 -0.1323  0.3833
 7150SOL    HW133086   1.706   4.201   5.181  0.4861 -2.3595 -1.2616
 7150SOL    HW233087   1.672   4.287   5.064 -0.0299  0.6602  2.3123
 7151SOL     OW33088   0.287   3.783   4.090  0.3062  0.1703  0.2204
 7151SOL    HW133089   0.228   3.766   4.163 -0.0569  0.1308 -0.0858
 7151SOL    HW233090   0.299   3.693   4.060 -0.2813  0.3679 -0.5979
 7152SOL     OW33091   0.366   0.320   3.475  0.4076 -0.3481 -0.0042
 7152SOL    HW133092   0.410   0.259   3.416  1.3605 -0.1520  0.4892
 7152SOL    HW233093   0.419   0.329   3.554 -2.5178 -2.4506  2.1388
 7153SOL     OW33094   0.069   3.740   1.696  0.2769  0.6550 -0.1943
 7153SOL    HW133095   0.041   3.817   1.648  0.2718  0.3003 -0.7626
 7153SOL    HW233096   0.037   3.764   1.783 -0.6357 -0.3274 -0.2550
 7154SOL     OW33097   0.813   1.471   0.183  0.0949  0.1827  0.1223
 7154SOL    HW133098   0.895   1.489   0.138 -0.2442  2.4194  0.4299
 7154SOL    HW233099   0.843   1.421   0.259  0.9714 -0.0153 -0.3577
 7155SOL     OW33100   2.547   1.774   4.519  0.2336 -0.1000 -0.4846
 7155SOL    HW133101   2.509   1.719   4.450 -0.7309  0.3547 -0.3148
 7155SOL    HW233102   2.642   1.771   4.510  0.1616  2.7318 -2.0881
 7156SOL     OW33103   3.826   4.358  12.537 -0.0844  0.0187 -0.0065
 7156SOL    HW133104   3.782   4.412  12.472  0.2050 -0.0645 -0.2770
 7156SOL    HW233105   3.858   4.286  12.481 -0.6628 -0.8059  0.7179
 7157SOL     OW33106   3.887   3.712   2.486 -0.0625  0.3092  0.4797
 7157SOL    HW133107   3.941   3.703   2.408  0.5274  0.6213  0.8473
 7157SOL    HW233108   3.865   3.622   2.512 -0.5301  0.2914  0.0204
 7158SOL     OW33109   3.590   1.219   2.086 -0.2441  0.1156 -0.6869
 7158SOL    HW133110   3.549   1.200   2.001 -1.4702  1.2231 -0.3401
 7158SOL    HW233111   3.631   1.138   2.116 -1.1743  0.2914  1.0212
 7159SOL     OW33112   4.715   2.858   6.059  0.2854 -0.3316 -0.2204
 7159SOL    HW133113   4.631   2.832   6.097 -2.0732  2.1568 -3.7627
 7159SOL    HW233114   4.690   2.947   6.036  0.4665  0.4732  2.6952
 7160SOL     OW33115   3.026   3.685   1.027 -0.5841  0.2494 -0.0417
 7160SOL    HW133116   3.020   3.595   0.992  0.9248  0.8728 -1.9093
 7160SOL    HW233117   3.070   3.729   0.954 -2.4874  0.6913 -0.9241
 7161SOL     OW33118   1.307   0.538  11.286 -0.7898  0.0120 -0.5443
 7161SOL    HW133119   1.366   0.602  11.323 -0.0790 -1.7170  1.3091
 7161SOL    HW233120   1.234   0.544  11.348  1.5038 -1.1979  2.2446
 7162SOL     OW33121   0.934   4.189  17.407  0.0562 -0.2516 -0.9628
 7162SOL    HW133122   0.931   4.112  17.351 -2.5762 -0.0139 -1.1269
 7162SOL    HW233123   0.977   4.243  17.340 -0.5970  1.9120  0.3444
 7163SOL     OW33124   2.706   3.208   2.876  0.0842 -0.1317 -0.0711
 7163SOL    HW133125   2.624   3.244   2.911 -0.6009 -1.0404 -0.7692
 7163SOL    HW233126   2.685   3.115   2.878  0.6120 -0.2631 -0.6090
 7164SOL     OW33127   1.022   3.324   4.888 -0.5277  1.1427 -0.2287
 7164SOL    HW133128   1.087   3.377   4.934  0.0666 -0.4602  0.7936
 7164SOL    HW233129   1.077   3.297   4.814  1.5725  2.1719  0.9723
 7165SOL     OW33130   3.862   3.845   7.380 -0.1030  0.2331 -0.2227
 7165SOL    HW133131   3.867   3.872   7.472  2.7772 -1.3673  0.0693
 7165SOL    HW233132   3.904   3.759   7.379 -0.3006  0.1033  2.1225
 7166SOL     OW33133   3.557   4.110   6.671 -0.2539 -0.2258 -0.3665
 7166SOL    HW133134   3.539   4.127   6.578  0.9118 -1.3298 -0.7846
 7166SOL    HW233135   3.571   4.016   6.666 -0.1996 -0.3683  2.4852
 7167SOL     OW33136   2.901   1.239   3.463  0.2210 -0.1001  0.0409
 7167SOL    HW133137   2.929   1.219   3.373  0.1858 -1.4979  0.3373
 7167SOL    HW233138   2.901   1.334   3.460  1.6880 -0.0598  1.3653
 7168SOL     OW33139   3.901   4.323   9.784  0.0283 -0.2796  0.4391
 7168SOL    HW133140   3.847   4.374   9.844  0.1590  0.2416  0.1154
 7168SOL    HW233141   3.891   4.394   9.720  1.2075  0.5626  1.1860
 7169SOL     OW33142   0.511   4.721   4.714 -0.1723  0.3598 -0.1525
 7169SOL    HW133143   0.422   4.723   4.750 -0.0001  1.7063  0.1775
 7169SOL    HW233144   0.576   4.721   4.784 -0.3073  1.5550 -0.0381
 7170SOL     OW33145   2.382   3.390  12.166  0.1499 -0.0054  0.2421
 7170SOL    HW133146   2.344   3.427  12.086 -0.9811 -1.2920  0.1770
 7170SOL    HW233147   2.425   3.469  12.199  1.3206 -0.4083 -0.3407
 7171SOL     OW33148   3.269   1.240   8.919 -0.0545  0.4291 -0.2751
 7171SOL    HW133149   3.319   1.196   8.986 -1.4828 -0.0351  0.4874
 7171SOL    HW233150   3.266   1.328   8.957 -1.1663 -0.6551  2.1269
 7172SOL     OW33151   4.286   1.901  12.776 -0.1096  0.4978 -0.1455
 7172SOL    HW133152   4.327   1.961  12.839  0.3480 -2.5940  2.5185
 7172SOL    HW233153   4.330   1.817  12.768  1.3288  1.2460 -0.0247
 7173SOL     OW33154   4.572   0.885   3.791 -0.0673 -0.2857  0.5645
 7173SOL    HW133155   4.583   0.892   3.696  1.2888 -3.6320  0.4903
 7173SOL    HW233156   4.655   0.920   3.824  0.4287 -0.9929  0.0745
 7174SOL     OW33157   0.112   3.464  15.763 -0.1491  0.1656 -0.1875
 7174SOL    HW133158   0.191   3.506  15.794 -1.7547  0.5820  3.3085
 7174SOL    HW233159   0.087   3.536  15.705 -0.5033  1.0480  1.0697
 7175SOL     OW33160   2.468   2.825   7.232 -0.2155  0.0758  0.1980
 7175SOL    HW133161   2.400   2.813   7.298 -0.4910  1.6626  0.1862
 7175SOL    HW233162   2.478   2.730   7.224  0.2249  0.3148 -2.2226
 7176SOL     OW33163   2.883   4.313   6.948 -0.2106  0.1395 -0.1186
 7176SOL    HW133164   2.823   4.387   6.937  1.3515  1.4373  0.1660
 7176SOL    HW233165   2.842   4.262   7.018  3.1099 -0.0119  1.7375
 7177SOL     OW33166   4.332   3.336   4.638  0.3839  0.0097 -0.7118
 7177SOL    HW133167   4.308   3.269   4.575 -1.4148 -1.0842  1.1283
 7177SOL    HW233168   4.323   3.289   4.721  2.1836  0.9970  0.0463
 7178SOL     OW33169   2.005   3.712  14.041 -0.1895  0.0437  0.8032
 7178SOL    HW133170   1.968   3.633  14.079 -2.0026 -0.5167 -2.1029
 7178SOL    HW233171   2.074   3.731  14.104 -1.5100  2.0936  1.6103
 7179SOL     OW33172   4.470   3.199  13.057 -0.3922 -0.0622  0.5249
 7179SOL    HW133173   4.401   3.141  13.024 -1.3225  1.4820 -0.2035
 7179SOL    HW233174   4.518   3.206  12.974 -0.6291 -1.9700  0.2158
 7180SOL     OW33175   0.872   0.658   1.050 -0.3740  0.0267  0.0234
 7180SOL    HW133176   0.823   0.729   1.093 -0.4201  0.0197 -0.0184
 7180SOL    HW233177   0.946   0.701   1.008  0.1879  0.1769  1.1676
 7181SOL     OW33178   0.920   3.022  13.154  0.0229  0.4571  0.4542
 7181SOL    HW133179   0.868   3.045  13.231 -0.3258 -1.3721  0.7691
 7181SOL    HW233180   0.944   3.110  13.126  0.7356 -0.0158 -0.4695
 7182SOL     OW33181   1.953   1.850   6.511  0.0691  0.1357 -0.2189
 7182SOL    HW133182   2.010   1.813   6.579  1.2544  1.5683 -0.4253
 7182SOL    HW233183   1.951   1.784   6.442 -1.3016  0.3483 -0.3692
 7183SOL     OW33184   3.435   0.436   9.112  0.0033 -0.1419 -0.6457
 7183SOL    HW133185   3.522   0.410   9.081  1.5066  3.7242  0.3323
 7183SOL    HW233186   3.378   0.397   9.046 -1.5728  0.5381  0.3065
 7184SOL     OW33187   2.077   2.494   0.042  0.3350 -0.0124  0.5163
 7184SOL    HW133188   2.026   2.414   0.054  1.0404 -0.3004  1.6024
 7184SOL    HW233189   2.113   2.483  17.708 -0.9185 -2.9774  0.3782
 7185SOL     OW33190   0.126   3.008   3.607  0.0928 -0.2198  0.0308
 7185SOL    HW133191   0.093   3.011   3.697  0.0399 -0.8911  0.0350
 7185SOL    HW233192   0.081   3.081   3.566  0.6551 -0.9126 -1.7839
 7186SOL     OW33193   0.418   2.870   8.037 -0.1253 -0.2900  0.5805
 7186SOL    HW133194   0.356   2.895   7.968  0.7031 -0.3596 -0.1954
 7186SOL    HW233195   0.383   2.907   8.117  0.3750 -0.7189  0.9965
 7187SOL     OW33196   3.429   4.050   9.793  0.2839 -0.1131  0.4138
 7187SOL    HW133197   3.521   4.063   9.769  0.4376 -0.9215  0.5583
 7187SOL    HW233198   3.408   4.120   9.855  0.8033 -0.3056  0.8160
 7188SOL     OW33199   1.518   0.281  10.780 -0.5552  0.1451  0.1976
 7188SOL    HW133200   1.554   0.203  10.822 -2.5580 -0.8949 -0.0318
 7188SOL    HW233201   1.424   0.265  10.778 -0.2790 -1.4986  0.0822
 7189SOL     OW33202   1.810   4.103   6.214 -0.1707  0.5668  0.6778
 7189SOL    HW133203   1.861   4.023   6.222  1.5273  1.6143  0.2916
 7189SOL    HW233204   1.727   4.060   6.235 -0.3207  0.5406  0.0419
 7190SOL     OW33205   1.260   0.762   6.364  0.2396  0.4306 -0.0703
 7190SOL    HW133206   1.200   0.816   6.415 -3.3179 -3.6242 -0.0289
 7190SOL    HW233207   1.201   0.689   6.344  1.2505 -0.2238 -0.6896
 7191SOL     OW33208   0.616   3.707   4.892 -0.6063  0.0109  0.1331
 7191SOL    HW133209   0.595   3.658   4.813 -0.9233 -0.5430  0.5548
 7191SOL    HW233210   0.700   3.662   4.902 -1.3376 -0.8180  2.5937
 7192SOL     OW33211   3.544   2.316   7.395  0.4711 -0.0125 -0.2573
 7192SOL    HW133212   3.595   2.397   7.398 -0.7853  0.7225  1.2787
 7192SOL    HW233213   3.498   2.328   7.312 -0.6424  1.7125  0.6117
 7193SOL     OW33214   4.419   2.754  12.836 -0.3385  0.1740  0.4215
 7193SOL    HW133215   4.482   2.826  12.833 -0.9615  0.7501  0.8599
 7193SOL    HW233216   4.375   2.764  12.921  0.5125  1.1440  0.7513
 7194SOL     OW33217   0.795   2.729   4.269 -0.5474 -0.2628 -0.3261
 7194SOL    HW133218   0.798   2.752   4.176 -0.6867 -2.0949 -0.7707
 7194SOL    HW233219   0.704   2.701   4.277 -0.1458 -1.1679  1.0977
 7195SOL     OW33220   3.875   1.632   5.798 -0.5424 -0.8327  0.0529
 7195SOL    HW133221   3.920   1.658   5.879 -0.3120 -0.9446 -0.0379
 7195SOL    HW233222   3.876   1.536   5.799  2.1682 -0.8138  0.7127
 7196SOL     OW33223   2.790   4.304   8.817  0.7186 -0.5622  0.4282
 7196SOL    HW133224   2.814   4.380   8.869  1.4875  0.8298 -1.9651
 7196SOL    HW233225   2.715   4.342   8.772  0.6333 -0.0430  1.0098
 7197SOL     OW33226   0.523   2.416  15.782  0.7887 -0.4013  0.2526
 7197SOL    HW133227   0.554   2.328  15.759  2.4695  0.4035 -0.5168
 7197SOL    HW233228   0.569   2.432  15.864  0.9681 -1.1797  0.3063
 7198SOL     OW33229   3.008   2.368   9.512  0.0790  0.2967 -0.1581
 7198SOL    HW133230   2.991   2.402   9.600  0.2376 -0.6975  0.2477
 7198SOL    HW233231   3.009   2.275   9.533 -0.7885  0.1609 -0.7375
 7199SOL     OW33232   4.708   2.132   7.502  0.8528  0.4164 -0.5769
 7199SOL    HW133233   4.647   2.185   7.554 -0.3460 -3.3454  1.8258
 7199SOL    HW233234   4.693   2.173   7.417 -1.4577 -0.1248 -0.4340
 7200SOL     OW33235   0.105   1.081   6.394  0.3986  0.1688 -0.0283
 7200SOL    HW133236   0.167   1.151   6.374  1.1564  0.0905  2.0232
 7200SOL    HW233237   0.110   1.029   6.314  0.6258  0.9816 -0.5421
 7201SOL     OW33238   1.813   3.269   2.241  0.2646  0.1472 -0.0187
 7201SOL    HW133239   1.827   3.310   2.156 -0.2435 -0.8704 -0.5908
 7201SOL    HW233240   1.771   3.187   2.215  0.3558 -0.0049  0.3100
 7202SOL     OW33241   2.424   2.662  16.117  0.6472 -0.0572  0.4087
 7202SOL    HW133242   2.459   2.734  16.064 -0.6185 -0.3138 -0.7714
 7202SOL    HW233243   2.381   2.614  16.046 -1.3312  1.4744  0.5932
 7203SOL     OW33244   3.082   3.237  15.220  0.5782 -0.2411 -0.4197
 7203SOL    HW133245   3.096   3.152  15.262 -0.8039 -1.8676 -3.2073
 7203SOL    HW233246   3.123   3.214  15.136 -0.3248 -0.3824 -0.8257
 7204SOL     OW33247   2.869   0.326   3.650  0.0986  0.5346  0.2309
 7204SOL    HW133248   2.823   0.244   3.636  2.0815 -0.3647 -1.0579
 7204SOL    HW233249   2.941   0.296   3.705 -0.9105  0.7694  1.6822
 7205SOL     OW33250   3.330   0.657   9.245 -0.2484 -0.6956 -0.1042
 7205SOL    HW133251   3.251   0.623   9.286 -0.5615 -0.5073 -0.5513
 7205SOL    HW233252   3.363   0.579   9.202 -1.2529 -1.0759 -0.1765
 7206SOL     OW33253   1.812   3.853   5.985  0.5515 -0.1296 -0.6718
 7206SOL    HW133254   1.718   3.869   5.976  0.8231  1.7239 -0.2138
 7206SOL    HW233255   1.824   3.776   5.930 -0.8482 -1.3442  0.7189
 7207SOL     OW33256   2.420   4.039   9.211  0.5438 -0.3951  0.2169
 7207SOL    HW133257   2.475   4.110   9.180 -1.3534  0.9702  0.0202
 7207SOL    HW233258   2.334   4.080   9.222 -0.2756 -1.3761 -2.6721
 7208SOL     OW33259   2.875   2.108   6.594  0.3014 -0.2737  0.2847
 7208SOL    HW133260   2.909   2.090   6.681 -0.2756 -0.3023  0.5031
 7208SOL    HW233261   2.781   2.125   6.606  0.4736 -0.0890  1.3546
 7209SOL     OW33262   3.426   2.600   7.612 -0.9067 -0.0341  0.2357
 7209SOL    HW133263   3.501   2.578   7.556  0.7165 -2.2137  3.2317
 7209SOL    HW233264   3.466   2.574   7.696 -1.5468  2.2199  1.2558
 7210SOL     OW33265   1.093   2.446   7.263  0.1184  0.6803  0.3339
 7210SOL    HW133266   1.031   2.508   7.226 -2.1669 -1.6252  0.2732
 7210SOL    HW233267   1.107   2.385   7.190  0.8435  0.5028  0.6160
 7211SOL     OW33268   4.003   3.392   4.286 -0.1272  0.8716 -0.5356
 7211SOL    HW133269   3.939   3.429   4.226  0.3318  0.0377 -1.5407
 7211SOL    HW233270   4.080   3.385   4.229  1.1083 -0.2065  1.2496
 7212SOL     OW33271   1.310   0.368   9.901  0.3806  0.2383  0.5316
 7212SOL    HW133272   1.273   0.297   9.954 -1.0668 -0.1421 -0.9979
 7212SOL    HW233273   1.227   0.414   9.885  0.7029  0.0198 -1.6762
 7213SOL     OW33274   1.486   1.417   7.725 -0.3935  0.0539 -0.5235
 7213SOL    HW133275   1.427   1.342   7.721 -0.9819  0.4566  0.5072
 7213SOL    HW233276   1.503   1.434   7.633 -0.1513 -2.1282 -0.8791
 7214SOL     OW33277   2.266   4.064   3.495  0.1771 -0.4549 -0.5005
 7214SOL    HW133278   2.305   4.119   3.562 -0.6315 -0.2250 -0.2290
 7214SOL    HW233279   2.225   3.995   3.548  1.1015 -1.7612 -1.4654
 7215SOL     OW33280   3.742   0.039   7.956  0.7378 -0.0407 -0.0397
 7215SOL    HW133281   3.801   0.024   7.882  2.3538  1.0468  1.0393
 7215SOL    HW233282   3.796   0.084   8.020  0.0264  2.3094 -1.0809
 7216SOL     OW33283   1.110   4.190   5.535  0.0808 -0.0609 -0.1417
 7216SOL    HW133284   1.114   4.284   5.515  2.8613  0.1533  1.4611
 7216SOL    HW233285   1.016   4.171   5.537  0.4044 -1.5757  0.6011
 7217SOL     OW33286   3.171   2.239  12.688  0.9677  0.2783 -0.0931
 7217SOL    HW133287   3.131   2.289  12.618  0.8832  0.2780 -0.0452
 7217SOL    HW233288   3.197   2.162  12.638 -0.8281 -0.4483  0.0850
 7218SOL     OW33289   2.838   0.297   9.689 -0.1239  0.0601  0.6260
 7218SOL    HW133290   2.900   0.294   9.762  0.6279  1.2558  0.0287
 7218SOL    HW233291   2.765   0.239   9.714 -1.0394  1.9333  2.3153
 7219SOL     OW33292   1.702   0.824  17.353 -0.1719  0.5106 -0.7372
 7219SOL    HW133293   1.683   0.765  17.426 -2.3034  2.6096  0.3858
 7219SOL    HW233294   1.621   0.817  17.302 -0.9243 -2.5023  0.8443
 7220SOL     OW33295   0.350   1.374   4.856  0.3071  0.0529  0.7582
 7220SOL    HW133296   0.254   1.367   4.853  0.2990  0.9418 -1.1125
 7220SOL    HW233297   0.370   1.392   4.764  0.2639 -1.2394  0.4875
 7221SOL     OW33298   4.592   4.018   2.101 -0.0679 -0.1798  0.0456
 7221SOL    HW133299   4.511   4.059   2.131  0.3847  0.9995 -0.3770
 7221SOL    HW233300   4.658   4.038   2.167  1.3221  1.9261 -2.0174
 7222SOL     OW33301   3.591   3.955   7.378 -0.3327  0.3096  0.2206
 7222SOL    HW133302   3.544   3.890   7.431 -0.4672 -2.1458 -2.9031
 7222SOL    HW233303   3.680   3.940   7.411 -0.5999  0.0570  0.8337
 7223SOL     OW33304   0.797   2.230   4.575 -0.1398 -0.8197  0.2700
 7223SOL    HW133305   0.704   2.244   4.560  0.4281 -0.8335 -3.1261
 7223SOL    HW233306   0.824   2.183   4.497 -0.1161  0.4438 -0.4901
 7224SOL     OW33307   1.829   0.331  15.436 -0.1725 -0.3302  0.0475
 7224SOL    HW133308   1.902   0.392  15.450 -1.4510  0.5841  2.6337
 7224SOL    HW233309   1.824   0.324  15.340  1.8617  2.2239 -0.2512
 7225SOL     OW33310   2.268   1.234   2.118 -0.1916  0.5862  0.0171
 7225SOL    HW133311   2.227   1.265   2.199 -0.7904  1.6082 -0.6685
 7225SOL    HW233312   2.360   1.245   2.141 -0.0597 -0.3113 -0.0931
 7226SOL     OW33313   2.255   3.361   4.552 -0.0160  0.0859  0.0484
 7226SOL    HW133314   2.176   3.307   4.553 -0.1491  0.2986  0.8014
 7226SOL    HW233315   2.304   3.307   4.614 -0.0200  0.8014  0.6740
 7227SOL     OW33316   1.995   1.960   2.114  0.3610  0.5422 -0.6569
 7227SOL    HW133317   1.988   2.037   2.057 -0.7495 -0.3553 -1.7351
 7227SOL    HW233318   2.074   1.986   2.160  0.6463  0.1648 -0.9284
 7228SOL     OW33319   0.314   0.649   6.333 -0.2705  0.3919  0.4050
 7228SOL    HW133320   0.317   0.563   6.376 -0.5423  0.8636  1.3573
 7228SOL    HW233321   0.384   0.640   6.269  0.3525 -0.2092  1.1693
 7229SOL     OW33322   1.010   2.226   5.339  0.0880  0.0662 -0.4996
 7229SOL    HW133323   1.057   2.155   5.383  0.1417  0.5368  0.1987
 7229SOL    HW233324   1.002   2.192   5.250  1.9402  0.1906 -0.7246
 7230SOL     OW33325   3.179   1.248  16.802 -0.5170  0.0448  0.0681
 7230SOL    HW133326   3.208   1.163  16.767  4.0673  1.6997 -0.1380
 7230SOL    HW233327   3.259   1.300  16.802  1.0680 -2.4123 -2.5758
 7231SOL     OW33328   3.113   2.518   9.149 -0.6055  0.0047  0.3726
 7231SOL    HW133329   3.196   2.471   9.158  1.1268  2.7280 -1.3929
 7231SOL    HW233330   3.124   2.545   9.058 -0.7402 -1.8120 -0.1911
 7232SOL     OW33331   4.686   0.008  10.770 -0.1067 -0.2344  0.0553
 7232SOL    HW133332   4.648   0.095  10.763 -1.6024 -0.7831  1.3071
 7232SOL    HW233333   4.632   4.714  10.698 -0.2724  0.2207 -0.0242
 7233SOL     OW33334   0.127   0.450  11.702 -0.2823  0.4822  0.3387
 7233SOL    HW133335   0.218   0.423  11.717  0.3497  2.0312 -0.7036
 7233SOL    HW233336   0.088   0.368  11.730  0.0507  0.1382 -0.2114
 7234SOL     OW33337   1.702   1.114  10.944 -0.0119  0.6566  0.3018
 7234SOL    HW133338   1.679   1.183  11.007 -1.2610  0.7610 -0.2614
 7234SOL    HW233339   1.773   1.158  10.899  0.3041  1.3413  1.4535
 7235SOL     OW33340   4.597   0.127   0.867  0.3165 -0.1716  0.1603
 7235SOL    HW133341   4.672   0.127   0.807 -0.3355  0.1709 -0.6550
 7235SOL    HW233342   4.607   0.043   0.912  0.4339 -0.8451 -1.1204
 7236SOL     OW33343   3.130   2.798   5.556  0.0355 -0.0659  0.4970
 7236SOL    HW133344   3.140   2.704   5.565 -1.1311 -0.2625 -0.2963
 7236SOL    HW233345   3.201   2.829   5.612 -0.8204 -0.8255  1.9927
 7237SOL     OW33346   2.816   1.283  13.110 -0.0154 -0.3198 -0.1638
 7237SOL    HW133347   2.759   1.295  13.034  0.4077 -0.3986 -0.4914
 7237SOL    HW233348   2.844   1.373  13.123  0.7389 -0.6906  0.7428
 7238SOL     OW33349   3.094   3.838   6.334  0.5958 -0.1438  0.0623
 7238SOL    HW133350   3.057   3.759   6.374 -1.4772  0.2675 -1.0691
 7238SOL    HW233351   3.012   3.887   6.330  0.1959 -0.7549  0.7141
 7239SOL     OW33352   1.804   1.876   7.919 -0.2541 -0.3098  0.3050
 7239SOL    HW133353   1.871   1.835   7.974  0.1657 -0.5383 -0.3836
 7239SOL    HW233354   1.794   1.819   7.843  0.9301 -0.0235 -0.0621
 7240SOL     OW33355   2.034   3.432  11.176 -0.3347 -0.0323  0.6085
 7240SOL    HW133356   2.017   3.362  11.239  0.6461 -0.2324  0.6626
 7240SOL    HW233357   1.955   3.430  11.122  0.0045 -1.9636  0.1691
 7241SOL     OW33358   3.336   1.572  13.866  0.4521 -0.0036  0.5044
 7241SOL    HW133359   3.371   1.565  13.955  0.3078  3.0094  0.7898
 7241SOL    HW233360   3.396   1.639  13.832 -0.2490  0.5966  0.4576
 7242SOL     OW33361   1.781   3.598   6.293  0.4313  0.2457  0.0449
 7242SOL    HW133362   1.705   3.540   6.296  0.9949 -0.4871  0.1614
 7242SOL    HW233363   1.856   3.538   6.297  1.6783  1.7218 -1.3703
 7243SOL     OW33364   1.338   3.294   6.005  0.3237  0.0758 -0.5234
 7243SOL    HW133365   1.256   3.343   5.998 -0.0810 -0.3658  1.2029
 7243SOL    HW233366   1.403   3.363   6.018 -0.0001  0.3634 -0.4090
 7244SOL     OW33367   1.441   4.340   4.111 -0.2687  0.0550 -0.3973
 7244SOL    HW133368   1.514   4.356   4.171  0.9343  1.3550 -2.2033
 7244SOL    HW233369   1.476   4.396   4.042  1.5516  1.8323  2.0013
 7245SOL     OW33370   4.418   1.023  14.308  0.1039  0.4151 -0.6976
 7245SOL    HW133371   4.362   1.031  14.231 -1.4313 -0.5793  0.3136
 7245SOL    HW233372   4.361   0.959  14.349  0.2434  0.1435 -0.9301
 7246SOL     OW33373   2.924   3.552   5.174  1.0233  0.3834  0.0073
 7246SOL    HW133374   2.964   3.626   5.220  2.3991 -0.2277 -0.2235
 7246SOL    HW233375   2.836   3.549   5.212 -0.2489 -0.2829 -2.9792
 7247SOL     OW33376   3.580   0.518   3.863 -0.2844 -0.0634  0.6067
 7247SOL    HW133377   3.599   0.439   3.812  0.1965 -0.8983  2.0927
 7247SOL    HW233378   3.487   0.527   3.839  0.0800  0.0238 -0.8089
 7248SOL     OW33379   3.569   2.668  11.662  0.5576 -0.2655 -0.1640
 7248SOL    HW133380   3.518   2.626  11.592  1.0831 -1.7606  0.3581
 7248SOL    HW233381   3.497   2.728  11.684  0.9689 -0.1167  0.7654
 7249SOL     OW33382   2.883   3.609  13.465  0.5642  0.0143  0.6462
 7249SOL    HW133383   2.970   3.579  13.490  0.3845  0.0655  1.3169
 7249SOL    HW233384   2.830   3.530  13.467 -0.1118  0.4501  0.1701
 7250SOL     OW33385   4.053   0.954   0.480 -0.1802 -0.3646 -0.2985
 7250SOL    HW133386   4.009   0.947   0.395  0.5229 -0.9034 -0.6133
 7250SOL    HW233387   4.145   0.949   0.455 -0.5681 -0.8893 -1.6351
 7251SOL     OW33388   2.611   1.026   5.899  0.6493  0.6182 -0.1631
 7251SOL    HW133389   2.546   1.058   5.962  1.3382 -0.9260  1.3184
 7251SOL    HW233390   2.559   0.955   5.861 -1.6875  2.5521 -0.5726
 7252SOL     OW33391   0.214   3.175   3.943 -0.5762 -0.6371  0.0967
 7252SOL    HW133392   0.263   3.093   3.939  0.0199 -0.4092  2.3582
 7252SOL    HW233393   0.283   3.229   3.904  0.3156 -0.5907  1.7164
 7253SOL     OW33394   1.067   1.644   5.242 -0.0518  0.2559  0.7480
 7253SOL    HW133395   1.113   1.701   5.181 -2.0939 -0.0503 -1.0909
 7253SOL    HW233396   0.985   1.639   5.192  0.9203 -1.5852 -0.6426
 7254SOL     OW33397   4.019   1.964   9.485  0.2885  0.0753  0.0524
 7254SOL    HW133398   4.100   1.925   9.451  0.1395 -0.8222  0.7093
 7254SOL    HW233399   4.033   1.962   9.579  1.0987  0.9447 -0.0546
 7255SOL     OW33400   2.819   1.023   7.415 -0.1807 -0.3422 -0.0998
 7255SOL    HW133401   2.780   0.941   7.384  1.4414 -0.4976 -1.6773
 7255SOL    HW233402   2.907   1.008   7.381  0.6200 -0.3361  1.9740
 7256SOL     OW33403   0.850   0.305   1.996 -0.1736 -0.4962  0.4684
 7256SOL    HW133404   0.861   0.297   2.091 -2.2706 -0.5256  0.7138
 7256SOL    HW233405   0.762   0.344   2.003 -0.0113 -0.3719  1.8871
 7257SOL     OW33406   1.575   0.376   8.455 -0.0435 -0.0104  0.1007
 7257SOL    HW133407   1.600   0.293   8.416  1.7226  0.5604  0.0110
 7257SOL    HW233408   1.535   0.351   8.538 -0.3212  0.1722  0.0212
 7258SOL     OW33409   2.836   3.612   1.867  0.2980 -0.2914  0.1278
 7258SOL    HW133410   2.919   3.598   1.911 -0.0229 -1.8431  0.2415
 7258SOL    HW233411   2.829   3.525   1.827 -0.2092  0.3705 -1.2433
 7259SOL     OW33412   0.668   2.631   4.900 -0.1545  0.1931  0.6390
 7259SOL    HW133413   0.600   2.697   4.889 -0.1206  0.0894 -0.1982
 7259SOL    HW233414   0.748   2.680   4.884 -0.1677  0.4698  1.4213
 7260SOL     OW33415   2.612   0.668   6.931  0.0014  0.1267 -0.2354
 7260SOL    HW133416   2.624   0.747   6.983 -0.3160 -1.3942  2.1938
 7260SOL    HW233417   2.533   0.678   6.878 -0.0483  1.2562  0.0531
 7261SOL     OW33418   2.815   3.919   2.556  0.5508 -0.1145 -0.3371
 7261SOL    HW133419   2.769   3.844   2.521 -1.6470  1.6801 -1.2873
 7261SOL    HW233420   2.747   3.982   2.580  0.0367 -0.4738 -0.8615
 7262SOL     OW33421   0.763   2.261   3.736  1.2025 -0.1274  0.2115
 7262SOL    HW133422   0.684   2.209   3.730  1.9608 -1.4270  1.5479
 7262SOL    HW233423   0.749   2.321   3.810  1.7700 -1.3237  1.2910
 7263SOL     OW33424   2.957   2.593   7.007 -0.4515 -0.0148  0.5025
 7263SOL    HW133425   3.000   2.570   7.089  0.3285  1.7412  0.5888
 7263SOL    HW233426   2.869   2.609   7.040 -0.2475  2.2820 -0.0202
 7264SOL     OW33427   3.280   1.810  10.452 -0.2480 -0.0449 -0.2478
 7264SOL    HW133428   3.296   1.810  10.547  4.0913 -2.5879 -0.9882
 7264SOL    HW233429   3.185   1.825  10.450 -0.1249  0.4290 -2.1965
 7265SOL     OW33430   1.129   2.564  13.333 -0.4490 -0.4080 -0.3880
 7265SOL    HW133431   1.151   2.534  13.245  0.1930  0.3999 -0.5036
 7265SOL    HW233432   1.159   2.654  13.339  1.1145 -1.0586  1.6509
 7266SOL     OW33433   0.359   0.066   5.809  0.5650 -0.2357  0.3286
 7266SOL    HW133434   0.269   0.085   5.784  0.0171 -2.1536  0.8478
 7266SOL    HW233435   0.366   4.723   5.762  0.3781 -0.0341 -0.0517
 7267SOL     OW33436   4.009   2.406  12.371  0.4916  0.1972  0.7456
 7267SOL    HW133437   3.969   2.373  12.290  1.5490 -1.5725  0.9402
 7267SOL    HW233438   4.067   2.335  12.397  0.6236  0.1961  0.4522
 7268SOL     OW33439   2.907   4.531  10.787  0.3464 -0.3178  0.2173
 7268SOL    HW133440   2.891   4.518  10.693  0.8436  3.3414 -0.3536
 7268SOL    HW233441   2.894   4.624  10.801  0.9026 -0.0442 -1.0725
 7269SOL     OW33442   0.789   0.082   6.428  0.4059  0.5275  0.4019
 7269SOL    HW133443   0.781   0.058   6.336 -0.3948 -3.2613  1.4458
 7269SOL    HW233444   0.875   0.051   6.458  0.3914  0.0513 -0.0532
 7270SOL     OW33445   0.048   4.330  12.413 -0.0241  0.3808 -0.0064
 7270SOL    HW133446   0.039   4.383  12.334 -1.6826  1.1758  0.7065
 7270SOL    HW233447   0.103   4.381  12.472 -0.5342  3.5844 -2.3038
 7271SOL     OW33448   1.059   0.184   0.253  0.3252  0.0327 -0.0374
 7271SOL    HW133449   1.135   0.216   0.205  0.2881  0.0606 -0.0784
 7271SOL    HW233450   0.985   0.216   0.200 -1.8483  0.3695  3.2128
 7272SOL     OW33451   0.526   2.026   6.120 -0.1793  0.5959  0.5833
 7272SOL    HW133452   0.569   2.048   6.202  0.9334 -0.8478  0.3956
 7272SOL    HW233453   0.471   2.103   6.105 -0.1875  0.1352 -1.9078
 7273SOL     OW33454   3.959   4.392  14.933  0.0796  0.3178 -0.4988
 7273SOL    HW133455   3.972   4.475  14.888 -0.0416  0.3078 -0.5517
 7273SOL    HW233456   3.999   4.407  15.018 -2.6069 -3.3650  1.4461
 7274SOL     OW33457   1.901   2.906   3.255  0.4355  0.2694 -0.2127
 7274SOL    HW133458   1.862   2.827   3.291  3.5043 -0.2123  2.0548
 7274SOL    HW233459   1.866   2.958   3.328  0.5252  1.0014 -0.6944
 7275SOL     OW33460   1.575   3.706  15.331  0.3928  0.4427 -0.1082
 7275SOL    HW133461   1.605   3.664  15.250 -2.3509 -0.0048 -0.8934
 7275SOL    HW233462   1.647   3.697  15.394 -1.0380 -1.9229  1.1908
 7276SOL     OW33463   3.998   1.616   2.266  0.0573  0.0712  0.1464
 7276SOL    HW133464   3.987   1.553   2.194  0.6159  1.9331 -1.5588
 7276SOL    HW233465   4.089   1.640   2.252 -0.3821  0.1762 -2.7138
 7277SOL     OW33466   2.323   3.617  14.646 -0.2528  0.4772  0.3940
 7277SOL    HW133467   2.334   3.644  14.737 -0.0525 -1.0883  0.8170
 7277SOL    HW233468   2.257   3.676  14.608 -1.9558 -0.4158  1.9901
 7278SOL     OW33469   0.038   3.937   6.647  0.0062  0.0636  0.0135
 7278SOL    HW133470   0.086   3.901   6.721 -0.8052  0.9416  0.9608
 7278SOL    HW233471   0.088   3.915   6.568 -0.2620 -1.2711  0.2136
 7279SOL     OW33472   3.069   2.502   7.250 -0.5610  0.2788 -0.3256
 7279SOL    HW133473   3.090   2.428   7.306  0.1375 -0.5847 -1.7124
 7279SOL    HW233474   3.103   2.573   7.303 -0.0279  0.3871 -0.8136
 7280SOL     OW33475   3.222   0.436   1.974 -0.2140  0.1241  0.3778
 7280SOL    HW133476   3.169   0.492   1.917 -0.2318 -1.5844 -1.2863
 7280SOL    HW233477   3.235   0.351   1.933 -1.1437  0.2096 -0.1008
 7281SOL     OW33478   3.688   0.088   7.662 -0.1255  0.1387  0.2424
 7281SOL    HW133479   3.629   0.025   7.622  0.9847 -1.0795  0.5298
 7281SOL    HW233480   3.714   0.133   7.581 -2.2277  1.7734  0.4701
 7282SOL     OW33481   4.141   1.479   6.172 -0.0338 -0.1395 -0.0450
 7282SOL    HW133482   4.205   1.497   6.103 -2.0756  1.4836 -1.4806
 7282SOL    HW233483   4.130   1.384   6.164  0.9064 -0.2660  0.0780
 7283SOL     OW33484   0.925   0.446  10.616  0.7145 -0.5246  0.3270
 7283SOL    HW133485   0.879   0.516  10.569 -1.3638 -1.8527  0.3467
 7283SOL    HW233486   0.996   0.497  10.654  0.2803 -1.2696  2.1679
 7284SOL     OW33487   3.349   3.706  12.976 -0.0479  0.0238  0.1172
 7284SOL    HW133488   3.428   3.711  13.030 -0.0665 -0.9066  0.2393
 7284SOL    HW233489   3.300   3.633  13.014  2.0804 -1.2861  0.3912
 7285SOL     OW33490   4.584   0.230   7.392  0.2713  0.3009  0.3137
 7285SOL    HW133491   4.601   0.150   7.442 -0.5749  0.1656  0.3768
 7285SOL    HW233492   4.606   0.294   7.460  0.4541  2.1491 -1.4842
 7286SOL     OW33493   4.039   2.795   2.645  0.3631 -0.6177 -0.2061
 7286SOL    HW133494   4.053   2.733   2.574  0.7970 -0.6117 -0.1243
 7286SOL    HW233495   4.034   2.877   2.595 -3.3502 -0.7888 -0.1333
 7287SOL     OW33496   2.454   2.009  10.500 -0.0951 -0.8991 -0.2827
 7287SOL    HW133497   2.437   1.966  10.416  0.2893  1.3523 -1.5132
 7287SOL    HW233498   2.447   2.099  10.470  0.7349 -0.6468  0.2913
 7288SOL     OW33499   2.927   1.219   4.559  0.0518  0.1522 -0.8106
 7288SOL    HW133500   2.832   1.227   4.564  0.1148 -0.3949  1.0062
 7288SOL    HW233501   2.943   1.303   4.515 -0.1675  0.6321  0.0213
 7289SOL     OW33502   2.786   4.208   1.798 -0.1945 -0.4012 -0.1710
 7289SOL    HW133503   2.863   4.264   1.792 -0.1197 -0.6152 -1.2742
 7289SOL    HW233504   2.718   4.275   1.797  2.1883  2.0177 -1.9285
 7290SOL     OW33505   3.425   4.054   1.246  0.3322 -0.3862  0.5638
 7290SOL    HW133506   3.452   3.963   1.233 -0.1835 -0.3651 -0.6483
 7290SOL    HW233507   3.357   4.033   1.310  2.7053 -2.5582  2.4031
 7291SOL     OW33508   1.256   1.027  14.048 -0.3549  0.2092 -0.3715
 7291SOL    HW133509   1.201   0.959  14.086  0.7519 -0.7623 -0.5242
 7291SOL    HW233510   1.187   1.058  13.989 -2.5777 -2.0067  1.0808
 7292SOL     OW33511   1.290   2.646   8.603  0.5647  0.1430  0.4048
 7292SOL    HW133512   1.260   2.606   8.521  1.0302 -2.0521  1.3028
 7292SOL    HW233513   1.210   2.683   8.641 -0.7588 -0.6342 -1.5964
 7293SOL     OW33514   2.554   3.869   2.617  0.1050  0.1952 -0.0307
 7293SOL    HW133515   2.571   3.814   2.540  0.4025 -1.2293  1.0565
 7293SOL    HW233516   2.459   3.863   2.633  0.3141 -0.8977  0.7774
 7294SOL     OW33517   4.423   0.900   9.799  0.9374  0.5486  0.0965
 7294SOL    HW133518   4.457   0.922   9.886 -0.9957 -1.0559  1.2809
 7294SOL    HW233519   4.487   0.845   9.754  0.1701  1.2764 -1.8526
 7295SOL     OW33520   2.518   3.053   5.386  0.2048 -0.6735 -0.1353
 7295SOL    HW133521   2.574   3.095   5.321 -1.0503  0.9985 -0.1234
 7295SOL    HW233522   2.437   3.043   5.335  0.2597  1.1503 -0.5552
 7296SOL     OW33523   1.795   0.626  16.593  0.3087  0.0335 -0.3619
 7296SOL    HW133524   1.810   0.703  16.538 -0.5490  0.5000  0.0723
 7296SOL    HW233525   1.877   0.626  16.643 -0.4685 -0.2942  0.9097
 7297SOL     OW33526   0.378   1.048   2.196  0.2677  0.5211  0.3694
 7297SOL    HW133527   0.412   1.132   2.228  2.6085  0.6830 -2.5455
 7297SOL    HW233528   0.382   0.999   2.278  1.2685 -1.9825 -1.1940
 7298SOL     OW33529   3.453   3.874  16.134  0.4504 -0.5305 -0.2761
 7298SOL    HW133530   3.482   3.909  16.218 -0.4687 -1.3988  0.4062
 7298SOL    HW233531   3.474   3.943  16.071 -2.6954  0.7297  0.0526
 7299SOL     OW33532   0.804   4.003  12.429 -0.0809 -0.1977 -0.3817
 7299SOL    HW133533   0.746   3.938  12.390 -1.1706  0.9961 -0.7525
 7299SOL    HW233534   0.745   4.057  12.482 -0.1272 -0.7419  0.1334
 7300SOL     OW33535   2.138   2.875   2.113  0.3610  0.6237  0.0877
 7300SOL    HW133536   2.143   2.836   2.200  0.3940  2.8284  1.0672
 7300SOL    HW233537   2.161   2.804   2.052  0.2613  0.5241  0.1653
 7301SOL     OW33538   0.699   3.170   7.678  0.4220  0.1885 -0.4953
 7301SOL    HW133539   0.624   3.112   7.696  0.8256 -1.0086 -2.7608
 7301SOL    HW233540   0.768   3.109   7.654  0.1288 -1.6916  3.3912
 7302SOL     OW33541   0.513   3.308  16.657 -0.0963  0.2142 -0.6793
 7302SOL    HW133542   0.588   3.343  16.704 -0.5009 -0.2678  0.3228
 7302SOL    HW233543   0.565   3.292  16.578  1.6283 -0.7164  0.6553
 7303SOL     OW33544   0.697   3.368   5.428  0.0680  0.7382 -0.0860
 7303SOL    HW133545   0.661   3.423   5.359 -0.2687 -0.3006 -0.7435
 7303SOL    HW233546   0.641   3.290   5.423  0.7723  0.1759  0.6662
 7304SOL     OW33547   3.518   4.442   3.753  0.7610 -0.2694 -0.5120
 7304SOL    HW133548   3.542   4.459   3.844  2.0490 -1.4673 -0.6152
 7304SOL    HW233549   3.602   4.404   3.725  1.4608  0.3628  0.7244
 7305SOL     OW33550   1.103   0.612   9.499  0.3575 -0.0211  0.3198
 7305SOL    HW133551   1.073   0.669   9.570  1.5286 -1.1942  1.7663
 7305SOL    HW233552   1.040   0.635   9.431  2.5578 -0.3694 -1.8327
 7306SOL     OW33553   0.874   4.630   1.221 -0.2661  0.4490  0.2807
 7306SOL    HW133554   0.789   4.594   1.195  0.1169 -1.3626  1.5773
 7306SOL    HW233555   0.924   4.626   1.140  0.5644  1.0738  0.7635
 7307SOL     OW33556   3.124   2.185   1.906  0.3379  0.2639 -0.2393
 7307SOL    HW133557   3.164   2.099   1.892 -0.1082  0.1394 -0.7525
 7307SOL    HW233558   3.202   2.240   1.909 -0.2424  0.8934  3.1912
 7308SOL     OW33559   3.813   2.313   1.750  0.4558  0.7418 -0.1157
 7308SOL    HW133560   3.733   2.284   1.707  0.5619  0.3421 -0.0458
 7308SOL    HW233561   3.794   2.406   1.736  0.8529  0.8949  0.3526
 7309SOL     OW33562   1.889   0.102   3.311 -0.1786  1.2883  0.0890
 7309SOL    HW133563   1.898   0.057   3.228  0.0723 -2.0158  1.9216
 7309SOL    HW233564   1.969   0.155   3.301 -0.3816  1.4689 -0.5818
 7310SOL     OW33565   2.445   1.970   6.068  0.5816 -0.1640  0.0615
 7310SOL    HW133566   2.393   1.895   6.037 -0.3902  0.8289 -0.7337
 7310SOL    HW233567   2.535   1.947   6.046  0.2051 -1.3452 -0.2329
 7311SOL     OW33568   0.653   1.986  10.343  0.2345 -0.1563  0.2571
 7311SOL    HW133569   0.735   2.033  10.327 -0.5636  0.9948 -0.4212
 7311SOL    HW233570   0.688   1.897  10.338 -0.0041 -0.1598 -1.4689
 7312SOL     OW33571   2.200   0.019   9.006 -0.5077  0.1007 -0.1071
 7312SOL    HW133572   2.152   4.722   8.932  0.2885 -3.4324  1.1267
 7312SOL    HW233573   2.260   0.080   8.963  1.7072 -0.4353  2.2520
 7313SOL     OW33574   4.652   4.042   5.715 -0.0497 -0.4448  0.1785
 7313SOL    HW133575   4.646   4.048   5.620  1.7741  1.0482  0.1590
 7313SOL    HW233576   0.002   4.077   5.721  0.1749 -0.9820 -0.0619
 7314SOL     OW33577   3.946   2.505   0.038  0.3089 -0.1551  0.4915
 7314SOL    HW133578   3.959   2.432   0.099 -1.6930  0.0517  1.1814
 7314SOL    HW233579   3.990   2.470  17.715 -0.7312  0.6885 -0.4740
 7315SOL     OW33580   4.048   2.000   9.755 -0.1394 -0.3177 -0.6035
 7315SOL    HW133581   4.049   2.073   9.816  1.0299  0.5249 -1.6225
 7315SOL    HW233582   3.967   1.955   9.779  2.1419 -2.3928  3.1110
 7316SOL     OW33583   4.567   4.089   6.594 -0.0672  0.0746  0.2542
 7316SOL    HW133584   4.653   4.047   6.600 -0.1600  0.0564  1.3604
 7316SOL    HW233585   4.515   4.012   6.613  2.6091 -2.4536 -2.6223
 7317SOL     OW33586   2.262   4.670   1.650 -0.0332  0.2554  0.0735
 7317SOL    HW133587   2.236   0.001   1.590 -1.6039 -1.6009 -1.4273
 7317SOL    HW233588   2.234   4.599   1.593  1.4766  1.7791 -2.5683
 7318SOL     OW33589   1.684   3.177   8.121 -0.7269  0.0272 -0.6032
 7318SOL    HW133590   1.710   3.165   8.030 -1.0379  0.2572 -0.7212
 7318SOL    HW233591   1.767   3.190   8.167 -0.6249  0.7451 -0.9939
 7319SOL     OW33592   2.479   3.086   2.278 -0.2238 -0.1817 -0.2668
 7319SOL    HW133593   2.425   3.148   2.228  0.6623  1.0102  0.2520
 7319SOL    HW233594   2.412   3.061   2.342  0.1963 -0.9373 -0.1246
 7320SOL     OW33595   0.827   4.034   1.577 -0.3186  0.3030  0.5183
 7320SOL    HW133596   0.896   4.025   1.642 -1.6524  1.3613  2.0780
 7320SOL    HW233597   0.797   4.125   1.584 -1.3155 -0.0233  0.4763
 7321SOL     OW33598   4.739   3.337   6.821 -0.2386  0.0804 -0.2290
 7321SOL    HW133599   4.735   3.360   6.914 -1.5825  1.3155 -0.5855
 7321SOL    HW233600   4.654   3.358   6.781 -0.1098 -0.8943 -1.0089
 7322SOL     OW33601   4.523   3.362  11.200  1.0756  0.0812  0.1909
 7322SOL    HW133602   4.497   3.293  11.260 -2.2578  1.5767  0.4595
 7322SOL    HW233603   4.580   3.409  11.260 -1.0198 -0.0738  2.2875
 7323SOL     OW33604   2.008   0.763   0.744  0.1766  0.2574 -0.2881
 7323SOL    HW133605   1.921   0.731   0.720  1.0303 -0.2942 -2.6234
 7323SOL    HW233606   1.986   0.854   0.723 -0.5528  0.2650  0.5103
 7324SOL     OW33607   3.376   2.948   2.709 -0.1779 -0.3812  0.1128
 7324SOL    HW133608   3.417   2.870   2.672  0.7647 -0.5541  1.5338
 7324SOL    HW233609   3.380   3.011   2.637 -0.6883 -0.2186  0.2268
 7325SOL     OW33610   4.517   1.298  14.338 -0.8274 -0.6280  0.2019
 7325SOL    HW133611   4.432   1.343  14.337 -1.5824 -2.0489 -0.2319
 7325SOL    HW233612   4.487   1.211  14.312  0.7065 -1.6579  1.9409
 7326SOL     OW33613   4.535   2.632   9.321 -0.3944 -0.3488 -0.0337
 7326SOL    HW133614   4.609   2.586   9.359  0.5961 -0.5762 -2.2492
 7326SOL    HW233615   4.580   2.711   9.292  0.9610  0.6666  4.8165
 7327SOL     OW33616   2.209   4.309   9.687  0.3136  0.1832  0.8930
 7327SOL    HW133617   2.162   4.392   9.692  0.2911  0.3625 -1.9912
 7327SOL    HW233618   2.241   4.305   9.777  0.8440  1.3688  0.7561
 7328SOL     OW33619   4.659   4.190   7.683 -0.3227 -0.6967 -0.8164
 7328SOL    HW133620   4.590   4.159   7.625 -0.9660 -1.4501  0.3462
 7328SOL    HW233621   4.701   4.109   7.712  0.8370 -0.1514 -0.9453
 7329SOL     OW33622   4.462   0.674   3.412 -0.0030  0.2295  0.0500
 7329SOL    HW133623   4.452   0.590   3.367  0.8760 -0.6424  1.4811
 7329SOL    HW233624   4.541   0.652   3.461  0.2578 -0.2707 -0.6022
 7330SOL     OW33625   4.362   0.169   5.237 -0.1917  0.0117  0.1752
 7330SOL    HW133626   4.324   0.161   5.325 -0.5167  1.5515  0.1638
 7330SOL    HW233627   4.353   0.256   5.199 -1.9218  0.1479  0.8814
 7331SOL     OW33628   4.607   0.575   6.955 -0.6722 -0.0150 -0.2665
 7331SOL    HW133629   4.607   0.503   7.018  1.1825  0.9298  0.8119
 7331SOL    HW233630   4.679   0.559   6.894 -2.2560 -3.5904 -1.2183
 7332SOL     OW33631   3.858   3.027   2.842 -0.5210  0.3180  0.4941
 7332SOL    HW133632   3.907   3.018   2.760 -1.3559  1.2416 -0.1159
 7332SOL    HW233633   3.768   3.007   2.814  0.3301 -1.6619 -0.8983
 7333SOL     OW33634   1.377   2.383   3.679  0.2768 -0.3619  0.3297
 7333SOL    HW133635   1.306   2.375   3.615  0.7542 -1.0087 -0.1262
 7333SOL    HW233636   1.431   2.307   3.657  1.0383  0.1351  0.4953
 7334SOL     OW33637   2.685   0.432   9.499 -0.0836 -0.2063 -0.4911
 7334SOL    HW133638   2.618   0.474   9.553 -0.1452 -1.4495  0.3823
 7334SOL    HW233639   2.717   0.373   9.567 -0.9084  0.5637  0.5688
 7335SOL     OW33640   1.600   0.829   0.503  0.1630 -0.1457 -0.6815
 7335SOL    HW133641   1.557   0.915   0.498 -1.1196 -0.8398 -1.4979
 7335SOL    HW233642   1.542   0.766   0.461 -1.5504 -1.0824  3.0976
 7336SOL     OW33643   3.467   2.109   1.330  0.5255 -0.0194  0.4176
 7336SOL    HW133644   3.516   2.028   1.318 -0.5941 -0.7604  0.8579
 7336SOL    HW233645   3.459   2.131   1.238  1.6140 -3.4790 -0.4902
 7337SOL     OW33646   1.299   4.345   5.155  0.2102 -0.3722  0.3117
 7337SOL    HW133647   1.306   4.433   5.119 -0.0708 -1.0188 -1.3083
 7337SOL    HW233648   1.345   4.364   5.237  1.9565 -0.0456 -0.7355
 7338SOL     OW33649   4.676   1.457  13.077  0.1952  0.0621 -0.0543
 7338SOL    HW133650   4.620   1.454  13.155 -0.1578 -0.1762 -0.3176
 7338SOL    HW233651   0.008   1.396  13.096  0.2799 -0.5315 -2.3191
 7339SOL     OW33652   3.795   4.149   6.030 -0.1044 -0.2189  0.4194
 7339SOL    HW133653   3.743   4.094   5.971  1.5392 -2.0006  0.6461
 7339SOL    HW233654   3.887   4.138   6.009  0.1421  0.6416  1.0490
 7340SOL     OW33655   0.159   0.564   5.398  0.4696 -0.4659  0.3040
 7340SOL    HW133656   0.101   0.489   5.394  2.4239 -1.9047 -0.9019
 7340SOL    HW233657   0.227   0.535   5.459 -0.3279 -0.0803  1.3732
 7341SOL     OW33658   2.710   3.261   5.567 -0.1654  0.5533 -0.5838
 7341SOL    HW133659   2.618   3.275   5.547 -0.7026 -1.0824  0.8015
 7341SOL    HW233660   2.700   3.218   5.651  2.7635 -1.1147 -1.0638
 7342SOL     OW33661   0.228   0.498  16.904 -0.3282  0.1935  0.3228
 7342SOL    HW133662   0.236   0.570  16.967 -0.9526 -1.8234  2.7400
 7342SOL    HW233663   0.144   0.514  16.861  0.0904  0.8719 -0.2346
 7343SOL     OW33664   4.424   0.615   4.865 -0.3656 -0.1378  0.4494
 7343SOL    HW133665   4.452   0.526   4.845  2.9656  1.0144  0.0550
 7343SOL    HW233666   4.503   0.668   4.872 -0.6336  0.3895 -0.4954
 7344SOL     OW33667   3.064   0.452   4.770  0.2812 -0.1216  0.0783
 7344SOL    HW133668   3.042   0.476   4.860 -0.6841  0.8450 -0.4060
 7344SOL    HW233669   3.153   0.488   4.761 -0.2439  1.5975  1.6528
 7345SOL     OW33670   0.261   1.031   7.590  0.1863  0.3269 -0.3339
 7345SOL    HW133671   0.311   1.108   7.564  2.3403 -1.0599 -0.3134
 7345SOL    HW233672   0.259   1.059   7.682 -0.6483  1.1646 -0.6127
 7346SOL     OW33673   4.385   0.168   4.347 -0.4881 -0.1487  0.1290
 7346SOL    HW133674   4.429   0.113   4.411 -1.0771  0.1877  0.8190
 7346SOL    HW233675   4.311   0.199   4.399  0.4087 -1.0358  1.9131
 7347SOL     OW33676   0.930   4.016   6.807 -0.1887  0.9832 -0.7636
 7347SOL    HW133677   0.881   4.012   6.889 -0.6988  0.3095 -1.1024
 7347SOL    HW233678   0.908   3.933   6.766  1.0839  0.8107 -1.0986
 7348SOL     OW33679   3.378   0.529  13.251 -0.2788 -0.9875 -0.3291
 7348SOL    HW133680   3.395   0.611  13.297  0.5243 -2.0777  1.2825
 7348SOL    HW233681   3.287   0.547  13.227  0.3443  2.0053 -0.4260
 7349SOL     OW33682   0.247   0.723   8.390 -0.1451 -0.2039  0.6087
 7349SOL    HW133683   0.185   0.775   8.440  1.5504  0.1708  2.3231
 7349SOL    HW233684   0.253   0.647   8.448  2.4729 -1.3341 -1.1063
 7350SOL     OW33685   2.110   4.245   6.985 -0.0630  0.1553 -0.3380
 7350SOL    HW133686   2.069   4.175   6.934  0.5759 -0.3728 -0.1383
 7350SOL    HW233687   2.202   4.254   6.961 -0.7271  1.2174 -2.4156
 7351SOL     OW33688   0.927   2.089  10.194 -0.1626  0.2497  0.3551
 7351SOL    HW133689   0.958   2.079  10.284  0.9668 -3.7279 -0.4878
 7351SOL    HW233690   0.965   2.011  10.153 -2.2441 -0.8943  0.5786
 7352SOL     OW33691   4.452   3.725   4.625  0.7537  0.4851 -0.3424
 7352SOL    HW133692   4.489   3.660   4.685 -0.8523 -0.5671 -0.4761
 7352SOL    HW233693   4.443   3.804   4.679  0.5038 -0.2223  0.6409
 7353SOL     OW33694   3.425   0.993   7.968  0.6308  0.2128  0.0811
 7353SOL    HW133695   3.338   1.007   7.930 -0.1385 -0.8360  1.4722
 7353SOL    HW233696   3.458   1.082   7.972  0.3389  0.2003  2.8329
 7354SOL     OW33697   3.482   2.625   4.301  0.0222  0.0120 -0.5125
 7354SOL    HW133698   3.564   2.649   4.257 -0.1959 -2.8242 -2.5367
 7354SOL    HW233699   3.432   2.589   4.227 -1.4610  0.9548  0.0643
 7355SOL     OW33700   2.291   3.500   9.597 -0.4711  0.0521 -0.6593
 7355SOL    HW133701   2.280   3.405   9.596  1.2194 -0.1438 -0.2479
 7355SOL    HW233702   2.357   3.505   9.666 -1.5507 -0.6382  0.4291
 7356SOL     OW33703   1.000   0.987   1.760  0.1914  0.5481  0.6618
 7356SOL    HW133704   1.083   1.032   1.745  0.1800  1.1229  2.2812
 7356SOL    HW233705   1.000   0.912   1.700 -2.4394  0.4709  0.7732
 7357SOL     OW33706   4.719   0.391  13.531  0.2632  0.0639  0.2049
 7357SOL    HW133707   0.033   0.333  13.476  1.0570  0.4226  0.5976
 7357SOL    HW233708   4.654   0.326  13.560  0.7760 -0.3914  0.3262
 7358SOL     OW33709   0.764   1.586  14.211  0.2350  0.5885  0.1672
 7358SOL    HW133710   0.854   1.562  14.188  0.6111  1.4093  0.8085
 7358SOL    HW233711   0.738   1.626  14.128  1.5476 -0.1903 -0.6238
 7359SOL     OW33712   4.214   2.063   2.882  0.1433  0.2170 -0.4098
 7359SOL    HW133713   4.176   2.139   2.837 -0.6652  0.7752  1.2113
 7359SOL    HW233714   4.231   2.010   2.804  0.8502 -0.1423 -0.0082
 7360SOL     OW33715   2.996   2.798  14.039  0.1459 -0.1277 -0.7639
 7360SOL    HW133716   3.084   2.784  14.004  0.6379 -0.3288  0.5363
 7360SOL    HW233717   2.966   2.707  14.045 -2.9676  0.9574  0.3647
 7361SOL     OW33718   2.210   0.925   8.475 -0.0569  0.1071 -0.5703
 7361SOL    HW133719   2.120   0.906   8.448  0.3540  0.1292 -1.9557
 7361SOL    HW233720   2.239   0.836   8.496  3.2119  1.5104  0.7176
 7362SOL     OW33721   0.279   3.317   5.590  0.1517  0.4468 -0.2999
 7362SOL    HW133722   0.303   3.409   5.601  2.5356 -0.1992 -0.0541
 7362SOL    HW233723   0.281   3.310   5.495 -1.2513  3.1320 -0.5429
 7363SOL     OW33724   0.295   3.945   7.991  0.3072 -0.2330 -0.1264
 7363SOL    HW133725   0.355   3.966   8.062 -0.6669 -1.1641  0.9926
 7363SOL    HW233726   0.263   3.858   8.017 -1.3386  0.3822 -0.0650
 7364SOL     OW33727   1.562   1.712  15.469 -0.0591  0.8547 -0.0268
 7364SOL    HW133728   1.481   1.662  15.460  0.0936  0.6892 -0.4756
 7364SOL    HW233729   1.527   1.801  15.459  0.6825  1.1381 -0.0389
 7365SOL     OW33730   2.312   1.242   4.662  0.0995  0.4678  0.2263
 7365SOL    HW133731   2.295   1.248   4.756 -0.0664  3.2511  0.0007
 7365SOL    HW233732   2.340   1.328   4.632  0.5698 -0.2420 -1.3845
 7366SOL     OW33733   4.169   2.227   0.644  0.0245 -0.2906 -0.0428
 7366SOL    HW133734   4.084   2.215   0.603  0.6475 -0.9628 -1.1467
 7366SOL    HW233735   4.173   2.321   0.662 -0.7530 -0.5945  1.6616
 7367SOL     OW33736   2.737   4.105   1.060 -0.4064 -0.3485  0.0053
 7367SOL    HW133737   2.737   4.010   1.072 -0.4202 -0.4310 -0.6678
 7367SOL    HW233738   2.704   4.136   1.145  2.3147  1.6705  0.3099
 7368SOL     OW33739   4.728   2.347   6.366  0.1215 -0.1304  0.2442
 7368SOL    HW133740   4.700   2.432   6.398  0.5817 -0.0207  0.3557
 7368SOL    HW233741   4.718   2.294   6.445 -0.7407 -0.0038  0.2263
 7369SOL     OW33742   2.505   3.122   3.359  0.2337 -0.5327  0.3584
 7369SOL    HW133743   2.596   3.112   3.387  1.1154  1.1712 -1.8835
 7369SOL    HW233744   2.506   3.189   3.291 -0.8737 -1.2295 -0.3479
 7370SOL     OW33745   1.108   2.837  13.274  0.2218 -0.2544  0.2273
 7370SOL    HW133746   1.040   2.815  13.338 -1.3949  3.4616 -0.2629
 7370SOL    HW233747   1.066   2.896  13.212  1.8339  0.4268 -0.1958
 7371SOL     OW33748   0.217   3.477   7.647 -0.0765  0.0259  0.3429
 7371SOL    HW133749   0.145   3.536   7.668 -1.0601 -2.1821  3.1949
 7371SOL    HW233750   0.296   3.531   7.646  0.7123 -1.1670 -1.6080
 7372SOL     OW33751   2.328   0.530   6.159 -0.4864  0.1987 -0.8594
 7372SOL    HW133752   2.347   0.621   6.137  2.3073  0.2582  1.7197
 7372SOL    HW233753   2.255   0.536   6.221  1.7383  1.5890  1.6332
 7373SOL     OW33754   2.524   2.137   2.023 -0.5252 -0.8013  0.4108
 7373SOL    HW133755   2.588   2.204   2.001  0.3902 -2.0720 -0.7935
 7373SOL    HW233756   2.586   2.068   2.044  1.6692  1.0597  0.0345
 7374SOL     OW33757   4.105   3.919  12.875  0.4410 -0.4559  0.0449
 7374SOL    HW133758   4.139   3.965  12.798 -2.0490  1.5997  0.1676
 7374SOL    HW233759   4.017   3.949  12.855  0.1092 -0.6625  1.2025
 7375SOL     OW33760   1.015   4.183   0.227  0.1232  0.3837  0.0772
 7375SOL    HW133761   1.064   4.165   0.147  0.2661 -1.1081  0.5077
 7375SOL    HW233762   1.039   4.275   0.242  1.6221 -0.1247  0.7741
 7376SOL     OW33763   1.420   0.550   4.876 -0.0608  0.1530 -0.4000
 7376SOL    HW133764   1.330   0.582   4.880 -0.3892 -0.6691 -1.1208
 7376SOL    HW233765   1.473   0.613   4.924 -2.5572  2.1760 -0.2933
 7377SOL     OW33766   0.180   1.132   5.961 -0.5987 -0.1338  0.1271
 7377SOL    HW133767   0.213   1.075   5.891 -1.2166  0.4482 -0.6376
 7377SOL    HW233768   0.086   1.144   5.945 -0.8042 -0.1197  1.3668
 7378SOL     OW33769   3.538   2.869   8.183  0.1741 -0.3766 -0.0634
 7378SOL    HW133770   3.604   2.836   8.244 -0.1517 -0.3869  0.2843
 7378SOL    HW233771   3.467   2.883   8.245  0.0403  3.3555 -1.0620
 7379SOL     OW33772   4.123   3.646  10.916 -0.3910 -0.0953 -0.1076
 7379SOL    HW133773   4.170   3.691  10.846  0.5184 -0.1664  0.4473
 7379SOL    HW233774   4.174   3.568  10.936 -0.5347  0.7091  3.3970
 7380SOL     OW33775   4.387   4.287   1.393 -0.0799 -0.0255  0.2905
 7380SOL    HW133776   4.466   4.339   1.375  0.2656 -0.9373 -0.8946
 7380SOL    HW233777   4.317   4.348   1.371  2.2218  1.7743 -2.1539
 7381SOL     OW33778   3.568   0.127  16.292 -0.2823 -0.7427 -0.1700
 7381SOL    HW133779   3.583   0.046  16.342 -1.0030  0.9736  2.8744
 7381SOL    HW233780   3.487   0.099  16.248  0.4024  1.6772 -2.9423
 7382SOL     OW33781   0.689   0.235   7.861  0.5540 -0.4340 -0.1105
 7382SOL    HW133782   0.631   0.266   7.930  1.2023  0.6920 -0.0858
 7382SOL    HW233783   0.635   0.164   7.826  0.7664  0.5569 -2.4348
 7383SOL     OW33784   3.953   4.631   4.871  0.3185 -0.4048 -0.5557
 7383SOL    HW133785   3.951   4.544   4.911 -0.4562 -0.5998 -1.0259
 7383SOL    HW233786   4.007   4.678   4.934  1.4507  1.5180 -2.9617
 7384SOL     OW33787   3.932   2.328   8.935  0.1093 -0.2411 -0.5316
 7384SOL    HW133788   3.883   2.254   8.900 -2.2663 -0.0393  2.4242
 7384SOL    HW233789   3.887   2.405   8.899  0.0247  0.4880  1.1312
 7385SOL     OW33790   3.220   4.172   0.936 -0.4474  0.1227 -0.4029
 7385SOL    HW133791   3.314   4.179   0.917 -0.8237  2.8744 -1.2544
 7385SOL    HW233792   3.200   4.085   0.901  1.8279 -0.1427 -1.0381
 7386SOL     OW33793   1.628   0.538   3.558  0.8861 -0.6309  0.1378
 7386SOL    HW133794   1.638   0.633   3.562  0.8324 -0.4716 -3.2589
 7386SOL    HW233795   1.716   0.519   3.527 -0.2757 -3.3569 -1.4489
 7387SOL     OW33796   4.298   2.120   5.214  0.0686 -0.2190  0.2141
 7387SOL    HW133797   4.379   2.144   5.168  0.2157  0.4731  0.8412
 7387SOL    HW233798   4.278   2.030   5.188 -1.2915  0.4894 -1.1681
 7388SOL     OW33799   3.114   2.701   6.819 -0.3062  0.4017 -0.4216
 7388SOL    HW133800   3.133   2.614   6.784  1.6391  0.5539  0.2620
 7388SOL    HW233801   3.056   2.684   6.893 -0.9547  0.7775 -0.8481
 7389SOL     OW33802   2.711   3.938   5.832 -0.2012  0.1721 -0.1874
 7389SOL    HW133803   2.755   3.964   5.912 -0.9512  1.9829 -0.3512
 7389SOL    HW233804   2.653   3.868   5.863 -0.2286  0.1121 -0.3735
 7390SOL     OW33805   0.852   1.190   5.668 -0.0277  0.0414  0.1683
 7390SOL    HW133806   0.808   1.147   5.742  0.6266  2.6138  2.0621
 7390SOL    HW233807   0.831   1.283   5.676 -0.7379 -0.1308  0.3044
 7391SOL     OW33808   2.729   0.078   1.173  0.3111  0.6594  0.6010
 7391SOL    HW133809   2.685   0.097   1.090  1.9440  1.1444 -0.1537
 7391SOL    HW233810   2.804   0.027   1.143  0.7425  0.4119  2.1104
 7392SOL     OW33811   0.759   0.450   1.595  0.2824  0.1863 -0.3110
 7392SOL    HW133812   0.674   0.463   1.552  0.1282  0.0916 -0.0339
 7392SOL    HW233813   0.766   0.525   1.654 -0.3643  1.0007 -1.2574
 7393SOL     OW33814   3.404   2.938  17.753  0.9235 -0.0559  0.3100
 7393SOL    HW133815   3.420   2.852  17.715  0.0622  0.8717 -2.1252
 7393SOL    HW233816   3.481   2.952   0.055  1.1683  2.8503 -0.7527
 7394SOL     OW33817   3.224   1.935   2.843  0.0303  0.5707 -0.0505
 7394SOL    HW133818   3.319   1.946   2.835 -0.4820  2.8575 -2.8025
 7394SOL    HW233819   3.200   1.898   2.758  1.0491  3.5343 -1.6219
 7395SOL     OW33820   3.514   4.572   5.567 -0.0433  0.1562 -0.1296
 7395SOL    HW133821   3.514   4.482   5.598  0.4314  0.3334  0.3856
 7395SOL    HW233822   3.590   4.606   5.614  1.8027 -1.7408 -1.7420
 7396SOL     OW33823   2.784   1.602   8.175 -0.0319  0.2794  0.5659
 7396SOL    HW133824   2.705   1.616   8.227 -0.9319 -0.4589 -0.6238
 7396SOL    HW233825   2.762   1.545   8.102 -0.7516  1.0472  0.1904
 7397SOL     OW33826   4.359   2.454   3.409 -0.1697 -0.0634  0.0719
 7397SOL    HW133827   4.415   2.475   3.483  0.0214 -2.0048  0.4819
 7397SOL    HW233828   4.370   2.535   3.359  3.4588 -1.3205 -1.2019
 7398SOL     OW33829   3.881   3.232  10.238  0.4304  0.0756  0.1433
 7398SOL    HW133830   3.944   3.190  10.179  0.1331  1.3000 -1.0622
 7398SOL    HW233831   3.806   3.196  10.190  0.8656  0.7591 -1.0534
 7399SOL     OW33832   4.480   0.663   2.333 -0.1233 -0.0815  0.0406
 7399SOL    HW133833   4.533   0.730   2.377 -0.0203  0.2580 -0.6119
 7399SOL    HW233834   4.513   0.587   2.380 -2.8932 -1.9176 -0.9960
 7400SOL     OW33835   2.947   3.231   8.525  0.2327 -0.1553 -0.5413
 7400SOL    HW133836   2.958   3.137   8.514 -2.4537 -0.2525 -2.3276
 7400SOL    HW233837   2.915   3.240   8.436  4.0715  1.3562 -1.8052
 7401SOL     OW33838   1.902   0.931   9.653 -0.7725  0.2440  0.3133
 7401SOL    HW133839   1.975   0.962   9.707 -1.4428  2.5354 -0.0936
 7401SOL    HW233840   1.927   0.841   9.634 -0.7063  0.4261 -0.4773
 7402SOL     OW33841   1.028   4.078   1.772  0.0481  0.0880  0.0665
 7402SOL    HW133842   1.096   4.023   1.810 -0.8545 -1.7815 -1.0435
 7402SOL    HW233843   1.066   4.165   1.789  1.0316  0.3932 -3.6172
 7403SOL     OW33844   3.340   2.398  16.912  0.6181 -0.3391 -0.4075
 7403SOL    HW133845   3.313   2.489  16.900 -1.5028 -0.6342  2.2717
 7403SOL    HW233846   3.318   2.377  17.002  2.2528 -1.1497 -0.1983
 7404SOL     OW33847   2.240   0.055   6.436  0.0378  0.8077 -0.4493
 7404SOL    HW133848   2.296   0.120   6.393 -0.4147  1.2445 -0.3800
 7404SOL    HW233849   2.300   4.728   6.472 -1.4164  0.1838  0.8231
 7405SOL     OW33850   1.734   3.023   4.091 -0.4915  0.7025 -0.5471
 7405SOL    HW133851   1.732   3.005   4.185 -2.6297 -0.3682 -0.7979
 7405SOL    HW233852   1.811   3.079   4.077  0.3849 -0.0743  1.1787
 7406SOL     OW33853   1.793   1.617   7.079 -0.5819 -0.4208  0.0060
 7406SOL    HW133854   1.885   1.591   7.089 -0.6837 -0.0798  1.8473
 7406SOL    HW233855   1.748   1.549   7.030 -0.0533  0.6365 -1.9286
 7407SOL     OW33856   4.399   1.065   2.800  0.0485  0.6465 -0.8267
 7407SOL    HW133857   4.376   1.100   2.715 -0.4657 -1.4758 -1.5652
 7407SOL    HW233858   4.453   0.990   2.777  0.6238  1.3327 -1.6674
 7408SOL     OW33859   2.963   0.164   0.527 -0.0576  0.2883  0.1478
 7408SOL    HW133860   2.962   0.200   0.616 -1.0276  1.4253 -0.3156
 7408SOL    HW233861   2.871   0.139   0.520  0.3134 -0.4648 -1.8600
 7409SOL     OW33862   1.089   0.579   6.299 -0.4067 -0.7053  0.1770
 7409SOL    HW133863   1.041   0.502   6.269 -0.0762 -1.4095  1.4357
 7409SOL    HW233864   1.039   0.649   6.257  1.1826 -0.0759 -0.6639
 7410SOL     OW33865   2.004   2.428  13.911  0.3136  0.1711 -0.6461
 7410SOL    HW133866   2.066   2.421  13.984  0.0913  2.4659 -0.2263
 7410SOL    HW233867   2.069   2.400  13.847  0.6123 -0.8053  0.0848
 7411SOL     OW33868   4.613   0.095   8.859  0.1737  0.2065 -0.1158
 7411SOL    HW133869   4.608   0.032   8.930  1.2186  0.2205 -0.0409
 7411SOL    HW233870   4.558   0.054   8.792 -0.0212 -0.1504  0.2612
 7412SOL     OW33871   0.661   3.991  17.680 -1.2827 -0.3286  0.6127
 7412SOL    HW133872   0.654   3.905  17.722 -0.2703 -0.8280 -0.2396
 7412SOL    HW233873   0.696   4.038   0.002 -0.1442 -0.6062  0.2491
 7413SOL     OW33874   3.350   4.260   8.811 -0.0057  0.5169 -0.8845
 7413SOL    HW133875   3.436   4.238   8.776  0.3719 -0.0860  0.3838
 7413SOL    HW233876   3.316   4.176   8.843  1.9999  0.5439  1.3512
 7414SOL     OW33877   3.050   3.751   2.931  0.0062 -0.2476 -0.0437
 7414SOL    HW133878   3.104   3.688   2.883 -0.8201  0.1691 -1.5503
 7414SOL    HW233879   3.083   3.737   3.019  0.5656  1.5466  0.0191
 7415SOL     OW33880   3.032   1.122  13.055 -0.4017 -0.3050  0.0652
 7415SOL    HW133881   3.073   1.095  13.137  1.7810 -0.6552 -1.1294
 7415SOL    HW233882   2.967   1.185  13.085  0.2179 -0.2272  1.2599
 7416SOL     OW33883   4.183   0.988   2.520  0.0360  0.7759 -0.2366
 7416SOL    HW133884   4.114   0.992   2.453  0.7863  1.6907 -0.9627
 7416SOL    HW233885   4.131   1.004   2.598 -0.2585  0.0063 -0.2764
 7417SOL     OW33886   1.463   3.355   4.096  0.6309  0.0909 -0.1653
 7417SOL    HW133887   1.543   3.406   4.106  1.3171 -0.5126 -2.4035
 7417SOL    HW233888   1.421   3.349   4.181  1.3160 -1.6249  0.0526
 7418SOL     OW33889   1.850   2.569   9.693 -0.9425 -0.2346  0.2425
 7418SOL    HW133890   1.924   2.558   9.633 -1.4022 -1.0006 -0.2010
 7418SOL    HW233891   1.881   2.639   9.750 -0.0103 -0.8417  0.4893
 7419SOL     OW33892   2.438   1.564   5.294 -0.1448  0.0119 -0.0230
 7419SOL    HW133893   2.434   1.563   5.198 -0.9158  1.6572  0.0051
 7419SOL    HW233894   2.453   1.657   5.309  0.2340  0.0528 -0.6224
 7420SOL     OW33895   0.875   1.537   2.712 -0.1860  0.5000 -0.3894
 7420SOL    HW133896   0.890   1.465   2.774 -3.2254 -0.8867 -1.2407
 7420SOL    HW233897   0.789   1.560   2.749 -0.2949  1.0805 -1.0056
 7421SOL     OW33898   3.920   4.355   4.962  0.2801  0.3060 -0.2865
 7421SOL    HW133899   3.917   4.261   4.979 -2.8409  0.4433 -0.1242
 7421SOL    HW233900   3.855   4.397   5.019  1.0897  0.4676  0.5266
 7422SOL     OW33901   3.674   2.798  14.659 -0.3201  0.0551 -0.3016
 7422SOL    HW133902   3.713   2.712  14.641 -2.6755 -1.3396  1.2829
 7422SOL    HW233903   3.583   2.784  14.636 -0.2954 -0.0601 -0.3312
 7423SOL     OW33904   0.614   3.481   9.831 -0.0421 -0.2340 -0.1859
 7423SOL    HW133905   0.530   3.527   9.840  1.0212  1.8090 -0.7983
 7423SOL    HW233906   0.650   3.495   9.919  1.6282 -0.2148 -0.8845
 7424SOL     OW33907   3.291   4.713   6.481 -0.5022 -0.4119 -0.1390
 7424SOL    HW133908   3.289   0.057   6.528  0.2125 -0.2446 -0.4047
 7424SOL    HW233909   3.387   4.703   6.478 -0.3046  1.6380 -0.2938
 7425SOL     OW33910   3.611   4.483   8.710  0.0395  0.0058 -0.3310
 7425SOL    HW133911   3.516   4.497   8.714 -0.1294 -1.7964  1.9348
 7425SOL    HW233912   3.622   4.434   8.628  1.1818 -0.0827 -0.1218
 7426SOL     OW33913   0.973   0.452   1.409  0.5490 -0.4143  0.5424
 7426SOL    HW133914   0.961   0.358   1.418 -0.3512 -0.2392  1.1410
 7426SOL    HW233915   0.915   0.481   1.480 -1.8487 -3.0294 -0.3557
 7427SOL     OW33916   3.410   4.080   3.731  0.4712 -0.4022  0.6095
 7427SOL    HW133917   3.440   4.106   3.644 -2.6334  0.9569 -0.0654
 7427SOL    HW233918   3.315   4.094   3.736  0.3109 -1.0586 -0.4705
 7428SOL     OW33919   2.898   1.599   4.191 -0.3811 -0.0375 -0.3291
 7428SOL    HW133920   2.947   1.672   4.154 -1.1853  1.0256  0.7213
 7428SOL    HW233921   2.915   1.533   4.123 -0.1002 -0.6817  0.3676
 7429SOL     OW33922   3.121   4.174   7.694  0.4807 -0.7869 -0.8253
 7429SOL    HW133923   3.184   4.120   7.646  3.3598  2.3229 -0.5191
 7429SOL    HW233924   3.148   4.153   7.784  0.0257  1.5516 -0.1548
 7430SOL     OW33925   3.389   1.907   8.510 -0.2004 -0.3040 -0.8518
 7430SOL    HW133926   3.417   1.866   8.591  1.6284  0.2584 -1.1995
 7430SOL    HW233927   3.414   1.846   8.440 -0.8242 -1.0590 -0.4108
 7431SOL     OW33928   4.107   0.516   5.490 -0.1367 -0.4555 -0.3266
 7431SOL    HW133929   4.103   0.516   5.585  0.8027 -0.2169 -0.2892
 7431SOL    HW233930   4.041   0.575   5.453 -0.1707 -1.0554 -1.2274
 7432SOL     OW33931   4.363   3.501   2.759 -0.2412  0.4270 -1.0521
 7432SOL    HW133932   4.324   3.583   2.729 -1.0118  0.6849  0.7050
 7432SOL    HW233933   4.320   3.436   2.703  2.0230 -0.4842 -1.7417
 7433SOL     OW33934   2.440   1.470   5.019  0.2158 -0.1402 -0.2624
 7433SOL    HW133935   2.480   1.405   4.962 -0.3778  0.9185 -1.8799
 7433SOL    HW233936   2.490   1.551   5.010  0.3896  0.0460  2.3603
 7434SOL     OW33937   0.580   1.871   6.530  0.0402  0.2656 -0.3844
 7434SOL    HW133938   0.547   1.784   6.508 -1.5679  0.1412  2.6422
 7434SOL    HW233939   0.674   1.859   6.543  0.2523  0.4957 -1.6060
 7435SOL     OW33940   2.003   3.892   7.251 -0.0923 -0.9742 -0.0262
 7435SOL    HW133941   2.061   3.958   7.290 -1.8251  0.2990  0.4042
 7435SOL    HW233942   2.045   3.874   7.168 -0.4112 -1.5989 -0.0486
 7436SOL     OW33943   1.654   1.150   8.041  0.3153 -0.1631  0.4384
 7436SOL    HW133944   1.681   1.087   7.974  0.3625 -0.8334  1.0790
 7436SOL    HW233945   1.576   1.184   7.997  1.3117  1.3901 -0.1193
 7437SOL     OW33946   4.267   4.705   7.162  0.1767  0.2583 -0.5205
 7437SOL    HW133947   4.196   4.721   7.223  0.7211  1.0025 -0.0671
 7437SOL    HW233948   4.236   4.631   7.111 -1.7888  0.5884  0.2195
 7438SOL     OW33949   3.410   4.343  17.714  0.2166 -0.4862 -0.4241
 7438SOL    HW133950   3.331   4.296  17.689 -0.1573 -0.0367 -0.0813
 7438SOL    HW233951   3.390   4.371   0.049  1.9142  1.5621 -0.6751
 7439SOL     OW33952   2.035   2.689   5.136 -0.3634 -0.1034  0.7120
 7439SOL    HW133953   1.998   2.644   5.060  1.6859  0.5727 -0.6803
 7439SOL    HW233954   2.038   2.624   5.206  0.1288 -0.2004  0.6029
 7440SOL     OW33955   0.779   2.807   2.261  0.7045  0.1505  0.4317
 7440SOL    HW133956   0.817   2.893   2.276  1.2793  0.6334 -3.6405
 7440SOL    HW233957   0.839   2.773   2.194 -1.4002 -0.8189 -0.9593
 7441SOL     OW33958   0.908   0.319  11.288  0.0796  0.8543  0.6137
 7441SOL    HW133959   0.917   0.413  11.273 -1.1218  1.0838  1.3707
 7441SOL    HW233960   0.825   0.299  11.245  0.8342 -1.3609  0.1395
 7442SOL     OW33961   1.595   1.266  12.156  0.2403  0.6250  0.2508
 7442SOL    HW133962   1.663   1.201  12.177  1.8225  2.1151 -0.2333
 7442SOL    HW233963   1.531   1.200  12.131  1.3192 -0.7480  1.0524
 7443SOL     OW33964   4.374   3.961  10.229 -0.1040 -0.4875 -0.2453
 7443SOL    HW133965   4.447   4.008  10.269 -1.0544  1.3621 -0.7039
 7443SOL    HW233966   4.349   4.000  10.146  0.3930  2.7463  1.1301
 7444SOL     OW33967   1.304   3.953   2.851  0.1646 -0.3273  0.5101
 7444SOL    HW133968   1.232   3.980   2.907 -1.2434 -1.1133 -0.9100
 7444SOL    HW233969   1.371   4.018   2.871 -0.1049  0.0202  0.2928
 7445SOL     OW33970   2.684   2.171   4.678 -0.2792  0.3847 -0.1536
 7445SOL    HW133971   2.754   2.116   4.643 -0.4469 -0.9597  1.5900
 7445SOL    HW233972   2.630   2.204   4.606 -0.6551  0.6185  0.2356
 7446SOL     OW33973   3.445   2.252  10.847 -0.3672  0.1224 -0.2207
 7446SOL    HW133974   3.459   2.161  10.823 -0.2247 -0.2251  1.1816
 7446SOL    HW233975   3.391   2.232  10.923  2.1404 -0.0692  1.5154
 7447SOL     OW33976   1.633   0.127   7.712 -0.7573  0.4879 -0.3338
 7447SOL    HW133977   1.588   0.193   7.765 -0.3827 -1.1301  1.9579
 7447SOL    HW233978   1.702   0.182   7.675 -1.8029  2.4950  0.6745
 7448SOL     OW33979   1.167   1.810   2.745 -0.0233  0.4340  0.0994
 7448SOL    HW133980   1.093   1.780   2.798 -0.8874  1.9126 -0.2777
 7448SOL    HW233981   1.229   1.847   2.807 -0.7751 -0.2844  1.2710
 7449SOL     OW33982   0.400   1.693   1.594  0.0385 -0.4714  0.1673
 7449SOL    HW133983   0.464   1.624   1.580 -0.1377 -0.4192 -0.9423
 7449SOL    HW233984   0.362   1.652   1.671 -0.7453 -1.1020 -0.5466
 7450SOL     OW33985   4.171   2.036   3.698 -0.3418  0.4929 -0.5817
 7450SOL    HW133986   4.244   2.097   3.691 -0.7427  0.9773 -0.4980
 7450SOL    HW233987   4.148   2.041   3.790 -0.3767 -0.1758 -0.5557
 7451SOL     OW33988   4.733   4.060   1.777  0.1037 -0.0224  0.2331
 7451SOL    HW133989   4.687   4.138   1.809 -2.3634 -0.7654 -1.4932
 7451SOL    HW233990   4.724   3.995   1.847  0.9666 -2.2833 -1.7968
 7452SOL     OW33991   3.925   2.783  10.347  0.3342  0.1210  0.1676
 7452SOL    HW133992   3.984   2.855  10.324  1.1346 -0.2296  1.1266
 7452SOL    HW233993   3.878   2.815  10.424 -0.3243  2.9035 -1.3724
 7453SOL     OW33994   1.471   0.878   4.328 -0.6925  0.2439  0.2530
 7453SOL    HW133995   1.419   0.834   4.261  0.2047 -1.3078  0.5696
 7453SOL    HW233996   1.559   0.858   4.296  0.0239  3.6521  0.1543
 7454SOL     OW33997   1.070   0.951   6.743 -0.2903 -0.3216  0.5256
 7454SOL    HW133998   1.073   0.997   6.827  1.6495  0.4166  0.0576
 7454SOL    HW233999   1.154   0.905   6.750 -0.5952 -0.7774  1.1545
 7455SOL     OW34000   1.157   3.150   6.181 -0.0884  0.2437  0.2326
 7455SOL    HW134001   1.139   3.119   6.093  0.9947  4.6501 -1.5407
 7455SOL    HW234002   1.246   3.184   6.170 -0.0396  0.0243 -0.0370
 7456SOL     OW34003   0.072   0.456   0.714 -0.0817  0.6758 -0.2565
 7456SOL    HW134004   4.733   0.508   0.729 -0.7691 -0.1489 -1.0493
 7456SOL    HW234005   0.040   0.379   0.668  0.6070  1.1928 -1.6075
 7457SOL     OW34006   1.185   0.480  17.236  0.0053 -0.2084  0.1993
 7457SOL    HW134007   1.097   0.447  17.251  0.8111 -2.7215 -0.5631
 7457SOL    HW234008   1.178   0.555  17.295  1.7880 -1.2435  1.7153
 7458SOL     OW34009   2.568   3.832  10.127 -0.5233 -0.2506 -0.0015
 7458SOL    HW134010   2.610   3.750  10.100  1.1192 -0.0574  1.9070
 7458SOL    HW234011   2.542   3.865  10.041  3.5308  1.8640 -0.4675
 7459SOL     OW34012   2.525   1.637   6.205 -0.0489 -0.4494  0.1281
 7459SOL    HW134013   2.475   1.698   6.259  2.0512  0.2437  1.2808
 7459SOL    HW234014   2.592   1.698   6.174 -0.4779  0.0740  0.2402
 7460SOL     OW34015   4.157   3.621  17.735  0.3178  0.5985 -0.3002
 7460SOL    HW134016   4.210   3.674   0.041 -3.3091  2.6681  1.1048
 7460SOL    HW234017   4.112   3.570   0.048 -0.2273 -0.3795 -1.4168
 7461SOL     OW34018   3.833   0.405   2.693 -0.2427  0.8204 -0.2004
 7461SOL    HW134019   3.825   0.310   2.687  2.3300  0.5154  1.3140
 7461SOL    HW234020   3.830   0.414   2.788 -2.3642  1.5673 -0.3343
 7462SOL     OW34021   4.398   3.788   9.392 -0.4506 -0.4247 -0.0712
 7462SOL    HW134022   4.458   3.743   9.332 -1.6984 -1.8185 -0.2697
 7462SOL    HW234023   4.332   3.719   9.393 -2.7749  1.7839 -0.6849
 7463SOL     OW34024   0.823   0.899   0.526 -0.1200 -0.0530  0.3430
 7463SOL    HW134025   0.743   0.890   0.578 -0.5461  0.3684 -0.2469
 7463SOL    HW234026   0.791   0.862   0.444  0.7135  0.5227 -0.2364
 7464SOL     OW34027   4.504   0.130  12.667  0.5364 -0.3229 -0.1003
 7464SOL    HW134028   4.427   0.170  12.627 -0.1427  1.0772  2.6243
 7464SOL    HW234029   4.566   0.160  12.601  0.7190 -0.7597 -0.1290
 7465SOL     OW34030   0.518   4.351  17.735  0.3711 -0.1309 -0.1898
 7465SOL    HW134031   0.579   4.311  17.674  0.5438 -0.3966  0.1576
 7465SOL    HW234032   0.535   4.312   0.067  0.6659 -1.0760 -0.6819
 7466SOL     OW34033   4.731   0.691   7.296 -0.2109 -0.5723 -0.8092
 7466SOL    HW134034   4.683   0.688   7.379 -3.0434  2.4348 -2.3666
 7466SOL    HW234035   4.674   0.639   7.240  1.4765  2.0732 -4.9660
 7467SOL     OW34036   2.228   4.719   2.402 -0.1896  0.2273 -0.1399
 7467SOL    HW134037   2.140   0.017   2.391 -0.0390  0.0420 -1.8155
 7467SOL    HW234038   2.244   4.700   2.310 -0.1315 -1.1561  0.1552
 7468SOL     OW34039   4.736   1.727   9.246 -0.2188  0.0818  0.3315
 7468SOL    HW134040   0.008   1.820   9.266  0.3599  0.5088 -1.9951
 7468SOL    HW234041   4.671   1.713   9.315 -1.0088  0.5815 -0.3121
 7469SOL     OW34042   4.497   4.207  11.996  0.5727 -0.0472  0.2827
 7469SOL    HW134043   4.569   4.227  12.055  0.9014 -0.2587 -0.0461
 7469SOL    HW234044   4.421   4.192  12.052 -0.8063  0.4865 -1.4652
 7470SOL     OW34045   3.356   2.825   6.787  0.5748 -0.2122  0.2595
 7470SOL    HW134046   3.397   2.752   6.742  0.3277 -0.6580  0.7522
 7470SOL    HW234047   3.266   2.793   6.779  0.8168  0.2754 -4.1691
 7471SOL     OW34048   1.805   4.310  10.741  0.1729 -0.1214  0.0580
 7471SOL    HW134049   1.886   4.362  10.743  1.1183 -1.5976  0.5964
 7471SOL    HW234050   1.795   4.277  10.831  2.2295 -2.7341 -0.6875
 7472SOL     OW34051   4.503   1.677   7.409  0.2428 -0.4730 -0.4633
 7472SOL    HW134052   4.530   1.637   7.492 -0.3352  1.1533  0.4957
 7472SOL    HW234053   4.562   1.633   7.347  1.9589  1.4235 -0.1707
 7473SOL     OW34054   4.503   4.541   4.299  0.2000  0.0904  0.1312
 7473SOL    HW134055   4.518   4.449   4.276 -0.8623 -0.6494  2.3762
 7473SOL    HW234056   4.422   4.523   4.347  0.7154 -1.2705  0.4957
 7474SOL     OW34057   3.916   3.314   4.923  0.2481  0.7271 -0.2739
 7474SOL    HW134058   3.940   3.407   4.923  1.1030  0.5006  0.6648
 7474SOL    HW234059   3.876   3.301   4.837  0.6083 -1.6030 -0.0729
 7475SOL     OW34060   3.425   3.098   5.515  0.2556 -0.3061 -0.7257
 7475SOL    HW134061   3.461   3.082   5.428 -1.5653 -0.3980 -1.4520
 7475SOL    HW234062   3.430   3.193   5.518  0.5473 -0.3151 -0.9046
 7476SOL     OW34063   4.186   1.006   6.288 -0.4750  0.4919  0.0880
 7476SOL    HW134064   4.150   1.004   6.377  1.7681 -0.5079  0.9901
 7476SOL    HW234065   4.281   1.012   6.299 -0.1654 -2.2882 -1.2113
 7477SOL     OW34066   4.660   1.338   4.025 -0.0820  0.1164 -0.5351
 7477SOL    HW134067   4.680   1.259   3.976 -1.3633  0.3340 -1.3972
 7477SOL    HW234068   4.729   1.395   3.992 -0.6876  0.6202 -0.9427
 7478SOL     OW34069   2.409   2.218   3.687  0.8313  0.1250  0.0593
 7478SOL    HW134070   2.406   2.250   3.597 -0.2756  0.3159  0.1612
 7478SOL    HW234071   2.476   2.279   3.720  1.4604 -0.4565 -0.1550
 7479SOL     OW34072   2.093   3.403   7.392  0.0983 -0.1501 -0.0653
 7479SOL    HW134073   2.167   3.347   7.415  0.2372 -0.4132 -1.1362
 7479SOL    HW234074   2.096   3.408   7.296  0.3585 -0.2074 -0.0607
 7480SOL     OW34075   2.854   1.013   0.881  0.2835  0.6211  0.0517
 7480SOL    HW134076   2.781   1.070   0.905 -0.3806 -0.8567  1.5612
 7480SOL    HW234077   2.927   1.074   0.869 -0.5809  1.3872 -1.2842
 7481SOL     OW34078   4.712   3.125   3.824 -0.2815 -0.3865 -0.3688
 7481SOL    HW134079   4.722   3.196   3.762 -1.6785  0.3688  0.2683
 7481SOL    HW234080   0.036   3.158   3.888  0.6912 -1.0538 -0.9947
 7482SOL     OW34081   1.624   1.570   6.519 -0.0325 -0.4467 -0.4943
 7482SOL    HW134082   1.591   1.532   6.600 -0.0165  0.0800 -0.2385
 7482SOL    HW234083   1.645   1.657   6.554 -2.2519 -0.3868  0.6528
 7483SOL     OW34084   1.962   3.723   5.565  0.1260  0.1035  0.0127
 7483SOL    HW134085   2.050   3.740   5.532 -0.0556  2.1499  0.5570
 7483SOL    HW234086   1.905   3.757   5.496 -0.8079  0.7931  1.0983
 7484SOL     OW34087   4.013   0.799   6.558 -0.4130  0.1567  0.1888
 7484SOL    HW134088   4.047   0.744   6.628  2.3867  0.7640 -0.6958
 7484SOL    HW234089   4.080   0.777   6.494  0.3934 -0.3089  1.2051
 7485SOL     OW34090   3.815   1.713   6.734 -0.3144 -0.2017 -0.2628
 7485SOL    HW134091   3.837   1.629   6.695  1.9755  0.3195 -0.0751
 7485SOL    HW234092   3.865   1.768   6.673 -1.5774  0.5138 -0.6504
 7486SOL     OW34093   1.152   3.369   3.579  0.6127 -0.1140 -0.4601
 7486SOL    HW134094   1.211   3.370   3.655 -2.0336  1.5065  1.6002
 7486SOL    HW234095   1.175   3.440   3.519 -0.4862  1.0040  0.4419
 7487SOL     OW34096   1.805   1.752   3.234 -0.3711  0.2622 -0.3767
 7487SOL    HW134097   1.806   1.845   3.211 -0.8624  0.5078  0.5869
 7487SOL    HW234098   1.739   1.723   3.171  0.5997 -1.7048 -0.4917
 7488SOL     OW34099   3.610   2.343   6.722 -0.6331  0.2276  0.2875
 7488SOL    HW134100   3.570   2.265   6.685  0.8622 -0.6289  0.4809
 7488SOL    HW234101   3.626   2.319   6.813  0.9738 -0.8910 -0.2908
 7489SOL     OW34102   0.803   1.617   9.711  0.0559 -0.6648  0.1382
 7489SOL    HW134103   0.849   1.692   9.673 -1.3133  0.0540 -0.0931
 7489SOL    HW234104   0.769   1.567   9.637  1.5813 -0.4352 -0.7151
 7490SOL     OW34105   0.413   4.016   4.037  0.2362 -0.1144  0.1736
 7490SOL    HW134106   0.425   3.998   3.943 -2.0275 -1.4997  0.1395
 7490SOL    HW234107   0.373   3.933   4.063  0.1679  0.1517  0.9029
 7491SOL     OW34108   4.645   0.747   6.061  0.0826 -0.0614  0.5211
 7491SOL    HW134109   4.626   0.782   5.974 -0.7324 -1.7235  0.0408
 7491SOL    HW234110   4.736   0.721   6.052 -0.6357 -1.8337 -1.5246
 7492SOL     OW34111   1.580   1.098   7.005 -0.0934  0.2525 -0.3768
 7492SOL    HW134112   1.571   1.129   7.095 -1.8254 -2.8056  0.5037
 7492SOL    HW234113   1.519   1.155   6.960  2.6577  1.9083 -2.0057
 7493SOL     OW34114   3.428   2.280  12.810 -0.0866 -0.3322 -0.0750
 7493SOL    HW134115   3.419   2.356  12.867 -0.2401  0.0147 -0.5627
 7493SOL    HW234116   3.336   2.267  12.784 -0.0387  1.6376 -1.2334
 7494SOL     OW34117   0.396   2.921  11.880  0.2343  0.1607  0.3576
 7494SOL    HW134118   0.416   2.838  11.836 -0.0291  1.0799 -1.5185
 7494SOL    HW234119   0.470   2.977  11.856  0.1124  0.7388  1.3595
 7495SOL     OW34120   3.089   4.732  15.033  0.4551  0.1333  0.6463
 7495SOL    HW134121   3.008   4.708  15.079  0.5225  1.2388  1.3490
 7495SOL    HW234122   3.091   4.665  14.965  2.7046  1.3905 -0.5329
 7496SOL     OW34123   3.790   3.671  14.354 -0.0485  0.3965  0.3108
 7496SOL    HW134124   3.706   3.709  14.327  0.2012  0.0399 -0.9192
 7496SOL    HW234125   3.775   3.579  14.336  1.0447  0.3909 -0.5582
 7497SOL     OW34126   0.716   2.193   5.364 -0.0017 -0.4584 -0.0474
 7497SOL    HW134127   0.691   2.252   5.293 -0.5495 -0.9311 -0.2447
 7497SOL    HW234128   0.812   2.193   5.353 -0.0579 -0.3130 -0.5347
 7498SOL     OW34129   1.924   3.779  17.670 -0.7752  0.1811  0.1630
 7498SOL    HW134130   1.987   3.752  17.737  1.3004  1.3548 -1.3252
 7498SOL    HW234131   1.860   3.829  17.720  1.3017  3.4512 -0.4815
 7499SOL     OW34132   1.936   0.361   8.925  0.3226 -0.1409 -0.4624
 7499SOL    HW134133   1.868   0.411   8.879  1.4759  0.8580 -1.0795
 7499SOL    HW234134   1.921   0.267   8.914  1.1386 -0.1144 -1.8376
 7500SOL     OW34135   4.733   3.505   4.635 -0.3211  0.6886 -0.3046
 7500SOL    HW134136   4.686   3.486   4.554 -1.5800  0.3345  0.4952
 7500SOL    HW234137   4.669   3.496   4.706  1.4004 -0.9142  1.0789
 7501SOL     OW34138   1.073   3.600  14.806 -0.6744 -0.5561 -0.0043
 7501SOL    HW134139   0.983   3.632  14.815 -0.3293  0.0526  1.1395
 7501SOL    HW234140   1.080   3.621  14.713  0.8256 -0.8213  0.0518
 7502SOL     OW34141   2.642   3.424  10.207  0.3583  0.2055 -0.3163
 7502SOL    HW134142   2.641   3.453  10.298 -0.3921 -1.1737  0.1130
 7502SOL    HW234143   2.725   3.376  10.205 -0.5624 -1.3677 -0.3967
 7503SOL     OW34144   3.381   3.090   3.241  0.2674 -0.0772 -0.2263
 7503SOL    HW134145   3.327   3.014   3.261 -0.8696  1.3075  1.9535
 7503SOL    HW234146   3.340   3.106   3.156 -0.6644 -0.4720  0.1462
 7504SOL     OW34147   1.937   0.843  15.801 -0.1670  0.0073 -0.0324
 7504SOL    HW134148   1.901   0.804  15.880  0.4687  0.7462  0.6151
 7504SOL    HW234149   1.932   0.935  15.828  0.3844 -0.0860  0.3792
 7505SOL     OW34150   4.012   4.357  17.017 -0.4761  0.5853 -0.1325
 7505SOL    HW134151   4.104   4.338  16.996 -0.4663  0.6952 -0.1890
 7505SOL    HW234152   4.002   4.342  17.111  0.7885 -0.4245 -0.1638
 7506SOL     OW34153   1.754   4.268   6.003 -0.3467  0.1929 -0.0301
 7506SOL    HW134154   1.768   4.211   6.078  0.2105 -0.2507 -0.4696
 7506SOL    HW234155   1.781   4.352   6.040  1.2825  0.1192 -1.0426
 7507SOL     OW34156   0.076   3.631  11.017  0.4071 -0.2040 -0.3572
 7507SOL    HW134157   0.145   3.610  11.079 -0.4105  0.0563  0.6481
 7507SOL    HW234158   0.120   3.695  10.961  0.4318 -0.1755 -0.3044
 7508SOL     OW34159   0.909   1.186   3.048  0.4938 -0.3601  0.6452
 7508SOL    HW134160   0.932   1.192   3.141  0.4813 -0.2935  0.6440
 7508SOL    HW234161   0.861   1.103   3.044  1.2589 -0.7057 -1.3632
 7509SOL     OW34162   2.174   4.580  16.346  0.1434 -0.8019 -0.0376
 7509SOL    HW134163   2.146   4.494  16.314  2.6291 -1.6711  0.0559
 7509SOL    HW234164   2.264   4.560  16.371 -0.1995 -0.4768  1.4271
 7510SOL     OW34165   1.649   0.968  12.216  0.3570 -0.4532  0.1771
 7510SOL    HW134166   1.570   1.002  12.258 -0.2076  0.8638 -1.9066
 7510SOL    HW234167   1.712   0.982  12.286  0.4707  0.1116 -0.0367
 7511SOL     OW34168   4.328   2.397   7.014  0.4208  0.2077 -0.6318
 7511SOL    HW134169   4.341   2.485   6.977 -0.5811  1.3563  1.7729
 7511SOL    HW234170   4.386   2.343   6.960 -0.0531  0.9788 -1.9302
 7512SOL     OW34171   2.627   0.582   6.498 -0.3870 -0.0103 -0.1056
 7512SOL    HW134172   2.650   0.497   6.459  2.8816 -0.1031  1.9666
 7512SOL    HW234173   2.609   0.553   6.588 -0.6404  0.9150  0.1370
 7513SOL     OW34174   0.419   1.321   6.535  0.1771  0.3249 -0.6030
 7513SOL    HW134175   0.472   1.243   6.522  0.6434  0.2386  1.7714
 7513SOL    HW234176   0.337   1.308   6.486  0.8093  0.7645 -1.7970
 7514SOL     OW34177   4.160   1.105   1.074  0.0126  0.0865  0.3839
 7514SOL    HW134178   4.073   1.087   1.110 -1.7894  1.4728 -3.3307
 7514SOL    HW234179   4.147   1.199   1.066  0.7526  0.2539  1.0781
 7515SOL     OW34180   4.510   2.524   7.201  0.0055  0.2616  0.0361
 7515SOL    HW134181   4.448   2.467   7.156 -1.0634  1.1969  0.2981
 7515SOL    HW234182   4.456   2.588   7.248 -3.5563 -0.7497 -2.7213
 7516SOL     OW34183   0.212   3.062   6.331 -0.3124 -0.4992  0.1576
 7516SOL    HW134184   0.149   2.991   6.337  0.6782 -1.4526 -0.8515
 7516SOL    HW234185   0.158   3.141   6.341  1.3660  0.5053  1.1582
 7517SOL     OW34186   2.010   4.580  12.194 -0.3207 -0.7767  0.0970
 7517SOL    HW134187   2.075   4.549  12.257  1.0334  0.0663 -0.8899
 7517SOL    HW234188   1.929   4.555  12.238 -1.4669  0.7706 -1.1555
 7518SOL     OW34189   3.297   1.879   1.225  0.0899 -0.2284  0.0662
 7518SOL    HW134190   3.273   1.961   1.183 -0.4624 -0.2727  0.2840
 7518SOL    HW234191   3.330   1.835   1.147 -0.3326  1.3808 -1.0256
 7519SOL     OW34192   1.650   0.026  15.000 -0.1697 -0.0745 -0.9946
 7519SOL    HW134193   1.604   4.688  14.967  1.5923 -1.4873 -0.1637
 7519SOL    HW234194   1.726   0.035  14.942  1.2218  0.1825  0.8670
 7520SOL     OW34195   4.142   4.230   9.763  0.4602 -0.5331  0.2376
 7520SOL    HW134196   4.132   4.163   9.831 -0.8201  0.2447  0.8044
 7520SOL    HW234197   4.056   4.270   9.772  0.7378  0.1474 -0.1634
 7521SOL     OW34198   0.725   0.389   3.322  0.7130 -0.1002 -0.2857
 7521SOL    HW134199   0.684   0.439   3.393  1.6756 -2.0952  1.6845
 7521SOL    HW234200   0.797   0.344   3.367 -0.1584 -3.3154 -2.1106
 7522SOL     OW34201   0.307   4.612   5.640  0.0747  0.5634 -0.3519
 7522SOL    HW134202   0.342   4.552   5.574 -0.7302 -1.1010  0.7372
 7522SOL    HW234203   0.266   4.670   5.576  1.2248 -1.0234 -2.4982
 7523SOL     OW34204   1.790   3.048  12.191 -0.0516 -0.1550 -0.5486
 7523SOL    HW134205   1.870   3.091  12.221 -0.5805  1.1408 -1.0234
 7523SOL    HW234206   1.784   2.961  12.230  0.4689  0.1544  0.2407
 7524SOL     OW34207   4.338   4.376   3.932 -0.0451  0.1541  0.4786
 7524SOL    HW134208   4.387   4.359   4.012 -0.3906 -1.4603  0.3529
 7524SOL    HW234209   4.293   4.292   3.924  1.6427 -0.4698 -2.2647
 7525SOL     OW34210   2.845   0.671   3.098 -0.0241  0.2995 -0.4182
 7525SOL    HW134211   2.918   0.615   3.125 -1.9116 -0.2399  3.5788
 7525SOL    HW234212   2.870   0.674   3.005 -2.2151  1.1070 -0.9669
 7526SOL     OW34213   1.687   4.419  12.628 -0.6892  0.6440  0.3833
 7526SOL    HW134214   1.650   4.401  12.542 -0.5949  0.5482  0.3630
 7526SOL    HW234215   1.613   4.439  12.685 -0.1612 -0.4693  1.4672
 7527SOL     OW34216   1.150   4.357   6.091  0.0856 -0.0145 -0.5174
 7527SOL    HW134217   1.192   4.388   6.171 -0.8857  1.4242 -0.5852
 7527SOL    HW234218   1.058   4.358   6.117  0.1785 -0.2798 -0.1860
 7528SOL     OW34219   2.589   1.289   2.581 -0.6921  0.7491 -0.5910
 7528SOL    HW134220   2.601   1.238   2.661  0.6956 -1.1203 -1.9697
 7528SOL    HW234221   2.518   1.235   2.545 -1.5931  1.5692 -0.0334
 7529SOL     OW34222   0.891   0.144  15.687 -0.5602  0.0701  0.0981
 7529SOL    HW134223   0.914   0.089  15.762  0.7805 -0.9531 -1.0563
 7529SOL    HW234224   0.848   0.080  15.629 -1.9897  1.8712 -0.8354
 7530SOL     OW34225   0.144   0.508  15.845 -0.4279  0.2481 -0.2981
 7530SOL    HW134226   0.125   0.533  15.754 -1.0839 -1.4447 -0.6212
 7530SOL    HW234227   0.073   0.447  15.863 -0.9312  0.6527 -0.8932
 7531SOL     OW34228   4.051   1.996   4.576  0.4477  0.2774  0.0833
 7531SOL    HW134229   4.066   2.081   4.618  0.3433 -0.2623  1.1931
 7531SOL    HW234230   4.130   1.943   4.585  0.0687 -0.0129  1.6524
 7532SOL     OW34231   3.353   2.835   7.979 -0.0839  0.0749 -0.8443
 7532SOL    HW134232   3.403   2.860   8.058 -2.7211  1.0867  0.5185
 7532SOL    HW234233   3.411   2.769   7.943 -0.7661  0.4480 -2.6106
 7533SOL     OW34234   4.094   0.601   8.505 -0.0122  0.2712 -0.0098
 7533SOL    HW134235   4.042   0.603   8.425 -0.8126 -3.0010  0.4527
 7533SOL    HW234236   4.016   0.602   8.560  0.0857 -0.8662  0.1517
 7534SOL     OW34237   2.008   0.142  11.558 -0.8809 -0.3142 -0.4052
 7534SOL    HW134238   1.960   0.224  11.541 -0.3557  0.1763  0.4966
 7534SOL    HW234239   2.074   0.181  11.615 -0.9248  0.2577 -0.7378
 7535SOL     OW34240   4.710   1.078  11.272 -0.2190  0.1615 -0.4576
 7535SOL    HW134241   4.669   1.156  11.235 -0.3608  0.3485  0.0874
 7535SOL    HW234242   4.715   1.015  11.200 -0.9809  0.0160 -0.3922
 7536SOL     OW34243   0.940   0.314   7.965  0.4906 -0.2777 -0.2398
 7536SOL    HW134244   0.968   0.263   8.042  0.5996 -1.9548 -1.3953
 7536SOL    HW234245   0.848   0.293   7.951  0.1835  0.4870  0.6388
 7537SOL     OW34246   3.994   1.276   8.552 -0.0285  0.4299 -0.3295
 7537SOL    HW134247   3.916   1.329   8.538  0.1878  0.8269 -0.0552
 7537SOL    HW234248   3.981   1.265   8.646 -0.2869 -0.2288 -0.4458
 7538SOL     OW34249   2.603   1.123   5.165 -0.1837 -0.9216  0.5131
 7538SOL    HW134250   2.577   1.213   5.145  0.8501 -1.3965 -2.9759
 7538SOL    HW234251   2.520   1.079   5.145  0.3145 -1.2089 -0.9628
 7539SOL     OW34252   1.677   0.217   9.101  0.7691 -0.3491 -0.4318
 7539SOL    HW134253   1.692   0.270   9.022 -1.8267 -1.2202 -1.5120
 7539SOL    HW234254   1.589   0.245   9.127  0.4941 -0.2794 -1.4480
 7540SOL     OW34255   1.414   0.555  17.450  0.2764  0.2403 -0.4502
 7540SOL    HW134256   1.358   0.481  17.473 -0.2169  0.8639  0.3592
 7540SOL    HW234257   1.401   0.626  17.513 -2.0758 -0.7602  0.1915
 7541SOL     OW34258   2.070   3.563   3.537  0.2763 -0.6074  0.6239
 7541SOL    HW134259   2.154   3.520   3.520  0.9735  0.7058  0.7480
 7541SOL    HW234260   2.096   3.609   3.616 -0.7975  0.1746  0.5160
 7542SOL     OW34261   0.468   1.789   8.596  0.6696 -0.3355 -0.1742
 7542SOL    HW134262   0.481   1.699   8.566  2.7997  0.5257 -1.8270
 7542SOL    HW234263   0.531   1.794   8.668  1.4911 -0.1843 -0.8981
 7543SOL     OW34264   0.931   0.265   2.254  0.4787  0.3044  0.1965
 7543SOL    HW134265   0.979   0.347   2.251 -0.3841  0.7118 -2.7804
 7543SOL    HW234266   0.997   0.206   2.291 -0.1667  0.0238  0.9087
 7544SOL     OW34267   2.670   2.530   7.735 -0.2122  0.2229 -0.3933
 7544SOL    HW134268   2.739   2.577   7.688 -1.8906  3.3921  0.3365
 7544SOL    HW234269   2.672   2.447   7.687 -2.9338  0.1450 -0.3911
 7545SOL     OW34270   3.297   4.073  12.821 -0.5629  0.0220  0.1190
 7545SOL    HW134271   3.331   3.989  12.790  0.1002 -0.0897  1.1528
 7545SOL    HW234272   3.375   4.105  12.867  0.0067 -2.2968  0.7497
 7546SOL     OW34273   2.898   1.463  12.145  0.2892 -0.0102  0.1541
 7546SOL    HW134274   2.975   1.427  12.101 -0.7739 -0.2197 -1.5482
 7546SOL    HW234275   2.937   1.538  12.190  0.6376 -0.2429  0.2387
 7547SOL     OW34276   1.960   3.532   2.364  0.1066  0.9947 -0.3307
 7547SOL    HW134277   2.042   3.484   2.358 -0.1820  0.7191 -2.2469
 7547SOL    HW234278   1.939   3.546   2.456  3.1176  0.8204  0.3931
 7548SOL     OW34279   3.165   2.440   8.387 -0.4328 -0.0413 -0.1832
 7548SOL    HW134280   3.107   2.493   8.443  0.9329  0.0980  1.1119
 7548SOL    HW234281   3.100   2.382   8.347  0.4222 -1.3758  0.3747
 7549SOL     OW34282   2.720   2.411   2.617 -0.0353  0.0623 -0.1286
 7549SOL    HW134283   2.675   2.466   2.681 -0.3810 -0.7792  0.3408
 7549SOL    HW234284   2.655   2.413   2.547  0.6579  0.6122 -0.7574
 7550SOL     OW34285   4.513   3.882   7.742 -0.9349  0.1546  0.2228
 7550SOL    HW134286   4.600   3.847   7.720 -1.3453 -0.3316 -0.6242
 7550SOL    HW234287   4.457   3.838   7.677 -0.1930 -0.7684  0.2106
 7551SOL     OW34288   4.370   0.177   0.070 -0.2682  0.4765 -0.2551
 7551SOL    HW134289   4.333   0.128  17.750 -0.2769 -0.3556  0.2973
 7551SOL    HW234290   4.376   0.107   0.135 -0.3344  0.2064 -0.5372
 7552SOL     OW34291   1.678   2.273   3.837 -0.1525 -0.1965 -0.2389
 7552SOL    HW134292   1.769   2.260   3.811 -0.3576 -1.6533 -0.2314
 7552SOL    HW234293   1.628   2.233   3.766 -0.2756 -0.1121 -0.2014
 7553SOL     OW34294   3.338   4.462   6.119  0.3004 -0.5176  0.6294
 7553SOL    HW134295   3.280   4.391   6.090 -0.3012 -0.5364  1.8841
 7553SOL    HW234296   3.384   4.467   6.036  1.9230  0.7348  1.6061
 7554SOL     OW34297   4.542   4.510   6.670 -0.5036 -0.2997  0.1588
 7554SOL    HW134298   4.510   4.592   6.631 -0.8043 -1.0055 -1.0802
 7554SOL    HW234299   4.635   4.530   6.682 -0.7483 -0.4636  2.4574
 7555SOL     OW34300   3.904   2.771   5.733  0.5154 -0.2348 -0.0420
 7555SOL    HW134301   3.887   2.845   5.675  1.0296 -0.8399 -0.9643
 7555SOL    HW234302   3.879   2.807   5.818  2.0974  1.6168 -0.3479
 7556SOL     OW34303   1.726   2.149   7.800 -0.7724  0.2288  0.2347
 7556SOL    HW134304   1.639   2.178   7.775  0.3713  1.0537 -2.8029
 7556SOL    HW234305   1.764   2.125   7.716  1.5378  1.4112  0.9353
 7557SOL     OW34306   0.177   0.431   0.957 -0.4810 -0.2065  0.4685
 7557SOL    HW134307   0.143   0.411   0.870 -2.2115 -1.0844  1.3602
 7557SOL    HW234308   0.220   0.348   0.978 -2.1529 -1.4637 -1.1723
 7558SOL     OW34309   2.554   1.970   3.664 -0.0702 -0.0427 -0.7265
 7558SOL    HW134310   2.502   2.030   3.610  0.1378  1.7659  1.0943
 7558SOL    HW234311   2.639   2.013   3.653  0.1886 -0.0811  1.0979
 7559SOL     OW34312   3.484   1.590   3.356  0.4681 -0.0541  0.4339
 7559SOL    HW134313   3.397   1.613   3.387  0.6922  1.6818 -0.2176
 7559SOL    HW234314   3.542   1.637   3.416  0.9316 -0.3296  0.2066
 7560SOL     OW34315   3.731   2.826   2.649  0.3996 -0.2711  0.4393
 7560SOL    HW134316   3.706   2.763   2.716  1.9767  0.5468  1.7897
 7560SOL    HW234317   3.694   2.789   2.569 -2.2446 -0.7021  1.8402
 7561SOL     OW34318   3.789   2.204  14.527 -0.4161 -0.6046  0.4084
 7561SOL    HW134319   3.694   2.207  14.518 -0.3529 -0.3147 -0.1384
 7561SOL    HW234320   3.804   2.297  14.507  0.9076 -0.5388  1.7130
 7562SOL     OW34321   2.753   4.490   5.421 -0.0989 -0.1915 -0.2325
 7562SOL    HW134322   2.770   4.539   5.340 -0.1397 -0.4244 -0.3794
 7562SOL    HW234323   2.837   4.444   5.427 -0.3501 -0.7093 -0.7878
 7563SOL     OW34324   3.253   4.678   6.842  0.0458 -0.3893  0.2040
 7563SOL    HW134325   3.166   4.710   6.819  0.0815  1.7412  2.9750
 7563SOL    HW234326   3.248   4.672   6.938  0.6500  3.4415  0.4825
 7564SOL     OW34327   4.598   0.683   8.202  0.3445 -0.1844  0.1311
 7564SOL    HW134328   4.537   0.725   8.141 -0.2984 -1.1971  0.0918
 7564SOL    HW234329   4.659   0.641   8.142 -0.8303 -1.1420 -0.3902
 7565SOL     OW34330   0.416   1.386   9.741 -0.3069  0.3009  0.0588
 7565SOL    HW134331   0.503   1.347   9.733  0.6162  2.4814 -0.5550
 7565SOL    HW234332   0.444   1.452   9.805  0.0128  0.0423  0.1844
 7566SOL     OW34333   0.960   0.763  13.132  0.2575  0.4894 -0.1238
 7566SOL    HW134334   0.954   0.762  13.228 -0.8901 -0.0029 -0.1902
 7566SOL    HW234335   1.028   0.698  13.115 -0.6666 -0.0067 -1.9139
 7567SOL     OW34336   4.241   3.643   5.143 -0.1489  0.2187  0.0153
 7567SOL    HW134337   4.194   3.570   5.184 -0.7262 -0.2594 -1.4827
 7567SOL    HW234338   4.320   3.600   5.111 -0.2465 -0.3962  0.6158
 7568SOL     OW34339   1.578   3.171  12.260 -0.7597 -0.2199 -0.7645
 7568SOL    HW134340   1.642   3.119  12.211 -1.6775 -1.7080 -0.3531
 7568SOL    HW234341   1.636   3.220  12.319 -0.7334  0.0892 -1.0451
 7569SOL     OW34342   0.852   1.710   7.742  0.6426  0.2846  0.2384
 7569SOL    HW134343   0.889   1.784   7.790  1.8589  1.0847 -1.9257
 7569SOL    HW234344   0.805   1.666   7.813 -0.6262  2.6090  0.8258
 7570SOL     OW34345   4.335   4.155   5.927 -0.1251  0.2468  0.3417
 7570SOL    HW134346   4.338   4.158   6.022 -0.4225 -0.4147  0.3730
 7570SOL    HW234347   4.390   4.229   5.900  0.7399 -0.7096 -0.5615
 7571SOL     OW34348   1.088   1.147  11.705 -0.0370  0.3205 -0.5918
 7571SOL    HW134349   1.027   1.148  11.779 -0.1098  1.8957 -0.6779
 7571SOL    HW234350   1.080   1.234  11.667  2.0046  0.4466 -0.7326
 7572SOL     OW34351   0.782   2.198  17.293  0.2938 -0.1887 -1.0473
 7572SOL    HW134352   0.793   2.249  17.373  0.0810 -1.4348 -0.2202
 7572SOL    HW234353   0.804   2.265  17.229 -0.1706  0.2812 -0.7105
 7573SOL     OW34354   2.684   2.665   5.134  0.1445 -0.1878  0.3424
 7573SOL    HW134355   2.712   2.743   5.182  2.3789 -0.0286 -1.2155
 7573SOL    HW234356   2.766   2.617   5.148 -0.3844 -1.5269 -1.0683
 7574SOL     OW34357   2.415   4.404  14.174 -0.1456 -0.4180  0.6677
 7574SOL    HW134358   2.427   4.355  14.093 -0.2409  2.6413 -1.1851
 7574SOL    HW234359   2.381   4.339  14.236 -1.0641  1.7253  2.4394
 7575SOL     OW34360   2.670   0.887   5.019 -0.0783  0.3937 -0.5894
 7575SOL    HW134361   2.636   0.820   5.079  1.0363  1.4401  1.2183
 7575SOL    HW234362   2.628   0.965   5.057  0.9853  0.5134  0.3203
 7576SOL     OW34363   0.598   4.644   1.398 -0.4546  0.2940 -0.4301
 7576SOL    HW134364   0.671   4.705   1.405  0.3603 -0.9000  1.4381
 7576SOL    HW234365   0.548   4.661   1.478  0.4353 -2.3494  0.7035
 7577SOL     OW34366   2.012   1.232   0.866 -0.3033  0.1904  0.4117
 7577SOL    HW134367   1.921   1.254   0.884 -1.2631 -1.3610 -2.5609
 7577SOL    HW234368   2.047   1.322   0.870  1.3592 -0.4372 -0.1358
 7578SOL     OW34369   3.794   3.201   2.260 -0.3600 -0.9286  0.4221
 7578SOL    HW134370   3.765   3.179   2.349 -0.6239 -3.2937 -0.2449
 7578SOL    HW234371   3.887   3.214   2.280  0.0646 -0.0179 -2.1679
 7579SOL     OW34372   0.743   3.979  11.478 -0.0782  0.3234 -0.0004
 7579SOL    HW134373   0.838   3.973  11.469 -0.2710 -0.1119 -1.8510
 7579SOL    HW234374   0.728   4.052  11.417  1.4597  0.0466 -0.7031
 7580SOL     OW34375   3.471   0.813  16.134  0.0921  0.2580  0.7208
 7580SOL    HW134376   3.523   0.833  16.211  0.0684  0.3358  0.7166
 7580SOL    HW234377   3.405   0.756  16.174 -0.6364 -0.2185 -1.1620
 7581SOL     OW34378   2.345   1.046   5.427 -0.4116  0.0075 -0.6636
 7581SOL    HW134379   2.435   1.055   5.456 -0.8713  1.4821  0.3508
 7581SOL    HW234380   2.324   1.136   5.401 -3.7629 -1.0691 -1.6667
 7582SOL     OW34381   2.518   1.457   2.033  0.3565  0.0438 -0.1114
 7582SOL    HW134382   2.558   1.543   2.046 -2.3400  1.2207  0.3998
 7582SOL    HW234383   2.550   1.404   2.105  1.8427 -0.7950 -1.3845
 7583SOL     OW34384   2.085   0.348  14.457 -0.0672 -0.0667  0.3525
 7583SOL    HW134385   2.148   0.409  14.420 -0.9370 -0.3651 -1.6606
 7583SOL    HW234386   2.060   0.302  14.376  0.4874 -0.5161  0.4325
 7584SOL     OW34387   4.177   4.443   6.284  0.0392  0.1155 -0.0293
 7584SOL    HW134388   4.123   4.521   6.265  0.4863  0.5825  0.6455
 7584SOL    HW234389   4.139   4.406   6.363  0.2560 -2.1898 -0.9969
 7585SOL     OW34390   4.202   4.058   8.326 -0.3049  0.0032  0.4945
 7585SOL    HW134391   4.177   3.969   8.350 -0.4649 -1.3045 -4.4047
 7585SOL    HW234392   4.170   4.054   8.236 -0.4599  2.3089  0.4620
 7586SOL     OW34393   4.582   1.569  14.636  0.0253  0.2302  0.4204
 7586SOL    HW134394   4.633   1.616  14.702  0.5564  0.3115 -0.0490
 7586SOL    HW234395   4.619   1.611  14.558  1.5183  1.8465  1.9764
 7587SOL     OW34396   3.522   0.755   8.648 -0.2799 -0.3015  0.3919
 7587SOL    HW134397   3.502   0.847   8.660  0.0869 -0.1983  0.2158
 7587SOL    HW234398   3.479   0.737   8.564  1.0234 -1.1291 -0.1091
 7588SOL     OW34399   4.738   4.409  17.406  0.6829  0.1752  0.7832
 7588SOL    HW134400   0.062   4.414  17.335  0.8321  2.3684  1.0790
 7588SOL    HW234401   0.032   4.324  17.437 -0.0959 -0.3685  0.1311
 7589SOL     OW34402   2.261   1.256   5.785 -0.3796 -0.0498  0.2013
 7589SOL    HW134403   2.167   1.242   5.794 -0.8218  2.4286 -0.6750
 7589SOL    HW234404   2.295   1.193   5.849  1.3227 -0.8128 -1.4618
 7590SOL     OW34405   2.428   3.642   0.583 -0.8953  0.3348  0.3001
 7590SOL    HW134406   2.352   3.643   0.524  0.8503  0.3898 -1.9304
 7590SOL    HW234407   2.436   3.735   0.603  1.7419 -0.4284  2.7609
 7591SOL     OW34408   0.150   4.354   5.467  0.1635 -0.0288  0.2078
 7591SOL    HW134409   0.163   4.296   5.392  0.4478  2.6162 -1.7747
 7591SOL    HW234410   0.119   4.431   5.420  0.5853  0.0282  0.0288
 7592SOL     OW34411   1.900   4.276  12.648 -0.5612 -0.2201 -0.1770
 7592SOL    HW134412   1.884   4.229  12.566 -2.6406 -2.2895  1.4068
 7592SOL    HW234413   1.817   4.322  12.645 -0.5279 -0.2598 -1.5580
 7593SOL     OW34414   4.271   0.199   6.462  0.8793 -0.6797 -0.0749
 7593SOL    HW134415   4.267   0.292   6.440 -0.1256 -0.4633  1.0148
 7593SOL    HW234416   4.284   0.173   6.371  1.6804 -1.8366  0.3772
 7594SOL     OW34417   0.580   1.025  11.662  0.0869 -0.3228  0.3641
 7594SOL    HW134418   0.665   1.056  11.632 -0.7590  0.2141 -1.5271
 7594SOL    HW234419   0.531   1.077  11.597  1.0583 -0.5951 -0.5742
 7595SOL     OW34420   3.141   1.057  16.612 -0.2699  0.3936  0.4647
 7595SOL    HW134421   3.060   1.104  16.633 -0.6699  0.2835 -0.8114
 7595SOL    HW234422   3.113   0.967  16.632  0.2834  0.0728 -0.1864
 7596SOL     OW34423   3.685   3.412   3.399 -0.0426  0.1485 -0.3374
 7596SOL    HW134424   3.606   3.423   3.452  0.2172  0.4542 -0.0080
 7596SOL    HW234425   3.694   3.317   3.391  1.0069  0.1372  1.0353
 7597SOL     OW34426   3.600   0.993  17.610  0.3558 -0.0195  0.1059
 7597SOL    HW134427   3.519   0.962  17.570  1.0855 -1.1026 -0.5393
 7597SOL    HW234428   3.580   1.083  17.637 -0.7079  0.1231 -1.1334
 7598SOL     OW34429   1.938   0.539   7.398 -0.7776 -0.3111  0.3804
 7598SOL    HW134430   1.870   0.529   7.331  0.9768 -1.4625 -1.2330
 7598SOL    HW234431   1.891   0.545   7.481 -1.4647  1.0759 -0.1028
 7599SOL     OW34432   2.235   0.057   4.611  0.0641  0.0600  0.2812
 7599SOL    HW134433   2.220   0.139   4.565  2.4442  1.0794  1.3073
 7599SOL    HW234434   2.147   0.021   4.620  0.1621 -0.5216 -1.1119
 7600SOL     OW34435   2.589   1.008   2.064 -0.4073 -0.1546  0.1842
 7600SOL    HW134436   2.559   0.918   2.065  4.7641 -1.8825 -0.6604
 7600SOL    HW234437   2.652   1.009   2.137 -1.1372  1.2924  0.8047
 7601SOL     OW34438   2.598   3.366   6.569 -0.1565 -0.7000 -0.2365
 7601SOL    HW134439   2.594   3.334   6.479 -0.6067  1.4682 -0.9873
 7601SOL    HW234440   2.599   3.291   6.628  3.2948 -0.3924  0.0900
 7602SOL     OW34441   3.489   3.337  11.427 -0.3331  0.4759  0.1989
 7602SOL    HW134442   3.570   3.363  11.469 -0.4732 -0.6773  1.1939
 7602SOL    HW234443   3.428   3.393  11.476 -1.1814  2.9074 -3.6159
 7603SOL     OW34444   2.772   0.641  13.058  0.0696  0.4060 -0.2812
 7603SOL    HW134445   2.740   0.597  12.980  0.6784  0.4327 -0.5430
 7603SOL    HW234446   2.829   0.702  13.012 -0.7303  1.9250  0.7085
 7604SOL     OW34447   3.034   2.563   1.286 -0.0804  0.3995 -0.4651
 7604SOL    HW134448   2.988   2.513   1.219 -0.6622 -2.8998  2.3846
 7604SOL    HW234449   3.104   2.501   1.307 -1.6631 -0.7544  1.4411
 7605SOL     OW34450   0.136   1.893   5.908  0.0513 -0.1266  0.2079
 7605SOL    HW134451   0.146   1.919   5.816  1.3580 -2.2556 -0.2669
 7605SOL    HW234452   0.108   1.971   5.955  0.9643 -0.0900  0.6900
 7606SOL     OW34453   3.334   2.420   9.566  0.2112 -0.9244 -0.4802
 7606SOL    HW134454   3.394   2.366   9.514  0.1868 -0.1507 -1.3055
 7606SOL    HW234455   3.322   2.364   9.643  1.6580  0.8251  1.0106
 7607SOL     OW34456   2.828   2.914   2.032  0.0959 -0.2009  0.2663
 7607SOL    HW134457   2.756   2.878   1.980  1.1144 -1.0135 -0.5893
 7607SOL    HW234458   2.839   2.854   2.105 -1.0638 -2.0674 -1.0957
 7608SOL     OW34459   2.510   0.545   9.659 -0.1763  0.4471  0.0182
 7608SOL    HW134460   2.516   0.554   9.754 -2.1359  0.6037  0.1255
 7608SOL    HW234461   2.522   0.634   9.624  2.8403 -0.3689 -1.0321
 7609SOL     OW34462   1.440   4.467   6.512  0.2525 -0.3029 -0.1445
 7609SOL    HW134463   1.421   4.388   6.563  1.6018 -1.4817 -1.4861
 7609SOL    HW234464   1.535   4.472   6.504  0.2736 -1.0477 -0.3087
 7610SOL     OW34465   1.270   1.146   8.757 -0.2124 -0.0293 -0.2582
 7610SOL    HW134466   1.317   1.204   8.697  1.1565 -0.5220  0.3365
 7610SOL    HW234467   1.320   1.162   8.837 -0.9315  0.7503  0.0352
 7611SOL     OW34468   0.782   1.240   5.365 -0.0101  0.0592  0.1770
 7611SOL    HW134469   0.795   1.223   5.459  0.5951  1.0571  0.2777
 7611SOL    HW234470   0.801   1.152   5.334 -1.3032  0.0639 -0.5832
 7612SOL     OW34471   1.237   3.094   8.435 -0.3460  0.2551 -0.2248
 7612SOL    HW134472   1.273   3.179   8.409  1.5233 -0.8737 -1.3219
 7612SOL    HW234473   1.257   3.091   8.528  1.8340 -3.5651 -0.8151
 7613SOL     OW34474   3.037   1.224   0.915  0.2244 -0.0754 -0.2552
 7613SOL    HW134475   3.034   1.287   0.986  1.3852 -0.6471  0.2963
 7613SOL    HW234476   2.993   1.278   0.850  0.2100 -1.9895 -1.8661
 7614SOL     OW34477   3.327   1.027  14.620 -0.2817  0.0247 -0.0142
 7614SOL    HW134478   3.411   0.982  14.604 -0.2713 -0.3786  1.1334
 7614SOL    HW234479   3.283   0.981  14.692  2.2632  0.1641  1.6447
 7615SOL     OW34480   2.244   2.262   5.394 -0.2567  0.2370  0.1743
 7615SOL    HW134481   2.195   2.184   5.419 -1.9260  0.7479 -1.5477
 7615SOL    HW234482   2.214   2.256   5.304  1.1812 -0.8277 -0.2404
 7616SOL     OW34483   1.659   4.690   3.762  0.1056  0.3403 -0.2984
 7616SOL    HW134484   1.657   0.043   3.788 -0.9384 -0.2256  1.5412
 7616SOL    HW234485   1.747   4.668   3.794 -0.1954 -0.6210 -0.1328
 7617SOL     OW34486   0.860   0.720   6.660 -0.3360  0.4782  0.2457
 7617SOL    HW134487   0.875   0.719   6.754 -1.0244  1.6317  0.3707
 7617SOL    HW234488   0.888   0.635   6.625 -0.8409  0.4116  0.0117
 7618SOL     OW34489   3.206   3.942   5.553 -0.0282  0.4237  0.5513
 7618SOL    HW134490   3.131   3.904   5.600 -1.1591  2.2814  0.2603
 7618SOL    HW234491   3.176   4.030   5.534 -1.6326 -0.9168 -3.0775
 7619SOL     OW34492   0.979   0.336   3.839  0.1654 -0.2364  0.2512
 7619SOL    HW134493   0.892   0.329   3.879 -1.2810  1.8979 -2.5100
 7619SOL    HW234494   0.996   0.242   3.832 -0.3730 -0.2127 -1.4174
 7620SOL     OW34495   3.681   1.268   8.291 -0.3734  0.0757  0.1389
 7620SOL    HW134496   3.725   1.268   8.206  1.7880  1.4044  1.2701
 7620SOL    HW234497   3.604   1.317   8.263 -0.3497 -0.4529 -0.8384
 7621SOL     OW34498   2.183   3.936   5.749 -0.7044 -0.3506 -0.5589
 7621SOL    HW134499   2.164   3.912   5.659  1.7941  0.6769 -1.3704
 7621SOL    HW234500   2.163   4.030   5.750  2.0485  0.2290  1.8193
 7622SOL     OW34501   0.796   4.399   5.737  0.2549 -0.2043 -0.8090
 7622SOL    HW134502   0.810   4.492   5.757 -0.7553  0.2573 -2.1601
 7622SOL    HW234503   0.860   4.359   5.795  1.1573  0.4573 -1.3420
 7623SOL     OW34504   0.997   1.689   6.759  0.2113 -0.3634  0.3692
 7623SOL    HW134505   0.912   1.708   6.798  0.3136 -2.7320  1.7056
 7623SOL    HW234506   0.972   1.648   6.676 -3.1619  0.0987  1.1573
 7624SOL     OW34507   2.574   1.925   8.289 -0.2022 -0.2824 -0.7491
 7624SOL    HW134508   2.669   1.933   8.281 -0.2422  0.6471 -0.3212
 7624SOL    HW234509   2.574   1.832   8.310  1.0138  0.0361  0.6498
 7625SOL     OW34510   4.629   1.319   8.730  0.2611  0.0591  0.2835
 7625SOL    HW134511   4.683   1.381   8.681 -0.0978  0.5437  0.4948
 7625SOL    HW234512   4.626   1.260   8.655 -1.9165 -0.6622  0.9441
 7626SOL     OW34513   3.475   3.068  16.878  0.7756  0.1244 -0.0478
 7626SOL    HW134514   3.451   2.981  16.910 -0.3589  0.6821  0.6344
 7626SOL    HW234515   3.388   3.101  16.854  0.0454 -1.0318  1.0196
 7627SOL     OW34516   1.022   1.886   0.463 -0.4438  0.4075  0.0491
 7627SOL    HW134517   1.092   1.895   0.528 -1.1458 -1.4499  1.0764
 7627SOL    HW234518   1.036   1.791   0.462  0.6177  0.5784 -1.0141
 7628SOL     OW34519   4.710   1.889   3.137 -0.2208  0.2265 -0.0612
 7628SOL    HW134520   0.034   1.948   3.178 -1.0335  2.0153 -1.4043
 7628SOL    HW234521   4.738   1.888   3.045  2.8100 -1.3837  0.8727
 7629SOL     OW34522   2.538   0.738   2.027 -0.4439 -0.4174 -0.4235
 7629SOL    HW134523   2.445   0.720   2.045 -0.1441 -0.3316  1.2647
 7629SOL    HW234524   2.549   0.684   1.949  1.9720 -1.4300  0.6013
 7630SOL     OW34525   1.591   0.775   4.976 -0.3700  0.9605 -0.3487
 7630SOL    HW134526   1.629   0.799   5.061 -0.5868  0.1521 -0.0186
 7630SOL    HW234527   1.511   0.827   4.983 -0.0975  1.2128  0.9047
 7631SOL     OW34528   3.269   3.404   4.312 -0.4222 -0.0378 -0.1140
 7631SOL    HW134529   3.330   3.376   4.380 -0.3466 -2.3062 -1.1320
 7631SOL    HW234530   3.331   3.434   4.246  0.9249 -0.6152  0.8952
 7632SOL     OW34531   0.283   0.162   2.236  0.7869  0.1730  0.1507
 7632SOL    HW134532   0.212   0.135   2.177 -0.5959  1.7257  1.1214
 7632SOL    HW234533   0.300   0.255   2.224  2.2030 -0.0238  0.6122
 7633SOL     OW34534   3.096   3.523   4.489  0.1088 -0.3099 -1.0415
 7633SOL    HW134535   3.141   3.477   4.418 -1.2302 -1.0434 -1.4225
 7633SOL    HW234536   3.159   3.592   4.508 -2.1658  1.0652  1.3778
 7634SOL     OW34537   0.867   1.628  12.200 -0.4113  0.5414  0.4649
 7634SOL    HW134538   0.904   1.713  12.224  2.8255 -0.6298 -0.4889
 7634SOL    HW234539   0.938   1.580  12.157 -0.7066 -0.4187  1.0480
 7635SOL     OW34540   4.652   3.435  10.009  0.3301 -0.3469  0.0381
 7635SOL    HW134541   4.565   3.467   9.986  0.4791  0.0915  0.0817
 7635SOL    HW234542   4.692   3.513  10.047 -0.0288  1.0682 -2.5054
 7636SOL     OW34543   1.796   2.682  10.722 -0.4796  0.2473 -0.2672
 7636SOL    HW134544   1.704   2.696  10.701 -0.5426  1.5957  0.9625
 7636SOL    HW234545   1.841   2.753  10.676 -2.0399 -0.3512 -2.7302
 7637SOL     OW34546   4.070   4.197  12.350  0.0186 -0.3357  0.2066
 7637SOL    HW134547   4.091   4.106  12.330  0.0053 -0.7939  2.3467
 7637SOL    HW234548   3.979   4.189  12.321  0.8884 -0.3213 -2.5594
 7638SOL     OW34549   3.053   0.689   2.855 -0.2860  0.5556 -0.6588
 7638SOL    HW134550   3.099   0.761   2.897 -0.2806 -0.1562  0.5332
 7638SOL    HW234551   3.105   0.613   2.881  0.5091  1.1202 -0.5920
 7639SOL     OW34552   2.047   4.077   9.361 -0.0997 -0.3185 -0.5676
 7639SOL    HW134553   2.131   4.048   9.394 -1.6516 -1.1111  2.6671
 7639SOL    HW234554   2.003   4.093   9.444 -0.8722  0.0995 -1.0429
 7640SOL     OW34555   3.232   1.722   4.475  0.5823 -0.0793 -0.3267
 7640SOL    HW134556   3.288   1.753   4.404 -0.9970  3.5657 -0.0257
 7640SOL    HW234557   3.206   1.808   4.510  1.4075  0.3828 -0.8544
 7641SOL     OW34558   2.277   0.750   3.069  0.1337 -0.2145 -0.6688
 7641SOL    HW134559   2.342   0.726   3.004 -0.5498  0.3811 -1.5688
 7641SOL    HW234560   2.196   0.725   3.024  0.8877 -1.1262 -1.5062
 7642SOL     OW34561   1.834   1.061   6.913 -0.4728 -0.3539 -0.2959
 7642SOL    HW134562   1.740   1.049   6.929 -0.5431  0.0461 -0.4203
 7642SOL    HW234563   1.859   1.098   6.998 -1.0139 -4.3897  1.6438
 7643SOL     OW34564   1.301   0.562   6.842 -0.3164 -0.1096  0.0430
 7643SOL    HW134565   1.315   0.474   6.878  1.6469 -0.8936 -2.6337
 7643SOL    HW234566   1.216   0.571   6.885 -0.4098  0.3255 -0.2270
 7644SOL     OW34567   1.545   2.839   6.019  0.9054  0.3555  0.2423
 7644SOL    HW134568   1.470   2.896   6.003  0.5665 -0.5244 -1.2474
 7644SOL    HW234569   1.616   2.885   5.975  0.0506  1.1490 -0.3269
 7645SOL     OW34570   1.300   3.674  14.083 -0.0190  0.6928  0.2250
 7645SOL    HW134571   1.232   3.663  14.148  0.4987 -2.6799  0.2099
 7645SOL    HW234572   1.268   3.631  14.003 -1.9072 -0.2028  1.4732
 7646SOL     OW34573   4.123   4.256   3.588 -0.3494  0.3435 -0.4947
 7646SOL    HW134574   4.097   4.277   3.677  0.0364  0.0311 -0.3079
 7646SOL    HW234575   4.165   4.339   3.565 -2.3715  1.5666  0.2213
 7647SOL     OW34576   2.617   3.149   5.787  0.1023 -0.1711 -0.2205
 7647SOL    HW134577   2.627   3.125   5.879  3.6564  1.2548 -0.2352
 7647SOL    HW234578   2.560   3.077   5.760  1.4894 -1.7914  1.1132
 7648SOL     OW34579   3.235   3.407  10.505 -0.3063  0.0679 -0.6374
 7648SOL    HW134580   3.279   3.398  10.421 -0.3133 -0.5158 -0.5792
 7648SOL    HW234581   3.307   3.449  10.553 -0.2104  1.0380 -1.6278
 7649SOL     OW34582   3.259   0.527   3.518  0.6461  0.3226 -0.0616
 7649SOL    HW134583   3.326   0.589   3.490 -0.3207  1.0257 -0.8242
 7649SOL    HW234584   3.288   0.447   3.474 -1.2552 -1.0126  1.1519
 7650SOL     OW34585   3.123   1.484   4.058 -0.6721 -0.2235 -0.0608
 7650SOL    HW134586   3.150   1.573   4.079 -0.6325 -0.5989  1.4687
 7650SOL    HW234587   3.195   1.438   4.102  0.8014 -0.5942 -2.8624
 7651SOL     OW34588   1.752   0.626   6.243  0.3993 -0.0066 -0.5765
 7651SOL    HW134589   1.714   0.608   6.157  1.6113 -0.8304 -0.9322
 7651SOL    HW234590   1.739   0.720   6.256  1.3336  0.0741 -0.1979
 7652SOL     OW34591   3.165   3.590   5.579  0.2035  0.6053 -0.0276
 7652SOL    HW134592   3.191   3.565   5.491  1.3581 -1.3545  0.8749
 7652SOL    HW234593   3.091   3.529   5.586  1.6501 -0.9849  1.4688
 7653SOL     OW34594   3.083   4.316  14.677  0.4942  0.3027 -0.1872
 7653SOL    HW134595   3.072   4.221  14.668 -1.1018  0.7485 -2.6909
 7653SOL    HW234596   3.045   4.344  14.595 -0.7711  2.2347  1.0612
 7654SOL     OW34597   2.254   0.833  13.274 -0.2436  0.1103 -0.1577
 7654SOL    HW134598   2.280   0.900  13.211  0.1319 -1.5757 -1.7758
 7654SOL    HW234599   2.339   0.845  13.317 -1.1661  1.7995  1.1880
 7655SOL     OW34600   0.623   0.043   7.665 -0.0023  0.0548 -0.0339
 7655SOL    HW134601   0.673   4.726   7.605  0.9391  1.8256 -0.8837
 7655SOL    HW234602   0.543   4.730   7.667 -1.7637  2.7439 -0.5526
 7656SOL     OW34603   2.594   0.881   9.053  0.2594  0.2569  0.3648
 7656SOL    HW134604   2.560   0.844   9.134  1.1549 -1.1594  0.0877
 7656SOL    HW234605   2.515   0.915   9.011  0.3973  1.2914  0.9178
 7657SOL     OW34606   2.153   3.275   5.759  0.2782 -0.4464  0.4168
 7657SOL    HW134607   2.199   3.288   5.676 -0.2545  2.8028  0.6366
 7657SOL    HW234608   2.067   3.241   5.736  0.3777  0.0345 -0.7134
 7658SOL     OW34609   3.536   2.318   1.087  0.2288 -0.1860 -0.0005
 7658SOL    HW134610   3.545   2.340   1.180 -0.0636 -0.6667  0.1400
 7658SOL    HW234611   3.613   2.264   1.068  0.2258 -0.4154  0.6265
 7659SOL     OW34612   1.066   3.693   3.606 -0.3315  0.0896  0.3089
 7659SOL    HW134613   1.037   3.627   3.669  0.1601 -0.5419 -0.1258
 7659SOL    HW234614   0.986   3.714   3.559  0.7884  0.3672 -1.4650
 7660SOL     OW34615   1.947   0.818   2.553  0.2287  0.1981  0.1031
 7660SOL    HW134616   2.025   0.768   2.575  0.1070 -0.3508 -0.7123
 7660SOL    HW234617   1.925   0.862   2.635 -1.0081  0.3852 -0.3195
 7661SOL     OW34618   3.025   3.198  16.235 -0.4970  0.0441  0.8262
 7661SOL    HW134619   3.037   3.116  16.186  0.1543  1.1005 -0.7981
 7661SOL    HW234620   2.999   3.251  16.160 -3.6610 -2.7641 -0.0795
 7662SOL     OW34621   4.633   0.890  13.309 -0.3335  0.0277 -0.2499
 7662SOL    HW134622   4.712   0.836  13.302  0.6753  1.1845  2.1659
 7662SOL    HW234623   4.679   0.968  13.342  1.6431 -0.5156 -1.7346
 7663SOL     OW34624   1.098   1.700  15.123  0.0999  0.4906 -0.5144
 7663SOL    HW134625   1.137   1.782  15.155 -0.6271  0.6494 -0.0195
 7663SOL    HW234626   1.151   1.636  15.170 -0.6842  1.2717  1.4220
 7664SOL     OW34627   3.045   2.448   0.638 -0.5012  0.2820 -0.3438
 7664SOL    HW134628   2.985   2.374   0.654  0.1609  0.4078  2.7809
 7664SOL    HW234629   3.003   2.486   0.561 -1.7018  0.1383  0.2222
 7665SOL     OW34630   2.535   2.905  10.262 -0.1947 -0.0629 -0.1744
 7665SOL    HW134631   2.630   2.923  10.261  0.4106 -3.4139 -3.3246
 7665SOL    HW234632   2.501   2.985  10.301 -0.4000 -0.2325 -0.0079
 7666SOL     OW34633   1.550   4.582  14.383  0.0487  0.1902 -0.6755
 7666SOL    HW134634   1.565   4.670  14.349  1.8535  1.0523  2.3259
 7666SOL    HW234635   1.514   4.533  14.309 -0.1801 -1.3895  0.4827
 7667SOL     OW34636   1.885   3.298   9.622  0.4376  0.4942  1.0789
 7667SOL    HW134637   1.811   3.318   9.565  1.2115 -2.0063 -0.7680
 7667SOL    HW234638   1.875   3.203   9.627 -0.6047  0.6274  1.4058
 7668SOL     OW34639   0.756   4.433  11.644  0.3074  0.0231 -0.4626
 7668SOL    HW134640   0.765   4.447  11.738  0.9815 -2.8568 -0.0978
 7668SOL    HW234641   0.758   4.338  11.635  1.7718 -0.0004  0.0823
 7669SOL     OW34642   3.606   4.350   8.486  0.6367  0.5651 -0.9370
 7669SOL    HW134643   3.677   4.289   8.507  0.0721  0.2917  0.1975
 7669SOL    HW234644   3.531   4.296   8.462  0.3521  2.2615 -3.8214
 7670SOL     OW34645   1.996   3.122  13.854  0.3355 -0.0435 -0.1819
 7670SOL    HW134646   2.004   3.213  13.883  2.1285 -1.2869  3.2835
 7670SOL    HW234647   1.967   3.078  13.933  3.7748 -2.2421 -0.1414
 7671SOL     OW34648   3.813   3.876   4.500  0.0879  0.1486  0.5870
 7671SOL    HW134649   3.752   3.940   4.464  1.9513  1.1384 -0.8281
 7671SOL    HW234650   3.821   3.899   4.592 -0.2478  2.4750  0.0238
 7672SOL     OW34651   0.303   3.597   1.603 -0.2605  0.0248 -0.1783
 7672SOL    HW134652   0.375   3.583   1.664 -0.5645  0.8495  0.3674
 7672SOL    HW234653   0.243   3.641   1.663 -1.2813 -1.5552 -0.0417
 7673SOL     OW34654   3.906   0.648   8.291 -0.3140  0.3886  0.2590
 7673SOL    HW134655   3.939   0.653   8.202 -0.7860 -0.9098  0.0134
 7673SOL    HW234656   3.850   0.570   8.292  0.4090 -0.1447 -1.9463
 7674SOL     OW34657   0.069   4.554   7.025  0.0831 -0.8641 -0.0693
 7674SOL    HW134658   0.152   4.513   7.046 -0.7992 -1.7927  1.5902
 7674SOL    HW234659   0.005   4.535   7.093 -0.8538  1.8848 -0.1487
 7675SOL     OW34660   1.862   2.083   1.757  0.8660 -0.5038  0.3011
 7675SOL    HW134661   1.860   2.060   1.664 -2.0756 -0.2188  0.2949
 7675SOL    HW234662   1.768   2.091   1.772  1.0943 -1.1655  2.1298
 7676SOL     OW34663   2.034   3.434  15.450 -0.2591 -0.3619  0.0177
 7676SOL    HW134664   2.097   3.504  15.466 -1.4432  1.2732 -2.6050
 7676SOL    HW234665   2.052   3.371  15.520 -1.0375  0.4274  0.9281
 7677SOL     OW34666   4.554   0.350   3.727  0.4341  0.1611  0.4501
 7677SOL    HW134667   4.528   0.323   3.639  1.7318  0.3896 -0.0133
 7677SOL    HW234668   4.473   0.343   3.777 -0.7258  3.6932 -0.9096
 7678SOL     OW34669   3.696   2.422  12.703  0.3373  0.4102 -0.6175
 7678SOL    HW134670   3.768   2.375  12.745  0.6475  1.5020  0.0916
 7678SOL    HW234671   3.750   2.437  12.625 -0.8430  1.2925 -1.2499
 7679SOL     OW34672   2.773   0.030   4.608  0.1804 -0.0111 -0.0138
 7679SOL    HW134673   2.702   0.022   4.545  0.4010  0.5478 -0.3333
 7679SOL    HW234674   2.766   4.684   4.651 -0.3927  0.5207  0.9519
 7680SOL     OW34675   1.124   1.260   4.842 -0.1103 -0.3235  0.9990
 7680SOL    HW134676   1.073   1.284   4.764  1.9691 -0.3481 -0.3674
 7680SOL    HW234677   1.125   1.347   4.880  0.4626 -0.2590  0.8322
 7681SOL     OW34678   3.810   1.590   8.308 -0.4234 -0.1959 -0.1812
 7681SOL    HW134679   3.772   1.515   8.354  0.0022 -2.6289 -3.8316
 7681SOL    HW234680   3.792   1.568   8.217 -1.8457 -0.2018  0.0962
 7682SOL     OW34681   1.605   2.842  13.663  0.0082  0.0856 -0.6178
 7682SOL    HW134682   1.591   2.763  13.714  1.2092  0.5004  0.3504
 7682SOL    HW234683   1.700   2.847  13.649 -0.0222 -1.7645 -1.4297
 7683SOL     OW34684   0.614   0.446  15.014  0.1678 -0.0252  0.1692
 7683SOL    HW134685   0.614   0.375  14.951  0.9863 -1.2845  1.5779
 7683SOL    HW234686   0.667   0.510  14.966  1.7556 -0.8874  0.7572
 7684SOL     OW34687   4.361   0.611   5.459  0.0036  0.3304 -0.4210
 7684SOL    HW134688   4.285   0.554   5.451  0.5408 -0.6185  1.3522
 7684SOL    HW234689   4.385   0.621   5.367 -3.3726  2.0293 -1.1279
 7685SOL     OW34690   1.468   3.029   5.480  0.6458 -0.0833 -0.0181
 7685SOL    HW134691   1.539   3.080   5.439  1.4754 -1.9113 -0.8715
 7685SOL    HW234692   1.496   2.941   5.506  0.5640 -0.6249 -1.7442
 7686SOL     OW34693   1.477   3.353   7.828 -0.7283  0.1290  0.1083
 7686SOL    HW134694   1.395   3.365   7.781  0.5792  1.3748 -1.8753
 7686SOL    HW234695   1.487   3.258   7.840 -2.6630 -0.1945 -0.8476
 7687SOL     OW34696   2.543   3.728   3.030  0.1936 -0.4092 -0.4081
 7687SOL    HW134697   2.454   3.750   3.057  0.9267  1.8162  0.2215
 7687SOL    HW234698   2.589   3.762   3.107 -0.7471 -0.3913  0.1378
 7688SOL     OW34699   1.148   0.280   7.298  0.5049  0.2405  0.2378
 7688SOL    HW134700   1.126   0.258   7.389  0.5910  1.0631  0.4591
 7688SOL    HW234701   1.076   0.341   7.280 -0.8521 -1.2447  0.5731
 7689SOL     OW34702   4.458   3.241   0.111  0.2210  0.4766 -0.1278
 7689SOL    HW134703   4.427   3.305   0.047 -0.4728 -0.6076 -0.8622
 7689SOL    HW234704   4.550   3.263   0.126  0.2130  1.4402 -1.4652
 7690SOL     OW34705   3.582   4.581   4.415 -1.0132  0.3300 -0.0557
 7690SOL    HW134706   3.492   4.578   4.383 -0.9899 -1.0270  0.0040
 7690SOL    HW234707   3.614   4.662   4.374 -2.2771  1.8343  1.9157
 7691SOL     OW34708   1.886   1.753   4.608  0.5969  0.3325  0.3188
 7691SOL    HW134709   1.978   1.777   4.603  0.6108  0.3217  0.5455
 7691SOL    HW234710   1.855   1.830   4.655 -0.1176 -0.6398  1.4261
 7692SOL     OW34711   4.491   4.058   9.372 -0.4067  0.6431  0.3336
 7692SOL    HW134712   4.489   4.055   9.468  1.1630 -2.8374  0.2663
 7692SOL    HW234713   4.439   3.980   9.352 -0.5414  0.3184  1.9464
 7693SOL     OW34714   2.980   2.190  13.482  0.9429  0.1152 -0.2351
 7693SOL    HW134715   2.902   2.217  13.530  1.0174 -0.9871  0.5055
 7693SOL    HW234716   2.940   2.154  13.402 -0.8646 -1.4362  1.3686
 7694SOL     OW34717   2.580   3.641   1.058  0.6733 -0.3423  1.0055
 7694SOL    HW134718   2.595   3.637   0.963  0.3194  2.4633  0.8347
 7694SOL    HW234719   2.625   3.723   1.078  0.5205  0.3381 -1.4082
 7695SOL     OW34720   4.275   3.436   6.010  0.1988  0.0342 -0.4364
 7695SOL    HW134721   4.302   3.361   5.958 -1.8138 -1.6346  0.9411
 7695SOL    HW234722   4.293   3.516   5.960  0.1447 -1.4388 -2.7553
 7696SOL     OW34723   4.020   1.110   5.224  0.5697 -1.2761 -0.0108
 7696SOL    HW134724   3.960   1.098   5.297  1.4190 -1.7038  0.6210
 7696SOL    HW234725   4.095   1.152   5.266  0.4365 -1.3501  0.3002
 7697SOL     OW34726   4.167   4.485   3.417 -0.0665 -0.0631 -1.2827
 7697SOL    HW134727   4.222   4.553   3.456 -0.9193 -0.4653  0.6279
 7697SOL    HW234728   4.230   4.418   3.393 -1.3881 -1.2699 -1.3898
 7698SOL     OW34729   0.032   0.878   6.563 -0.1553 -0.0690 -0.2084
 7698SOL    HW134730   0.043   0.950   6.500 -1.1210 -1.0647 -1.5187
 7698SOL    HW234731   0.025   0.806   6.501  2.3804 -0.5203  0.0161
 7699SOL     OW34732   2.348   1.062   1.175 -0.1587 -0.2561  0.3253
 7699SOL    HW134733   2.405   0.989   1.152  0.5446  0.0822  1.0355
 7699SOL    HW234734   2.267   1.043   1.127 -0.8421  0.4430  1.2017
 7700SOL     OW34735   1.886   2.105   2.521 -0.0248 -0.4061 -0.1229
 7700SOL    HW134736   1.832   2.041   2.475 -0.3138 -1.0005  1.0193
 7700SOL    HW234737   1.973   2.075   2.495  0.6701  0.2155  1.4356
 7701SOL     OW34738   0.390   0.961   4.464  0.0399  0.3511  0.8393
 7701SOL    HW134739   0.348   1.004   4.538  0.1344 -0.6021  1.4599
 7701SOL    HW234740   0.310   0.929   4.423  0.9720  0.1133 -0.8003
 7702SOL     OW34741   1.863   1.752   9.780 -1.0333 -0.4576  0.1251
 7702SOL    HW134742   1.837   1.660   9.784  1.1861 -1.1496 -1.6377
 7702SOL    HW234743   1.834   1.791   9.698  1.0318 -0.9785 -0.8519
 7703SOL     OW34744   3.977   3.529   1.785 -0.4373 -0.0807 -0.7043
 7703SOL    HW134745   4.070   3.536   1.764 -0.5503  1.1965 -0.7533
 7703SOL    HW234746   3.946   3.616   1.760 -1.5330 -0.1010  0.5645
 7704SOL     OW34747   3.343   1.957   7.735 -0.2993  0.5585 -0.4138
 7704SOL    HW134748   3.304   1.932   7.651 -0.2931 -0.3964 -0.1376
 7704SOL    HW234749   3.384   2.036   7.701  0.9386  0.5958  1.1620
 7705SOL     OW34750   4.334   2.284   5.978  0.5302 -0.3252  0.7206
 7705SOL    HW134751   4.295   2.208   6.021  1.4845 -0.0458  2.0912
 7705SOL    HW234752   4.421   2.284   6.018  1.4241  1.1987 -1.2264
 7706SOL     OW34753   1.155   2.389   5.591 -0.0906 -0.4419 -0.0952
 7706SOL    HW134754   1.096   2.411   5.663  2.0370  3.3551  0.4893
 7706SOL    HW234755   1.112   2.430   5.516 -1.2614 -2.8923 -0.7640
 7707SOL     OW34756   3.601   3.420  17.675  0.4373  0.4054 -0.4927
 7707SOL    HW134757   3.532   3.486  17.686 -1.7154 -2.0582  0.6609
 7707SOL    HW234758   3.558   3.347  17.718  2.7989  0.6631  2.3339
 7708SOL     OW34759   2.805   2.934   4.799  0.1183  0.1554 -0.6116
 7708SOL    HW134760   2.758   3.013   4.773  0.1998  0.0809 -0.9899
 7708SOL    HW234761   2.800   2.886   4.716 -0.6331 -0.7159 -0.0743
 7709SOL     OW34762   1.014   3.702   2.961  0.0111  0.0287  0.3981
 7709SOL    HW134763   1.020   3.790   2.998 -1.3640  0.2896 -0.0146
 7709SOL    HW234764   1.014   3.714   2.866 -1.3756 -1.3109  0.2321
 7710SOL     OW34765   3.383   1.339   4.159 -0.1097  0.7277  0.2073
 7710SOL    HW134766   3.417   1.343   4.249 -0.4911  1.5377  0.3151
 7710SOL    HW234767   3.433   1.413   4.126  0.8390  0.4406  1.0062
 7711SOL     OW34768   0.059   0.420   3.691 -0.0227 -0.5067 -0.5371
 7711SOL    HW134769   0.069   0.378   3.605 -0.9198  0.2088 -0.9966
 7711SOL    HW234770   4.705   0.410   3.713  0.3656 -2.5918  0.0857
 7712SOL     OW34771   1.905   0.520   5.242 -0.0411  0.4198 -0.0706
 7712SOL    HW134772   1.868   0.596   5.287 -0.2307  0.1456  0.2351
 7712SOL    HW234773   1.985   0.567   5.218 -0.8192  1.6293 -0.2642
 7713SOL     OW34774   4.429   1.597   6.343 -0.4511 -0.4928 -0.1797
 7713SOL    HW134775   4.357   1.541   6.373  0.2749 -1.1124  0.3915
 7713SOL    HW234776   4.438   1.553   6.258  0.2733  0.8606 -0.8141
 7714SOL     OW34777   4.001   2.306   6.449  0.1187  0.1134  0.3223
 7714SOL    HW134778   3.997   2.277   6.540 -1.4885 -0.0423  0.2138
 7714SOL    HW234779   3.934   2.374   6.458  0.7974  1.0928 -1.9667
 7715SOL     OW34780   0.996   0.551   8.829  0.1226 -0.2515 -0.0454
 7715SOL    HW134781   0.965   0.602   8.904  0.1777  0.8274 -0.7575
 7715SOL    HW234782   1.034   0.619   8.774 -1.7322 -0.1955 -1.2801
 7716SOL     OW34783   2.999   1.359   1.273 -0.6570  0.2874  0.0966
 7716SOL    HW134784   3.072   1.420   1.287 -0.0638 -0.9465  2.4165
 7716SOL    HW234785   2.952   1.372   1.355 -0.5152  0.2330  0.1860
 7717SOL     OW34786   1.595   0.939   5.583 -0.8206  0.3143  0.0140
 7717SOL    HW134787   1.676   0.989   5.578  0.4427 -1.6048  1.5007
 7717SOL    HW234788   1.625   0.853   5.613 -1.0814  0.4160  0.5628
 7718SOL     OW34789   4.719   0.813   9.755  0.1950 -0.3983  0.9346
 7718SOL    HW134790   0.061   0.774   9.788  0.4122 -2.2204 -1.7063
 7718SOL    HW234791   0.007   0.905   9.754 -1.4668  0.0829 -0.5193
 7719SOL     OW34792   4.160   2.000  14.465  0.4385 -0.4620  0.4965
 7719SOL    HW134793   4.091   2.006  14.531 -0.1935  0.0927 -0.2088
 7719SOL    HW234794   4.142   2.072  14.405  1.3126  1.1576  2.1628
 7720SOL     OW34795   3.159   3.953   1.367 -0.3077 -0.9075  0.8004
 7720SOL    HW134796   3.127   3.871   1.330  0.0469 -1.6053  2.0723
 7720SOL    HW234797   3.121   4.018   1.307  0.0027 -2.3171 -0.9466
 7721SOL     OW34798   3.780   0.220   6.536 -0.1886  0.4426 -0.0289
 7721SOL    HW134799   3.845   0.262   6.592  0.4658 -0.7406  0.1011
 7721SOL    HW234800   3.725   0.296   6.519  1.2008  1.6157  0.7349
 7722SOL     OW34801   2.833   2.401   1.204 -0.1474 -0.0888  0.0400
 7722SOL    HW134802   2.835   2.388   1.299  1.8242  0.0695  0.0299
 7722SOL    HW234803   2.785   2.325   1.174  0.0459 -0.5027  0.7818
 7723SOL     OW34804   1.112   1.231   4.106  0.3183  0.2406  0.0739
 7723SOL    HW134805   1.024   1.256   4.079 -0.5140 -3.6208 -0.8688
 7723SOL    HW234806   1.121   1.141   4.072 -0.5402 -0.1312  0.8360
 7724SOL     OW34807   3.312   3.569   1.340 -0.6024 -0.0329 -0.0100
 7724SOL    HW134808   3.346   3.489   1.299 -0.6278  0.7308 -1.5077
 7724SOL    HW234809   3.237   3.531   1.386  0.3499 -0.4056  1.2468
 7725SOL     OW34810   0.900   3.268   1.893  0.0709 -0.3095 -0.1140
 7725SOL    HW134811   0.843   3.290   1.819 -0.0363 -0.9469 -0.2158
 7725SOL    HW234812   0.939   3.355   1.902  1.6557 -1.2963  2.7320
 7726SOL     OW34813   2.308   1.261  12.713  0.2854  0.3983  0.0506
 7726SOL    HW134814   2.315   1.330  12.778  0.5486 -0.3842  0.8605
 7726SOL    HW234815   2.297   1.325  12.643  3.0557  0.5116 -0.2829
 7727SOL     OW34816   3.860   2.804   9.192 -0.0315  0.1833 -0.8723
 7727SOL    HW134817   3.913   2.821   9.114 -1.9945  0.9795 -2.0400
 7727SOL    HW234818   3.896   2.718   9.213 -3.2193 -0.6988  0.8313
 7728SOL     OW34819   3.739   2.534   8.924  0.3381  0.1194 -0.2514
 7728SOL    HW134820   3.683   2.584   8.864 -1.3109  0.3029  1.4476
 7728SOL    HW234821   3.704   2.568   9.007 -0.8315 -1.7421  0.0297
 7729SOL     OW34822   2.435   4.436   3.149  0.4318 -0.2834  0.1629
 7729SOL    HW134823   2.500   4.506   3.159  0.3628 -0.2899  0.6615
 7729SOL    HW234824   2.357   4.485   3.175 -0.1024 -1.5531  0.9500
 7730SOL     OW34825   0.134   2.512   6.764 -0.0582 -0.2542  0.4277
 7730SOL    HW134826   0.057   2.486   6.814  0.0873 -1.7223 -0.1081
 7730SOL    HW234827   0.151   2.435   6.708  0.9956 -0.4346  1.0042
 7731SOL     OW34828   4.617   4.716   5.434  0.2959  0.2358  0.1640
 7731SOL    HW134829   4.590   4.638   5.483 -2.2275  1.4789  0.7693
 7731SOL    HW234830   4.674   4.671   5.371 -0.4892 -0.6544  0.0748
 7732SOL     OW34831   1.018   0.805  16.072 -0.1595  0.0459 -0.4497
 7732SOL    HW134832   0.990   0.897  16.074 -3.5682 -1.0180  1.4715
 7732SOL    HW234833   1.020   0.788  15.978  0.1496 -1.6856 -0.1367
 7733SOL     OW34834   4.163   2.733   1.948 -0.1472 -0.1085 -0.6281
 7733SOL    HW134835   4.183   2.640   1.938 -0.9402 -0.2320 -1.0626
 7733SOL    HW234836   4.250   2.771   1.942 -0.0347 -0.3934 -0.8107
 7734SOL     OW34837   0.512   0.744   3.686 -0.2887 -0.0562 -0.3522
 7734SOL    HW134838   0.471   0.775   3.605 -1.6217  1.2126  0.8030
 7734SOL    HW234839   0.493   0.819   3.743  2.0804 -0.1402  0.5217
 7735SOL     OW34840   3.898   0.418   8.064 -0.3707 -0.0040  0.0325
 7735SOL    HW134841   3.823   0.405   8.123 -2.1136 -4.0982 -3.1058
 7735SOL    HW234842   3.964   0.415   8.133  0.3292  1.4573 -0.5773
 7736SOL     OW34843   2.144   2.169   5.763  0.1707 -0.0202 -0.1171
 7736SOL    HW134844   2.209   2.239   5.757  0.1341  0.0770  0.6121
 7736SOL    HW234845   2.061   2.212   5.784  1.0030  0.3204  2.5442
 7737SOL     OW34846   0.539   1.564   1.085  0.1552 -0.6479 -0.6401
 7737SOL    HW134847   0.573   1.616   1.158 -1.4502 -2.0366  1.0990
 7737SOL    HW234848   0.468   1.618   1.050  0.9055  0.9631  0.3137
 7738SOL     OW34849   0.776   3.927   8.443  0.4003  0.2127  0.0862
 7738SOL    HW134850   0.740   3.987   8.378 -1.4069 -1.3541 -0.3623
 7738SOL    HW234851   0.855   3.897   8.398 -0.0844 -2.2163  0.8433
 7739SOL     OW34852   2.940   3.595  16.726  0.2038 -0.1060 -0.1040
 7739SOL    HW134853   2.915   3.677  16.768 -0.2220 -0.6091  0.6215
 7739SOL    HW234854   2.991   3.612  16.647  0.4845 -0.7412 -0.0531
 7740SOL     OW34855   1.001   3.029   8.882  0.6431 -0.3077 -0.2736
 7740SOL    HW134856   1.029   3.053   8.793  0.7470 -1.2905 -0.5022
 7740SOL    HW234857   0.985   2.935   8.883 -0.1438 -0.1738 -0.6619
 7741SOL     OW34858   0.614   1.656   1.841 -0.2047  0.1476  0.2661
 7741SOL    HW134859   0.674   1.581   1.833 -2.0445 -1.1390 -1.4970
 7741SOL    HW234860   0.542   1.626   1.786 -0.0023 -1.4678  0.8834
 7742SOL     OW34861   1.439   3.384  14.164 -0.3232  0.6102  0.4071
 7742SOL    HW134862   1.483   3.453  14.214 -0.4319  0.6219  0.4850
 7742SOL    HW234863   1.485   3.390  14.080  1.6696  2.0722  1.6009
 7743SOL     OW34864   0.618   1.379   7.624 -0.1898  1.1056  0.2850
 7743SOL    HW134865   0.659   1.325   7.692 -1.8045  0.2339  0.5655
 7743SOL    HW234866   0.696   1.417   7.585  0.8918 -0.5678  0.7729
 7744SOL     OW34867   1.955   0.560  15.345 -0.7109 -0.3115 -0.6006
 7744SOL    HW134868   1.990   0.622  15.410 -0.0926  0.4301 -1.6379
 7744SOL    HW234869   1.871   0.602  15.326 -0.8763 -0.2921  0.1620
 7745SOL     OW34870   2.874   2.091  12.591 -0.1671  0.7171 -0.1715
 7745SOL    HW134871   2.812   2.158  12.619 -0.7620  0.4029 -0.7507
 7745SOL    HW234872   2.931   2.151  12.542  0.1252 -0.0261 -0.7341
 7746SOL     OW34873   4.635   2.900  10.344  0.2379  0.3791 -0.1586
 7746SOL    HW134874   4.682   2.950  10.277  0.1998  0.8752  0.1859
 7746SOL    HW234875   4.649   2.962  10.416  1.6267 -1.9810  1.6320
 7747SOL     OW34876   2.689   2.029   7.570  0.4061  0.3635  0.2647
 7747SOL    HW134877   2.773   1.998   7.535 -0.1559  1.3581 -2.0315
 7747SOL    HW234878   2.649   1.945   7.592  0.5964  0.3465  0.5422
 7748SOL     OW34879   3.939   1.288  11.450 -0.1875  0.2248  0.3450
 7748SOL    HW134880   3.862   1.323  11.494 -0.2014  0.5358  0.0729
 7748SOL    HW234881   3.976   1.220  11.508 -1.3976  0.1984  1.0734
 7749SOL     OW34882   4.738   3.568  13.178 -0.0018 -0.0281 -0.5501
 7749SOL    HW134883   4.721   3.586  13.271  0.3354 -1.8769 -0.1256
 7749SOL    HW234884   4.654   3.530  13.155  0.1698 -0.8805  0.2073
 7750SOL     OW34885   0.674   2.290   8.965 -0.0975 -0.4903 -0.3399
 7750SOL    HW134886   0.650   2.230   8.894 -1.4951  0.0917 -0.3734
 7750SOL    HW234887   0.752   2.325   8.923 -0.0989 -0.2573 -0.1503
 7751SOL     OW34888   1.382   1.809  15.137 -0.3084  0.5277  0.1791
 7751SOL    HW134889   1.404   1.846  15.222 -1.5902  0.7663  0.3916
 7751SOL    HW234890   1.406   1.878  15.075 -0.1937  0.2760 -0.0584
 7752SOL     OW34891   0.177   4.569   5.977  0.2598 -0.7658 -0.6885
 7752SOL    HW134892   0.170   4.547   5.885 -0.0241 -3.0081 -0.1276
 7752SOL    HW234893   0.138   4.656   5.979  1.0885 -0.3818 -1.4897
 7753SOL     OW34894   3.325   1.205   6.232 -0.4408 -0.1756  0.2915
 7753SOL    HW134895   3.363   1.149   6.164  1.0116 -1.7325  2.4296
 7753SOL    HW234896   3.402   1.214   6.287  0.9512 -1.5201 -1.4207
 7754SOL     OW34897   1.748   0.493   7.217 -0.0149 -0.2736 -0.0145
 7754SOL    HW134898   1.709   0.422   7.168 -0.0319 -0.2313 -0.0621
 7754SOL    HW234899   1.670   0.547   7.232 -0.7859 -1.0665 -1.2303
 7755SOL     OW34900   3.407   3.841  12.744 -0.0167 -0.8427  0.6721
 7755SOL    HW134901   3.489   3.825  12.697 -0.4248  0.9437 -0.6507
 7755SOL    HW234902   3.414   3.779  12.817  0.4630 -2.8646 -1.0854
 7756SOL     OW34903   2.271   2.601   3.824  0.3167 -0.3057 -0.2755
 7756SOL    HW134904   2.183   2.638   3.824  0.2719 -0.4072 -0.4755
 7756SOL    HW234905   2.299   2.635   3.739 -0.8806 -3.4461 -1.9676
 7757SOL     OW34906   4.614   1.204   8.498 -0.4423  0.3274  0.0107
 7757SOL    HW134907   4.670   1.175   8.426 -1.1562 -2.2222  0.4771
 7757SOL    HW234908   4.536   1.155   8.475  0.0820 -0.7674  0.5805
 7758SOL     OW34909   1.352   0.169  13.822  0.0850  0.0944 -0.2763
 7758SOL    HW134910   1.266   0.162  13.864  0.6602  1.5116  1.1516
 7758SOL    HW234911   1.336   0.114  13.745  1.0529 -0.7126  0.1064
 7759SOL     OW34912   3.992   1.689  10.521 -0.3882  0.1132 -0.5195
 7759SOL    HW134913   4.012   1.710  10.430 -1.9558  2.3098 -0.3479
 7759SOL    HW234914   4.056   1.620  10.538 -0.0977  0.7835  1.1376
 7760SOL     OW34915   2.982   3.611   2.525  0.4553 -0.4371  0.4940
 7760SOL    HW134916   2.912   3.658   2.480 -1.0408 -1.6609  1.5285
 7760SOL    HW234917   3.009   3.552   2.454 -2.6804 -3.1725  1.5797
 7761SOL     OW34918   2.673   1.191   3.852 -0.0301 -0.3141  0.4240
 7761SOL    HW134919   2.726   1.137   3.911  2.0032  1.3361  0.1187
 7761SOL    HW234920   2.587   1.198   3.893  0.0535  0.4712  0.4715
 7762SOL     OW34921   1.937   3.554  11.412 -0.1194  0.4529  0.1067
 7762SOL    HW134922   2.018   3.527  11.369 -0.0360 -0.6834  0.9635
 7762SOL    HW234923   1.948   3.649  11.412  0.9547  0.3285 -1.0548
 7763SOL     OW34924   1.073   3.480   1.860  0.0169 -0.3990 -0.6260
 7763SOL    HW134925   1.069   3.556   1.802 -2.6809  0.1973  0.3211
 7763SOL    HW234926   1.104   3.519   1.941 -1.3848 -2.5447  0.9536
 7764SOL     OW34927   1.100   0.946  15.026 -0.1862 -0.6174 -0.0408
 7764SOL    HW134928   1.185   0.969  15.063  0.0001 -2.4155  0.6327
 7764SOL    HW234929   1.081   1.025  14.975 -1.0083  0.1178  1.4210
 7765SOL     OW34930   2.923   2.395  15.732  0.0192  0.3251  0.3443
 7765SOL    HW134931   2.940   2.301  15.739 -1.3480  0.0669  0.1254
 7765SOL    HW234932   2.969   2.429  15.809  0.8289  0.1812 -0.0708
 7766SOL     OW34933   1.347   0.031  13.549  0.2385  0.0954 -0.2992
 7766SOL    HW134934   1.307   4.692  13.511  0.4904 -0.5608  0.7814
 7766SOL    HW234935   1.361   0.080  13.468 -2.2074  2.5758  0.7624
 7767SOL     OW34936   0.778   2.785   3.990  0.7522  0.2226  0.3112
 7767SOL    HW134937   0.850   2.804   3.931  1.6750  0.2211  1.4238
 7767SOL    HW234938   0.710   2.817   3.931  2.3093 -2.0181 -2.7163
 7768SOL     OW34939   0.997   4.043  11.263 -0.3490 -0.5152 -0.2330
 7768SOL    HW134940   1.002   4.040  11.358  3.9814  1.0184 -0.4399
 7768SOL    HW234941   1.049   4.119  11.237  0.1239 -1.0391 -0.8121
 7769SOL     OW34942   0.511   2.525   1.168  0.3524  0.5799 -0.1117
 7769SOL    HW134943   0.600   2.491   1.157 -0.1591 -0.0179 -2.3456
 7769SOL    HW234944   0.458   2.450   1.143 -0.4148  0.8710  0.6894
 7770SOL     OW34945   4.661   4.065  10.361  0.2549  0.0704 -0.0233
 7770SOL    HW134946   4.738   4.009  10.363  0.8659  0.9751  1.9591
 7770SOL    HW234947   4.694   4.137  10.307 -1.3683 -0.3500 -1.5654
 7771SOL     OW34948   1.938   1.268   6.604  0.2694  0.0668  0.1994
 7771SOL    HW134949   1.852   1.226   6.601  0.4435 -0.3047  0.4819
 7771SOL    HW234950   1.979   1.192   6.646  3.7516  0.6879 -2.1193
 7772SOL     OW34951   1.720   3.709   1.217 -0.2936  0.4918  0.1535
 7772SOL    HW134952   1.680   3.678   1.298  1.4046  1.1132  1.2268
 7772SOL    HW234953   1.692   3.801   1.215  2.1905  1.2703  1.1800
 7773SOL     OW34954   4.447   3.850  14.139 -0.5662 -0.1774  0.7940
 7773SOL    HW134955   4.421   3.888  14.223  0.8473 -2.6512  2.3348
 7773SOL    HW234956   4.390   3.773  14.130  0.6451 -0.9072 -0.6555
 7774SOL     OW34957   1.709   4.593   0.516  0.2802  0.2347 -0.0069
 7774SOL    HW134958   1.783   4.629   0.469  0.2061 -0.0330 -0.3252
 7774SOL    HW234959   1.679   4.673   0.559  1.1158  0.0582  0.9153
 7775SOL     OW34960   0.478   0.473   1.213 -0.2729  0.5911  0.6301
 7775SOL    HW134961   0.454   0.413   1.143 -0.9230  2.9505 -1.1910
 7775SOL    HW234962   0.573   0.459   1.219 -0.3596 -0.0670  0.4737
 7776SOL     OW34963   1.118   0.482  14.224  0.2379 -0.9179 -0.7916
 7776SOL    HW134964   1.075   0.564  14.248  2.0495 -0.2885  0.2865
 7776SOL    HW234965   1.047   0.444  14.173 -1.5639 -0.3131  1.2666
 7777SOL     OW34966   0.708   2.531   6.900  0.2534  0.2376  0.4820
 7777SOL    HW134967   0.724   2.621   6.873  0.2031  0.7215  2.0691
 7777SOL    HW234968   0.629   2.522   6.848 -0.0748  2.2907  0.6232
 7778SOL     OW34969   1.303   0.873  17.081  0.2884  0.0859 -0.1869
 7778SOL    HW134970   1.348   0.809  17.137 -0.1983  1.2929  1.6041
 7778SOL    HW234971   1.374   0.918  17.036  0.6111 -1.2864 -1.0401
 7779SOL     OW34972   4.393   2.557   9.771  0.1013  0.4399  0.1580
 7779SOL    HW134973   4.403   2.484   9.833 -0.0798 -0.0832 -0.4342
 7779SOL    HW234974   4.322   2.530   9.712  0.2168 -1.1164  0.7282
 7780SOL     OW34975   1.878   2.030   1.489  0.0336 -0.1874 -0.9463
 7780SOL    HW134976   1.836   1.946   1.469  1.7550 -2.0428  3.4651
 7780SOL    HW234977   1.866   2.075   1.405  0.3416  0.5109 -0.6122
 7781SOL     OW34978   3.648   3.425  14.286  0.1649 -0.3463  0.3592
 7781SOL    HW134979   3.557   3.433  14.258  0.7044  0.7408 -1.0613
 7781SOL    HW234980   3.640   3.357  14.353  1.3506 -3.6231 -2.7347
 7782SOL     OW34981   2.933   4.494   3.066  0.2119  0.3430 -0.1794
 7782SOL    HW134982   2.875   4.521   2.994 -1.9562 -1.8093  0.7364
 7782SOL    HW234983   2.909   4.402   3.076 -0.6533  0.5660 -0.1661
 7783SOL     OW34984   3.773   1.062  10.763 -0.5707  0.1889  0.1938
 7783SOL    HW134985   3.827   1.139  10.745  0.7946 -0.6679  0.6074
 7783SOL    HW234986   3.756   1.077  10.857 -1.8483  2.3440 -0.3627
 7784SOL     OW34987   2.572   0.222  13.967 -0.3396 -0.0093  0.0650
 7784SOL    HW134988   2.564   0.316  13.985 -2.3591 -0.3121  0.7664
 7784SOL    HW234989   2.600   0.196  14.055 -2.8573  1.2413  1.2580
 7785SOL     OW34990   0.268   0.924   0.035  0.5564  0.3766  0.4005
 7785SOL    HW134991   0.282   0.871  17.711 -0.3014 -0.1088  0.5711
 7785SOL    HW234992   0.253   1.007  17.744  1.7461  0.5324  0.3071
 7786SOL     OW34993   2.183   2.740   8.478 -0.5147  0.0381 -0.0210
 7786SOL    HW134994   2.244   2.739   8.551 -0.3960  2.2472 -0.0946
 7786SOL    HW234995   2.182   2.647   8.456  1.6736 -0.2410  1.0904
 7787SOL     OW34996   1.744   3.235  13.603  0.7548 -0.5712  0.1560
 7787SOL    HW134997   1.735   3.312  13.547 -0.9838 -0.9788 -0.1242
 7787SOL    HW234998   1.762   3.273  13.689 -0.9185  0.9163 -0.1413
 7788SOL     OW34999   1.184   1.697   9.770  0.1091 -0.3486  0.3922
 7788SOL    HW135000   1.133   1.778   9.777 -1.7977 -1.6513  1.7042
 7788SOL    HW235001   1.272   1.720   9.742 -0.4688  0.1953 -1.0173
 7789SOL     OW35002   1.740   0.543  10.037  0.0605  0.0597  0.0490
 7789SOL    HW135003   1.770   0.582   9.955 -2.6510  1.1038 -0.4117
 7789SOL    HW235004   1.793   0.593  10.100 -1.5493  1.4955  0.2462
 7790SOL     OW35005   4.282   2.384   6.482  0.6939  0.1465  0.0196
 7790SOL    HW135006   4.200   2.353   6.443  0.2639 -0.4628  1.4061
 7790SOL    HW235007   4.303   2.320   6.550 -3.0652  0.0588  1.0887
 7791SOL     OW35008   4.278   3.832  13.249 -0.1305 -0.1457  0.1114
 7791SOL    HW135009   4.212   3.772  13.284  0.2514  1.7940  4.1212
 7791SOL    HW235010   4.236   3.915  13.266 -0.3107 -0.6056  1.8464
 7792SOL     OW35011   0.527   4.728  14.135  0.1717  0.5303  0.1549
 7792SOL    HW135012   0.545   4.654  14.193 -1.5028 -0.0987 -0.1289
 7792SOL    HW235013   0.533   0.060  14.199  1.2237 -0.3821  1.0827
 7793SOL     OW35014   0.087   4.348   6.087 -0.4117  0.1968  0.2655
 7793SOL    HW135015   0.026   4.407   6.132 -2.3665  0.5212 -2.7969
 7793SOL    HW235016   0.128   4.421   6.040  1.8926 -1.0129  0.4344
 7794SOL     OW35017   4.387   3.002   3.667 -0.5279  0.2198 -0.7240
 7794SOL    HW135018   4.295   2.980   3.687 -0.1968 -1.0094 -0.5352
 7794SOL    HW235019   4.397   3.072   3.732  2.2216 -0.9864  0.1503
 7795SOL     OW35020   3.007   1.318   7.058 -0.4513 -0.0405  0.0388
 7795SOL    HW135021   2.932   1.378   7.057 -1.0896 -0.8425 -1.3433
 7795SOL    HW235022   2.975   1.238   7.099 -0.6129 -0.1973 -0.3854
 7796SOL     OW35023   3.784   2.420  13.634 -0.8717 -0.0587 -0.2220
 7796SOL    HW135024   3.832   2.337  13.639  0.2164  0.4911 -1.2800
 7796SOL    HW235025   3.768   2.431  13.540  0.1206  0.4544 -0.3349
 7797SOL     OW35026   3.566   0.517   7.035 -0.0221 -0.1594 -0.0064
 7797SOL    HW135027   3.515   0.450   6.989  1.0004 -0.8269 -0.1584
 7797SOL    HW235028   3.536   0.598   6.993 -2.8333 -1.4855 -0.5663
 7798SOL     OW35029   1.878   4.716   3.072  0.4187  0.4186 -0.5858
 7798SOL    HW135030   1.863   4.622   3.083 -0.5684  0.5113 -1.2048
 7798SOL    HW235031   1.922   4.712   2.987  1.3159 -1.7001 -0.0493
 7799SOL     OW35032   1.912   1.113   2.479  0.7214 -0.0446 -0.4189
 7799SOL    HW135033   1.822   1.125   2.509  1.5284  0.4048  1.7742
 7799SOL    HW235034   1.899   1.031   2.432 -1.1884  0.0441 -0.0646
 7800SOL     OW35035   4.407   1.190  13.283  0.5693  0.3385  0.1554
 7800SOL    HW135036   4.450   1.274  13.302  1.1367  0.3562 -1.1645
 7800SOL    HW235037   4.414   1.152  13.370 -2.3931 -0.4106  0.0777
 7801SOL     OW35038   4.225   0.877   3.490 -0.0466  0.4166  0.0684
 7801SOL    HW135039   4.273   0.952   3.525  1.1836  0.5599 -1.9388
 7801SOL    HW235040   4.294   0.838   3.437 -2.0934 -0.5148 -1.9579
 7802SOL     OW35041   4.681   4.460  17.731  0.6402  0.6574  0.6211
 7802SOL    HW135042   4.717   4.406  17.661  1.0429  2.3495 -0.4782
 7802SOL    HW235043   4.591   4.447  17.701  0.9707  0.8537 -0.4531
 7803SOL     OW35044   2.642   0.124   6.646 -0.1939  0.4302 -0.3090
 7803SOL    HW135045   2.586   0.178   6.702  1.1358  1.2684  0.2099
 7803SOL    HW235046   2.670   0.067   6.717  0.5615 -1.5717 -2.2288
 7804SOL     OW35047   4.738   0.857   8.431  0.1065  0.5281 -0.0036
 7804SOL    HW135048   4.707   0.931   8.378  0.4281 -0.2028 -1.2144
 7804SOL    HW235049   4.702   0.781   8.384  1.5084  0.5140 -1.0582
 7805SOL     OW35050   4.434   4.090  15.197 -0.1308 -0.3714 -0.0520
 7805SOL    HW135051   4.343   4.063  15.207 -0.4954  1.0068  0.3557
 7805SOL    HW235052   4.461   4.037  15.122 -2.4892 -0.2571 -0.9720
 7806SOL     OW35053   1.003   0.948   2.017  0.0484 -0.0219  0.2948
 7806SOL    HW135054   1.009   0.964   1.923  0.8436  0.9839  0.5090
 7806SOL    HW235055   0.984   1.039   2.042 -1.6037 -0.5337  0.9153
 7807SOL     OW35056   2.006   0.427  15.109 -0.2918 -0.4087 -0.0542
 7807SOL    HW135057   2.037   0.340  15.134 -2.9590 -1.1744  0.4830
 7807SOL    HW235058   1.965   0.453  15.191 -0.3074  3.0189 -1.1260
 7808SOL     OW35059   0.163   1.647   1.971 -0.4713  0.7190 -0.5064
 7808SOL    HW135060   0.137   1.640   2.062  0.2515 -1.9801 -0.5019
 7808SOL    HW235061   0.140   1.739   1.962  0.7267  1.0478 -0.2050
 7809SOL     OW35062   2.939   0.723  10.247 -0.8000  0.0015 -0.6028
 7809SOL    HW135063   2.897   0.808  10.242  0.8505  0.7716 -1.2049
 7809SOL    HW235064   2.946   0.720  10.342 -0.3970 -1.9707 -0.6944
 7810SOL     OW35065   2.092   3.042   7.530  0.2987  0.1440 -0.0131
 7810SOL    HW135066   2.110   3.109   7.464  0.2052 -1.5396 -1.7647
 7810SOL    HW235067   1.997   3.037   7.537  0.0456  1.6133 -2.2260
 7811SOL     OW35068   3.460   4.534   3.188 -0.1128 -0.4061 -0.0190
 7811SOL    HW135069   3.503   4.551   3.272 -2.3521  1.6616  0.6903
 7811SOL    HW235070   3.421   4.448   3.202 -0.2630 -0.2682  0.4046
 7812SOL     OW35071   1.829   3.661   5.793 -0.7603  0.1565 -0.3319
 7812SOL    HW135072   1.760   3.604   5.760 -0.5794  0.2578 -0.8753
 7812SOL    HW235073   1.875   3.686   5.713  1.5842  0.5421  1.1329
 7813SOL     OW35074   1.572   0.622   5.989 -0.5441 -0.0879 -0.1242
 7813SOL    HW135075   1.505   0.572   6.036 -0.5576  1.5811  1.6397
 7813SOL    HW235076   1.531   0.708   5.996 -0.0044  0.1195  0.5138
 7814SOL     OW35077   3.921   0.430   2.050  0.2891  0.5947 -0.2450
 7814SOL    HW135078   3.877   0.457   2.131  0.0907  0.1241 -0.1948
 7814SOL    HW235079   3.852   0.411   1.986  2.3644 -1.7155 -1.7657
 7815SOL     OW35080   0.436   1.149   3.187  0.3575 -0.2476 -0.1341
 7815SOL    HW135081   0.435   1.064   3.143  2.6943 -0.5550  0.4037
 7815SOL    HW235082   0.529   1.153   3.210  0.1365 -0.5666  0.8242
 7816SOL     OW35083   1.816   3.401   5.394 -0.1633 -0.0875 -0.2678
 7816SOL    HW135084   1.738   3.457   5.398 -0.1516  0.0004 -1.2708
 7816SOL    HW235085   1.860   3.441   5.319 -1.2971  1.6999  0.0058
 7817SOL     OW35086   1.670   1.540   3.487 -0.2205 -0.1041 -0.4598
 7817SOL    HW135087   1.694   1.632   3.488 -1.6718  0.3122 -3.5019
 7817SOL    HW235088   1.601   1.542   3.421  1.5116 -3.3805 -2.4150
 7818SOL     OW35089   3.218   3.209  16.884  0.6816  0.8032 -0.3458
 7818SOL    HW135090   3.253   3.256  16.808  0.6923  2.1830  0.4956
 7818SOL    HW235091   3.156   3.276  16.913 -0.2796 -0.8060  1.3157
 7819SOL     OW35092   0.149   0.542  14.779  0.2751  0.4952  0.0253
 7819SOL    HW135093   0.063   0.583  14.770 -0.2138 -0.5450  0.0705
 7819SOL    HW235094   0.203   0.592  14.717 -0.0404  2.4896  1.3461
 7820SOL     OW35095   1.379   4.529  14.052  0.1985 -0.8244 -0.4111
 7820SOL    HW135096   1.377   4.444  14.007 -3.4558 -0.8178 -0.2105
 7820SOL    HW235097   1.338   4.489  14.129  0.9697  1.6361  1.2949
 7821SOL     OW35098   3.033   0.733  16.812 -0.5962 -0.1151  0.1417
 7821SOL    HW135099   2.967   0.665  16.798  1.3502 -2.1697  1.1050
 7821SOL    HW235100   3.057   0.751  16.721  1.3965  2.5092  1.1713
 7822SOL     OW35101   2.108   3.050   0.668 -0.0728  0.1580 -0.0439
 7822SOL    HW135102   2.086   3.105   0.593  1.4056  0.7589 -0.0197
 7822SOL    HW235103   2.176   3.104   0.708 -0.3284 -0.4311  1.1883
 7823SOL     OW35104   2.576   4.386  10.798  0.3381 -0.0355 -0.4011
 7823SOL    HW135105   2.625   4.304  10.800  2.3808  1.1119 -3.6064
 7823SOL    HW235106   2.496   4.336  10.817 -0.6499  0.8856 -2.0664
 7824SOL     OW35107   1.962   2.318   3.826 -0.2504 -0.2105  0.1338
 7824SOL    HW135108   1.961   2.412   3.808 -0.6378 -0.1743  0.3454
 7824SOL    HW235109   2.041   2.301   3.877  0.2148 -0.5504 -0.7087
 7825SOL     OW35110   2.733   1.922   1.050 -0.4816  0.6198  0.3726
 7825SOL    HW135111   2.689   1.863   1.111 -2.6423 -0.2279 -1.9468
 7825SOL    HW235112   2.693   1.902   0.965 -0.5731 -2.2599  1.0689
 7826SOL     OW35113   4.474   1.471   7.936  0.1218  0.1162 -0.2153
 7826SOL    HW135114   4.473   1.378   7.960 -2.3309 -0.0506 -0.9430
 7826SOL    HW235115   4.415   1.496   8.006 -0.5210 -0.5884 -0.4983
 7827SOL     OW35116   3.694   1.001   2.444 -0.4252  0.3170 -0.1970
 7827SOL    HW135117   3.701   1.056   2.367  2.9961  1.2873  0.8116
 7827SOL    HW235118   3.600   0.990   2.459 -0.5431  0.1594 -1.0498
 7828SOL     OW35119   2.272   1.147   2.623 -0.4964  0.3709  0.5919
 7828SOL    HW135120   2.254   1.087   2.550 -0.9948  0.7880  0.3651
 7828SOL    HW235121   2.318   1.089   2.683  1.7417  0.5401 -0.9308
 7829SOL     OW35122   1.151   0.422   3.531  0.4657 -0.4333  0.1159
 7829SOL    HW135123   1.104   0.476   3.596  0.5862  0.9242 -0.9199
 7829SOL    HW235124   1.214   0.492   3.511  0.1279 -0.3203 -0.5589
 7830SOL     OW35125   3.960   3.706   5.613  0.1173  0.4086  0.4527
 7830SOL    HW135126   4.025   3.717   5.544  0.7692 -0.5412  0.9143
 7830SOL    HW235127   3.888   3.749   5.567 -0.6150  0.3615  1.5561
 7831SOL     OW35128   2.639   1.831   5.761  0.1207  0.4276 -0.1882
 7831SOL    HW135129   2.703   1.761   5.746  0.4643  1.1914 -2.3585
 7831SOL    HW235130   2.567   1.777   5.793  0.2998  1.0527  1.2701
 7832SOL     OW35131   2.305   1.946   3.772 -0.5602  0.4097  0.0203
 7832SOL    HW135132   2.376   1.892   3.738  0.3778  2.1716 -0.7800
 7832SOL    HW235133   2.343   2.034   3.770  1.1468 -0.3228  0.4818
 7833SOL     OW35134   3.858   0.627  14.449  0.5169 -0.0267 -0.3517
 7833SOL    HW135135   3.831   0.662  14.364  0.2120  0.0095 -0.2378
 7833SOL    HW235136   3.787   0.663  14.501 -1.1261 -0.7813 -2.0631
 7834SOL     OW35137   1.442   3.923   8.867 -0.1082  0.0700  0.1815
 7834SOL    HW135138   1.390   3.857   8.914  2.0378 -0.0581  2.4406
 7834SOL    HW235139   1.530   3.892   8.892 -0.7707 -0.2907  2.0682
 7835SOL     OW35140   0.693   0.487   8.033  0.4834 -0.4691 -0.6110
 7835SOL    HW135141   0.782   0.506   8.002  0.4659  0.0700 -0.3244
 7835SOL    HW235142   0.643   0.566   8.012 -2.0775 -1.9796 -0.1658
 7836SOL     OW35143   2.487   3.983   4.259 -0.0504 -0.2195 -0.0259
 7836SOL    HW135144   2.530   4.039   4.194 -0.9899 -2.5191 -2.6078
 7836SOL    HW235145   2.430   3.928   4.206 -1.0339  1.0126 -0.2599
 7837SOL     OW35146   0.789   0.215   5.935  0.2348  0.2657 -0.8730
 7837SOL    HW135147   0.767   0.231   5.844  0.7962 -3.1547 -1.6382
 7837SOL    HW235148   0.791   0.119   5.928 -0.8107  0.1722  0.1246
 7838SOL     OW35149   2.628   2.053   2.359  0.2514 -0.0271  0.1143
 7838SOL    HW135150   2.684   2.130   2.355 -1.1573  1.1080  2.0439
 7838SOL    HW235151   2.657   2.006   2.438 -1.0404 -0.1150  0.5325
 7839SOL     OW35152   2.694   1.289   4.438 -0.4590  0.3472  0.6614
 7839SOL    HW135153   2.727   1.365   4.485  1.6287 -0.3342  0.3170
 7839SOL    HW235154   2.737   1.300   4.353  0.8177 -1.2300  1.0921
 7840SOL     OW35155   0.579   0.036   8.078 -0.2936  0.0460 -0.0691
 7840SOL    HW135156   0.572   0.129   8.100  2.4910  0.6133 -1.4948
 7840SOL    HW235157   0.674   0.027   8.070 -0.5489 -2.5402 -0.0407
 7841SOL     OW35158   4.602   3.503   7.598  0.0381  0.2717 -0.2841
 7841SOL    HW135159   4.631   3.502   7.690  0.2472 -2.1563 -0.3680
 7841SOL    HW235160   4.512   3.474   7.613 -0.9628  2.7841 -1.4496
 7842SOL     OW35161   0.945   1.365  16.124 -0.4088 -0.6932  0.1668
 7842SOL    HW135162   1.020   1.411  16.161 -0.1402 -0.3302 -0.8290
 7842SOL    HW235163   0.872   1.414  16.161 -0.7795 -2.0503  1.2268
 7843SOL     OW35164   2.651   1.884   6.343  0.2583 -0.0126  0.6034
 7843SOL    HW135165   2.700   1.935   6.279 -1.1098  0.2755 -0.2173
 7843SOL    HW235166   2.722   1.828   6.376  0.3480  0.8811  1.9139
 7844SOL     OW35167   0.236   2.278   6.631 -0.2401  0.2377 -0.1872
 7844SOL    HW135168   0.321   2.263   6.673 -1.2900  0.1998  1.9602
 7844SOL    HW235169   0.202   2.189   6.626 -1.8958  0.9047 -0.6713
 7845SOL     OW35170   0.541   3.427   9.108 -0.9087  1.0137 -0.1464
 7845SOL    HW135171   0.610   3.384   9.158 -1.7366 -0.2428 -0.0903
 7845SOL    HW235172   0.503   3.478   9.180 -1.6240 -0.2223  0.3512
 7846SOL     OW35173   1.536   2.819   6.673  0.0501  0.0040 -0.1321
 7846SOL    HW135174   1.618   2.840   6.628 -1.6115  1.0739 -2.6332
 7846SOL    HW235175   1.473   2.875   6.628  0.5801  1.6138  1.1355
 7847SOL     OW35176   4.346   0.737   8.005 -0.7169  0.5046 -0.0524
 7847SOL    HW135177   4.397   0.731   7.924 -0.9819  1.1265 -0.2629
 7847SOL    HW235178   4.303   0.652   8.006 -0.9623  0.6549  1.7514
 7848SOL     OW35179   2.200   1.695   4.846  0.1281 -0.0098  0.4265
 7848SOL    HW135180   2.119   1.660   4.808  0.3186 -0.4101  0.3900
 7848SOL    HW235181   2.253   1.620   4.875 -0.3885 -0.0656  1.2044
 7849SOL     OW35182   1.907   2.253  17.515  0.2995  0.4264  0.1162
 7849SOL    HW135183   1.828   2.219  17.472  0.6116 -2.2066  1.6379
 7849SOL    HW235184   1.910   2.341  17.477  1.2654  0.8834  1.2599
 7850SOL     OW35185   1.911   2.689  15.924 -0.5908 -0.6009 -0.4858
 7850SOL    HW135186   1.968   2.713  15.851 -0.8275  1.8316  0.1634
 7850SOL    HW235187   1.826   2.725  15.897 -1.7375  0.1560  4.1529
 7851SOL     OW35188   1.985   4.622   1.852  0.0345  0.1504  0.0917
 7851SOL    HW135189   1.953   4.623   1.942  2.8243  0.4376  1.0771
 7851SOL    HW235190   2.000   4.716   1.844 -0.3827  0.0950 -1.2902
 7852SOL     OW35191   0.698   3.355   1.692 -0.4597 -0.1605  0.1590
 7852SOL    HW135192   0.635   3.297   1.734 -0.3061  0.4390  1.2143
 7852SOL    HW235193   0.695   3.323   1.602  1.7420 -1.7352  0.6542
 7853SOL     OW35194   2.473   1.425  15.570 -0.0671 -0.0112  0.5022
 7853SOL    HW135195   2.488   1.517  15.549  0.4600 -0.4724 -1.1798
 7853SOL    HW235196   2.386   1.423  15.610 -0.7817  2.3861 -0.8986
 7854SOL     OW35197   4.463   2.999   7.806  0.3933  0.6117 -0.7883
 7854SOL    HW135198   4.390   3.024   7.862  0.9732 -0.1823  0.3108
 7854SOL    HW235199   4.527   3.070   7.805  1.3922 -0.2815  0.2934
 7855SOL     OW35200   3.052   4.216  13.469 -0.6056  0.6285 -0.1871
 7855SOL    HW135201   3.027   4.297  13.515 -0.3330  1.1135 -0.8879
 7855SOL    HW235202   3.001   4.214  13.387 -0.2639  4.2075 -0.4995
 7856SOL     OW35203   1.629   0.460   6.748 -0.7495 -0.8278 -0.3731
 7856SOL    HW135204   1.573   0.445   6.824  0.0935 -0.5604  0.3115
 7856SOL    HW235205   1.605   0.390   6.688 -1.9806  0.5301 -1.4416
 7857SOL     OW35206   2.455   3.384  13.252 -0.3907  0.1780  0.4476
 7857SOL    HW135207   2.377   3.440  13.257 -0.7079 -0.2842  0.7244
 7857SOL    HW235208   2.413   3.314  13.202  2.1509 -1.8982  1.2248
 7858SOL     OW35209   4.560   2.565  12.112 -0.2282 -0.1251 -0.4336
 7858SOL    HW135210   4.642   2.534  12.072 -1.3705 -3.3574 -0.2696
 7858SOL    HW235211   4.570   2.660  12.112  1.6835 -0.3123 -1.6213
 7859SOL     OW35212   2.805   1.606   6.861 -0.2750  0.1561 -0.3431
 7859SOL    HW135213   2.724   1.598   6.810 -1.2193  1.5165  0.9571
 7859SOL    HW235214   2.782   1.550   6.935  0.8391  1.5248  1.0443
 7860SOL     OW35215   1.908   1.695   1.721  0.4837  0.0430 -0.2266
 7860SOL    HW135216   1.975   1.674   1.786  0.3944 -0.4297 -0.2886
 7860SOL    HW235217   1.941   1.652   1.641  1.7294  0.0991  0.2487
 7861SOL     OW35218   2.086   0.722   4.104  0.0357 -0.5851  0.2141
 7861SOL    HW135219   2.003   0.761   4.077 -0.4523 -1.1806  0.8726
 7861SOL    HW235220   2.126   0.718   4.017  0.4057  0.4592  0.3319
 7862SOL     OW35221   3.727   2.448   3.120  0.1850  0.0253 -0.3554
 7862SOL    HW135222   3.694   2.367   3.158 -1.4313  1.1029  0.5431
 7862SOL    HW235223   3.709   2.506   3.194 -0.1722 -1.0628  0.4196
 7863SOL     OW35224   2.141   1.084   3.390  0.2486  0.6548  0.1164
 7863SOL    HW135225   2.206   1.026   3.350  1.0593  0.0403  2.2622
 7863SOL    HW235226   2.191   1.113   3.467  1.1748  0.2113 -0.3176
 7864SOL     OW35227   0.677   3.083  12.837 -0.0458  0.5934 -0.1027
 7864SOL    HW135228   0.646   3.076  12.928  2.3094 -0.5421  0.6179
 7864SOL    HW235229   0.768   3.108  12.852  0.2498  0.8689 -2.3479
 7865SOL     OW35230   2.216   3.719   9.845 -0.1514  0.1127 -1.0509
 7865SOL    HW135231   2.243   3.630   9.821  0.9098  0.4571 -1.1053
 7865SOL    HW235232   2.217   3.710   9.940 -3.4074 -0.0768 -1.0162
 7866SOL     OW35233   1.041   1.005   8.454  0.0530 -0.4375 -0.1387
 7866SOL    HW135234   1.032   0.964   8.540 -0.5245  1.8745  0.9060
 7866SOL    HW235235   0.950   1.032   8.442  1.1602  3.1332 -0.5186
 7867SOL     OW35236   1.300   3.629   2.887 -0.2367  0.6569 -0.1510
 7867SOL    HW135237   1.220   3.682   2.889  0.1610  1.1558  1.8548
 7867SOL    HW235238   1.275   3.551   2.837 -1.3474 -0.6859  2.5086
 7868SOL     OW35239   0.328   4.722   5.382  0.3949  0.0605 -0.2680
 7868SOL    HW135240   0.324   0.075   5.356 -0.7699  0.4349  1.1968
 7868SOL    HW235241   0.408   4.693   5.338  0.7501  0.6235  0.0099
 7869SOL     OW35242   2.280   2.045   2.094 -0.5668  0.2294 -0.7784
 7869SOL    HW135243   2.338   2.101   2.044  0.9793 -1.5258 -0.9298
 7869SOL    HW235244   2.260   1.976   2.031  0.0617 -2.0336  1.5255
 7870SOL     OW35245   1.581   0.830   3.581  0.1185 -0.3197  0.3364
 7870SOL    HW135246   1.559   0.864   3.494 -0.5630 -1.5367  0.0363
 7870SOL    HW235247   1.647   0.889   3.617 -0.0353  0.4629 -0.6528
 7871SOL     OW35248   3.779   2.830  12.603 -0.2098 -0.2900 -0.6635
 7871SOL    HW135249   3.820   2.744  12.601 -1.2482 -0.8449  2.5450
 7871SOL    HW235250   3.838   2.874  12.542  0.7796  0.3209  0.7390
 7872SOL     OW35251   4.312   3.067   8.027  0.2460  0.8748  0.0533
 7872SOL    HW135252   4.374   3.023   8.086  0.3341 -0.1260 -0.7749
 7872SOL    HW235253   4.233   3.073   8.080  0.1649 -1.0817  0.1823
 7873SOL     OW35254   2.423   0.193   4.411  0.3718  0.1238  0.3034
 7873SOL    HW135255   2.405   0.239   4.329 -0.6213  0.0753  0.4986
 7873SOL    HW235256   2.346   0.229   4.456 -1.8780 -2.4147 -1.5186
 7874SOL     OW35257   1.783   1.834   2.213 -0.0933 -0.0910 -0.3209
 7874SOL    HW135258   1.852   1.897   2.193  1.0220 -1.6799 -1.3969
 7874SOL    HW235259   1.776   1.784   2.132  0.2434  0.5480 -0.7361
 7875SOL     OW35260   0.446   0.586   7.462 -0.1728 -0.0335  0.0054
 7875SOL    HW135261   0.372   0.646   7.467  0.1801  0.3664  0.5173
 7875SOL    HW235262   0.391   0.510   7.442  1.3596 -0.6330 -1.8683
 7876SOL     OW35263   4.493   3.524  11.980  0.5329 -0.4382 -0.4027
 7876SOL    HW135264   4.456   3.590  11.921 -0.8955  0.4629  1.4940
 7876SOL    HW235265   4.586   3.546  11.985 -0.1374  1.9500  1.5833
 7877SOL     OW35266   1.241   3.830   8.403 -0.0678  0.1137  0.1248
 7877SOL    HW135267   1.320   3.854   8.452 -0.4971 -1.6314  1.6633
 7877SOL    HW235268   1.187   3.903   8.433 -0.9613 -1.0077  1.2260
 7878SOL     OW35269   4.376   3.618   8.725  0.4779 -0.2827 -0.1817
 7878SOL    HW135270   4.403   3.561   8.797  0.4393  0.8153  0.7179
 7878SOL    HW235271   4.436   3.691   8.740 -1.9372  2.0701 -1.9546
 7879SOL     OW35272   0.352   1.019   1.790 -0.2874 -0.3715  0.2958
 7879SOL    HW135273   0.408   0.942   1.801  3.2061  1.9044 -1.3418
 7879SOL    HW235274   0.265   0.985   1.770 -0.3964  0.2244 -0.2393
 7880SOL     OW35275   0.254   0.266   5.408  0.0965  0.0039  0.0859
 7880SOL    HW135276   0.271   0.286   5.500  1.2164  2.0962 -0.5663
 7880SOL    HW235277   0.160   0.282   5.409 -0.0199 -0.7439  0.9411
 7881SOL     OW35278   1.175   3.144   6.554 -0.0323 -0.2225  0.3478
 7881SOL    HW135279   1.135   3.205   6.493 -1.5723  0.0546  1.6585
 7881SOL    HW235280   1.243   3.202   6.588 -1.6715  1.9137 -0.0001
 7882SOL     OW35281   0.389   2.221   2.151 -0.4738  0.1071  0.5831
 7882SOL    HW135282   0.370   2.234   2.058 -1.8865 -1.8427  0.6030
 7882SOL    HW235283   0.456   2.286   2.170 -0.0191 -0.0746 -0.4240
 7883SOL     OW35284   3.420   1.536  11.453 -0.3652  0.4140 -0.3318
 7883SOL    HW135285   3.507   1.554  11.418  0.8195 -1.3144  1.6621
 7883SOL    HW235286   3.366   1.569  11.382  0.6723  1.0608 -0.8203
 7884SOL     OW35287   1.029   2.053   6.839 -0.5838  0.4120 -0.3762
 7884SOL    HW135288   0.998   1.965   6.818  0.0259  0.0697  0.1695
 7884SOL    HW235289   1.039   2.046   6.934  0.4390  0.8841 -0.4530
 7885SOL     OW35290   2.813   2.630   9.716  0.4597 -0.2777 -0.7383
 7885SOL    HW135291   2.851   2.694   9.656 -1.0894  0.4863 -0.9071
 7885SOL    HW235292   2.879   2.561   9.725 -1.0485 -1.6875 -0.5594
 7886SOL     OW35293   3.693   4.452   5.974 -0.0056 -0.2568  0.3697
 7886SOL    HW135294   3.761   4.515   6.002 -0.4337  1.4993 -2.5966
 7886SOL    HW235295   3.736   4.368   5.991 -0.7604 -0.6564  0.2633
 7887SOL     OW35296   4.088   4.436   2.332  0.6717  0.4578 -0.9427
 7887SOL    HW135297   4.108   4.443   2.425  1.4681 -0.2152 -1.0665
 7887SOL    HW235298   3.999   4.471   2.323  0.3219 -0.1146  0.1997
 7888SOL     OW35299   0.213   3.765   9.365 -0.3254 -0.1183  0.5967
 7888SOL    HW135300   0.160   3.713   9.425 -1.6593 -0.7756 -1.1535
 7888SOL    HW235301   0.149   3.828   9.331  0.1185 -0.0241 -0.0682
 7889SOL     OW35302   3.210   1.180  13.290  0.0771  0.5210 -0.3507
 7889SOL    HW135303   3.171   1.157  13.374  0.5603  0.3358 -0.1759
 7889SOL    HW235304   3.300   1.201  13.313 -0.3991  2.1953  0.0008
 7890SOL     OW35305   1.526   4.319   9.460  0.3541  0.1730 -0.1211
 7890SOL    HW135306   1.475   4.293   9.537  1.6077 -1.2416  0.2266
 7890SOL    HW235307   1.612   4.280   9.475 -0.0773 -0.9259 -0.5111
 7891SOL     OW35308   3.858   3.965  12.479  0.1527 -0.3186  0.0693
 7891SOL    HW135309   3.813   3.941  12.398 -0.8315  1.5686  0.0602
 7891SOL    HW235310   3.948   3.943  12.456  0.7242  0.5856  1.4641
 7892SOL     OW35311   4.524   1.004   4.703 -0.1586 -0.4402  0.5199
 7892SOL    HW135312   4.459   1.046   4.647 -0.2245 -0.9210  0.2383
 7892SOL    HW235313   4.610   1.032   4.670 -1.1530  0.1087 -1.6131
 7893SOL     OW35314   3.254   4.723   4.566  0.0386  0.2446 -0.4840
 7893SOL    HW135315   3.342   4.707   4.601  0.3188 -1.2553 -1.8429
 7893SOL    HW235316   3.219   0.050   4.626 -0.0469  0.7925 -1.1374
 7894SOL     OW35317   0.601   2.363   0.606 -0.9850 -0.1361 -0.0023
 7894SOL    HW135318   0.556   2.335   0.526  1.2388  0.7121 -1.5559
 7894SOL    HW235319   0.687   2.323   0.591 -1.5955 -1.9546  1.2682
 7895SOL     OW35320   3.828   0.542   8.575  0.3384 -0.5944  0.9181
 7895SOL    HW135321   3.779   0.466   8.606  0.3531 -1.5179 -1.3254
 7895SOL    HW235322   3.786   0.551   8.490  1.0635  2.1306  0.8667
 7896SOL     OW35323   2.764   3.687   4.165 -0.4274 -0.0096 -0.1585
 7896SOL    HW135324   2.856   3.701   4.190 -1.1156  1.5110  1.4900
 7896SOL    HW235325   2.713   3.665   4.242  0.0743 -1.2620 -0.1742
 7897SOL     OW35326   4.006   2.109   1.764 -0.1904  0.5057 -0.1731
 7897SOL    HW135327   3.950   2.184   1.783 -0.8509  0.1896 -0.8391
 7897SOL    HW235328   3.942   2.045   1.795  1.2113 -0.3732  0.8781
 7898SOL     OW35329   0.226   2.980   0.396 -0.2829  0.0577 -0.5305
 7898SOL    HW135330   0.231   3.055   0.337 -1.1442  0.7130  0.2090
 7898SOL    HW235331   0.249   3.024   0.478 -0.1016  1.5073 -1.3569
 7899SOL     OW35332   0.328   2.330   3.612 -0.5158  0.2112 -0.0354
 7899SOL    HW135333   0.394   2.289   3.667  1.2467  1.8227 -0.9468
 7899SOL    HW235334   0.336   2.292   3.524  0.6869 -0.4737  0.3738
 7900SOL     OW35335   4.234   3.757  16.684  0.1488 -0.4641 -0.3485
 7900SOL    HW135336   4.146   3.720  16.674 -0.2628  0.4496 -0.1177
 7900SOL    HW235337   4.222   3.831  16.745 -0.8977 -1.6602  0.9092
 7901SOL     OW35338   2.183   2.342  13.745  0.4712  0.0867  0.0226
 7901SOL    HW135339   2.243   2.273  13.772 -0.6818 -1.0511 -0.3322
 7901SOL    HW235340   2.221   2.366  13.660  1.0693 -0.3212  0.1750
 7902SOL     OW35341   2.245   3.429   4.934  0.4224  0.1955 -0.0097
 7902SOL    HW135342   2.162   3.459   4.899 -1.0779 -1.0813  2.4536
 7902SOL    HW235343   2.303   3.497   4.900 -0.9789  1.5785  0.3439
 7903SOL     OW35344   1.698   0.730   6.632 -0.3441  0.1379  0.2060
 7903SOL    HW135345   1.648   0.806   6.663  2.1541  1.8256  0.1101
 7903SOL    HW235346   1.629   0.664   6.634 -0.2610  0.0243 -0.5580
 7904SOL     OW35347   1.482   2.169   7.680  0.2295 -0.4330  0.0212
 7904SOL    HW135348   1.417   2.099   7.680 -0.9292  0.6522 -1.3826
 7904SOL    HW235349   1.495   2.181   7.586 -1.2726  0.3289 -0.0839
 7905SOL     OW35350   1.649   1.625   8.812 -0.9427 -0.0906 -0.2446
 7905SOL    HW135351   1.667   1.719   8.805 -1.3734 -0.0661 -0.9192
 7905SOL    HW235352   1.554   1.624   8.813 -0.9360 -0.3383  0.5917
 7906SOL     OW35353   2.674   3.377  16.993  0.6734 -0.2100 -0.5527
 7906SOL    HW135354   2.620   3.304  17.022  0.0482  1.2347  1.8586
 7906SOL    HW235355   2.679   3.432  17.071 -2.2809 -0.1096 -0.4498
 7907SOL     OW35356   1.760   2.523   7.261  0.1525  0.4173  0.1145
 7907SOL    HW135357   1.675   2.566   7.270  0.8390  2.1338 -1.4593
 7907SOL    HW235358   1.781   2.549   7.171 -1.1516  3.8554  0.7824
 7908SOL     OW35359   3.782   3.913   2.142 -0.5367 -0.6512  0.7451
 7908SOL    HW135360   3.868   3.882   2.114 -0.1084  0.5601  0.7202
 7908SOL    HW235361   3.808   3.967   2.216  0.5558  0.6495 -0.5846
 7909SOL     OW35362   1.571   0.758   8.218 -0.1133 -0.7221  0.0544
 7909SOL    HW135363   1.497   0.793   8.168 -0.4409  1.4397  2.0619
 7909SOL    HW235364   1.629   0.834   8.225 -1.6724  0.2318  2.6903
 7910SOL     OW35365   2.082   0.961   5.204 -0.7641 -0.2942  0.3992
 7910SOL    HW135366   2.076   1.015   5.125 -1.5849 -1.7097 -0.5120
 7910SOL    HW235367   2.035   1.010   5.271 -0.4641 -0.8886  1.0436
 7911SOL     OW35368   0.199   0.756   7.491  0.1001 -0.6594  0.4218
 7911SOL    HW135369   0.147   0.738   7.413  2.5226 -0.4502 -1.2335
 7911SOL    HW235370   0.237   0.843   7.479  0.9262 -1.0830 -0.0462
 7912SOL     OW35371   0.006   1.757  10.023 -0.3877  0.0752 -0.7385
 7912SOL    HW135372   0.016   1.721  10.111  2.8698  0.5874 -0.8965
 7912SOL    HW235373   4.658   1.726   9.999 -0.6542 -0.4971  0.9917
 7913SOL     OW35374   4.537   0.798   9.508 -0.3392 -0.4089 -0.0691
 7913SOL    HW135375   4.628   0.815   9.534 -0.4646  0.9214 -0.4829
 7913SOL    HW235376   4.506   0.884   9.481  1.6447  0.6167  0.9073
 7914SOL     OW35377   1.092   3.892   3.763 -0.6625 -0.1007 -0.0032
 7914SOL    HW135378   1.150   3.937   3.702 -0.8076  1.0839  0.7337
 7914SOL    HW235379   1.088   3.806   3.721  1.5016 -0.2548  0.0883
 7915SOL     OW35380   0.617   1.252  13.121  0.1846  0.7331  0.2467
 7915SOL    HW135381   0.636   1.163  13.092  0.9231  0.4376  1.6499
 7915SOL    HW235382   0.535   1.270  13.074 -0.0973  0.0498  0.4768
 7916SOL     OW35383   4.695   1.497   4.260  0.5864  0.7176  0.1253
 7916SOL    HW135384   4.661   1.443   4.189 -0.2374 -0.9904  1.7987
 7916SOL    HW235385   4.712   1.579   4.215  0.4788  1.0471  0.6856
 7917SOL     OW35386   4.717   0.374   3.105  0.1158  0.4612  0.3223
 7917SOL    HW135387   0.071   0.351   3.104  0.0491  0.2069 -0.1559
 7917SOL    HW235388   4.690   0.358   3.014 -1.4301 -1.3079  1.0830
 7918SOL     OW35389   2.216   2.092   3.081  0.2318  0.0444 -0.2820
 7918SOL    HW135390   2.214   2.029   3.009  0.5799  1.1017 -1.2426
 7918SOL    HW235391   2.127   2.126   3.092 -0.4464 -2.1995  0.9213
 7919SOL     OW35392   0.874   1.377   0.431  0.2639 -0.1671 -0.1209
 7919SOL    HW135393   0.932   1.301   0.423  1.8732  1.1249 -0.7679
 7919SOL    HW235394   0.817   1.353   0.503  0.1151 -0.0986 -0.2167
 7920SOL     OW35395   1.387   4.636   2.709 -0.3543 -0.0571 -0.2209
 7920SOL    HW135396   1.433   4.711   2.669  1.5762 -2.5549 -2.6874
 7920SOL    HW235397   1.311   4.628   2.651  0.7646  0.2298 -1.7252
 7921SOL     OW35398   4.557   1.897   8.845  0.1929 -0.2043  0.1094
 7921SOL    HW135399   4.579   1.825   8.786  0.7880  0.3017 -0.2925
 7921SOL    HW235400   4.634   1.954   8.838  0.1209 -0.3090 -1.5308
 7922SOL     OW35401   2.210   1.736   3.905  0.1904  0.5465 -0.6728
 7922SOL    HW135402   2.246   1.814   3.863  0.8615  0.6741  0.1421
 7922SOL    HW235403   2.140   1.757   3.965  1.3202  1.3601  0.3557
 7923SOL     OW35404   2.706   0.263   7.597  0.4653  0.9236 -0.4330
 7923SOL    HW135405   2.658   0.342   7.623  1.2055  1.9707 -2.3070
 7923SOL    HW235406   2.771   0.248   7.666 -0.2507 -0.8201 -0.1274
 7924SOL     OW35407   4.179   2.077   8.632 -0.3982 -0.1895  0.4505
 7924SOL    HW135408   4.188   1.986   8.604  0.6792  0.8648 -2.6711
 7924SOL    HW235409   4.213   2.073   8.721 -1.4769 -0.7956  0.8381
 7925SOL     OW35410   3.330   1.860   3.351  0.8313  0.5019  0.4548
 7925SOL    HW135411   3.321   1.789   3.415 -0.2497 -0.6607 -0.9898
 7925SOL    HW235412   3.424   1.878   3.357  1.3771 -2.3706  0.6058
 7926SOL     OW35413   3.148   4.270   6.223 -0.8288 -0.1849 -0.2593
 7926SOL    HW135414   3.195   4.321   6.288 -0.8508  1.6467 -1.6814
 7926SOL    HW235415   3.112   4.206   6.284 -0.0852  1.1389  1.5796
 7927SOL     OW35416   4.703   4.048   4.254 -0.3141  0.0743 -0.0709
 7927SOL    HW135417   4.668   4.028   4.167 -0.5834  0.0614  0.0403
 7927SOL    HW235418   4.695   4.143   4.254  2.8230  0.3270  0.7509
 7928SOL     OW35419   0.629   0.377   8.398 -0.0258  0.3684 -0.6528
 7928SOL    HW135420   0.645   0.470   8.385 -1.8107  0.4443 -2.3901
 7928SOL    HW235421   0.552   0.368   8.453  1.4418  1.5853  1.5647
 7929SOL     OW35422   3.693   3.985   5.827 -0.0249 -0.2375 -0.3077
 7929SOL    HW135423   3.604   3.967   5.797 -0.8560  0.2356  1.8712
 7929SOL    HW235424   3.724   4.056   5.771 -2.5901  1.3242  0.2461
 7930SOL     OW35425   0.486   0.002   3.657  0.2947 -0.7209 -0.8548
 7930SOL    HW135426   0.445   0.022   3.573  3.1059 -0.5694 -2.1885
 7930SOL    HW235427   0.473   0.077   3.715 -0.3406 -2.7530  1.6624
 7931SOL     OW35428   3.705   4.144   0.485 -0.1041 -0.0546 -0.2794
 7931SOL    HW135429   3.764   4.085   0.533 -2.2951 -1.4307  0.7008
 7931SOL    HW235430   3.710   4.220   0.543  2.8411 -0.3047 -0.1956
 7932SOL     OW35431   2.279   2.537  11.293  0.3290  0.7847  0.0927
 7932SOL    HW135432   2.331   2.598  11.344 -0.3544  2.6640 -1.4703
 7932SOL    HW235433   2.342   2.506  11.229  1.9525  2.2538  0.9891
 7933SOL     OW35434   0.518   4.513   1.848 -0.0911 -0.2723 -0.3605
 7933SOL    HW135435   0.547   4.436   1.898 -1.3733 -0.5417 -0.0273
 7933SOL    HW235436   0.573   4.579   1.891 -0.6649 -0.2771  0.3835
 7934SOL     OW35437   1.254   3.524   4.923  0.0746  0.1709  0.4147
 7934SOL    HW135438   1.346   3.547   4.933  0.4919 -1.5766  0.6219
 7934SOL    HW235439   1.205   3.606   4.925 -1.6718 -0.8039 -1.5039
 7935SOL     OW35440   4.244   0.474   8.050  0.4784 -0.1398  0.6760
 7935SOL    HW135441   4.295   0.426   7.985  1.5620  1.2265  0.5077
 7935SOL    HW235442   4.212   0.403   8.105 -0.1964  0.5453  1.1698
 7936SOL     OW35443   3.655   3.113   3.681  0.5515  0.0681  0.4460
 7936SOL    HW135444   3.718   3.182   3.703  0.6898  0.6581 -1.8019
 7936SOL    HW235445   3.643   3.147   3.592 -0.0109 -2.8560 -0.5999
 7937SOL     OW35446   0.292   4.325  16.382  0.0839  0.1489 -0.3890
 7937SOL    HW135447   0.206   4.299  16.349 -0.4554  2.3299 -0.7334
 7937SOL    HW235448   0.267   4.346  16.471  1.9757 -1.1140  0.4329
 7938SOL     OW35449   2.460   3.416   7.663  0.7008  0.2245  0.4387
 7938SOL    HW135450   2.472   3.322   7.676  2.5864  0.2374 -1.1801
 7938SOL    HW235451   2.369   3.437   7.684  0.2271 -0.1032 -1.2613
 7939SOL     OW35452   0.940   1.426   7.728 -0.5452 -0.7541 -0.2377
 7939SOL    HW135453   0.869   1.437   7.791 -0.0162 -0.8865  0.3801
 7939SOL    HW235454   0.958   1.519   7.722  2.3080 -1.3210 -0.6116
 7940SOL     OW35455   4.729   4.670   2.056 -0.3194 -0.0548  0.5283
 7940SOL    HW135456   0.081   4.643   2.049  0.0940  1.0341  1.6487
 7940SOL    HW235457   4.683   4.592   2.086 -1.4981  0.0608 -0.9579
 7941SOL     OW35458   1.089   4.149   8.103 -0.0296 -0.3471 -0.8121
 7941SOL    HW135459   1.178   4.133   8.134 -1.0467  0.2801  2.4278
 7941SOL    HW235460   1.095   4.238   8.067  0.4114  0.0854  0.3270
 7942SOL     OW35461   4.547   4.311   5.828 -0.2352  0.0525  0.1251
 7942SOL    HW135462   4.578   4.222   5.808  0.6432  0.8367 -2.0031
 7942SOL    HW235463   4.552   4.352   5.741  0.1649  0.5561  0.3866
 7943SOL     OW35464   1.623   2.154   6.083  0.1739 -0.4137 -0.5262
 7943SOL    HW135465   1.610   2.229   6.141  1.7606 -0.2082 -0.4364
 7943SOL    HW235466   1.715   2.131   6.097 -0.6039 -2.6678  0.9707
 7944SOL     OW35467   2.112   0.691   5.194  0.6820 -0.1364 -0.6678
 7944SOL    HW135468   2.097   0.782   5.218  1.1051 -0.2402 -0.0229
 7944SOL    HW235469   2.207   0.693   5.189  0.7881 -1.6870  0.7610
 7945SOL     OW35470   0.806   3.638   9.664 -0.0280  0.1805 -0.5483
 7945SOL    HW135471   0.813   3.543   9.669  2.4945  0.3591 -0.6888
 7945SOL    HW235472   0.720   3.645   9.707  0.1608  2.3435 -0.5284
 7946SOL     OW35473   1.198   2.270   4.974 -0.9063 -0.0180  0.2285
 7946SOL    HW135474   1.171   2.255   4.884  1.6225 -0.1697 -0.4824
 7946SOL    HW235475   1.219   2.363   4.979  2.3723 -0.6209 -2.4688
 7947SOL     OW35476   0.668   1.808   7.034  0.7386  0.1217  0.1727
 7947SOL    HW135477   0.681   1.895   7.073  1.7644  0.6892 -1.4189
 7947SOL    HW235478   0.574   1.794   7.048  0.7944  1.0816  1.5058
 7948SOL     OW35479   2.321   3.039   7.989  0.0097 -0.1489 -0.1447
 7948SOL    HW135480   2.247   2.983   8.014  1.6048 -2.5980 -0.8901
 7948SOL    HW235481   2.315   3.033   7.893 -2.3905 -1.3302  0.0847
 7949SOL     OW35482   2.503   0.667   9.206  0.4126 -0.3703  0.7099
 7949SOL    HW135483   2.444   0.632   9.138  2.1329  1.9502 -1.9658
 7949SOL    HW235484   2.580   0.644   9.153 -0.5674  0.8043 -1.2369
 7950SOL     OW35485   1.284   3.772  15.250  0.2825  0.0327 -0.1609
 7950SOL    HW135486   1.370   3.738  15.277  0.5730 -0.2022 -1.3958
 7950SOL    HW235487   1.265   3.707  15.182 -1.1691 -0.3660  0.6367
 7951SOL     OW35488   3.069   2.587   1.945  0.0711  0.0202 -0.4822
 7951SOL    HW135489   2.975   2.577   1.926 -0.1376  1.5036 -0.1782
 7951SOL    HW235490   3.106   2.574   1.858 -0.9826  1.0074 -1.0777
 7952SOL     OW35491   1.329   2.372   6.684 -0.5662  0.3949 -0.3083
 7952SOL    HW135492   1.347   2.292   6.734 -0.5277 -0.7496 -2.1766
 7952SOL    HW235493   1.413   2.417   6.690  0.9029 -2.2253 -1.5125
 7953SOL     OW35494   3.373   0.374   4.372 -0.1512  0.1677 -0.0501
 7953SOL    HW135495   3.425   0.371   4.292  0.4590  0.3891  0.3354
 7953SOL    HW235496   3.399   0.459   4.407 -0.7717  0.2953  0.1088
 7954SOL     OW35497   1.531   0.486  14.862 -0.3741  0.0148  0.4414
 7954SOL    HW135498   1.494   0.398  14.855 -0.1076 -0.0037 -0.6892
 7954SOL    HW235499   1.610   0.472  14.914  0.3718 -2.1365 -1.3136
 7955SOL     OW35500   3.930   1.394   0.761 -0.3983 -0.2928  0.0811
 7955SOL    HW135501   3.994   1.333   0.798  1.3633  0.4539 -1.7064
 7955SOL    HW235502   3.920   1.454   0.834 -1.4255 -0.6616  0.2414
 7956SOL     OW35503   1.974   3.737  13.723 -0.2213 -0.0188  0.2663
 7956SOL    HW135504   1.960   3.654  13.677 -0.5354  0.4887 -0.5569
 7956SOL    HW235505   2.056   3.762  13.680 -0.8817  0.3648 -0.7669
 7957SOL     OW35506   1.577   3.900  11.576  0.3144 -0.0167 -0.1879
 7957SOL    HW135507   1.495   3.851  11.572  1.5331 -2.0555 -0.3433
 7957SOL    HW235508   1.621   3.844  11.640 -0.2992  0.5704  0.7378
 7958SOL     OW35509   4.342   3.879  11.012  0.5633 -0.0913  0.2337
 7958SOL    HW135510   4.366   3.963  10.972  3.4452 -0.9037  0.2441
 7958SOL    HW235511   4.336   3.834  10.928  0.2149  1.6856 -0.6786
 7959SOL     OW35512   1.709   3.990   4.999 -0.1671 -0.2904 -0.0400
 7959SOL    HW135513   1.668   4.043   4.932  0.5586 -0.1818 -0.4024
 7959SOL    HW235514   1.778   4.050   5.029 -0.3830  1.5624 -3.2464
 7960SOL     OW35515   1.320   1.842   6.742  0.1487 -0.2593 -0.8607
 7960SOL    HW135516   1.339   1.750   6.726  1.5979 -0.2553  0.7660
 7960SOL    HW235517   1.310   1.846   6.838 -2.5086  0.4811 -1.1559
 7961SOL     OW35518   0.838   3.625   1.665 -0.1871 -0.0591  0.0257
 7961SOL    HW135519   0.775   3.693   1.687  1.6145  1.2148  1.2490
 7961SOL    HW235520   0.796   3.543   1.691 -0.5310 -0.1462 -0.7986
 7962SOL     OW35521   3.432   3.815   3.687  0.3487  0.3091  0.0498
 7962SOL    HW135522   3.398   3.902   3.708 -2.9153 -1.3592  1.6434
 7962SOL    HW235523   3.526   3.815   3.701 -0.1062 -0.2185  3.0629
 7963SOL     OW35524   1.877   0.258   5.176 -0.5653 -0.3008 -0.4608
 7963SOL    HW135525   1.887   0.345   5.215 -0.3542 -1.0096  1.0458
 7963SOL    HW235526   1.823   0.219   5.244 -0.3112  0.5102  0.1950
 7964SOL     OW35527   3.449   3.772   1.179  0.3033 -0.2745 -0.1569
 7964SOL    HW135528   3.504   3.694   1.172  1.7998  0.7921 -0.3741
 7964SOL    HW235529   3.396   3.740   1.251 -1.9456 -1.8058 -2.4891
 7965SOL     OW35530   2.398   2.482  10.014 -0.1625 -0.7526 -0.3637
 7965SOL    HW135531   2.401   2.563  10.063  0.6988 -0.1126 -1.4558
 7965SOL    HW235532   2.413   2.518   9.926 -1.3690 -1.2232 -0.7651
 7966SOL     OW35533   1.882   3.974  10.852  0.4772 -0.0247 -0.4688
 7966SOL    HW135534   1.874   3.897  10.907 -2.7889 -1.4133 -2.8621
 7966SOL    HW235535   1.862   3.948  10.762 -2.4947 -1.9972  0.7616
 7967SOL     OW35536   0.754   3.899   2.824 -0.1663  0.0540 -0.2478
 7967SOL    HW135537   0.711   3.883   2.908 -0.3916 -2.4387 -0.8202
 7967SOL    HW235538   0.689   3.945   2.771 -1.2911  0.8358  1.8259
 7968SOL     OW35539   2.917   1.847   7.496  0.6543 -0.2738  0.1537
 7968SOL    HW135540   2.955   1.802   7.421 -0.7300  2.4520 -2.1975
 7968SOL    HW235541   2.924   1.786   7.570  1.6460  0.4478  0.6536
 7969SOL     OW35542   0.593   4.201   3.005 -0.0104  0.3787 -0.1763
 7969SOL    HW135543   0.534   4.276   3.001 -0.7821 -0.1923  0.5929
 7969SOL    HW235544   0.527   4.131   3.009 -0.1341  0.5580  0.8453
 7970SOL     OW35545   3.593   2.343   3.471  0.2437 -0.4503  0.2744
 7970SOL    HW135546   3.562   2.352   3.380  0.9467  0.3166  0.1163
 7970SOL    HW235547   3.648   2.265   3.470  1.5623  0.5056 -0.8641
 7971SOL     OW35548   2.467   1.323  14.259 -0.1923  0.2443 -0.3163
 7971SOL    HW135549   2.396   1.382  14.285  1.4904  1.3909  1.6431
 7971SOL    HW235550   2.414   1.247  14.234  1.2470 -0.5943 -0.7988
 7972SOL     OW35551   4.319   3.400   7.668 -0.4048 -0.1974 -0.3461
 7972SOL    HW135552   4.299   3.485   7.628 -2.2928 -0.0550  0.8855
 7972SOL    HW235553   4.263   3.341   7.617  1.1441  0.5876 -2.9843
 7973SOL     OW35554   2.336   1.854   7.295 -0.1513  0.3464 -0.3736
 7973SOL    HW135555   2.358   1.945   7.317 -0.3314  0.3577 -0.2412
 7973SOL    HW235556   2.347   1.807   7.378 -0.7953 -0.8896 -0.9952
 7974SOL     OW35557   1.192   0.680   8.263  0.5473 -0.2956 -0.0728
 7974SOL    HW135558   1.217   0.763   8.302  2.0748 -1.0188  0.4771
 7974SOL    HW235559   1.256   0.615   8.293 -0.0726 -1.4241 -1.1713
 7975SOL     OW35560   3.412   0.628  14.670 -0.3508 -0.1284 -0.6023
 7975SOL    HW135561   3.422   0.577  14.751  0.2269 -0.9620 -1.2026
 7975SOL    HW235562   3.343   0.688  14.700 -1.5714 -2.1236  0.5790
 7976SOL     OW35563   4.514   1.395  15.347  0.0714  0.6919  0.2934
 7976SOL    HW135564   4.597   1.379  15.391  0.4962  1.7545 -0.1297
 7976SOL    HW235565   4.556   1.400  15.261 -2.1205  0.4359 -0.8147
 7977SOL     OW35566   1.642   1.986   2.397 -0.0371  0.1123  0.5350
 7977SOL    HW135567   1.666   1.966   2.306  0.5362 -0.2859  0.7733
 7977SOL    HW235568   1.644   2.082   2.399  0.2346  0.1352 -0.5556
 7978SOL     OW35569   4.068   4.656   3.081  0.3533 -0.4297  0.1691
 7978SOL    HW135570   4.092   0.007   3.057 -3.8501  0.3989 -1.0233
 7978SOL    HW235571   4.099   4.659   3.171 -1.3770  0.0520  0.7618
 7979SOL     OW35572   3.719   2.983  10.932 -0.0767 -0.5642  0.7555
 7979SOL    HW135573   3.724   3.000  11.026  1.4159  5.5944 -0.4405
 7979SOL    HW235574   3.807   2.948  10.920  0.3262 -0.0003  1.9959
 7980SOL     OW35575   2.744   3.461   9.026 -0.3421 -0.0244 -0.1354
 7980SOL    HW135576   2.671   3.415   8.984 -0.2272 -0.6238  0.3266
 7980SOL    HW235577   2.700   3.528   9.078 -0.5996  1.0038 -1.6767
 7981SOL     OW35578   2.212   3.828  14.266 -0.7704  0.6126  0.0998
 7981SOL    HW135579   2.250   3.741  14.252 -1.0371  0.7510 -1.5458
 7981SOL    HW235580   2.288   3.886  14.267 -0.7965  0.6152  2.0805
 7982SOL     OW35581   3.454   3.753   6.708  0.2373  1.0258 -0.4983
 7982SOL    HW135582   3.549   3.759   6.700  0.6691 -1.6037  2.3174
 7982SOL    HW235583   3.418   3.825   6.657 -2.6629  0.2650  0.4698
 7983SOL     OW35584   4.471   2.151   7.034  0.2731  0.0123  0.0274
 7983SOL    HW135585   4.402   2.200   7.080  0.7783  1.1593 -0.4174
 7983SOL    HW235586   4.539   2.139   7.100 -0.9230 -1.1303  1.0488
 7984SOL     OW35587   2.597   0.175   8.656  0.0409 -0.0829 -0.0166
 7984SOL    HW135588   2.668   0.230   8.623 -0.8425  0.9571 -0.2114
 7984SOL    HW235589   2.573   0.141   8.570  0.9646  0.3732 -0.4508
 7985SOL     OW35590   0.933   3.393   8.232  0.1622  0.6040  0.0354
 7985SOL    HW135591   0.933   3.488   8.231 -1.1505  0.6007  0.6989
 7985SOL    HW235592   0.926   3.374   8.138  2.9907  1.9424 -0.4570
 7986SOL     OW35593   2.632   3.389  13.437  0.1232 -0.9685  0.0245
 7986SOL    HW135594   2.572   3.401  13.510  0.7837  1.4418  0.1776
 7986SOL    HW235595   2.581   3.387  13.356 -2.1176 -0.1762  1.4344
 7987SOL     OW35596   3.854   0.020  13.132  0.0837 -0.4618 -0.0648
 7987SOL    HW135597   3.900   0.104  13.140 -1.6051  0.5056 -0.7087
 7987SOL    HW235598   3.786   0.026  13.199 -1.1054 -2.9740 -1.0471
 7988SOL     OW35599   2.227   2.241   3.946  0.1231 -0.0348 -0.4709
 7988SOL    HW135600   2.290   2.287   4.003 -0.0213 -0.6606  0.1973
 7988SOL    HW235601   2.279   2.241   3.866 -0.4888  1.7581 -0.8706
 7989SOL     OW35602   1.609   3.641   6.617  0.4143  0.1435 -0.1193
 7989SOL    HW135603   1.663   3.675   6.546 -0.9905  1.4681 -0.5566
 7989SOL    HW235604   1.543   3.711   6.614  0.0343 -0.2468 -0.8717
 7990SOL     OW35605   2.945   3.377   2.678  0.5582  0.8846  0.2297
 7990SOL    HW135606   2.923   3.434   2.752  2.4736  0.9231  0.7874
 7990SOL    HW235607   2.944   3.438   2.605  1.2367 -0.3662 -0.8312
 7991SOL     OW35608   3.063   3.582   9.745  0.3885 -0.0151 -0.2462
 7991SOL    HW135609   3.031   3.609   9.831 -0.9981 -0.7175 -0.5410
 7991SOL    HW235610   3.048   3.667   9.703 -0.0628 -0.9663 -2.0341
 7992SOL     OW35611   2.632   2.955   3.980  0.1318 -0.2416 -0.3370
 7992SOL    HW135612   2.722   2.985   3.988  0.2899 -0.4873 -1.2464
 7992SOL    HW235613   2.600   2.982   4.066  3.0805  2.5820 -0.1374
 7993SOL     OW35614   0.800   2.636   6.047  0.2262  0.3582  0.3793
 7993SOL    HW135615   0.817   2.717   6.096  1.2205  1.3074 -1.5039
 7993SOL    HW235616   0.773   2.574   6.114  1.1968 -0.5283 -0.0387
 7994SOL     OW35617   4.289   2.919   5.367  0.0799 -0.1041  0.0876
 7994SOL    HW135618   4.294   2.931   5.462  0.1421 -1.0198  0.2050
 7994SOL    HW235619   4.368   2.866   5.353  1.0516  1.2875  0.3250
 7995SOL     OW35620   2.798   3.834   1.101 -0.2913 -0.2670  0.0089
 7995SOL    HW135621   2.862   3.775   1.061  1.2671  0.5119  1.3664
 7995SOL    HW235622   2.838   3.842   1.187  0.3287 -2.8998 -0.0420
 7996SOL     OW35623   0.917   2.096  17.631 -0.1126  0.0106 -0.3126
 7996SOL    HW135624   0.963   2.135  17.705 -0.0175 -1.9804  0.6702
 7996SOL    HW235625   0.893   2.174  17.581  0.2649  0.7143  0.6027
 7997SOL     OW35626   0.985   3.682  13.808 -0.2668 -0.2946  0.6504
 7997SOL    HW135627   1.028   3.597  13.808 -0.7277 -0.5273  0.2006
 7997SOL    HW235628   0.909   3.668  13.752 -1.1168  0.2930  1.6432
 7998SOL     OW35629   0.846   1.186   9.530 -0.2347  0.0410 -0.4377
 7998SOL    HW135630   0.755   1.176   9.500 -1.0622  0.4805  1.8729
 7998SOL    HW235631   0.840   1.239   9.610 -0.7641  1.7307 -1.5920
 7999SOL     OW35632   3.487   0.596  12.998  0.3300 -0.6619 -0.8038
 7999SOL    HW135633   3.419   0.562  13.056  0.7478 -1.6363 -0.8880
 7999SOL    HW235634   3.536   0.638  13.068  2.8258 -0.7628 -2.4834
 8000SOL     OW35635   2.453   3.403  17.204 -0.3152 -0.2793 -0.3920
 8000SOL    HW135636   2.370   3.446  17.185 -0.1388  0.4566  0.5268
 8000SOL    HW235637   2.441   3.310  17.183  0.2960 -0.1132 -1.4526
 8001SOL     OW35638   3.550   0.077   9.293  0.1154 -0.4919  0.0159
 8001SOL    HW135639   3.557   0.024   9.214  2.3770  2.7392 -1.9704
 8001SOL    HW235640   3.460   0.110   9.290 -0.3828 -1.7146  1.9717
 8002SOL     OW35641   2.765   2.137   3.908  0.3543 -0.4619  0.1741
 8002SOL    HW135642   2.785   2.108   3.819 -0.1934  2.3809 -0.8694
 8002SOL    HW235643   2.786   2.230   3.897  1.9833 -0.5366  2.4511
 8003SOL     OW35644   2.169   4.325   6.583 -0.3530 -0.3973  0.0579
 8003SOL    HW135645   2.155   4.290   6.495 -2.8015  0.5358  0.0773
 8003SOL    HW235646   2.107   4.277   6.637  1.2929 -2.3524  0.1837
 8004SOL     OW35647   3.376   4.112   4.159  0.3488  0.3502 -0.1587
 8004SOL    HW135648   3.346   4.080   4.244  0.8390  2.3910  0.7859
 8004SOL    HW235649   3.459   4.069   4.140  1.6517  1.6718  2.6648
 8005SOL     OW35650   2.041   4.303  13.976 -0.1501  0.2798  0.5703
 8005SOL    HW135651   2.021   4.217  13.939 -1.7638 -0.6616  3.6655
 8005SOL    HW235652   2.043   4.361  13.900  3.3493 -1.6399 -0.7814
 8006SOL     OW35653   3.552   4.667   6.526  0.6484  0.0856 -0.2452
 8006SOL    HW135654   3.596   4.694   6.606 -1.8823 -1.0867  1.5138
 8006SOL    HW235655   3.534   4.576   6.548  0.3349  0.2692  0.2561
 8007SOL     OW35656   0.778   1.005  14.022 -0.0207  0.2593 -0.5288
 8007SOL    HW135657   0.864   1.043  14.004  0.8847 -1.6626 -0.1953
 8007SOL    HW235658   0.792   0.921  13.979 -0.1907  0.3726 -0.8054
 8008SOL     OW35659   4.163   1.251   4.024 -0.2827  0.2545 -0.0490
 8008SOL    HW135660   4.171   1.198   4.104  0.7282  0.8052  0.2302
 8008SOL    HW235661   4.143   1.185   3.958 -0.6848 -0.6863  1.0057
 8009SOL     OW35662   1.129   3.953  14.940 -0.4058  0.5412  0.5967
 8009SOL    HW135663   1.034   3.942  14.939  0.0351 -3.3502  2.4640
 8009SOL    HW235664   1.139   3.968  15.034  0.0726  1.8570  0.3410
 8010SOL     OW35665   3.091   3.812   4.433  0.2041  0.5961  0.1384
 8010SOL    HW135666   3.005   3.821   4.474 -1.0320 -1.0863 -2.1143
 8010SOL    HW235667   3.072   3.753   4.361 -0.0108  0.4985  0.2746
 8011SOL     OW35668   1.408   1.439   6.297 -0.6552 -0.0101  0.3617
 8011SOL    HW135669   1.438   1.370   6.355 -2.6423 -0.9412  0.2941
 8011SOL    HW235670   1.483   1.469   6.246 -2.0687 -0.9977 -2.3001
 8012SOL     OW35671   2.708   4.006   5.505 -0.2350  0.0273  0.0914
 8012SOL    HW135672   2.667   4.092   5.492 -0.7763  0.1686  2.8363
 8012SOL    HW235673   2.732   4.004   5.598  0.4209 -1.8432 -0.1228
 8013SOL     OW35674   0.139   2.809  15.979  0.0728 -0.3012  0.4931
 8013SOL    HW135675   0.128   2.817  15.884 -1.5400 -0.3178  0.6810
 8013SOL    HW235676   0.126   2.717  16.002  1.2122 -0.6228 -0.1220
 8014SOL     OW35677   1.582   0.729   7.543  0.4257  0.6627 -0.2373
 8014SOL    HW135678   1.546   0.792   7.606 -2.0125 -2.2246  1.3048
 8014SOL    HW235679   1.527   0.753   7.469  0.0456  1.3676  0.2736
 8015SOL     OW35680   3.507   2.481   2.363 -0.3292  0.2087 -0.0449
 8015SOL    HW135681   3.500   2.388   2.383 -0.2219 -0.0902 -1.3529
 8015SOL    HW235682   3.433   2.483   2.302  2.0386  2.6355 -2.7910
 8016SOL     OW35683   0.149   2.859  12.012  0.6248  0.3911  0.1845
 8016SOL    HW135684   0.085   2.916  11.969 -1.1425  0.4127  2.7858
 8016SOL    HW235685   0.232   2.882  11.971  0.3264  3.2412  1.1694
 8017SOL     OW35686   2.301   3.480   3.189  0.7183  0.0382  0.2353
 8017SOL    HW135687   2.287   3.450   3.279 -1.5431  0.0890 -0.0891
 8017SOL    HW235688   2.251   3.562   3.192  0.0082 -0.3366 -1.3696
 8018SOL     OW35689   3.844   1.618   4.368  0.4293 -0.7024  0.6966
 8018SOL    HW135690   3.868   1.531   4.336  1.7634  0.8389 -2.4307
 8018SOL    HW235691   3.899   1.632   4.445  0.5312  3.0770 -0.0688
 8019SOL     OW35692   1.376   4.409   6.259 -0.0191 -0.2379 -0.3734
 8019SOL    HW135693   1.368   4.318   6.288 -0.4412 -0.4390 -1.1017
 8019SOL    HW235694   1.408   4.453   6.338 -2.3962  0.7123  0.0718
 8020SOL     OW35695   4.308   2.243   6.705 -0.2904 -0.5664 -0.2152
 8020SOL    HW135696   4.361   2.308   6.750 -1.7482  0.6026 -0.1842
 8020SOL    HW235697   4.325   2.168   6.763  4.2751  0.2021 -0.5707
 8021SOL     OW35698   0.893   0.357   4.697  0.7148  0.0376  0.0397
 8021SOL    HW135699   0.878   0.425   4.763  0.0273 -0.0912  0.0129
 8021SOL    HW235700   0.884   0.281   4.755 -1.4457  0.7806  0.6580
 8022SOL     OW35701   1.912   4.674  16.150  0.5766 -0.3590  0.2213
 8022SOL    HW135702   1.953   4.599  16.109  1.8026 -0.1019  0.9651
 8022SOL    HW235703   1.846   4.697  16.085 -0.5496 -0.6544  1.2614
 8023SOL     OW35704   1.496   3.686  15.642 -0.0445 -0.2242 -0.5021
 8023SOL    HW135705   1.563   3.652  15.583 -0.5923 -0.2967 -1.0938
 8023SOL    HW235706   1.472   3.772  15.607  0.3467  0.2164  0.3446
 8024SOL     OW35707   3.209   0.675   6.341  0.0501  0.4580  0.5825
 8024SOL    HW135708   3.191   0.768   6.359 -1.1191  0.3132  0.1627
 8024SOL    HW235709   3.302   0.661   6.358  0.1200 -0.0213 -0.2274
 8025SOL     OW35710   1.954   4.710   4.581 -0.2307 -0.2683 -0.7299
 8025SOL    HW135711   1.897   0.046   4.567 -0.6488 -0.2340  1.1819
 8025SOL    HW235712   1.887   4.646   4.604 -1.2401  0.8514 -0.5778
 8026SOL     OW35713   1.571   1.882   8.647 -0.1802  0.5335 -0.6391
 8026SOL    HW135714   1.508   1.811   8.638  0.3800 -0.5314  4.1258
 8026SOL    HW235715   1.522   1.954   8.607 -1.6806 -0.1227  0.0278
 8027SOL     OW35716   1.727   1.159   4.641  0.1504  0.1645 -0.4924
 8027SOL    HW135717   1.734   1.108   4.560  2.3119 -1.8335  0.9480
 8027SOL    HW235718   1.802   1.126   4.689  0.4424  2.4994  0.6751
 8028SOL     OW35719   3.758   2.444   4.366 -0.3186  0.0136 -0.1373
 8028SOL    HW135720   3.772   2.536   4.392 -2.4623  0.5531 -0.8782
 8028SOL    HW235721   3.709   2.411   4.442 -0.0097 -0.8747 -0.3270
 8029SOL     OW35722   0.938   3.004   3.850  0.0384  0.7738  0.2203
 8029SOL    HW135723   0.993   2.961   3.784  1.4300  1.0308  1.1922
 8029SOL    HW235724   0.850   2.999   3.812 -0.4828  2.8597  1.1541
 8030SOL     OW35725   2.044   1.763   1.149  0.4644  0.0927 -0.1150
 8030SOL    HW135726   2.133   1.792   1.169  0.6937  0.4963 -1.6921
 8030SOL    HW235727   2.031   1.685   1.202  0.1349  1.1824  1.3804
 8031SOL     OW35728   1.074   4.269  17.635 -0.1266  0.1142  0.3317
 8031SOL    HW135729   1.017   4.243  17.563 -0.8248 -1.4798  1.4708
 8031SOL    HW235730   1.097   4.188  17.681  0.7741 -1.4392 -2.8746
 8032SOL     OW35731   4.628   3.572   2.127  0.1819 -0.4627 -0.3802
 8032SOL    HW135732   4.697   3.516   2.165 -0.5464 -1.2161 -0.1623
 8032SOL    HW235733   4.590   3.510   2.065 -5.1655  0.1972  2.2290
 8033SOL     OW35734   1.467   3.424   7.330  0.6667  0.7898 -0.2285
 8033SOL    HW135735   1.508   3.338   7.327  2.2505  1.6182 -1.8710
 8033SOL    HW235736   1.379   3.403   7.363  1.4665  0.3649  1.6316
 8034SOL     OW35737   2.771   4.575   2.848  0.4395  0.2377 -0.9216
 8034SOL    HW135738   2.837   4.588   2.779  0.5179 -0.3371 -0.9559
 8034SOL    HW235739   2.696   4.588   2.790 -0.5203 -1.4128 -0.0346
 8035SOL     OW35740   0.990   0.948  17.535 -0.3641  0.1849  0.5754
 8035SOL    HW135741   1.004   1.024  17.478 -1.4033  0.5306  0.7933
 8035SOL    HW235742   0.916   0.898  17.501 -1.7323  2.3480  0.3965
 8036SOL     OW35743   0.360   1.266   6.101 -0.4793 -0.0288 -0.1515
 8036SOL    HW135744   0.397   1.329   6.040  1.3137 -0.1327  0.8441
 8036SOL    HW235745   0.304   1.220   6.038 -0.6133 -3.2107  2.3159
 8037SOL     OW35746   2.252   3.240   6.977  0.1748 -0.0556 -0.0563
 8037SOL    HW135747   2.309   3.164   6.990 -2.0970 -1.5558  1.2488
 8037SOL    HW235748   2.282   3.254   6.888  0.8909  0.8878  0.3373
 8038SOL     OW35749   3.703   2.592   6.049  0.0296 -0.1568  0.2322
 8038SOL    HW135750   3.645   2.621   5.978  0.6851 -2.8457 -1.4030
 8038SOL    HW235751   3.643   2.536   6.098 -1.2424 -0.0887 -1.2239
 8039SOL     OW35752   1.410   1.570  11.298 -0.2432 -0.4866  0.2040
 8039SOL    HW135753   1.424   1.628  11.223  1.5395 -1.4096 -0.1576
 8039SOL    HW235754   1.419   1.486  11.253 -4.8518 -0.6518 -0.4480
 8040SOL     OW35755   0.924   0.631   8.219  0.0767 -0.1614 -0.1213
 8040SOL    HW135756   0.911   0.709   8.166 -1.8387  0.2095  0.8797
 8040SOL    HW235757   1.005   0.650   8.268  0.3789  1.9920 -1.4331
 8041SOL     OW35758   4.474   4.282   7.078  0.2717 -0.2405  0.1862
 8041SOL    HW135759   4.382   4.255   7.085  1.0307 -2.3908  2.0611
 8041SOL    HW235760   4.485   4.291   6.984  0.9763  2.9569  0.5873
 8042SOL     OW35761   1.238   2.353  14.249 -0.4565 -0.0160  0.2492
 8042SOL    HW135762   1.194   2.316  14.172 -0.1693  1.8349 -0.8029
 8042SOL    HW235763   1.181   2.427  14.271  0.5083  0.1326  2.2396
 8043SOL     OW35764   1.491   4.633  11.762  0.2169 -0.1424 -0.2310
 8043SOL    HW135765   1.562   4.686  11.724 -1.8104  2.0312 -1.0008
 8043SOL    HW235766   1.510   4.553  11.714 -0.2356 -1.8139  2.3959
 8044SOL     OW35767   2.222   1.306   4.899  0.0836  0.1797  0.2039
 8044SOL    HW135768   2.154   1.371   4.885 -1.6150 -1.4461  0.9062
 8044SOL    HW235769   2.291   1.355   4.945 -1.2921  2.2384  0.0638
 8045SOL     OW35770   1.915   4.059   5.803  0.5875  0.5572  0.1482
 8045SOL    HW135771   1.881   3.991   5.861  3.5706 -2.3308 -1.4594
 8045SOL    HW235772   1.874   4.047   5.717  0.5261 -1.0539  0.4029
 8046SOL     OW35773   4.305   4.500   2.188 -0.3544 -0.5796  0.9727
 8046SOL    HW135774   4.231   4.462   2.234 -1.7672 -1.8778 -2.3584
 8046SOL    HW235775   4.266   4.564   2.129 -0.4454 -0.3154  1.3269
 8047SOL     OW35776   0.990   1.138   7.253  0.6160 -0.2709 -0.5208
 8047SOL    HW135777   0.974   1.162   7.344  1.4832 -1.2295 -0.1063
 8047SOL    HW235778   0.912   1.159   7.203  0.2798 -1.6585 -0.5807
 8048SOL     OW35779   0.759   1.675   0.362  0.8067 -0.4980 -0.3464
 8048SOL    HW135780   0.773   1.605   0.298  1.4556 -0.2416 -0.4817
 8048SOL    HW235781   0.795   1.638   0.442 -1.3767  0.1389  0.9377
 8049SOL     OW35782   4.141   1.425   3.192 -0.2094 -0.7719 -0.3687
 8049SOL    HW135783   4.182   1.506   3.163 -0.6396 -0.3853  0.0816
 8049SOL    HW235784   4.049   1.434   3.165 -0.1197 -0.0558 -0.4527
 8050SOL     OW35785   2.493   4.528   3.574  0.1546 -0.2428 -0.1068
 8050SOL    HW135786   2.411   4.538   3.525 -1.0104  1.0475  2.1364
 8050SOL    HW235787   2.473   4.591   3.643  2.5106  0.3401  0.0429
 8051SOL     OW35788   0.468   4.048   2.088 -0.2597  0.7087  0.2282
 8051SOL    HW135789   0.385   4.084   2.120  0.4314 -0.6782  3.5635
 8051SOL    HW235790   0.532   4.078   2.151  1.4353  3.4113 -2.7795
 8052SOL     OW35791   1.426   1.151   4.445 -0.1863 -0.5059 -0.1216
 8052SOL    HW135792   1.386   1.202   4.375  2.0793 -0.3693 -1.3134
 8052SOL    HW235793   1.433   1.063   4.408  1.5151 -0.7444  0.7587
 8053SOL     OW35794   2.068   0.556   1.956 -0.5095  0.4622 -0.6329
 8053SOL    HW135795   2.001   0.618   1.983  0.1887  0.3650  1.3217
 8053SOL    HW235796   2.139   0.600   2.003 -2.5795  3.1664 -0.0189
 8054SOL     OW35797   3.709   4.381   0.183 -0.2479 -0.0908  0.0613
 8054SOL    HW135798   3.671   4.340   0.105  2.0890 -2.2664  0.0367
 8054SOL    HW235799   3.637   4.431   0.222  0.8870  0.1736  1.7996
 8055SOL     OW35800   4.383   1.966   7.378 -0.1242 -0.2463 -0.1604
 8055SOL    HW135801   4.401   1.904   7.448  0.3860 -0.6328 -0.6289
 8055SOL    HW235802   4.327   2.031   7.420 -1.7634 -1.1001 -1.0667
 8056SOL     OW35803   1.518   0.233   6.070  0.1254 -0.3431  0.2131
 8056SOL    HW135804   1.556   0.209   6.155 -1.0386 -0.1482  0.7927
 8056SOL    HW235805   1.434   0.264   6.103 -0.6628 -3.7682  1.5145
 8057SOL     OW35806   2.991   0.797  16.543  0.1341  0.0082  0.0561
 8057SOL    HW135807   2.996   0.780  16.449 -0.2778 -2.5100  0.4921
 8057SOL    HW235808   2.918   0.858  16.552 -1.5813 -1.6585 -2.4936
 8058SOL     OW35809   3.332   2.854   7.560  0.0038 -0.5178  0.4673
 8058SOL    HW135810   3.357   2.913   7.631  0.5359 -1.3182  0.9447
 8058SOL    HW235811   3.398   2.786   7.569  1.0352  0.3195 -0.7347
 8059SOL     OW35812   4.502   0.204   1.545 -0.3652  0.4061 -0.0745
 8059SOL    HW135813   4.468   0.147   1.476 -2.8459  1.7322  0.0500
 8059SOL    HW235814   4.544   0.144   1.607 -0.4356 -1.3873 -1.7494
 8060SOL     OW35815   4.196   1.930  12.514 -0.6625 -0.6589  0.4601
 8060SOL    HW135816   4.274   1.900  12.469 -0.5759  0.2007  0.0394
 8060SOL    HW235817   4.236   1.954  12.597  1.1056 -2.1689  0.0274
 8061SOL     OW35818   1.044   3.556   8.745  0.3033 -0.1182 -0.2765
 8061SOL    HW135819   1.032   3.613   8.670 -2.9861  2.5102  2.2457
 8061SOL    HW235820   1.024   3.618   8.815 -1.6157  0.1765 -1.0913
 8062SOL     OW35821   0.895   1.704   4.486 -0.1801  0.5757 -0.2129
 8062SOL    HW135822   0.978   1.727   4.528  0.5395 -0.9060 -0.8318
 8062SOL    HW235823   0.871   1.635   4.547 -2.6690  0.9180 -0.8035
 8063SOL     OW35824   3.537   2.839  12.690 -0.5941  0.5175 -0.4849
 8063SOL    HW135825   3.612   2.813  12.637  0.8849 -0.1709  1.9525
 8063SOL    HW235826   3.582   2.810  12.769  0.0286 -0.0490 -1.0520
 8064SOL     OW35827   2.912   2.273   7.553  0.1800  0.2353  0.1644
 8064SOL    HW135828   2.820   2.283   7.577  0.2238  0.7238  0.1248
 8064SOL    HW235829   2.910   2.254   7.459  1.2542  1.0489 -0.0220
 8065SOL     OW35830   4.035   1.776   6.577 -0.2978 -0.4493 -0.2062
 8065SOL    HW135831   4.114   1.828   6.566 -0.8156  0.7213  1.5359
 8065SOL    HW235832   4.062   1.694   6.535 -1.0643 -0.1794 -1.2192
 8066SOL     OW35833   4.070   1.442   4.657 -0.7185  0.0022 -0.1043
 8066SOL    HW135834   4.027   1.516   4.613  0.0073  1.3789  1.5205
 8066SOL    HW235835   4.140   1.426   4.594  1.5208  0.9376  2.1518
 8067SOL     OW35836   4.040   0.960   3.073  0.6107  0.1553  0.3259
 8067SOL    HW135837   4.018   1.032   3.014  1.9748  0.1089 -0.2148
 8067SOL    HW235838   4.135   0.956   3.066  0.6106 -1.4726  1.2629
 8068SOL     OW35839   0.829   2.664   7.619  0.1229 -0.6221  0.0139
 8068SOL    HW135840   0.905   2.606   7.622  0.3804 -0.4387 -2.8887
 8068SOL    HW235841   0.802   2.654   7.711 -2.7283 -1.6568 -0.9413
 8069SOL     OW35842   1.535   4.237  10.063 -0.0011 -0.0378  0.5487
 8069SOL    HW135843   1.562   4.147  10.050 -3.1378 -0.3404 -3.9318
 8069SOL    HW235844   1.515   4.237  10.157 -2.1143  2.7426  0.1242
 8070SOL     OW35845   3.204   2.691   3.697  0.1431 -0.0618 -0.1922
 8070SOL    HW135846   3.126   2.746   3.698  0.8647  0.9493 -0.9518
 8070SOL    HW235847   3.216   2.681   3.603  2.8971 -0.7167  0.2194
 8071SOL     OW35848   2.089   0.437   4.729 -0.7344 -0.3701 -0.4771
 8071SOL    HW135849   2.107   0.522   4.770 -0.4475  1.0865 -3.6011
 8071SOL    HW235850   2.094   0.379   4.805  0.8795  1.0867  0.5130
 8072SOL     OW35851   2.024   2.068   3.974  0.1598 -0.4928  0.0536
 8072SOL    HW135852   1.987   2.136   3.917 -0.1123  0.4539  1.3458
 8072SOL    HW235853   2.117   2.089   3.969 -0.5178  2.7791  0.9274
 8073SOL     OW35854   4.376   1.894   3.949 -0.0329 -0.5671 -0.3707
 8073SOL    HW135855   4.281   1.906   3.953  0.0499 -0.0073 -0.1414
 8073SOL    HW235856   4.390   1.821   4.010 -0.8642 -0.5171 -0.1174
 8074SOL     OW35857   0.144   1.144   3.251 -0.0428 -0.3065 -0.1567
 8074SOL    HW135858   0.091   1.221   3.234  0.4657  0.2428  0.7341
 8074SOL    HW235859   0.214   1.164   3.188  1.1723  1.0947  1.6646
 8075SOL     OW35860   2.372   1.213   1.533 -0.2812 -0.4597  0.0116
 8075SOL    HW135861   2.432   1.188   1.603 -0.6309 -0.1015  0.4388
 8075SOL    HW235862   2.426   1.208   1.454 -2.7762  1.7523 -1.7995
 8076SOL     OW35863   3.933   3.175   1.153 -0.2577  0.6422  0.0342
 8076SOL    HW135864   3.970   3.241   1.095  2.2433 -1.0461 -0.2961
 8076SOL    HW235865   3.970   3.194   1.239  0.0680 -1.5766  0.3924
 8077SOL     OW35866   4.635   4.412   8.831  0.0556 -0.1993 -0.2539
 8077SOL    HW135867   4.721   4.371   8.821  0.0148  0.3935 -3.1084
 8077SOL    HW235868   4.613   4.431   8.740 -3.3664  0.0283  0.6010
 8078SOL     OW35869   2.252   1.381  12.488 -0.2529  0.4497  0.5755
 8078SOL    HW135870   2.224   1.467  12.459 -2.6695  0.0636  1.7443
 8078SOL    HW235871   2.224   1.328  12.413  0.6056  2.8483 -1.4123
 8079SOL     OW35872   0.202   3.900   2.242 -0.9500 -0.2108 -0.1360
 8079SOL    HW135873   0.123   3.869   2.286  0.6447  0.0057  2.8447
 8079SOL    HW235874   0.265   3.866   2.305  0.5252  0.3231 -1.3150
 8080SOL     OW35875   3.563   2.173   2.770 -0.2829 -0.5143 -0.3876
 8080SOL    HW135876   3.611   2.097   2.802 -1.5166 -1.1078  0.0475
 8080SOL    HW235877   3.621   2.243   2.800  0.4850 -0.8904 -1.0054
 8081SOL     OW35878   3.965   2.267   0.154  0.0445  0.6307 -0.7903
 8081SOL    HW135879   3.919   2.204   0.098  1.2676  1.4423 -2.7356
 8081SOL    HW235880   4.024   2.208   0.201 -3.3119 -1.0471  1.3067
 8082SOL     OW35881   0.128   0.867   1.768 -0.1660 -0.1434 -0.3423
 8082SOL    HW135882   0.150   0.860   1.861 -0.4751 -1.3943 -0.3559
 8082SOL    HW235883   0.092   0.781   1.744 -1.3404 -0.5033  2.5910
 8083SOL     OW35884   3.600   0.133  12.266  0.3480  0.1433  0.9213
 8083SOL    HW135885   3.568   0.192  12.198  2.7428  0.6178  0.1888
 8083SOL    HW235886   3.694   0.142  12.251  0.2659  2.4384  1.6992
 8084SOL     OW35887   0.732   2.324   2.412  0.1806 -0.3820 -0.3887
 8084SOL    HW135888   0.824   2.298   2.420  0.4479 -0.0246 -2.1857
 8084SOL    HW235889   0.685   2.264   2.469 -0.1043 -0.6304 -0.8864
 8085SOL     OW35890   3.744   3.271   7.917 -0.4950  0.1417 -0.1998
 8085SOL    HW135891   3.811   3.231   7.973  0.0529 -1.8917 -2.2916
 8085SOL    HW235892   3.677   3.216   7.958 -0.0565 -0.5740 -0.4558
 8086SOL     OW35893   4.293   1.603  13.657  0.2208 -0.1847  0.0687
 8086SOL    HW135894   4.264   1.531  13.601 -1.4765  0.4426  0.1508
 8086SOL    HW235895   4.378   1.586  13.697  0.3069 -0.4223 -0.2184
 8087SOL     OW35896   3.957   2.740   8.256  0.0442  0.1126  0.1616
 8087SOL    HW135897   4.034   2.713   8.307  2.2300  1.4122 -2.4829
 8087SOL    HW235898   3.922   2.657   8.223  1.7616 -0.7625  0.5311
 8088SOL     OW35899   1.289   1.539  15.205  0.1055 -0.4874  0.1017
 8088SOL    HW135900   1.311   1.535  15.298  0.4101 -2.9448 -0.0545
 8088SOL    HW235901   1.322   1.625  15.181  1.1063 -1.2493 -1.2706
 8089SOL     OW35902   4.084   0.717   3.265  0.1641  0.4271  0.0194
 8089SOL    HW135903   4.118   0.784   3.205 -1.1949 -0.2663 -1.5330
 8089SOL    HW235904   4.061   0.767   3.344  2.0591  0.6233  0.4462
 8090SOL     OW35905   3.103   2.043  13.946  0.1321 -0.2950 -0.8347
 8090SOL    HW135906   3.187   2.089  13.941  0.6704 -1.3698 -1.7548
 8090SOL    HW235907   3.124   1.955  13.976 -3.2030 -2.2292 -4.1743
 8091SOL     OW35908   2.412   4.333   3.922 -0.0375  0.6163 -0.0167
 8091SOL    HW135909   2.398   4.395   3.993  0.3039 -1.8839  2.2463
 8091SOL    HW235910   2.500   4.362   3.897 -0.8199  2.1228 -0.9997
 8092SOL     OW35911   2.714   0.675  12.194  0.4014 -0.1102  0.2706
 8092SOL    HW135912   2.679   0.619  12.125  0.8804  0.7085 -0.6367
 8092SOL    HW235913   2.656   0.751  12.186 -1.1756 -1.2036  1.3807
 8093SOL     OW35914   1.618   2.926   4.364 -0.3351  0.8376 -0.1587
 8093SOL    HW135915   1.619   3.019   4.386  0.2217  1.3161 -2.2762
 8093SOL    HW235916   1.706   2.905   4.395 -0.7565 -0.5276  0.1187
 8094SOL     OW35917   4.156   2.902   4.879 -0.0775  0.1842  0.2577
 8094SOL    HW135918   4.087   2.858   4.929 -2.8374  3.3449 -0.8463
 8094SOL    HW235919   4.126   2.868   4.795 -0.4586 -3.6156  1.8888
 8095SOL     OW35920   1.279   4.007   3.586 -0.1892  0.2183  0.7532
 8095SOL    HW135921   1.345   4.077   3.593 -0.6903  0.6096  1.5077
 8095SOL    HW235922   1.244   4.029   3.500  0.2072  1.5593  0.9248
 8096SOL     OW35923   0.561   1.792   8.850  0.0676 -0.0038 -0.4991
 8096SOL    HW135924   0.523   1.705   8.865  0.8326 -0.2543 -0.0068
 8096SOL    HW235925   0.507   1.853   8.900  0.7807  0.8286 -0.7610
 8097SOL     OW35926   3.972   2.186   7.005 -0.2529  0.0625  0.5968
 8097SOL    HW135927   4.022   2.265   7.026  1.5542 -0.3298 -2.1962
 8097SOL    HW235928   3.983   2.132   7.083  1.1778 -1.2092 -0.5016
 8098SOL     OW35929   1.511   2.583  16.807  0.3058  0.7595  0.2153
 8098SOL    HW135930   1.501   2.507  16.749 -0.5671  0.5020  0.6985
 8098SOL    HW235931   1.423   2.619  16.795  0.3113  0.5928 -0.3094
 8099SOL     OW35932   1.858   1.792   2.478 -0.2024 -0.4992  0.1983
 8099SOL    HW135933   1.859   1.774   2.384 -0.7294 -0.2459  0.1455
 8099SOL    HW235934   1.777   1.840   2.491  0.9653  1.7325 -0.7728
 8100SOL     OW35935   2.199   2.656   4.771 -0.5194  0.0337  0.4032
 8100SOL    HW135936   2.216   2.742   4.809  0.7765  0.2871 -0.7374
 8100SOL    HW235937   2.221   2.601   4.847  2.8761 -2.1273 -2.1578
 8101SOL     OW35938   3.618   3.633   4.254  0.1325  0.2988  0.3273
 8101SOL    HW135939   3.557   3.638   4.328  1.0152  0.7674  1.0274
 8101SOL    HW235940   3.639   3.540   4.269  0.2916  0.1908 -0.5911
 8102SOL     OW35941   1.477   0.231  15.079  0.0858 -0.3611  0.7187
 8102SOL    HW135942   1.519   0.148  15.060  0.6835 -0.6192  3.0961
 8102SOL    HW235943   1.389   0.215  15.045  0.5715 -0.5716 -0.4088
 8103SOL     OW35944   3.046   3.708   4.191 -0.4427  0.7973 -0.1454
 8103SOL    HW135945   3.075   3.618   4.203  0.3543  0.8776 -1.4112
 8103SOL    HW235946   3.084   3.731   4.106  3.9450 -2.3957  0.9293
 8104SOL     OW35947   3.857   1.918   5.487 -0.2617 -0.1780 -0.3577
 8104SOL    HW135948   3.941   1.876   5.508 -0.5678 -1.0888 -0.9507
 8104SOL    HW235949   3.802   1.841   5.473 -0.5580  0.3320 -1.9851
 8105SOL     OW35950   2.829   1.007   4.017  0.2235  0.0171 -0.6898
 8105SOL    HW135951   2.789   0.921   4.005 -1.7061  1.0536 -1.8935
 8105SOL    HW235952   2.899   0.990   4.080 -1.7166 -3.0885  0.6314
 8106SOL     OW35953   3.712   0.779   4.621 -0.2405 -0.4622  0.4640
 8106SOL    HW135954   3.773   0.848   4.647 -2.4403  0.7618  2.2990
 8106SOL    HW235955   3.628   0.807   4.656 -0.1077  0.7893 -0.2544
 8107SOL     OW35956   0.775   3.711   6.010  0.4316  0.8245  0.2268
 8107SOL    HW135957   0.706   3.742   5.950  0.5226  1.4125  0.4285
 8107SOL    HW235958   0.850   3.765   5.985  1.7723 -0.0078  2.4578
 8108SOL     OW35959   3.049   2.146  12.925 -0.1832 -0.2384 -0.0803
 8108SOL    HW135960   3.126   2.114  12.974 -0.5993 -0.2567  0.5622
 8108SOL    HW235961   3.094   2.190  12.853  3.1149 -0.0971  2.0693
 8109SOL     OW35962   0.062   0.849   8.874  0.7801 -0.6981  0.1580
 8109SOL    HW135963   0.027   0.782   8.934  0.1621 -0.6171 -0.1043
 8109SOL    HW235964   0.006   0.844   8.796 -1.2460  2.2546  1.4243
 8110SOL     OW35965   2.844   0.704   7.762  0.1193  0.3714 -0.2560
 8110SOL    HW135966   2.875   0.663   7.682  1.3609  2.2011 -0.7224
 8110SOL    HW235967   2.926   0.726   7.808  0.6108 -0.8010 -0.5825
 8111SOL     OW35968   3.010   0.585   6.623 -0.4811  0.3284 -0.7633
 8111SOL    HW135969   2.922   0.569   6.655  0.0846  0.9995  1.1016
 8111SOL    HW235970   2.996   0.652   6.556 -1.4972  0.6900 -0.1821
 8112SOL     OW35971   3.481   3.686   5.969  0.4095 -0.0858  0.2902
 8112SOL    HW135972   3.428   3.756   5.931 -0.2782 -0.3948  0.6653
 8112SOL    HW235973   3.444   3.681   6.057  2.7463 -1.7109  1.1602
 8113SOL     OW35974   0.272   1.895   4.239  0.2239 -0.2102  0.6680
 8113SOL    HW135975   0.278   1.806   4.272 -0.1012 -0.2083  0.7262
 8113SOL    HW235976   0.365   1.916   4.224  0.0812  0.5953  0.9215
 8114SOL     OW35977   1.731   1.236   3.406 -0.1328  0.7926 -0.0888
 8114SOL    HW135978   1.660   1.216   3.468 -0.6195  0.9917 -0.5842
 8114SOL    HW235979   1.688   1.306   3.358 -0.1527  0.2092 -0.9165
 8115SOL     OW35980   0.785   2.264   3.460  0.4357  0.8021  0.0233
 8115SOL    HW135981   0.808   2.172   3.474 -0.3969  0.4250 -1.1067
 8115SOL    HW235982   0.732   2.274   3.540  0.6240 -1.6321  0.4636
 8116SOL     OW35983   2.930   2.365   1.729 -0.1999 -0.2228 -0.1666
 8116SOL    HW135984   2.971   2.315   1.800  0.1548 -2.2587 -1.8179
 8116SOL    HW235985   3.007   2.417   1.708 -0.4914  0.7300  1.1184
 8117SOL     OW35986   1.558   3.489   5.380 -0.2813  0.8877  0.3092
 8117SOL    HW135987   1.567   3.556   5.312 -2.4707 -0.4752 -1.2913
 8117SOL    HW235988   1.466   3.468   5.368 -0.1350  0.4737 -0.1101
 8118SOL     OW35989   3.493   3.702   7.480 -0.2426  0.3051 -0.3733
 8118SOL    HW135990   3.465   3.646   7.407  0.7706 -1.2341  0.4347
 8118SOL    HW235991   3.549   3.643   7.530  2.3021  0.1212 -3.4563
 8119SOL     OW35992   1.377   3.870  14.837  0.2310  0.4695  0.4273
 8119SOL    HW135993   1.297   3.908  14.873  0.3715 -0.0825  1.3367
 8119SOL    HW235994   1.442   3.876  14.908  1.2884  0.7591 -0.5634
 8120SOL     OW35995   1.020   1.421   4.648 -0.0498  0.2324  0.1482
 8120SOL    HW135996   1.051   1.420   4.557 -1.5943 -2.1900 -0.3278
 8120SOL    HW235997   0.927   1.439   4.637 -0.2128  0.4944  1.8971
 8121SOL     OW35998   3.470   0.554   3.223  0.5220 -0.2338  0.1700
 8121SOL    HW135999   3.444   0.617   3.290 -1.1956  0.3742 -1.0581
 8121SOL    HW236000   3.434   0.594   3.143  0.3074 -1.9212 -0.5824
 8122SOL     OW36001   2.589   2.971   6.469  0.2771  0.1473 -0.2056
 8122SOL    HW136002   2.606   3.010   6.383  0.1087  1.7932  0.5219
 8122SOL    HW236003   2.665   2.919   6.495 -1.1079 -0.9086  1.7453
 8123SOL     OW36004   4.622   2.715   8.466  0.3819  0.4104  0.0824
 8123SOL    HW136005   4.568   2.655   8.518  1.0772  0.2672  0.6381
 8123SOL    HW236006   4.711   2.680   8.472  0.1146 -0.2189  0.4630
 8124SOL     OW36007   2.110   0.045  16.496 -0.0175 -0.3251 -0.1416
 8124SOL    HW136008   2.122   4.713  16.432 -2.6422 -0.1146 -0.8449
 8124SOL    HW236009   2.074   4.729  16.565 -0.5578  1.5407  1.0517
 8125SOL     OW36010   4.180   3.196   4.927  0.6032 -0.1810 -0.1257
 8125SOL    HW136011   4.153   3.104   4.927  3.5666 -1.0459 -1.2107
 8125SOL    HW236012   4.096   3.228   4.959  0.9066 -0.4783  0.9413
 8126SOL     OW36013   3.304   3.680   9.000 -0.4431 -0.3217  0.0249
 8126SOL    HW136014   3.244   3.743   8.960  1.0585  1.2255  0.2129
 8126SOL    HW236015   3.362   3.742   9.044  0.5623 -1.7018  0.6479
 8127SOL     OW36016   3.428   0.846  15.408  0.2428  0.8644 -0.2881
 8127SOL    HW136017   3.423   0.760  15.367 -1.9632  0.6282  0.4683
 8127SOL    HW236018   3.464   0.900  15.338 -1.4206  1.6150 -0.5783
 8128SOL     OW36019   2.302   2.293   8.220  0.8595  0.0505 -0.6354
 8128SOL    HW136020   2.383   2.289   8.272 -0.1741  0.0633  0.9732
 8128SOL    HW236021   2.332   2.224   8.161 -0.8012  0.5121 -2.0138
 8129SOL     OW36022   2.309   1.564   2.926  1.1159  0.2174  0.2265
 8129SOL    HW136023   2.225   1.553   2.883 -0.0540  1.1608  2.2998
 8129SOL    HW236024   2.297   1.652   2.961  1.0764  0.2750  0.0687
 8130SOL     OW36025   1.869   0.139   8.834  0.7641 -0.5209  0.1786
 8130SOL    HW136026   1.933   0.069   8.826 -0.0160 -1.5165  2.9175
 8130SOL    HW236027   1.795   0.080   8.847  1.1087 -0.8096  0.8368
 8131SOL     OW36028   4.511   4.657   1.609 -0.1819 -0.1227  0.3705
 8131SOL    HW136029   4.509   4.598   1.533 -2.7589  1.2239 -0.5789
 8131SOL    HW236030   4.426   4.662   1.652 -0.5240 -1.0927 -0.1822
 8132SOL     OW36031   2.252   4.566   8.690 -0.4700 -0.6997 -0.4348
 8132SOL    HW136032   2.236   4.550   8.597  0.2202 -0.3192 -0.6245
 8132SOL    HW236033   2.286   4.655   8.683 -0.1657 -0.7435  0.5591
 8133SOL     OW36034   1.335   0.375   1.412  0.5499 -0.1487  0.3532
 8133SOL    HW136035   1.297   0.368   1.325  2.6198 -0.1638 -0.5583
 8133SOL    HW236036   1.279   0.309   1.452  0.0669 -0.2877 -0.5613
 8134SOL     OW36037   0.988   1.891   2.117 -0.2787  0.5023  0.0750
 8134SOL    HW136038   1.020   1.831   2.185 -1.5290 -0.0214  0.2123
 8134SOL    HW236039   0.894   1.874   2.106 -0.1245 -0.0836 -0.3538
 8135SOL     OW36040   3.543   4.021   2.944  0.3404 -0.2849  0.6185
 8135SOL    HW136041   3.486   4.009   2.869  0.4326 -1.3004  0.7090
 8135SOL    HW236042   3.485   4.068   3.003  1.5263 -0.0369  1.6042
 8136SOL     OW36043   3.583   1.745   6.136  0.0368 -0.5294 -0.4613
 8136SOL    HW136044   3.643   1.779   6.069 -0.8152  0.6340 -0.6282
 8136SOL    HW236045   3.643   1.746   6.210 -0.5291 -0.4495 -0.0052
 8137SOL     OW36046   1.374   2.979   0.685  0.0809 -0.3778 -0.5452
 8137SOL    HW136047   1.453   3.026   0.711  0.5640 -2.0071  0.9009
 8137SOL    HW236048   1.373   2.983   0.589 -0.8269  2.7852 -0.3927
 8138SOL     OW36049   4.202   4.382   7.739  0.0768  0.2278  0.2402
 8138SOL    HW136050   4.265   4.312   7.720 -0.3353 -0.7628  2.5656
 8138SOL    HW236051   4.252   4.460   7.716 -1.3979  1.1286  0.0991
 8139SOL     OW36052   4.498   2.884  15.957  0.3589 -0.1450  0.0154
 8139SOL    HW136053   4.437   2.861  15.887  0.4368  1.9931 -0.7471
 8139SOL    HW236054   4.458   2.824  16.020 -1.6638  0.0164 -1.1064
 8140SOL     OW36055   2.168   1.717   7.766 -0.2867  0.1019  0.3071
 8140SOL    HW136056   2.114   1.639   7.758  0.6582 -0.8054  2.9487
 8140SOL    HW236057   2.102   1.784   7.750 -0.6616  0.3905  3.0643
 8141SOL     OW36058   1.813   4.410  12.355  0.1866 -0.2890 -0.2488
 8141SOL    HW136059   1.769   4.457  12.426  1.2048  0.3080 -0.0093
 8141SOL    HW236060   1.744   4.346  12.337  0.2533 -0.5858  0.5732
 8142SOL     OW36061   0.360   2.801   7.482  0.0051  0.2842 -0.6637
 8142SOL    HW136062   0.454   2.787   7.493 -0.2425 -2.1862 -1.8199
 8142SOL    HW236063   0.329   2.716   7.515  2.1268  0.1849  1.0860
 8143SOL     OW36064   4.403   1.785   9.155 -0.4479  0.2867  0.5236
 8143SOL    HW136065   4.429   1.713   9.098  1.6858  1.6938 -0.2846
 8143SOL    HW236066   4.473   1.847   9.134  0.0611 -1.1713 -2.0246
 8144SOL     OW36067   0.606   3.739  10.094 -0.0292  0.0463  0.1500
 8144SOL    HW136068   0.652   3.779  10.168 -1.4938 -2.8600  2.6594
 8144SOL    HW236069   0.517   3.731  10.129  0.3460  1.1518  1.3535
 8145SOL     OW36070   1.588   2.241   1.369 -0.4667  0.1275 -0.3011
 8145SOL    HW136071   1.667   2.264   1.320  0.8514  0.8214  2.1630
 8145SOL    HW236072   1.558   2.164   1.320  0.4041 -1.7914  2.1525
 8146SOL     OW36073   2.598   0.250  15.922  0.5236  0.6247 -0.1996
 8146SOL    HW136074   2.525   0.191  15.906  0.5915  0.0666  1.5270
 8146SOL    HW236075   2.636   0.257  15.835 -0.9267 -0.7303 -0.9349
 8147SOL     OW36076   4.717   1.086   1.740 -0.3471  0.1789  0.4109
 8147SOL    HW136077   4.719   1.063   1.648  0.1544  0.0366  0.4589
 8147SOL    HW236078   0.022   1.013   1.783 -1.2848  0.4851  1.8891
 8148SOL     OW36079   3.332   0.258   9.313 -0.1925 -0.0345 -0.1078
 8148SOL    HW136080   3.249   0.239   9.269 -2.1336  0.5051  3.2991
 8148SOL    HW236081   3.360   0.325   9.250  0.1332  0.9860  1.1190
 8149SOL     OW36082   4.326   3.580  11.498  0.3014 -0.4587 -0.1976
 8149SOL    HW136083   4.366   3.655  11.540 -1.4133 -1.4107  3.1093
 8149SOL    HW236084   4.297   3.624  11.418 -1.4142 -2.3389 -0.6119
 8150SOL     OW36085   2.007   0.696  12.749 -0.2178 -0.3164  0.9588
 8150SOL    HW136086   2.075   0.632  12.730  1.0845  0.2469  3.8314
 8150SOL    HW236087   1.931   0.654  12.709  0.6574 -0.8641 -0.1506
 8151SOL     OW36088   3.470   1.917  10.087  0.0295 -0.6160  0.3100
 8151SOL    HW136089   3.460   1.831  10.128 -0.8982  0.7148  2.8835
 8151SOL    HW236090   3.450   1.964  10.167  2.7529  0.9015  0.0560
 8152SOL     OW36091   0.422   3.296   8.810 -0.4004  0.1759  0.1361
 8152SOL    HW136092   0.489   3.231   8.786  1.2431  1.2989  1.7252
 8152SOL    HW236093   0.462   3.366   8.862 -0.1995  0.2625 -0.1316
 8153SOL     OW36094   2.132   4.425  11.706 -0.1107  0.4970  0.1170
 8153SOL    HW136095   2.174   4.339  11.712  0.3356  0.8557  2.1069
 8153SOL    HW236096   2.204   4.487  11.698  0.4781 -0.2423 -0.3016
 8154SOL     OW36097   1.114   0.594   3.239 -0.4148  0.1935  0.0106
 8154SOL    HW136098   1.041   0.552   3.192 -1.0922  2.0602 -0.6591
 8154SOL    HW236099   1.093   0.686   3.222 -0.8950  0.1741  0.5039
 8155SOL     OW36100   2.034   3.193   8.692  0.6685 -0.2854  0.4656
 8155SOL    HW136101   2.112   3.138   8.703  0.7926 -0.4498 -1.2177
 8155SOL    HW236102   2.076   3.276   8.671 -1.6984  0.0002 -3.1414
 8156SOL     OW36103   2.307   3.648  14.949  0.1770  0.5671  0.0079
 8156SOL    HW136104   2.254   3.619  15.023  1.5199 -0.2233  0.6576
 8156SOL    HW236105   2.369   3.691  15.008  2.4477 -2.9251  0.1450
 8157SOL     OW36106   3.840   2.664   5.209 -0.4099  0.1316  0.3021
 8157SOL    HW136107   3.893   2.620   5.276  2.3557  1.2514 -1.1320
 8157SOL    HW236108   3.819   2.594   5.148  0.4822 -0.4526  0.6607
 8158SOL     OW36109   0.582   4.279   5.609  0.1753  0.6114  0.5991
 8158SOL    HW136110   0.521   4.236   5.669 -0.4128 -1.0118 -1.1597
 8158SOL    HW236111   0.660   4.290   5.663  0.1704 -1.0235  0.9242
 8159SOL     OW36112   2.707   0.216   5.870  0.2389 -0.2631 -0.0899
 8159SOL    HW136113   2.775   0.242   5.809  0.6231 -3.0761 -0.8750
 8159SOL    HW236114   2.732   0.272   5.944 -1.7540  0.4115  0.0768
 8160SOL     OW36115   0.081   0.220   5.701 -0.2295 -0.4638  0.0336
 8160SOL    HW136116   0.000   0.180   5.668  0.7400 -1.3042 -1.3613
 8160SOL    HW236117   0.046   0.301   5.737 -1.1268 -1.7334  2.0491
 8161SOL     OW36118   0.261   3.680   6.489  0.3787 -0.6181 -0.2064
 8161SOL    HW136119   0.202   3.731   6.433  0.8594  0.5594  0.3528
 8161SOL    HW236120   0.307   3.753   6.531  1.6885 -2.5801  1.7268
 8162SOL     OW36121   2.949   4.661   2.637  1.0004 -0.3214  0.0323
 8162SOL    HW136122   2.972   4.624   2.552 -1.3023 -0.0355 -0.7150
 8162SOL    HW236123   3.029   4.643   2.686  0.6664 -2.0670 -0.0542
 8163SOL     OW36124   0.290   4.202   5.951  0.5293  0.9562 -0.2827
 8163SOL    HW136125   0.270   4.262   6.023  2.4479  0.4787  0.6490
 8163SOL    HW236126   0.385   4.209   5.941  0.7569 -0.9963  0.4257
 8164SOL     OW36127   2.043   2.289   2.855  0.1550 -0.2768 -0.0396
 8164SOL    HW136128   2.010   2.200   2.843 -0.7093  0.1689 -0.9577
 8164SOL    HW236129   2.061   2.284   2.948  0.7251 -0.1111 -0.1392
 8165SOL     OW36130   1.881   0.355   4.206  0.0640  0.2495 -0.2473
 8165SOL    HW136131   1.830   0.370   4.126  0.9156 -2.8772 -1.3626
 8165SOL    HW236132   1.844   0.422   4.264  0.3490  0.1214  0.0777
 8166SOL     OW36133   4.289   0.060   8.576 -0.0348  0.3045  0.3167
 8166SOL    HW136134   4.202   0.031   8.602  0.3249 -1.6725 -0.6389
 8166SOL    HW236135   4.286   0.155   8.579 -0.5391  0.2342  1.9099
 8167SOL     OW36136   1.906   3.457   7.583 -0.0135  0.4547  0.0152
 8167SOL    HW136137   1.956   3.452   7.502  1.0648  2.3866  0.5783
 8167SOL    HW236138   1.884   3.364   7.590 -2.4026  1.0659  0.7232
 8168SOL     OW36139   2.885   0.813   8.252  0.6723 -0.0932 -0.4402
 8168SOL    HW136140   2.963   0.856   8.287  0.5413 -0.8896  0.8492
 8168SOL    HW236141   2.885   0.837   8.159  0.3717  1.9551  0.1029
 8169SOL     OW36142   2.800   2.018   7.906 -0.1457  0.5618  0.2575
 8169SOL    HW136143   2.739   1.948   7.931  2.2495 -0.9417  1.9075
 8169SOL    HW236144   2.738   2.075   7.861 -0.8143  0.7131  1.3742
 8170SOL     OW36145   2.866   1.822  13.096 -0.0352 -0.3994  0.3916
 8170SOL    HW136146   2.781   1.823  13.140  0.0508  0.3552  0.5304
 8170SOL    HW236147   2.905   1.902  13.131  0.3522 -0.1230 -0.6893
 8171SOL     OW36148   1.170   3.269   4.686  0.5147  0.3437 -0.1748
 8171SOL    HW136149   1.152   3.200   4.622  1.1955 -0.4254  0.4651
 8171SOL    HW236150   1.164   3.352   4.640  0.8462  1.9274  2.6576
 8172SOL     OW36151   3.683   4.602   2.472  0.0274  0.0125  0.1543
 8172SOL    HW136152   3.743   4.550   2.526  0.8706 -0.2253 -1.0069
 8172SOL    HW236153   3.712   4.568   2.387  1.1748  2.4440 -0.4261
 8173SOL     OW36154   3.160   0.908  10.256  0.2688  0.2124 -0.4492
 8173SOL    HW136155   3.211   0.840  10.301 -1.6621  0.3129  1.8539
 8173SOL    HW236156   3.123   0.866  10.179  2.1243 -0.3624 -1.0332
 8174SOL     OW36157   0.659   2.314   4.227  0.7684 -0.0842  0.5008
 8174SOL    HW136158   0.613   2.250   4.282 -1.9340 -0.0422 -1.7070
 8174SOL    HW236159   0.610   2.393   4.248 -3.0655 -2.1905 -0.4959
 8175SOL     OW36160   1.448   4.511   8.784 -0.0350  0.3361 -0.1370
 8175SOL    HW136161   1.359   4.507   8.748  0.4600  0.1397 -1.3308
 8175SOL    HW236162   1.432   4.476   8.872  1.5062 -3.0845 -1.2267
 8176SOL     OW36163   3.312   1.878   0.065  0.2283 -1.0085 -0.1698
 8176SOL    HW136164   3.313   1.961   0.018 -0.2634 -0.7387  0.2885
 8176SOL    HW236165   3.266   1.908   0.143  2.9444 -1.5725  1.6424
 8177SOL     OW36166   1.091   0.505   4.563  0.2284  0.6157  0.4668
 8177SOL    HW136167   1.096   0.590   4.605 -1.9091  0.0488  1.8730
 8177SOL    HW236168   1.032   0.460   4.623  0.4738  0.5569  0.6625
 8178SOL     OW36169   0.545   0.607  15.260 -0.1899  0.6347  0.2346
 8178SOL    HW136170   0.549   0.546  15.185 -1.0058  1.7340 -0.6994
 8178SOL    HW236171   0.463   0.654  15.251 -0.7184 -0.1552  0.9164
 8179SOL     OW36172   2.633   3.005   4.290 -0.0524  0.9170 -0.2136
 8179SOL    HW136173   2.644   2.919   4.330 -1.0373  0.3420 -1.1915
 8179SOL    HW236174   2.720   3.008   4.249  0.4060 -0.4698  0.6631
 8180SOL     OW36175   3.187   0.722   7.074  0.6976 -0.0787 -0.4496
 8180SOL    HW136176   3.217   0.660   7.008 -0.7633 -0.1808 -1.0188
 8180SOL    HW236177   3.097   0.721   7.041  1.3576  0.0988 -2.2851
 8181SOL     OW36178   0.387   3.474   4.972  0.2281  0.0193  0.3496
 8181SOL    HW136179   0.321   3.414   4.936  2.0386 -0.7146 -1.7376
 8181SOL    HW236180   0.417   3.519   4.893 -0.6390  0.7907  0.4540
 8182SOL     OW36181   1.920   3.215  16.926 -0.3872 -0.4719  0.2482
 8182SOL    HW136182   1.995   3.248  16.877 -0.5061 -0.8409 -0.1863
 8182SOL    HW236183   1.919   3.123  16.900  0.5261 -0.5140  0.3676
 8183SOL     OW36184   3.622   3.134   3.410  0.7044 -0.1253 -0.3356
 8183SOL    HW136185   3.684   3.069   3.377  0.5367 -1.4089  1.9317
 8183SOL    HW236186   3.542   3.091   3.381  0.8315  1.3550 -2.9670
 8184SOL     OW36187   3.103   4.502   4.740 -0.2075  0.0176  0.3699
 8184SOL    HW136188   3.042   4.521   4.811 -1.0038  0.0103 -0.3239
 8184SOL    HW236189   3.152   4.584   4.741 -0.5043  0.1969  0.0743
 8185SOL     OW36190   2.813   3.748   9.337 -0.1849 -0.8243 -0.0980
 8185SOL    HW136191   2.888   3.791   9.295 -1.4308 -0.8402 -2.3415
 8185SOL    HW236192   2.778   3.830   9.373  0.1337 -0.7905  0.1362
 8186SOL     OW36193   4.580   0.925   3.516  0.5074  0.5305  0.4298
 8186SOL    HW136194   4.563   0.997   3.454  0.6820 -0.9752 -1.3769
 8186SOL    HW236195   4.601   0.853   3.457 -0.0193  0.1556  0.6976
 8187SOL     OW36196   3.089   2.122   7.096 -0.3702 -0.2263  0.2330
 8187SOL    HW136197   3.136   2.054   7.046  0.6183  1.9372 -1.7962
 8187SOL    HW236198   3.045   2.170   7.026 -1.1191  0.1680  0.9719
 8188SOL     OW36199   2.715   4.516   4.657 -0.0654 -0.3819  0.3932
 8188SOL    HW136200   2.620   4.525   4.648 -0.2692 -1.3986  1.4168
 8188SOL    HW236201   2.739   4.427   4.630  0.6188  0.2263 -1.0337
 8189SOL     OW36202   0.625   1.055  13.705 -0.0845 -0.5253  0.0797
 8189SOL    HW136203   0.719   1.065  13.691 -0.4207  2.7092  0.1507
 8189SOL    HW236204   0.609   1.106  13.785 -1.5522  0.1663 -0.6585
 8190SOL     OW36205   1.801   4.662  10.202 -0.1807 -0.5445 -0.3786
 8190SOL    HW136206   1.832   4.574  10.179 -0.4210 -0.6176 -0.4192
 8190SOL    HW236207   1.733   4.634  10.263 -0.0430  1.5171  0.6951
 8191SOL     OW36208   1.961   4.665   2.831  0.1480  0.1404  0.1111
 8191SOL    HW136209   2.038   4.609   2.822 -0.2981 -0.5212  0.4470
 8191SOL    HW236210   1.886   4.605   2.833  2.0325 -2.1388  1.2018
 8192SOL     OW36211   4.107   1.442  11.302  0.6262 -0.7519  0.1256
 8192SOL    HW136212   4.116   1.530  11.338  1.6477 -0.5564 -0.5748
 8192SOL    HW236213   4.038   1.399  11.352 -1.3589  1.7846 -0.4711
 8193SOL     OW36214   4.652   0.373   8.191  0.4960  0.0508  0.0682
 8193SOL    HW136215   4.659   0.282   8.220 -1.6629 -0.0184  0.4401
 8193SOL    HW236216   4.590   0.415   8.251 -0.6531 -0.5466 -0.6805
 8194SOL     OW36217   4.226   2.346   9.512  0.3594  0.2994 -0.5737
 8194SOL    HW136218   4.200   2.353   9.604 -0.4368 -1.0126 -0.7026
 8194SOL    HW236219   4.146   2.308   9.474  1.2062 -2.0068 -0.0649
 8195SOL     OW36220   1.270   0.419  12.795  0.4306 -0.0965  0.4007
 8195SOL    HW136221   1.214   0.422  12.873  1.6374  0.5006  1.2503
 8195SOL    HW236222   1.212   0.472  12.740 -0.2908 -1.5729 -0.2527
 8196SOL     OW36223   1.325   1.586   4.056 -0.2260  0.9438 -0.1942
 8196SOL    HW136224   1.271   1.590   4.135  0.5026  1.0670  0.2936
 8196SOL    HW236225   1.393   1.646   4.086  2.3110 -0.5691 -2.9509
 8197SOL     OW36226   0.505   1.916   4.073  0.5397  0.6532  0.4016
 8197SOL    HW136227   0.481   2.008   4.069  0.8021  0.5862 -2.6752
 8197SOL    HW236228   0.599   1.924   4.061  0.1815  1.9882 -1.5674
 8198SOL     OW36229   1.914   2.633   9.103 -0.0704 -0.0032  0.0872
 8198SOL    HW136230   2.001   2.645   9.066  0.6382  0.7987  2.0566
 8198SOL    HW236231   1.885   2.551   9.063  0.5497 -0.3787  0.4272
 8199SOL     OW36232   1.485   0.595  12.317 -0.2874 -0.2543 -0.2805
 8199SOL    HW136233   1.478   0.554  12.231 -1.3269 -0.5551 -0.0532
 8199SOL    HW236234   1.493   0.525  12.381  0.9169 -0.1958 -0.3542
 8200SOL     OW36235   1.072   3.004   4.990 -0.1824  0.4130  0.2031
 8200SOL    HW136236   1.130   3.079   4.997  0.2162  0.2679 -1.6116
 8200SOL    HW236237   1.058   2.984   5.083  1.3802  1.0858  0.5926
 8201SOL     OW36238   1.077   1.514   3.619  0.3944 -0.2764  0.0766
 8201SOL    HW136239   1.004   1.452   3.623  1.0567 -0.9500  1.7607
 8201SOL    HW236240   1.095   1.519   3.713  0.1811 -1.3932  0.1782
 8202SOL     OW36241   1.388   4.237   8.227 -0.2442  0.6662 -0.0993
 8202SOL    HW136242   1.449   4.305   8.256 -1.0024  0.4595  1.9928
 8202SOL    HW236243   1.348   4.222   8.313 -1.0854 -0.1676 -0.6295
 8203SOL     OW36244   4.570   3.316   7.159 -0.5885 -1.0055  0.5673
 8203SOL    HW136245   4.622   3.329   7.238  2.4294  3.2927 -2.1359
 8203SOL    HW236246   4.589   3.227   7.129 -0.5285 -1.1082  0.9057
 8204SOL     OW36247   1.735   4.559   4.675 -0.6020 -0.2665  0.2103
 8204SOL    HW136248   1.757   4.474   4.713 -1.0760 -0.7292 -0.5398
 8204SOL    HW236249   1.640   4.556   4.689 -0.8085  1.4397 -0.8667
 8205SOL     OW36250   1.120   0.773   2.831  0.0185  1.0722 -0.0190
 8205SOL    HW136251   1.120   0.767   2.735 -0.1946  2.4149 -0.0978
 8205SOL    HW236252   1.211   0.803   2.824  0.5526 -0.1678  1.8130
 8206SOL     OW36253   1.300   2.502   4.373 -0.4478  0.4904 -0.5861
 8206SOL    HW136254   1.235   2.552   4.323 -0.1105 -0.1358 -1.6371
 8206SOL    HW236255   1.303   2.425   4.316 -0.9500 -0.2479  0.3881
 8207SOL     OW36256   1.136   0.769   4.648 -0.0405  0.0726  0.6847
 8207SOL    HW136257   1.151   0.834   4.717  1.2218 -0.0963  0.5574
 8207SOL    HW236258   1.217   0.784   4.601 -0.8100  0.3574 -0.5445
 8208SOL     OW36259   1.416   4.321   2.024 -0.1443 -0.6054  0.6061
 8208SOL    HW136260   1.389   4.237   1.988 -1.1982 -0.3116  0.7130
 8208SOL    HW236261   1.363   4.325   2.103 -0.0385 -0.3242  0.6627
 8209SOL     OW36262   1.720   2.582  16.548  0.1000 -0.3429  0.5078
 8209SOL    HW136263   1.640   2.532  16.565 -0.2325  0.6189  1.7178
 8209SOL    HW236264   1.711   2.583  16.453 -0.1086  0.7054  0.5422
 8210SOL     OW36265   1.130   1.998   5.434 -0.6152  0.3011  0.5840
 8210SOL    HW136266   1.094   1.929   5.379 -1.2592 -0.5789  2.1072
 8210SOL    HW236267   1.222   2.001   5.408 -0.7608 -0.6662 -0.0296
 8211SOL     OW36268   1.426   4.454   9.946  0.0333  0.3017  0.5712
 8211SOL    HW136269   1.469   4.540   9.942 -0.4716  0.5490  0.4086
 8211SOL    HW236270   1.492   4.401   9.990 -0.3519 -2.3076 -2.0537
 8212SOL     OW36271   2.460   0.109   7.023  0.1479 -0.6284  0.2855
 8212SOL    HW136272   2.547   0.129   7.058 -0.2131  0.8898  0.3219
 8212SOL    HW236273   2.401   0.126   7.097 -2.6254 -1.7420 -1.6510
 8213SOL     OW36274   0.120   2.842   6.950 -0.1818 -0.0044  0.1360
 8213SOL    HW136275   0.199   2.791   6.969 -0.2476 -0.0588  0.2666
 8213SOL    HW236276   0.146   2.933   6.963 -3.2540  0.8476  0.3164
 8214SOL     OW36277   0.184   3.754   1.234 -0.1792  0.0442 -0.6514
 8214SOL    HW136278   0.242   3.773   1.309 -0.6427  4.0624 -1.3217
 8214SOL    HW236279   0.250   3.748   1.165 -0.3353  0.4199 -0.8297
 8215SOL     OW36280   3.435   3.948   5.783  0.1452 -0.0406  0.4807
 8215SOL    HW136281   3.407   3.876   5.727 -1.1765 -0.0521  1.1425
 8215SOL    HW236282   3.368   4.015   5.769 -1.5286 -1.5072  1.4756
 8216SOL     OW36283   3.726   1.781   6.392 -0.2116  0.3748 -0.5705
 8216SOL    HW136284   3.802   1.754   6.341  0.0598 -1.3983  0.7816
 8216SOL    HW236285   3.764   1.855   6.439  0.1294 -2.2886  3.3749
 8217SOL     OW36286   3.832   1.146  11.876  0.1716 -0.3309 -0.4000
 8217SOL    HW136287   3.914   1.108  11.847  0.1297 -0.5435 -0.2325
 8217SOL    HW236288   3.788   1.168  11.794  0.3754 -0.9669 -0.6787
 8218SOL     OW36289   3.105   4.261  11.114 -0.5555 -0.1617 -0.5921
 8218SOL    HW136290   3.180   4.206  11.091 -1.4631 -0.7793 -2.1382
 8218SOL    HW236291   3.084   4.221  11.198  0.8899  1.1382  0.3763
 8219SOL     OW36292   2.395   1.709   1.579  0.0417 -0.1560 -0.5316
 8219SOL    HW136293   2.345   1.716   1.497 -0.4811 -1.1737 -0.2978
 8219SOL    HW236294   2.328   1.682   1.642  0.7761  0.2086  0.4175
 8220SOL     OW36295   3.747   2.447   8.550 -0.2391  0.3353 -1.0512
 8220SOL    HW136296   3.652   2.441   8.560 -0.2760 -0.2096 -1.6979
 8220SOL    HW236297   3.762   2.540   8.568  1.7671 -0.1791 -0.0545
 8221SOL     OW36298   4.541   2.709   4.761 -0.5128  0.2526  0.4297
 8221SOL    HW136299   4.488   2.684   4.685 -0.0126 -2.2653  0.9063
 8221SOL    HW236300   4.482   2.732   4.833  0.3776  0.3149  1.1394
 8222SOL     OW36301   3.245   1.489   3.027  0.1782 -0.2545 -0.4926
 8222SOL    HW136302   3.278   1.576   3.049 -0.1458  0.2609 -2.0438
 8222SOL    HW236303   3.312   1.452   2.969  0.6038  0.4608 -0.4516
 8223SOL     OW36304   1.282   2.211   5.739 -0.0794 -0.1110  0.2401
 8223SOL    HW136305   1.252   2.279   5.679  0.1868  0.2190  0.4836
 8223SOL    HW236306   1.342   2.253   5.801 -0.5191  0.8025  0.0412
 8224SOL     OW36307   2.890   2.503  10.947 -0.3250 -0.2806 -0.1681
 8224SOL    HW136308   2.870   2.531  10.857 -1.1421  0.5229  0.2533
 8224SOL    HW236309   2.905   2.590  10.986 -0.1159  0.0621 -1.0188
 8225SOL     OW36310   0.411   3.371   3.339 -0.0708  0.5437 -0.1627
 8225SOL    HW136311   0.449   3.361   3.427 -0.9670  2.0497  0.3977
 8225SOL    HW236312   0.490   3.405   3.297  1.3084 -1.6227  0.6627
 8226SOL     OW36313   3.892   4.347   5.304 -0.4508 -0.3379 -0.3818
 8226SOL    HW136314   3.822   4.396   5.261 -0.0293  1.4114  0.9228
 8226SOL    HW236315   3.852   4.261   5.320 -1.2348  0.1895  0.5691
 8227SOL     OW36316   4.507   4.129   8.829 -0.2640  0.2489  0.7988
 8227SOL    HW136317   4.511   4.194   8.758 -2.4347  0.6794  1.0656
 8227SOL    HW236318   4.442   4.168   8.887 -0.8194  0.8343 -0.2085
 8228SOL     OW36319   2.669   4.390   1.250  0.3273  0.5003  0.3432
 8228SOL    HW136320   2.762   4.379   1.228  0.1093  1.0992 -0.8756
 8228SOL    HW236321   2.657   4.317   1.310 -1.3650 -0.7569 -1.5047
 8229SOL     OW36322   0.070   2.938   8.715 -0.6863  0.5702  0.4869
 8229SOL    HW136323   0.151   2.933   8.664 -1.5889  1.2162 -0.9959
 8229SOL    HW236324   0.009   2.983   8.658 -0.8551 -2.8462 -2.0632
 8230SOL     OW36325   3.384   1.748   4.270  0.2084  0.0776 -0.6413
 8230SOL    HW136326   3.439   1.687   4.222  2.0916 -0.7765  2.5590
 8230SOL    HW236327   3.342   1.791   4.196  2.6191  0.0473 -2.0206
 8231SOL     OW36328   4.260   1.443  15.463  0.0970  0.1138 -0.6391
 8231SOL    HW136329   4.223   1.357  15.445  0.7885  0.0209 -1.6303
 8231SOL    HW236330   4.340   1.424  15.415 -0.4507 -1.5959 -0.8832
 8232SOL     OW36331   3.083   1.345  15.246 -0.8070 -0.1174  0.1996
 8232SOL    HW136332   2.989   1.361  15.239 -0.3231  2.3848 -0.4563
 8232SOL    HW236333   3.109   1.414  15.307  0.7365  0.4935 -1.1471
 8233SOL     OW36334   4.269   2.174   7.550  0.3998 -0.5150  0.1457
 8233SOL    HW136335   4.183   2.208   7.525  0.4157 -0.7760 -0.2710
 8233SOL    HW236336   4.318   2.253   7.572 -0.2072 -0.7072  2.2090
 8234SOL     OW36337   3.755   2.499  13.373  0.1525  0.3392 -0.0717
 8234SOL    HW136338   3.831   2.452  13.338 -0.5771  1.5675 -3.3550
 8234SOL    HW236339   3.782   2.590  13.371 -0.7189  0.6154  1.2342
 8235SOL     OW36340   4.341   3.508   9.732 -0.6615 -0.8792  0.2616
 8235SOL    HW136341   4.386   3.425   9.715  1.1931  0.4069 -1.2346
 8235SOL    HW236342   4.414   3.567   9.752 -1.7549  0.4090  0.4385
 8236SOL     OW36343   2.776   3.138  13.714  0.0681  0.2018  0.1156
 8236SOL    HW136344   2.719   3.098  13.648  0.2040  1.5173 -0.7885
 8236SOL    HW236345   2.800   3.058  13.760 -1.3995 -1.0252 -1.2419
 8237SOL     OW36346   3.491   4.736   3.890 -0.0938 -0.0446  0.3931
 8237SOL    HW136347   3.479   4.647   3.922 -0.0792 -0.7873 -1.7243
 8237SOL    HW236348   3.451   0.049   3.960  0.0799 -0.9432  1.1576
 8238SOL     OW36349   2.488   4.152   3.140  0.1330 -0.2910 -0.6231
 8238SOL    HW136350   2.496   4.242   3.109 -1.1971 -0.0078 -0.1219
 8238SOL    HW236351   2.580   4.125   3.137  0.1050 -0.3984 -0.5126
 8239SOL     OW36352   4.611   0.442   7.229 -0.6074  0.2550  0.1648
 8239SOL    HW136353   4.552   0.379   7.270 -1.0865 -0.8098 -2.1518
 8239SOL    HW236354   4.687   0.385   7.224 -0.7308  0.1320 -0.3178
 8240SOL     OW36355   4.177   0.343  10.367 -0.0450  0.0386  0.6944
 8240SOL    HW136356   4.086   0.372  10.360  0.6956  1.7008 -2.3490
 8240SOL    HW236357   4.197   0.353  10.460 -0.2089  1.3474  0.5901
 8241SOL     OW36358   3.266   2.128  15.971 -0.0460 -0.1525  0.0727
 8241SOL    HW136359   3.326   2.106  16.042 -0.4309 -0.0367  0.4333
 8241SOL    HW236360   3.317   2.109  15.892  1.9694  1.9194  0.8717
 8242SOL     OW36361   4.282   2.903   0.131 -0.6241  0.1499 -0.7719
 8242SOL    HW136362   4.352   2.842   0.155  0.0523  0.9890 -0.5828
 8242SOL    HW236363   4.201   2.853   0.128 -1.7068  1.9897 -1.8156
 8243SOL     OW36364   2.572   0.274   8.007  0.6998 -0.4913 -0.3665
 8243SOL    HW136365   2.592   0.366   8.024  1.4862 -0.8813  0.8359
 8243SOL    HW236366   2.565   0.238   8.096 -1.0271  0.3366 -0.1734
 8244SOL     OW36367   3.092   0.519   7.969  0.5130 -0.0478  0.7088
 8244SOL    HW136368   3.167   0.496   7.914 -1.0175 -1.0321 -0.9807
 8244SOL    HW236369   3.076   0.604   7.928 -0.5593 -0.8271 -0.4806
 8245SOL     OW36370   1.447   4.423   7.865  0.3620  0.2672 -0.2477
 8245SOL    HW136371   1.494   4.416   7.781 -1.6276  0.6389 -1.3952
 8245SOL    HW236372   1.367   4.472   7.847  0.1700  0.7632  2.0393
 8246SOL     OW36373   2.286   1.187   1.865  0.5004 -0.1865  0.3576
 8246SOL    HW136374   2.213   1.243   1.838 -1.5654 -1.9528  2.2543
 8246SOL    HW236375   2.285   1.195   1.960 -3.2994  0.2992  0.2770
 8247SOL     OW36376   4.615   1.649  13.765 -0.0778 -0.3192 -0.2149
 8247SOL    HW136377   4.583   1.702  13.838  0.0033 -1.3828  0.5854
 8247SOL    HW236378   4.599   1.567  13.811 -0.5430 -0.5939 -0.8663
 8248SOL     OW36379   0.530   3.602  11.269 -0.2769  0.1141  0.0645
 8248SOL    HW136380   0.518   3.697  11.280 -0.0992  0.0697  0.6428
 8248SOL    HW236381   0.624   3.595  11.251 -0.8151  0.4978 -2.7424
 8249SOL     OW36382   2.569   4.650   1.713 -0.1293  0.0587 -0.3570
 8249SOL    HW136383   2.527   4.624   1.632 -0.7264  1.9954 -0.6636
 8249SOL    HW236384   2.495   4.693   1.755 -1.1110  0.0772 -2.1232
 8250SOL     OW36385   0.683   2.441   6.565 -0.0874  0.3484  0.0446
 8250SOL    HW136386   0.756   2.482   6.611 -0.2665 -0.4172  1.0171
 8250SOL    HW236387   0.731   2.395   6.496 -1.6690 -2.4914  0.8382
 8251SOL     OW36388   3.483   3.114  13.213  0.1527 -0.2686 -0.2352
 8251SOL    HW136389   3.413   3.153  13.266  0.1193 -0.3424 -0.2257
 8251SOL    HW236390   3.427   3.060  13.157 -0.2330  0.4722 -0.5696
 8252SOL     OW36391   3.520   0.579   1.794 -0.3202  0.8305  0.0815
 8252SOL    HW136392   3.561   0.660   1.765 -0.4215 -0.1141 -2.6492
 8252SOL    HW236393   3.464   0.547   1.723 -0.2157  1.6686 -0.3690
 8253SOL     OW36394   3.665   4.050  17.644 -0.2152 -0.4468 -0.5530
 8253SOL    HW136395   3.737   4.066  17.705 -2.2923  1.0359  1.5361
 8253SOL    HW236396   3.636   3.966  17.679  0.6622 -0.5611 -0.0939
 8254SOL     OW36397   2.290   3.390   1.568 -0.3847 -0.5180 -0.5923
 8254SOL    HW136398   2.258   3.438   1.491 -3.3958 -1.0234  0.3361
 8254SOL    HW236399   2.363   3.443   1.598 -2.0784  0.7626  1.2186
 8255SOL     OW36400   3.555   1.970   3.056  0.5473  0.1745  0.2845
 8255SOL    HW136401   3.557   1.915   2.978  0.0836  0.5675 -0.0057
 8255SOL    HW236402   3.571   1.903   3.122 -1.1754 -0.7822 -0.2828
 8256SOL     OW36403   3.161   3.361   5.142 -0.0787  0.0660 -0.1470
 8256SOL    HW136404   3.081   3.411   5.159  0.5617  0.9946  0.1308
 8256SOL    HW236405   3.220   3.437   5.133 -0.2737  0.2556  0.1399
 8257SOL     OW36406   4.175   3.349  14.299 -0.0748  0.1167  0.2972
 8257SOL    HW136407   4.245   3.349  14.364 -0.3181 -0.3751  0.5592
 8257SOL    HW236408   4.173   3.263  14.257  2.2659 -0.8659  2.1648
 8258SOL     OW36409   3.249   0.545   6.078  0.8515 -0.4485 -0.1041
 8258SOL    HW136410   3.214   0.628   6.046  1.4737  1.0975  3.2170
 8258SOL    HW236411   3.227   0.555   6.170  3.9078  1.0586  0.4773
 8259SOL     OW36412   0.413   2.154   4.022 -0.8027  0.3872  0.4967
 8259SOL    HW136413   0.324   2.172   4.052 -1.1264  0.4344 -0.5073
 8259SOL    HW236414   0.456   2.236   4.047 -1.3932  0.2021  2.1678
 8260SOL     OW36415   3.110   0.533   3.765  0.7973  0.3182  0.1782
 8260SOL    HW136416   3.061   0.450   3.764  2.0754 -0.4379  1.0963
 8260SOL    HW236417   3.145   0.545   3.677 -1.1350  3.2574 -0.1847
 8261SOL     OW36418   3.412   0.440   9.487 -0.6312 -0.7699 -0.2417
 8261SOL    HW136419   3.499   0.442   9.448 -1.8569 -2.5294 -3.0262
 8261SOL    HW236420   3.379   0.364   9.439  1.2473  0.4509 -3.4634
 8262SOL     OW36421   4.311   3.818  10.711 -0.0786  0.4282  0.6319
 8262SOL    HW136422   4.265   3.781  10.636  0.3790 -2.2439  1.6444
 8262SOL    HW236423   4.350   3.896  10.672  1.4804 -1.1345 -0.9371
 8263SOL     OW36424   3.250   3.010   9.270 -0.0671 -0.2273  0.3229
 8263SOL    HW136425   3.180   3.005   9.205  1.6352  0.4701 -1.5751
 8263SOL    HW236426   3.295   2.927   9.253  0.3034  0.3748 -1.6109
 8264SOL     OW36427   4.044   0.771  16.933  0.3801 -0.2195  0.1524
 8264SOL    HW136428   4.079   0.839  16.875  1.3218 -0.6749  0.1946
 8264SOL    HW236429   3.972   0.725  16.890  0.0557 -0.2990  0.7703
 8265SOL     OW36430   2.674   4.398   3.942 -0.0583 -0.2282  0.3479
 8265SOL    HW136431   2.669   4.489   3.915  0.6246 -0.7964 -1.7261
 8265SOL    HW236432   2.740   4.368   3.879 -0.0474  0.4830  0.0272
 8266SOL     OW36433   1.877   1.063   5.420 -0.5903  0.4465  0.4057
 8266SOL    HW136434   1.872   1.130   5.489  0.0086  0.4188  0.4783
 8266SOL    HW236435   1.868   1.105   5.335  1.3989  2.6228  1.2390
 8267SOL     OW36436   2.881   2.657   5.793 -0.9268 -0.3404 -1.6420
 8267SOL    HW136437   2.907   2.693   5.878  0.3097 -1.7495 -1.4290
 8267SOL    HW236438   2.788   2.641   5.813 -1.0040  2.7773  0.6318
 8268SOL     OW36439   4.003   3.025   8.700 -0.7001 -0.3088 -0.2100
 8268SOL    HW136440   4.047   2.940   8.710  0.8761  0.2604 -2.3561
 8268SOL    HW236441   3.941   3.025   8.773  0.2656 -0.8677  0.5958
 8269SOL     OW36442   3.976   2.245   9.446 -0.1935 -0.3731  0.2017
 8269SOL    HW136443   3.981   2.150   9.435 -0.0343 -0.4552  0.9832
 8269SOL    HW236444   3.914   2.275   9.380 -0.2420 -0.9043  0.0105
 8270SOL     OW36445   0.014   3.053  10.522 -0.3645  0.1419  0.3850
 8270SOL    HW136446   0.108   3.056  10.540 -0.0149 -0.2837 -1.3820
 8270SOL    HW236447   0.013   3.142  10.487  1.8653  1.0797  2.6739
 8271SOL     OW36448   2.431   0.918   8.158  0.4137 -0.2643 -0.4007
 8271SOL    HW136449   2.480   0.999   8.168  2.7767 -1.8186  0.6539
 8271SOL    HW236450   2.466   0.900   8.070  1.4956  0.3260 -0.0915
 8272SOL     OW36451   4.625   4.428   1.388  0.3530  0.0945  0.4789
 8272SOL    HW136452   4.657   4.495   1.328  1.3817  0.0639  0.9879
 8272SOL    HW236453   4.678   4.358   1.350  1.3435 -0.3514  2.6777
 8273SOL     OW36454   3.347   2.349   9.134 -0.3773 -0.0395  0.2918
 8273SOL    HW136455   3.345   2.358   9.038  1.5619  0.9188  0.3499
 8273SOL    HW236456   3.309   2.262   9.149  1.1269 -0.6917  0.2561
 8274SOL     OW36457   3.825   4.187   6.528  0.5367  0.0669 -0.2174
 8274SOL    HW136458   3.838   4.146   6.613 -0.3591 -1.1527 -0.6689
 8274SOL    HW236459   3.776   4.123   6.476  0.2430  1.5482 -1.7810
 8275SOL     OW36460   1.587   4.178   1.040  0.0665  0.3098  1.0249
 8275SOL    HW136461   1.638   4.187   0.960 -0.7126 -1.3086  0.3570
 8275SOL    HW236462   1.609   4.087   1.060  0.7418  0.4790  1.0257
 8276SOL     OW36463   0.717   2.553   8.572 -0.2910  0.1363 -0.2036
 8276SOL    HW136464   0.727   2.458   8.565 -0.4447  0.0706  0.4781
 8276SOL    HW236465   0.650   2.571   8.638  0.7903 -1.1720  1.2418
 8277SOL     OW36466   2.416   0.105  15.751 -0.1338  0.4464  0.0328
 8277SOL    HW136467   2.330   0.066  15.766  0.3641 -0.4509  0.5596
 8277SOL    HW236468   2.407   0.103  15.656 -0.6446  2.5976  0.0217
 8278SOL     OW36469   2.902   4.091   8.940  0.0055  1.2753  0.4523
 8278SOL    HW136470   2.872   4.167   8.888  0.9909  1.0010 -0.5138
 8278SOL    HW236471   2.841   4.090   9.014 -1.6553  0.1208 -0.9244
 8279SOL     OW36472   0.789   4.458  14.439 -0.3319  0.0482  0.1914
 8279SOL    HW136473   0.863   4.421  14.487 -0.0259  0.3874 -0.0142
 8279SOL    HW236474   0.769   4.528  14.501 -0.6667 -0.8818  1.1214
 8280SOL     OW36475   4.480   3.076   2.076 -0.1281  0.2409 -0.7127
 8280SOL    HW136476   4.422   3.013   2.118 -0.5406 -0.1184 -1.8218
 8280SOL    HW236477   4.458   3.146   2.138  1.0523  0.1916 -0.2469
 8281SOL     OW36478   1.427   2.050   7.075  0.4650  0.3085  0.3514
 8281SOL    HW136479   1.372   2.015   7.145  1.0601  0.5884  0.9566
 8281SOL    HW236480   1.491   1.980   7.091 -0.7883 -1.1584 -1.0876
 8282SOL     OW36481   4.230   1.732   3.197  0.1823  0.0302 -0.5989
 8282SOL    HW136482   4.191   1.776   3.273  1.7146 -1.0694  0.8276
 8282SOL    HW236483   4.318   1.768   3.205  0.3939 -0.1137 -2.4125
 8283SOL     OW36484   0.839   2.218   9.313  1.4342 -0.2702 -0.2046
 8283SOL    HW136485   0.834   2.231   9.408 -0.3937  0.9205 -0.4662
 8283SOL    HW236486   0.911   2.278   9.295  1.3342 -0.6598 -1.9075
 8284SOL     OW36487   1.138   0.518  11.038  0.1145 -0.0978  0.1492
 8284SOL    HW136488   1.226   0.537  11.007 -0.0046 -0.7372 -0.5637
 8284SOL    HW236489   1.162   0.484  11.124 -2.3547  0.7550  1.1835
 8285SOL     OW36490   3.642   0.960  14.706  0.5134  0.0995  0.0873
 8285SOL    HW136491   3.588   0.967  14.784  0.8123  1.8000  0.1472
 8285SOL    HW236492   3.728   0.977  14.743  0.8527 -2.3998  0.4708
 8286SOL     OW36493   1.198   0.665  12.042  1.1312 -0.3833 -0.3736
 8286SOL    HW136494   1.252   0.734  12.080 -0.4663  0.9478 -0.5530
 8286SOL    HW236495   1.174   0.617  12.122 -1.1553 -0.2745 -1.0056
 8287SOL     OW36496   2.930   4.494   7.897 -0.0287  0.0843  0.0664
 8287SOL    HW136497   2.858   4.434   7.880  0.5909 -0.1902 -1.5797
 8287SOL    HW236498   2.973   4.488   7.812 -0.0765  2.0105 -0.0843
 8288SOL     OW36499   0.544   4.358   5.350 -0.0498  0.5301 -0.7581
 8288SOL    HW136500   0.620   4.326   5.302 -0.8155 -1.7211 -0.4756
 8288SOL    HW236501   0.564   4.359   5.444  0.9335  2.1049 -1.0011
 8289SOL     OW36502   0.598   0.777   4.208  0.1261 -0.2517  0.2813
 8289SOL    HW136503   0.596   0.756   4.302  1.4025  0.4593  0.4696
 8289SOL    HW236504   0.508   0.759   4.183 -1.0637  1.9953  2.9152
 8290SOL     OW36505   0.775   1.635   2.467  0.0335 -0.7139  0.0232
 8290SOL    HW136506   0.747   1.607   2.554 -0.2448  1.6287  0.6913
 8290SOL    HW236507   0.851   1.578   2.457  0.5369 -0.2010  0.8795
 8291SOL     OW36508   3.246   2.091   8.653 -0.1871 -0.4038  0.0850
 8291SOL    HW136509   3.293   2.025   8.602 -0.5964  0.7004 -1.6950
 8291SOL    HW236510   3.220   2.035   8.726  0.3307  1.2060  1.5267
 8292SOL     OW36511   1.374   3.066   3.632  0.4898 -0.0668  0.6484
 8292SOL    HW136512   1.402   3.125   3.702 -1.5032 -0.5299  1.8212
 8292SOL    HW236513   1.282   3.045   3.649  0.1734  0.9956  0.2273
 8293SOL     OW36514   1.264   0.025   5.302  0.0855  0.0623 -0.2875
 8293SOL    HW136515   1.223   0.001   5.385  1.1546  1.6162  0.6737
 8293SOL    HW236516   1.296   0.112   5.324  0.1123  0.5640 -2.2628
 8294SOL     OW36517   4.156   4.422   4.262  0.2775 -0.1094  0.1668
 8294SOL    HW136518   4.154   4.463   4.349 -1.0638  1.8071 -0.7782
 8294SOL    HW236519   4.193   4.493   4.209 -0.7743 -0.5516 -1.1603
 8295SOL     OW36520   4.715   1.285  11.998  0.0340  0.0121 -0.1749
 8295SOL    HW136521   0.018   1.235  11.928 -0.3227  1.8805 -1.7349
 8295SOL    HW236522   4.675   1.218  12.053 -0.0760  0.3420  0.1403
 8296SOL     OW36523   1.159   2.926   1.004  0.0213 -0.3415  0.0397
 8296SOL    HW136524   1.206   2.995   1.050 -0.6350  0.1847 -0.0874
 8296SOL    HW236525   1.141   2.864   1.075  0.7525 -0.9403 -0.2899
 8297SOL     OW36526   1.281   1.008   0.481 -0.2024 -0.1078  0.1613
 8297SOL    HW136527   1.263   0.956   0.559  1.9171 -1.8278 -0.4901
 8297SOL    HW236528   1.375   1.025   0.487 -0.4719  2.1377 -1.9021
 8298SOL     OW36529   1.182   0.740  15.350  0.3075  0.2167 -0.4885
 8298SOL    HW136530   1.237   0.783  15.415 -0.1275  1.1693 -0.7553
 8298SOL    HW236531   1.104   0.794  15.350 -1.4564 -2.3107  2.1958
 8299SOL     OW36532   1.214   1.087   1.614 -0.0388  0.5574  0.6022
 8299SOL    HW136533   1.271   1.015   1.586 -1.0832 -0.2358  0.4799
 8299SOL    HW236534   1.144   1.086   1.548  1.2823 -2.8202 -0.7533
 8300SOL     OW36535   4.371   4.625   3.610  0.1946 -0.1586 -0.1376
 8300SOL    HW136536   4.457   4.590   3.632 -1.2301 -1.5883  3.1007
 8300SOL    HW236537   4.313   4.578   3.670 -2.1368  1.7087 -0.9298
 8301SOL     OW36538   1.830   1.729   5.643 -0.2183  0.0706 -0.0860
 8301SOL    HW136539   1.794   1.743   5.555  2.3110  4.0847 -0.4873
 8301SOL    HW236540   1.750   1.740   5.694  0.3037  0.0714  0.7315
 8302SOL     OW36541   1.037   1.801   5.954 -0.4732 -0.0008 -0.1588
 8302SOL    HW136542   1.021   1.749   5.875  3.2647 -0.3326 -0.6852
 8302SOL    HW236543   1.004   1.889   5.936 -0.9102 -0.1251  0.0322
 8303SOL     OW36544   0.986   3.672   8.283  0.3651 -0.2074 -0.3709
 8303SOL    HW136545   0.971   3.713   8.369  1.4868  0.6340 -0.5784
 8303SOL    HW236546   1.080   3.683   8.274  0.0775  1.2889 -1.5024
 8304SOL     OW36547   1.123   0.201   5.972 -0.5477 -0.7480 -0.8193
 8304SOL    HW136548   1.148   0.139   6.041 -1.9947  0.6169  0.9336
 8304SOL    HW236549   1.036   0.223   6.004  0.7291 -0.0211  2.1404
 8305SOL     OW36550   1.230   1.591   1.639  0.3070  0.1543 -0.2291
 8305SOL    HW136551   1.315   1.563   1.606  0.7743  0.4924  0.6826
 8305SOL    HW236552   1.219   1.669   1.583 -2.5509  1.3887  2.0865
 8306SOL     OW36553   0.189   4.059   0.010  0.2548  0.6904 -0.0892
 8306SOL    HW136554   0.098   4.080  17.743 -0.1520  0.4573  1.4206
 8306SOL    HW236555   0.183   3.973   0.052  1.1863 -0.1966 -1.7991
 8307SOL     OW36556   0.381   3.775   1.412 -0.1539 -0.1819 -0.0983
 8307SOL    HW136557   0.360   3.702   1.469 -0.5489 -0.5095 -0.6652
 8307SOL    HW236558   0.465   3.801   1.451 -0.7332  0.7761  0.5052
 8308SOL     OW36559   0.687   2.941   9.242 -0.0994  0.5650 -0.4197
 8308SOL    HW136560   0.776   2.976   9.246  0.2796 -0.4071 -0.5095
 8308SOL    HW236561   0.699   2.846   9.237 -0.1611  0.5561 -0.3996
 8309SOL     OW36562   4.460   4.173   6.269  0.4252  0.2630 -0.2599
 8309SOL    HW136563   4.466   4.235   6.342 -0.5681  0.9165 -0.7534
 8309SOL    HW236564   4.425   4.097   6.316  0.4532 -0.1988 -0.9888
 8310SOL     OW36565   1.736   1.411   2.464  0.5650  0.8476 -0.1063
 8310SOL    HW136566   1.656   1.418   2.413  0.0776  1.4624  0.7455
 8310SOL    HW236567   1.707   1.345   2.527  4.3006 -1.7341 -1.0797
 8311SOL     OW36568   0.391   3.939   6.544  0.2899  0.3159  0.1804
 8311SOL    HW136569   0.455   3.919   6.475 -0.9558  0.2447 -0.9624
 8311SOL    HW236570   0.437   4.003   6.598 -0.0227 -0.8182  1.7661
 8312SOL     OW36571   0.456   1.873  11.302  0.0840  0.3084  0.3205
 8312SOL    HW136572   0.551   1.872  11.295  0.0836 -0.6798  0.3973
 8312SOL    HW236573   0.434   1.965  11.314 -1.5293 -0.1972  1.3351
 8313SOL     OW36574   4.121   1.918   4.286 -0.3898 -0.7722  0.7452
 8313SOL    HW136575   4.056   1.848   4.280 -0.7011 -0.6377  2.6727
 8313SOL    HW236576   4.164   1.894   4.368 -0.5336 -0.8141  0.8097
 8314SOL     OW36577   3.899   1.039  16.739 -0.4358  0.5568  0.2510
 8314SOL    HW136578   3.988   1.005  16.736 -0.4831  0.4358  0.2077
 8314SOL    HW236579   3.904   1.118  16.685  0.7039 -0.8788 -1.7449
 8315SOL     OW36580   4.417   3.795   5.355 -0.0742 -1.1195 -0.6802
 8315SOL    HW136581   4.422   3.748   5.438 -3.0400 -0.8989 -0.3699
 8315SOL    HW236582   4.472   3.741   5.298  1.1544  0.1731 -0.7383
 8316SOL     OW36583   3.571   4.567   3.443  0.6299  0.5352  0.1982
 8316SOL    HW136584   3.629   4.491   3.440  0.8913  0.8128 -1.4874
 8316SOL    HW236585   3.619   4.632   3.495  0.1992  0.5948  0.5238
 8317SOL     OW36586   0.872   3.056   2.276  0.5635  0.1774 -0.1750
 8317SOL    HW136587   0.924   3.059   2.357  0.0975  2.7450  0.0490
 8317SOL    HW236588   0.828   3.141   2.278  2.3635  1.0698  2.1932
 8318SOL     OW36589   3.141   2.425  10.923  0.0685  0.4881 -0.0380
 8318SOL    HW136590   3.132   2.376  10.841  1.0442 -1.6831  1.1549
 8318SOL    HW236591   3.051   2.450  10.942 -0.0820 -1.0024  1.2600
 8319SOL     OW36592   4.468   4.321  16.782 -0.8602  0.7122 -0.4079
 8319SOL    HW136593   4.523   4.332  16.705  1.5855  0.6189  1.3329
 8319SOL    HW236594   4.535   4.306  16.849 -0.7980 -0.2189 -0.6791
 8320SOL     OW36595   2.522   2.194   4.017 -0.0960 -0.6682 -0.1826
 8320SOL    HW136596   2.502   2.280   3.980  2.3455 -0.5416 -1.2531
 8320SOL    HW236597   2.599   2.172   3.964  1.5514 -0.1813  2.0462
 8321SOL     OW36598   3.179   1.828   5.179  0.3077  0.6853  0.4869
 8321SOL    HW136599   3.269   1.806   5.155 -0.7239 -1.9429 -1.0031
 8321SOL    HW236600   3.184   1.924   5.182  2.4539  0.6264 -1.1867
 8322SOL     OW36601   1.394   0.866   2.857 -0.3426 -0.4091 -0.0165
 8322SOL    HW136602   1.487   0.885   2.844 -0.7506 -0.0335 -2.4963
 8322SOL    HW236603   1.395   0.770   2.856 -0.8755 -0.4239  1.0734
 8323SOL     OW36604   2.726   3.630  16.355 -0.4578 -0.2627  0.1006
 8323SOL    HW136605   2.713   3.688  16.430 -1.9260  0.2490 -0.5650
 8323SOL    HW236606   2.677   3.555  16.389  0.4404 -0.8084  0.2066
 8324SOL     OW36607   3.261   2.902   5.299  0.4625 -0.2907 -0.4005
 8324SOL    HW136608   3.296   2.990   5.311 -0.2052 -0.1336  0.3755
 8324SOL    HW236609   3.208   2.881   5.375  1.2502  0.0364  0.2369
 8325SOL     OW36610   1.949   4.397  13.071 -0.0196  0.2222  0.2062
 8325SOL    HW136611   1.971   4.329  13.135  1.7640  0.3535 -0.2935
 8325SOL    HW236612   1.972   4.480  13.113 -1.1071 -0.1537  1.5517
 8326SOL     OW36613   0.256   2.006   5.330 -0.3026 -0.2093 -0.2028
 8326SOL    HW136614   0.242   2.100   5.322 -1.7621 -0.2902  1.2579
 8326SOL    HW236615   0.333   1.992   5.275 -0.2188  0.5911 -0.2825
 8327SOL     OW36616   0.301   0.915   8.765 -0.4499 -0.1463  0.0788
 8327SOL    HW136617   0.213   0.901   8.801 -0.8758 -1.1292 -1.3205
 8327SOL    HW236618   0.341   0.831   8.786 -0.8076 -0.6916 -1.4163
 8328SOL     OW36619   3.072   3.161  13.443 -0.3817  0.0261 -0.2153
 8328SOL    HW136620   3.090   3.126  13.531 -0.0251  0.7561  0.0002
 8328SOL    HW236621   2.998   3.217  13.467  1.0236  1.9615 -0.4252
 8329SOL     OW36622   2.758   2.433   8.637 -0.1178  0.0027 -0.4375
 8329SOL    HW136623   2.675   2.410   8.595 -0.6069  0.5716  0.2059
 8329SOL    HW236624   2.791   2.343   8.635  1.4442  0.5649  0.1804
 8330SOL     OW36625   0.427   1.353   4.061  0.6720 -0.2130 -0.3916
 8330SOL    HW136626   0.405   1.291   4.130  1.0611  0.1345  0.0376
 8330SOL    HW236627   0.444   1.433   4.109 -3.9227  1.2696 -1.2385
 8331SOL     OW36628   4.134   1.530   6.449  0.8065 -0.0248 -0.1408
 8331SOL    HW136629   4.151   1.519   6.356 -1.3956 -1.1063 -0.4213
 8331SOL    HW236630   4.151   1.437   6.465 -1.6638 -0.7831 -1.8570
 8332SOL     OW36631   0.258   0.313   2.719 -0.0583  0.2649  0.3279
 8332SOL    HW136632   0.186   0.265   2.760 -0.3440  2.6051  2.5260
 8332SOL    HW236633   0.331   0.261   2.753  1.0782 -0.2767 -2.9347
 8333SOL     OW36634   1.655   1.335   4.422 -0.3124 -0.0239  0.1631
 8333SOL    HW136635   1.564   1.313   4.442  0.1970 -2.6835 -0.3724
 8333SOL    HW236636   1.697   1.342   4.508 -0.9771 -0.5875  0.5308
 8334SOL     OW36637   2.311   4.210   8.913  0.0489 -0.1737  0.4856
 8334SOL    HW136638   2.270   4.209   8.999  0.4138  0.5672  0.6736
 8334SOL    HW236639   2.383   4.268   8.937 -2.8708  3.6976  0.0302
 8335SOL     OW36640   1.859   4.390   8.552  0.7475  0.7076 -0.1822
 8335SOL    HW136641   1.764   4.396   8.545  0.8819  2.3295 -0.8656
 8335SOL    HW236642   1.860   4.317   8.613  1.8901 -0.4021 -1.5252
 8336SOL     OW36643   2.460   4.175   4.753 -0.4086  0.3186  0.6010
 8336SOL    HW136644   2.442   4.102   4.813  1.1697 -0.6928 -0.1659
 8336SOL    HW236645   2.478   4.250   4.809  0.8674  1.2848 -1.1111
 8337SOL     OW36646   2.470   0.529   5.798  0.0102  0.4518 -0.6982
 8337SOL    HW136647   2.433   0.474   5.867  1.0167  0.4118 -0.1832
 8337SOL    HW236648   2.520   0.597   5.843 -0.6458  1.3313 -1.2923
 8338SOL     OW36649   0.772   1.280   6.473  0.4426  0.1429  0.1000
 8338SOL    HW136650   0.738   1.312   6.389 -0.0002 -2.6363 -0.7879
 8338SOL    HW236651   0.715   1.203   6.480  1.6736 -0.7806 -0.0318
 8339SOL     OW36652   3.394   0.054   1.126  0.6031  0.3660 -0.4232
 8339SOL    HW136653   3.421   0.121   1.189  0.9875 -2.1155  2.0835
 8339SOL    HW236654   3.418   4.712   1.171 -0.4876  0.2267 -0.0931
 8340SOL     OW36655   0.802   3.070   5.110 -0.7283 -0.1617 -0.1310
 8340SOL    HW136656   0.763   3.148   5.070  0.2695  0.6517  0.4868
 8340SOL    HW236657   0.875   3.051   5.051  0.6976  0.3206  1.4798
 8341SOL     OW36658   4.140   4.076   9.415 -0.5013  0.0998 -0.2512
 8341SOL    HW136659   4.120   4.020   9.341 -0.8732 -1.2422  0.8639
 8341SOL    HW236660   4.160   4.015   9.487  0.9106  1.4166  0.4660
 8342SOL     OW36661   4.682   3.685   9.551  0.2597  0.4345  0.3670
 8342SOL    HW136662   4.663   3.775   9.525  0.1420  0.1613 -0.4979
 8342SOL    HW236663   4.621   3.640   9.492  0.8180 -0.3047  0.3482
 8343SOL     OW36664   2.161   2.549   5.416  0.4334  0.6106  0.2390
 8343SOL    HW136665   2.187   2.461   5.388 -1.2439  0.8576 -2.1334
 8343SOL    HW236666   2.134   2.538   5.507  0.3820 -0.2298  0.1279
 8344SOL     OW36667   1.238   1.912  17.455  0.0949 -0.1172 -0.2137
 8344SOL    HW136668   1.238   1.987  17.514 -2.0501 -1.7095  1.7652
 8344SOL    HW236669   1.150   1.908  17.417 -0.4152 -0.9447  1.0816
 8345SOL     OW36670   4.389   4.143  10.025  0.2566  0.0427  0.2087
 8345SOL    HW136671   4.473   4.127   9.980  1.1638 -0.0456  1.9438
 8345SOL    HW236672   4.412   4.220  10.077 -1.3647  0.6847 -0.0266
 8346SOL     OW36673   4.114   1.100   7.046  0.1492 -0.3024 -0.3462
 8346SOL    HW136674   4.087   1.170   6.987 -0.8404  1.4276  2.1557
 8346SOL    HW236675   4.210   1.105   7.043  0.0573  3.3626  2.3454
 8347SOL     OW36676   1.844   1.407  13.305 -0.2897 -0.8522 -0.0152
 8347SOL    HW136677   1.785   1.480  13.287  2.3895  0.6770 -2.5356
 8347SOL    HW236678   1.804   1.337  13.253 -0.5963 -1.1728  0.6452
 8348SOL     OW36679   3.810   3.819   2.747  0.6778  0.6074 -0.2727
 8348SOL    HW136680   3.885   3.843   2.801  0.4978  0.1052  0.1983
 8348SOL    HW236681   3.853   3.767   2.680 -0.5101 -1.3287  0.4789
 8349SOL     OW36682   4.507   4.240   4.436  0.1858 -0.2245 -0.1695
 8349SOL    HW136683   4.434   4.179   4.450  0.0978 -0.4848 -1.7207
 8349SOL    HW236684   4.477   4.300   4.504  1.9186 -0.4315  0.7621
 8350SOL     OW36685   1.178   3.513  11.868 -0.2768 -0.1752 -0.5059
 8350SOL    HW136686   1.099   3.501  11.920  1.5223  0.6148  2.4603
 8350SOL    HW236687   1.226   3.434  11.893 -1.5282 -0.9197 -0.4756
 8351SOL     OW36688   3.999   2.576  16.877 -0.1292 -0.7666  0.5818
 8351SOL    HW136689   4.036   2.527  16.804 -2.4777 -1.0566 -0.3945
 8351SOL    HW236690   4.061   2.649  16.879 -0.7300 -0.2466  0.2563
 8352SOL     OW36691   2.799   3.977   1.940 -0.7461  0.2388  0.6438
 8352SOL    HW136692   2.882   4.012   1.973  0.2098 -0.5456 -0.9492
 8352SOL    HW236693   2.780   4.049   1.880 -2.4913  0.6336  1.6479
 8353SOL     OW36694   1.835   0.194   5.442  0.1032  0.0037 -0.5976
 8353SOL    HW136695   1.829   0.266   5.505  0.8115 -2.3335  2.1122
 8353SOL    HW236696   1.859   0.127   5.507 -1.1588  0.9354  0.8429
 8354SOL     OW36697   3.133   4.116   3.724  0.2659  0.0591  0.0720
 8354SOL    HW136698   3.084   4.196   3.742 -0.8945 -0.2953 -1.5628
 8354SOL    HW236699   3.070   4.056   3.684  1.3084  0.4322 -2.1782
 8355SOL     OW36700   4.010   3.782   8.319  0.2804 -0.0370 -0.5681
 8355SOL    HW136701   3.922   3.776   8.282  0.3056  0.2029 -0.6681
 8355SOL    HW236702   3.986   3.718   8.387 -0.3537 -0.0463 -0.7988
 8356SOL     OW36703   4.460   3.913   5.858  0.0233 -1.4808  0.2171
 8356SOL    HW136704   4.407   3.992   5.850  4.2063  1.2909 -0.4616
 8356SOL    HW236705   4.518   3.922   5.782 -0.7450  1.0971 -0.0644
 8357SOL     OW36706   3.864   1.053   4.378  0.1632  0.1323 -0.5057
 8357SOL    HW136707   3.769   1.048   4.388  0.0125  0.1756 -1.9622
 8357SOL    HW236708   3.896   1.011   4.458  0.6063 -0.0559 -0.7798
 8358SOL     OW36709   4.523   0.452   3.254  0.3932 -0.8069  0.5408
 8358SOL    HW136710   4.496   0.512   3.185  3.0472  0.4616  0.5858
 8358SOL    HW236711   4.594   0.414   3.201 -1.3367 -0.8370 -1.7234
 8359SOL     OW36712   0.945   4.183   8.722  0.1891 -0.0130 -0.0354
 8359SOL    HW136713   0.903   4.200   8.806 -0.0133 -2.3367  0.3346
 8359SOL    HW236714   0.895   4.231   8.656 -0.2243 -1.1854 -0.5711
 8360SOL     OW36715   3.771   4.619   8.953  0.0550  0.8074 -0.0121
 8360SOL    HW136716   3.785   4.526   8.939  0.6489  0.6925  1.3716
 8360SOL    HW236717   3.842   4.653   8.899  0.8548  1.3879  1.3761
 8361SOL     OW36718   4.653   3.448  10.327  0.1802 -0.8783  0.2290
 8361SOL    HW136719   4.608   3.529  10.351  0.0551 -1.3241  1.5175
 8361SOL    HW236720   4.588   3.381  10.349  1.7680 -2.5115  0.0222
 8362SOL     OW36721   3.092   1.471   1.026  0.1143 -0.4163 -0.1190
 8362SOL    HW136722   3.065   1.490   0.936 -0.1768 -0.1199  0.0332
 8362SOL    HW236723   3.011   1.495   1.070  0.0450 -0.0797 -0.4288
 8363SOL     OW36724   0.670   0.171   5.694  0.0320  0.0892 -0.6911
 8363SOL    HW136725   0.648   0.195   5.604  0.5681  0.6716 -0.6699
 8363SOL    HW236726   0.584   0.172   5.737  0.3126  0.9441 -0.1481
 8364SOL     OW36727   4.510   4.594   7.418  0.1469 -0.3886  0.1866
 8364SOL    HW136728   4.573   4.641   7.473 -0.2833  0.8677 -0.4068
 8364SOL    HW236729   4.505   4.658   7.347  0.5860  1.3255  1.7016
 8365SOL     OW36730   4.029   4.593   6.821 -0.4517 -0.0530  0.4573
 8365SOL    HW136731   4.007   4.531   6.751 -0.0698  1.9197 -1.4291
 8365SOL    HW236732   3.939   4.614   6.846 -0.2804 -0.4837  1.4418
 8366SOL     OW36733   4.386   2.405   7.616 -0.3846  0.2190 -0.5251
 8366SOL    HW136734   4.378   2.465   7.690  0.5606  0.9884 -1.0437
 8366SOL    HW236735   4.477   2.411   7.587 -0.4049 -1.9953 -1.0626
 8367SOL     OW36736   1.229   4.554  13.429 -0.9022  0.3403  0.5417
 8367SOL    HW136737   1.262   4.515  13.510 -0.3186  1.4313  0.8258
 8367SOL    HW236738   1.143   4.588  13.456 -0.5404  0.9487  0.9104
 8368SOL     OW36739   2.514   0.817   4.528 -0.3756  0.6964 -0.8998
 8368SOL    HW136740   2.579   0.879   4.494  3.6483 -2.7764  0.5112
 8368SOL    HW236741   2.478   0.852   4.610  0.2821  1.6546 -1.0135
 8369SOL     OW36742   0.627   0.366   6.128 -0.0460  0.2765  0.1572
 8369SOL    HW136743   0.685   0.305   6.083  0.1181 -0.2417  1.0778
 8369SOL    HW236744   0.582   0.306   6.187 -1.8712  0.9749 -0.5327
 8370SOL     OW36745   2.261   3.413   8.798  0.0949  0.3024 -0.3144
 8370SOL    HW136746   2.290   3.464   8.722  2.7584  0.9462  1.1318
 8370SOL    HW236747   2.172   3.446   8.797  0.1325  0.3524 -2.8913
 8371SOL     OW36748   0.633   3.265  16.393  0.0330 -0.5635 -0.3436
 8371SOL    HW136749   0.703   3.261  16.328 -0.1348 -0.2216 -0.5489
 8371SOL    HW236750   0.567   3.309  16.339  2.1133  3.4672  0.3833
 8372SOL     OW36751   3.039   2.803  13.407 -0.9911  0.3456 -0.4248
 8372SOL    HW136752   3.118   2.762  13.371 -1.2544 -0.4249 -0.1304
 8372SOL    HW236753   2.976   2.794  13.336 -0.3127 -0.3142 -0.9385
 8373SOL     OW36754   4.569   0.583  10.415 -0.0234  0.0198  0.2286
 8373SOL    HW136755   4.529   0.630  10.342 -0.3318  0.7483  0.8564
 8373SOL    HW236756   4.620   0.519  10.366 -1.1984 -2.0957  1.7686
 8374SOL     OW36757   4.362   3.257   9.959 -0.5430 -0.1764  0.3223
 8374SOL    HW136758   4.274   3.294   9.963  0.3662  2.0911 -0.2908
 8374SOL    HW236759   4.392   3.245  10.049 -2.9516 -0.0707  1.1426
 8375SOL     OW36760   1.361   1.605   6.544  0.1094  0.4480 -0.4969
 8375SOL    HW136761   1.303   1.543   6.500 -0.9925 -0.2282  1.9107
 8375SOL    HW236762   1.432   1.611   6.480  2.3889  1.6619  2.1326
 8376SOL     OW36763   0.054   4.583   2.407 -0.0747  0.5829 -0.6211
 8376SOL    HW136764   0.137   4.629   2.396  0.6876 -0.4877  0.6361
 8376SOL    HW236765   0.066   4.512   2.344 -2.0499 -1.1485  0.9652
 8377SOL     OW36766   2.195   4.102   7.338  0.8356  0.4715 -0.4757
 8377SOL    HW136767   2.196   4.137   7.427 -4.8649 -1.3623  0.2914
 8377SOL    HW236768   2.289   4.111   7.322  0.6059  1.6511 -1.1370
 8378SOL     OW36769   2.194   4.606  13.888 -0.4229  0.4090  0.5508
 8378SOL    HW136770   2.289   4.605  13.904 -0.1583  3.0062 -0.8825
 8378SOL    HW236771   2.194   4.691  13.845 -3.4290  0.2798  0.3410
 8379SOL     OW36772   3.335   2.004   1.545 -0.6936  0.0283 -0.3545
 8379SOL    HW136773   3.387   2.033   1.470 -0.6997 -1.9252 -1.1194
 8379SOL    HW236774   3.256   1.985   1.494  0.0896  0.4247 -1.7048
 8380SOL     OW36775   0.929   2.536   3.642 -0.1246  0.6922  0.1881
 8380SOL    HW136776   0.899   2.506   3.728  1.1765  0.4015  0.5421
 8380SOL    HW236777   0.852   2.531   3.586 -0.4876 -0.4317  0.7805
 8381SOL     OW36778   3.624   2.949   9.212  0.2960  0.1506 -0.3221
 8381SOL    HW136779   3.711   2.926   9.180  1.4460  3.1294  0.7258
 8381SOL    HW236780   3.640   3.023   9.270 -3.2247 -0.3073  1.2257
 8382SOL     OW36781   0.624   0.754   7.965 -0.3699 -0.3024  0.4398
 8382SOL    HW136782   0.533   0.780   7.980 -0.4856  1.0397 -2.5633
 8382SOL    HW236783   0.618   0.747   7.870  0.8511 -0.0885  0.3371
 8383SOL     OW36784   4.107   0.269   8.906  0.5170  0.0279 -0.0644
 8383SOL    HW136785   4.128   0.334   8.839 -0.0343 -0.0255 -0.2915
 8383SOL    HW236786   4.132   0.313   8.987  0.9093  0.2501 -0.3058
 8384SOL     OW36787   2.280   3.834   6.773 -0.8707 -0.0822  0.5285
 8384SOL    HW136788   2.208   3.802   6.720 -1.1465 -0.2153  0.9849
 8384SOL    HW236789   2.232   3.876   6.844 -0.2105  0.9735  0.3512
 8385SOL     OW36790   2.665   2.026  11.876  0.2641 -0.4550 -0.2162
 8385SOL    HW136791   2.683   2.104  11.928 -1.6853 -0.4612  0.4770
 8385SOL    HW236792   2.579   2.046  11.839 -0.1296 -0.0959  0.8935
 8386SOL     OW36793   3.086   0.328   6.727 -0.4358  0.1566  0.5067
 8386SOL    HW136794   3.032   0.394   6.684  0.5996  1.3716  1.0813
 8386SOL    HW236795   3.070   0.329   6.821 -1.5700  0.7432  0.3108
 8387SOL     OW36796   3.497   2.747   3.485 -0.1334  0.6808 -0.4287
 8387SOL    HW136797   3.406   2.726   3.462  0.4746 -2.6023  0.1754
 8387SOL    HW236798   3.480   2.830   3.530  1.0252 -0.1477  1.5349
 8388SOL     OW36799   2.811   0.340   5.356  0.2415 -0.1849 -0.2850
 8388SOL    HW136800   2.718   0.339   5.334 -0.1589 -0.8903  1.4485
 8388SOL    HW236801   2.835   0.249   5.342  1.1372 -0.2104  1.3563
 8389SOL     OW36802   1.227   3.338   8.323  0.4952  0.0738 -0.3211
 8389SOL    HW136803   1.221   3.429   8.294 -2.0079  0.6540  1.9158
 8389SOL    HW236804   1.236   3.297   8.238  1.7280 -1.2334  0.4427
 8390SOL     OW36805   3.894   3.363  13.802  0.1242  0.1279  0.1406
 8390SOL    HW136806   3.862   3.454  13.806  2.1808  0.7836  2.1392
 8390SOL    HW236807   3.847   3.325  13.875 -0.2811  3.5479  1.6599
 8391SOL     OW36808   0.720   4.121   5.860 -0.0407  0.1672  0.0034
 8391SOL    HW136809   0.776   4.105   5.936 -0.1567 -0.6388 -0.0821
 8391SOL    HW236810   0.656   4.182   5.897 -1.8339 -0.8781 -1.3891
 8392SOL     OW36811   2.043   3.962   2.720 -0.2201 -0.5171  0.6739
 8392SOL    HW136812   1.965   3.988   2.671  0.5406  1.7840  0.6625
 8392SOL    HW236813   2.082   4.049   2.730  0.8032 -0.8784 -0.1467
 8393SOL     OW36814   0.671   4.490   6.212 -0.5120  0.1491 -0.6823
 8393SOL    HW136815   0.693   4.498   6.304  1.0552 -0.0125 -1.0497
 8393SOL    HW236816   0.576   4.504   6.212 -0.4136  0.8159 -0.8531
 8394SOL     OW36817   2.920   1.744   1.445 -0.2416  0.1743  0.1333
 8394SOL    HW136818   2.982   1.742   1.372  1.3441  2.5657  1.3845
 8394SOL    HW236819   2.839   1.725   1.398 -1.1434  1.9364  0.9453
 8395SOL     OW36820   1.555   1.120   0.463  0.2378 -0.6442  0.3916
 8395SOL    HW136821   1.490   1.190   0.455 -0.6064 -1.3378  1.1868
 8395SOL    HW236822   1.594   1.128   0.550 -0.4644  0.1507  0.6376
 8396SOL     OW36823   2.622   1.776  13.193 -0.3556 -0.4390  0.3850
 8396SOL    HW136824   2.579   1.860  13.207 -1.5384 -0.7399 -1.4208
 8396SOL    HW236825   2.558   1.714  13.226 -1.2229 -0.2352 -0.9278
 8397SOL     OW36826   2.008   2.984   9.076  0.1741 -0.7123 -0.1721
 8397SOL    HW136827   2.036   2.930   9.002  2.2921 -0.4118  0.3965
 8397SOL    HW236828   2.094   3.020   9.100 -0.2194  0.5863 -0.7440
 8398SOL     OW36829   1.097   4.126  14.700  0.3154 -0.5381 -0.6012
 8398SOL    HW136830   1.118   4.100  14.790  1.3653  2.6359  0.0817
 8398SOL    HW236831   1.164   4.192  14.682  1.0024 -0.9552  0.4244
 8399SOL     OW36832   2.668   3.590   5.665 -0.9365 -0.8177 -0.4655
 8399SOL    HW136833   2.574   3.581   5.650 -0.9212  0.6061 -1.3755
 8399SOL    HW236834   2.665   3.635   5.748 -1.4468  0.6401 -1.2844
 8400SOL     OW36835   2.153   1.815   7.041 -0.0736  0.0368 -0.4285
 8400SOL    HW136836   2.214   1.823   7.114 -0.3319  0.6014 -0.2738
 8400SOL    HW236837   2.198   1.869   6.977 -1.6594  1.3750 -0.4111
 8401SOL     OW36838   4.010   3.976  12.049  0.3239 -0.0234 -0.1360
 8401SOL    HW136839   4.104   3.962  12.064  0.6124 -0.8295 -2.6833
 8401SOL    HW236840   3.987   3.917  11.978  2.3721 -0.0795 -0.7664
 8402SOL     OW36841   0.076   2.011   9.332  0.2038 -0.0077 -0.3076
 8402SOL    HW136842   0.072   2.099   9.368 -2.1341 -0.8555  1.5269
 8402SOL    HW236843   0.004   1.963   9.373  0.8837 -2.0534 -1.4831
 8403SOL     OW36844   3.408   2.393   2.873 -0.1480  0.0170 -0.0131
 8403SOL    HW136845   3.398   2.434   2.787  0.3760 -2.2936 -1.2035
 8403SOL    HW236846   3.425   2.303   2.843  1.9065  0.0971  0.8692
 8404SOL     OW36847   3.445   3.069   0.934 -0.2892  0.2186 -0.1691
 8404SOL    HW136848   3.538   3.087   0.950  0.3722 -3.3353  0.0240
 8404SOL    HW236849   3.424   2.999   0.995  0.9066  0.1064  0.1221
 8405SOL     OW36850   3.968   1.818   0.461  0.6890  0.3609  0.2749
 8405SOL    HW136851   3.920   1.863   0.530  0.6911  1.6536 -0.5525
 8405SOL    HW236852   4.050   1.867   0.472  0.5399  0.3436  1.4270
 8406SOL     OW36853   1.907   4.032  12.815 -0.5206  0.0738 -0.2457
 8406SOL    HW136854   1.846   4.053  12.887 -0.8806  1.2417 -0.8797
 8406SOL    HW236855   1.881   4.104  12.758 -3.4599 -0.8399 -0.0586
 8407SOL     OW36856   2.528   2.254  13.616 -0.2442  0.2547  0.5221
 8407SOL    HW136857   2.608   2.224  13.659  0.1913 -0.9854 -1.1668
 8407SOL    HW236858   2.467   2.214  13.678  0.1298  1.6709  1.8036
 8408SOL     OW36859   3.862   0.981  14.879  0.2170 -0.1134  0.2056
 8408SOL    HW136860   3.896   0.897  14.909  0.3592 -0.3902 -0.7390
 8408SOL    HW236861   3.804   0.993  14.955 -2.5209 -0.3315 -1.8304
 8409SOL     OW36862   1.307   3.492   9.266  0.5604  0.1467 -0.1255
 8409SOL    HW136863   1.291   3.501   9.172 -2.2405  0.5183  0.3841
 8409SOL    HW236864   1.359   3.413   9.252 -0.8580 -0.7863 -0.0871
 8410SOL     OW36865   2.479   4.512   5.857 -0.1738 -0.3467  0.3649
 8410SOL    HW136866   2.535   4.579   5.895 -0.7262  0.5899 -0.4846
 8410SOL    HW236867   2.509   4.511   5.766 -0.8901  1.2585  0.1228
 8411SOL     OW36868   1.227   2.666   6.208  0.4041 -0.1741  0.2715
 8411SOL    HW136869   1.292   2.672   6.278  1.3819  0.0339 -0.6673
 8411SOL    HW236870   1.223   2.752   6.165  2.5852  1.4213  3.2417
 8412SOL     OW36871   0.823   0.214   1.749  0.4182 -0.1954  0.3374
 8412SOL    HW136872   0.842   0.259   1.832 -1.4119  0.2927  0.5141
 8412SOL    HW236873   0.787   0.288   1.699 -2.0106 -0.8819  1.0339
 8413SOL     OW36874   0.520   0.659  16.948 -0.6301  0.0251  0.3782
 8413SOL    HW136875   0.601   0.682  16.993  1.1370 -4.2801 -0.5089
 8413SOL    HW236876   0.501   0.575  16.989  0.3955 -0.3753  0.0361
 8414SOL     OW36877   3.316   1.590   0.745  0.2258  0.3225  0.8018
 8414SOL    HW136878   3.312   1.496   0.762  0.2444 -0.0373 -1.1335
 8414SOL    HW236879   3.255   1.595   0.672 -0.0562  1.6345  1.1221
 8415SOL     OW36880   4.594   2.583   5.817  0.0538 -0.2657  0.1550
 8415SOL    HW136881   4.546   2.608   5.897 -1.8489  0.6897 -1.2718
 8415SOL    HW236882   4.649   2.518   5.860 -2.1533 -2.1254  0.2151
 8416SOL     OW36883   1.698   0.242   7.061  0.3293 -0.2037  0.3966
 8416SOL    HW136884   1.764   0.184   7.022  1.3622  1.4038 -0.2256
 8416SOL    HW236885   1.645   0.180   7.112  1.6504 -2.6439 -1.1630
 8417SOL     OW36886   4.656   0.233   6.862 -0.8296  0.2360 -0.2020
 8417SOL    HW136887   4.580   0.177   6.874 -0.2996 -0.1090  1.4790
 8417SOL    HW236888   4.619   0.313   6.824 -2.6484 -0.8813 -0.7425
 8418SOL     OW36889   3.497   2.887  10.360  0.2696 -0.4321  0.1183
 8418SOL    HW136890   3.498   2.983  10.354 -0.0843 -0.3581  1.2651
 8418SOL    HW236891   3.580   2.873  10.407  0.0397  0.7039  0.8688
 8419SOL     OW36892   3.552   3.544   7.714  0.3022 -0.6316  0.2026
 8419SOL    HW136893   3.579   3.512   7.800 -0.8736  0.4498  0.9837
 8419SOL    HW236894   3.519   3.632   7.735  2.0659 -0.0495  0.5000
 8420SOL     OW36895   1.545   1.927   4.917  0.0871  0.5391 -0.0669
 8420SOL    HW136896   1.515   2.007   4.873 -1.5313  0.6751  1.2711
 8420SOL    HW236897   1.477   1.866   4.887  0.2491 -0.1500  0.9642
 8421SOL     OW36898   0.128   1.497   4.000 -0.0588 -0.3240  0.2961
 8421SOL    HW136899   0.166   1.557   3.935  0.0105 -1.0885 -0.3661
 8421SOL    HW236900   0.207   1.490   4.054  0.1819 -0.3547 -0.0524
 8422SOL     OW36901   1.149   3.124   7.884  0.6683  0.0685  0.3262
 8422SOL    HW136902   1.224   3.111   7.942 -0.0752 -2.1554  0.8135
 8422SOL    HW236903   1.074   3.138   7.941 -0.1369  0.3546 -0.8120
 8423SOL     OW36904   2.208   3.160   5.999  0.1717  0.8191 -0.1760
 8423SOL    HW136905   2.170   3.082   5.959 -1.7406  1.7809 -0.2074
 8423SOL    HW236906   2.199   3.214   5.920  0.7248 -2.3446 -2.4203
 8424SOL     OW36907   0.119   2.741   2.884 -0.5343  0.0438  0.4965
 8424SOL    HW136908   0.161   2.688   2.952 -0.5506 -1.0446 -0.3545
 8424SOL    HW236909   0.050   2.771   2.943 -0.2001 -1.1301  1.4836
 8425SOL     OW36910   2.445   3.532   9.862 -0.5419  0.1842  0.3467
 8425SOL    HW136911   2.428   3.497   9.950 -1.3635  0.8852  0.4660
 8425SOL    HW236912   2.538   3.550   9.869 -1.1514  2.9829  1.2239
 8426SOL     OW36913   0.526   4.593  17.305 -0.5298  0.1780 -0.0317
 8426SOL    HW136914   0.479   4.634  17.378  2.8274  0.4234  1.9938
 8426SOL    HW236915   0.597   4.656  17.292 -1.9018  1.0890 -2.9248
 8427SOL     OW36916   4.322   2.315   2.165 -0.2201  0.6316  0.1756
 8427SOL    HW136917   4.363   2.350   2.086  0.2089  0.0726  0.1544
 8427SOL    HW236918   4.230   2.339   2.154 -1.0501 -2.7608 -0.1190
 8428SOL     OW36919   1.088   3.442   6.145 -0.5892 -0.6231 -0.0152
 8428SOL    HW136920   1.020   3.482   6.199 -0.2282 -3.0739  2.2869
 8428SOL    HW236921   1.056   3.460   6.057 -0.3510 -0.2119 -0.0195
 8429SOL     OW36922   3.606   1.910   3.412 -0.1092  0.4209  0.3074
 8429SOL    HW136923   3.666   1.984   3.415 -1.3673  1.5093 -1.3397
 8429SOL    HW236924   3.639   1.865   3.489 -2.2770 -0.5345  0.6739
 8430SOL     OW36925   0.111   2.003   0.698  0.8706 -0.1670 -0.1795
 8430SOL    HW136926   0.076   2.067   0.760 -0.3447 -0.0168 -1.0337
 8430SOL    HW236927   0.030   1.953   0.693  1.1765 -0.8145  1.2281
 8431SOL     OW36928   0.873   3.509  10.635  0.2628 -0.3208 -0.4953
 8431SOL    HW136929   0.836   3.589  10.673  3.9793  1.0223  0.2769
 8431SOL    HW236930   0.958   3.503  10.678  0.0606  0.8437  0.0506
 8432SOL     OW36931   2.905   0.093   5.408  0.4125  0.5409 -0.3883
 8432SOL    HW136932   2.983   0.039   5.415  0.9948  1.5116  0.6521
 8432SOL    HW236933   2.869   0.051   5.330 -0.2740 -1.5934  1.0823
 8433SOL     OW36934   3.273   0.985   5.779 -0.7266 -0.2604  0.4932
 8433SOL    HW136935   3.222   1.012   5.702 -0.5393  1.1220  0.8567
 8433SOL    HW236936   3.324   0.912   5.743 -1.4959 -1.1599  1.2394
 8434SOL     OW36937   1.731   3.825   5.410 -0.4453  0.5526 -0.3869
 8434SOL    HW136938   1.670   3.788   5.346 -1.2683  0.7911  0.2616
 8434SOL    HW236939   1.727   3.918   5.390 -0.1757  1.1349  2.3276
 8435SOL     OW36940   3.344   2.634   8.345  0.4232 -0.5064  0.6039
 8435SOL    HW136941   3.266   2.681   8.315  2.2859  1.2558 -1.4340
 8435SOL    HW236942   3.308   2.549   8.370 -1.9371 -0.2737 -1.9184
 8436SOL     OW36943   2.899   0.771   6.433  0.3530 -0.0951 -0.4957
 8436SOL    HW136944   2.809   0.779   6.466  0.1364 -1.9341 -0.6524
 8436SOL    HW236945   2.892   0.743   6.342 -0.7401  0.7737 -0.6844
 8437SOL     OW36946   0.588   3.888   1.533 -0.0064  0.1522  0.5660
 8437SOL    HW136947   0.663   3.934   1.495 -1.2774  0.1074 -2.0181
 8437SOL    HW236948   0.615   3.873   1.623  0.7326  6.2371  1.3498
 8438SOL     OW36949   3.468   3.294   9.115 -0.1306 -0.1541 -0.5256
 8438SOL    HW136950   3.543   3.326   9.164  0.6538 -1.7855 -0.6600
 8438SOL    HW236951   3.410   3.262   9.185  1.0479 -1.2022 -0.0301
 8439SOL     OW36952   2.497   2.042  12.717 -0.2243 -0.1472  0.2448
 8439SOL    HW136953   2.559   1.970  12.724  0.7980  0.5327 -1.7082
 8439SOL    HW236954   2.408   2.008  12.720  0.2778 -1.2367  3.3318
 8440SOL     OW36955   2.898   2.526   5.185 -0.1221  0.1107 -0.0408
 8440SOL    HW136956   2.892   2.499   5.276 -0.9123  2.1765  0.5211
 8440SOL    HW236957   2.982   2.569   5.171  1.3925 -2.8547  0.0033
 8441SOL     OW36958   2.470   2.433   3.901  0.4439 -0.3815 -0.2825
 8441SOL    HW136959   2.392   2.473   3.863 -0.5270 -0.4978  1.6074
 8441SOL    HW236960   2.525   2.510   3.909  2.8519 -2.1701  0.5734
 8442SOL     OW36961   3.863   2.844   2.281  0.7447 -0.3735 -0.0514
 8442SOL    HW136962   3.940   2.791   2.303  0.5567  0.7090  3.1812
 8442SOL    HW236963   3.787   2.813   2.329  1.1696 -0.9318  0.2594
 8443SOL     OW36964   0.608   1.622   0.735  0.4196  0.0836 -0.1801
 8443SOL    HW136965   0.549   1.581   0.798 -0.9563 -0.2788 -1.7017
 8443SOL    HW236966   0.580   1.576   0.656 -1.2249  1.5873 -0.4778
 8444SOL     OW36967   0.690   1.601  14.800 -0.4128  0.0656 -0.0314
 8444SOL    HW136968   0.771   1.586  14.850  0.3160  0.2991 -1.1408
 8444SOL    HW236969   0.716   1.659  14.728  0.7338 -2.0597 -1.3220
 8445SOL     OW36970   0.191   3.690   9.654  0.2761 -0.3172  0.1620
 8445SOL    HW136971   0.212   3.777   9.622  1.9467 -0.4596  0.9139
 8445SOL    HW236972   0.095   3.686   9.646  0.3862  0.2149 -1.4465
 8446SOL     OW36973   0.930   4.403   2.421  0.2581  0.1540 -0.3390
 8446SOL    HW136974   0.863   4.460   2.385  0.9404 -0.0948 -2.0240
 8446SOL    HW236975   1.009   4.438   2.380 -0.5702 -0.4042 -2.4364
 8447SOL     OW36976   2.420   2.033  11.746 -0.3769 -0.0894 -0.3698
 8447SOL    HW136977   2.414   2.124  11.716  0.5484 -0.1326 -0.7027
 8447SOL    HW236978   2.373   1.992  11.673 -4.9398  1.3722  1.7426
 8448SOL     OW36979   1.995   3.285   6.600 -0.2101 -0.1724 -0.3144
 8448SOL    HW136980   1.990   3.301   6.695  1.0164  0.3076 -0.3253
 8448SOL    HW236981   2.085   3.265   6.574  0.2202  1.9183 -0.4670
 8449SOL     OW36982   2.786   3.155   3.384  0.0813  0.0817  0.3906
 8449SOL    HW136983   2.765   3.234   3.333 -1.7012 -2.6182 -3.0944
 8449SOL    HW236984   2.863   3.132   3.331 -1.6580 -1.9784 -1.2689
 8450SOL     OW36985   2.405   2.559   3.210 -0.8721 -0.2455 -0.2714
 8450SOL    HW136986   2.317   2.562   3.174 -0.3847  0.0820 -1.4178
 8450SOL    HW236987   2.397   2.467   3.236 -0.1326 -0.5025 -0.9575
 8451SOL     OW36988   2.640   4.327   0.472 -0.3388 -0.8106  0.4299
 8451SOL    HW136989   2.564   4.357   0.421 -0.0056  0.5437  0.7550
 8451SOL    HW236990   2.613   4.344   0.562  0.4925 -0.2673  0.5753
 8452SOL     OW36991   2.604   1.036   4.249 -0.5372 -0.4241 -0.0777
 8452SOL    HW136992   2.649   1.120   4.238  0.7493 -0.9567  1.1435
 8452SOL    HW236993   2.674   0.973   4.236  1.3046  1.8633 -1.3799
 8453SOL     OW36994   1.688   2.985   4.894 -0.4318  0.0449 -0.6166
 8453SOL    HW136995   1.665   2.914   4.954 -0.8411 -0.1230 -0.9745
 8453SOL    HW236996   1.756   3.038   4.935 -1.0616 -1.6545  2.6226
 8454SOL     OW36997   1.912   1.150   6.205 -0.6561  0.2283 -0.1390
 8454SOL    HW136998   1.997   1.191   6.190 -0.6518  0.3272  0.1478
 8454SOL    HW236999   1.878   1.177   6.291  1.1457  1.1533  0.2922
 8455SOL     OW37000   0.569   0.292   5.457  0.2359  0.1403  0.7689
 8455SOL    HW137001   0.517   0.241   5.395  3.8281 -2.4800 -0.1172
 8455SOL    HW237002   0.505   0.357   5.483  0.6350 -0.5083  3.4044
 8456SOL     OW37003   1.103   3.098   6.824 -0.2966  0.2405  0.2652
 8456SOL    HW137004   1.179   3.133   6.779 -1.0376  0.3943 -0.8620
 8456SOL    HW237005   1.052   3.050   6.758 -0.6351  0.5102  0.3289
 8457SOL     OW37006   4.398   2.786   1.759 -0.2955  0.2796 -0.0849
 8457SOL    HW137007   4.454   2.766   1.834 -0.1795 -0.0155 -0.2465
 8457SOL    HW237008   4.425   2.872   1.729 -0.4431 -0.0184 -1.0940
 8458SOL     OW37009   3.822   0.005   8.643 -0.2179  0.3425 -0.6833
 8458SOL    HW137010   3.743   0.036   8.687 -0.0564  1.3245 -1.0761
 8458SOL    HW237011   3.889   0.042   8.700  0.7476 -1.7446 -0.4679
 8459SOL     OW37012   0.658   2.270   5.837  0.2148 -0.6407  0.1532
 8459SOL    HW137013   0.709   2.330   5.783 -1.2080  0.8363  0.4641
 8459SOL    HW237014   0.692   2.184   5.813  0.5549 -0.1976 -0.9378
 8460SOL     OW37015   2.965   4.657   1.098  0.4101 -0.1003 -0.6198
 8460SOL    HW137016   2.960   4.623   1.009  0.2136  1.6588 -1.2767
 8460SOL    HW237017   2.968   4.574   1.147 -0.8337 -1.0070 -2.0954
 8461SOL     OW37018   1.001   1.229   6.625  0.0730  0.3538 -0.3973
 8461SOL    HW137019   1.004   1.133   6.632  1.8711  0.4546  0.2366
 8461SOL    HW237020   0.911   1.256   6.607 -0.8659 -0.6500  2.8630
 8462SOL     OW37021   4.332   1.500   5.966 -0.3429  0.9476  0.2165
 8462SOL    HW137022   4.425   1.477   5.975 -0.7953 -0.6720  0.8178
 8462SOL    HW237023   4.300   1.472   5.881  0.4943  1.5164 -0.2811
 8463SOL     OW37024   3.117   4.394   3.827  0.3609  0.3646 -0.1102
 8463SOL    HW137025   3.075   4.470   3.868  1.6537  0.9570  0.1084
 8463SOL    HW237026   3.173   4.367   3.900  0.9565  2.4547  0.2001
 8464SOL     OW37027   4.374   1.777  11.712 -0.0728 -0.7975  0.6594
 8464SOL    HW137028   4.350   1.801  11.801 -1.5300 -2.8936  0.8331
 8464SOL    HW237029   4.319   1.699  11.700 -0.2222 -0.6014  0.0392
 8465SOL     OW37030   1.005   0.090   2.576 -0.4878 -0.0419  0.1540
 8465SOL    HW137031   1.043   0.007   2.547  3.1323  1.2979  1.0706
 8465SOL    HW237032   1.078   0.152   2.568 -0.4021 -0.4978 -2.6341
 8466SOL     OW37033   3.314   0.715   4.213  0.0433  0.1319 -0.6689
 8466SOL    HW137034   3.273   0.753   4.135  0.0793 -0.5227 -1.0013
 8466SOL    HW237035   3.241   0.655   4.225  0.8512 -0.3119  1.8503
 8467SOL     OW37036   3.437   1.578   4.022  0.1596 -0.1103 -0.4040
 8467SOL    HW137037   3.411   1.668   4.006  0.6982 -0.0994 -1.1548
 8467SOL    HW237038   3.435   1.547   3.932 -1.8894 -0.7365 -0.1509
 8468SOL     OW37039   1.752   2.807  16.710  0.0485 -0.5252 -0.1649
 8468SOL    HW137040   1.773   2.747  16.639 -1.4797 -0.2091 -0.8844
 8468SOL    HW237041   1.660   2.821  16.687  0.3602  1.0622 -0.4852
 8469SOL     OW37042   2.730   0.916   3.525 -0.3033  0.2928  0.1948
 8469SOL    HW137043   2.721   0.889   3.433  0.3958 -0.0255  0.2147
 8469SOL    HW237044   2.798   0.983   3.535  0.6484 -1.0404  2.5824
 8470SOL     OW37045   0.495   3.274   7.866 -0.1078  0.2506 -0.0265
 8470SOL    HW137046   0.567   3.292   7.806  0.0253  0.4681  0.2012
 8470SOL    HW237047   0.420   3.249   7.811 -0.7659 -0.9960  1.4233
 8471SOL     OW37048   2.781   1.183   1.189 -0.0428  0.8538 -0.2500
 8471SOL    HW137049   2.836   1.249   1.232  1.6985  0.3686 -1.7480
 8471SOL    HW237050   2.846   1.115   1.171  1.5148  1.9915  1.0503
 8472SOL     OW37051   1.669   2.393   6.928  0.2724 -0.3010  0.0338
 8472SOL    HW137052   1.665   2.298   6.943  0.3316 -0.1750  0.8824
 8472SOL    HW237053   1.764   2.407   6.929  0.5392 -2.1335  0.6366
 8473SOL     OW37054   0.462   3.927   6.165 -0.4518 -0.1148  0.3579
 8473SOL    HW137055   0.455   3.910   6.071 -0.1485  1.6008  0.0114
 8473SOL    HW237056   0.373   3.913   6.198  0.2050  0.2023  2.2734
 8474SOL     OW37057   0.998   0.503  16.985  0.2398 -0.3302  0.6052
 8474SOL    HW137058   1.027   0.570  17.047 -4.9732 -0.0191  2.6667
 8474SOL    HW237059   0.967   0.553  16.909 -0.1901  2.6674  2.7434
 8475SOL     OW37060   2.744   3.244   7.285  0.1086 -0.5864  0.2327
 8475SOL    HW137061   2.753   3.259   7.379 -1.7918 -0.1527  0.3345
 8475SOL    HW237062   2.704   3.157   7.292 -2.4460  0.5985 -0.0223
 8476SOL     OW37063   3.356   2.409   1.948 -0.8366 -0.1359  0.3884
 8476SOL    HW137064   3.382   2.463   1.873  0.1493 -1.5284 -0.2824
 8476SOL    HW237065   3.443   2.396   1.988 -1.4992  0.6656  2.1110
 8477SOL     OW37066   1.063   1.376  15.147  0.1703  0.2389  0.2044
 8477SOL    HW137067   1.151   1.413  15.153  0.3758 -0.2957  0.4889
 8477SOL    HW237068   1.060   1.318  15.223  1.8210  0.6876  0.6217
 8478SOL     OW37069   1.871   1.242   3.923 -0.0375  0.2093 -0.0597
 8478SOL    HW137070   1.899   1.320   3.970  2.1179 -0.3889 -0.3569
 8478SOL    HW237071   1.870   1.279   3.835  2.0772  0.8914  0.2127
 8479SOL     OW37072   3.793   0.384   8.313  0.2940  0.4418 -0.3694
 8479SOL    HW137073   3.813   0.301   8.356 -0.4285  0.9613  0.9609
 8479SOL    HW237074   3.702   0.391   8.342 -0.2546 -0.5225 -1.8514
 8480SOL     OW37075   4.361   4.677   0.195 -0.5257 -0.1863  0.3935
 8480SOL    HW137076   4.424   4.612   0.226 -1.9925 -1.2469  1.1894
 8480SOL    HW237077   4.294   4.611   0.177  0.8370 -1.7213  0.9714
 8481SOL     OW37078   3.751   4.113   5.330 -0.4142 -0.2355  0.4327
 8481SOL    HW137079   3.671   4.112   5.383 -0.9917 -0.7720 -0.4608
 8481SOL    HW237080   3.748   4.031   5.280  1.2303 -0.8830  1.4144
 8482SOL     OW37081   1.600   1.429   7.487 -0.3350  0.0689 -0.1312
 8482SOL    HW137082   1.549   1.470   7.416 -0.6502 -0.0092  0.0494
 8482SOL    HW237083   1.684   1.473   7.478  0.4659 -1.7002 -1.3761
 8483SOL     OW37084   0.052   2.508   4.787 -0.1471 -0.7627 -0.3691
 8483SOL    HW137085   0.115   2.563   4.741  0.1683 -0.8608 -0.0518
 8483SOL    HW237086   4.713   2.544   4.744 -1.1417 -1.8614  0.5098
 8484SOL     OW37087   0.085   3.980   3.203  0.3273 -0.0936  0.6869
 8484SOL    HW137088   0.045   3.982   3.290 -0.4464 -1.3629  0.3573
 8484SOL    HW237089   0.130   3.895   3.203 -2.3373 -1.5098 -1.9571
 8485SOL     OW37090   0.159   3.948  15.821 -0.0010  0.7904  0.1161
 8485SOL    HW137091   0.082   4.004  15.808 -0.8179 -0.0644  1.3179
 8485SOL    HW237092   0.195   3.965  15.734 -0.3738 -0.4903 -0.2830
 8486SOL     OW37093   0.992   0.661   5.313 -0.3802  0.4667  0.5139
 8486SOL    HW137094   1.057   0.605   5.269  0.4525  2.3036 -0.6041
 8486SOL    HW237095   0.970   0.714   5.236  1.2820  0.2057 -0.1488
 8487SOL     OW37096   3.086   1.924   3.681  0.6816 -0.6487 -0.3573
 8487SOL    HW137097   3.123   1.964   3.760 -1.4273 -1.0178  0.7937
 8487SOL    HW237098   3.139   1.968   3.614  2.1202  0.2384  1.3400
 8488SOL     OW37099   1.583   0.076   2.507 -0.2001  0.2125 -0.2190
 8488SOL    HW137100   1.595   0.125   2.588  0.4272 -0.7035  0.2342
 8488SOL    HW237101   1.673   0.074   2.475 -0.3531  2.4283 -0.8085
 8489SOL     OW37102   1.163   1.569  11.502 -0.1978  0.4520 -0.0172
 8489SOL    HW137103   1.188   1.643  11.557 -0.5786 -0.4927  1.4096
 8489SOL    HW237104   1.213   1.582  11.421  2.6586  0.9451  1.8244
 8490SOL     OW37105   2.809   2.354   1.490 -0.2496 -0.4028 -0.4526
 8490SOL    HW137106   2.827   2.262   1.470 -1.0888 -0.5228 -0.6336
 8490SOL    HW237107   2.835   2.356   1.582 -0.3175 -0.1842 -0.4390
 8491SOL     OW37108   4.059   2.212   1.521  0.6718  0.1621  0.0851
 8491SOL    HW137109   4.137   2.260   1.549  0.1848  0.3884  1.0452
 8491SOL    HW237110   4.040   2.163   1.601  2.7514  0.7193  0.9397
 8492SOL     OW37111   1.949   3.507  17.239 -0.3020  0.3557 -0.0234
 8492SOL    HW137112   1.936   3.600  17.222  1.8269  0.5487 -0.6202
 8492SOL    HW237113   1.944   3.496  17.334  1.6566 -0.9132 -0.0784
 8493SOL     OW37114   1.676   1.102  16.450 -0.3826  0.2322  0.5980
 8493SOL    HW137115   1.742   1.143  16.394 -0.7429 -0.4038 -0.2919
 8493SOL    HW237116   1.657   1.027  16.393  1.9331 -1.2334  1.7509
 8494SOL     OW37117   4.736   4.103   8.991 -0.0092 -0.1788 -0.6089
 8494SOL    HW137118   0.043   4.183   8.967  0.1421  0.0590  0.4588
 8494SOL    HW237119   4.665   4.107   8.927  0.1306  1.0679 -0.6789
 8495SOL     OW37120   4.534   3.889   1.481  0.0265 -0.1302 -0.1210
 8495SOL    HW137121   4.619   3.928   1.499 -0.1234  0.0046  0.2787
 8495SOL    HW237122   4.492   3.964   1.521 -2.0818 -3.1202  3.2849
 8496SOL     OW37123   3.963   1.792   6.266  0.0730  0.4236  0.1330
 8496SOL    HW137124   3.997   1.790   6.177 -0.7391  1.3527 -0.1929
 8496SOL    HW237125   4.041   1.758   6.311 -1.4074 -1.0091  1.6386
 8497SOL     OW37126   0.882   3.054   7.022  0.7324  0.1386  0.7056
 8497SOL    HW137127   0.819   3.052   6.950  1.4327  2.1642  0.0259
 8497SOL    HW237128   0.958   3.044   6.965  0.5375  2.1172  0.0870
 8498SOL     OW37129   2.077   2.183  10.935 -0.0387  0.0002 -0.0989
 8498SOL    HW137130   2.011   2.165  11.003 -1.0179 -0.6582 -1.2067
 8498SOL    HW237131   2.109   2.266  10.968 -2.4027  0.6224  0.6308
 8499SOL     OW37132   1.160   0.238   9.250 -0.3970  0.1621  0.4310
 8499SOL    HW137133   1.115   0.290   9.183 -0.7663 -0.5537  0.1288
 8499SOL    HW237134   1.148   0.303   9.320 -1.8962 -0.4102  0.7092
 8500SOL     OW37135   1.989   4.705   4.938 -0.0662 -0.1844  0.2540
 8500SOL    HW137136   1.921   4.638   4.939 -1.2736  1.1008  2.5388
 8500SOL    HW237137   1.948   0.040   4.892  1.8294  1.0828  0.5668
 8501SOL     OW37138   0.931   0.397   5.702 -0.5150 -0.8922 -0.1065
 8501SOL    HW137139   0.911   0.485   5.670  1.6388 -0.3746 -0.0826
 8501SOL    HW237140   0.961   0.416   5.791  0.9936 -0.0311 -0.7941
 8502SOL     OW37141   2.560   4.441   8.821  0.3810 -1.0263 -0.3026
 8502SOL    HW137142   2.580   4.524   8.864  2.6566 -1.4972 -0.4492
 8502SOL    HW237143   2.487   4.470   8.767 -0.3151 -1.7602  0.2450
 8503SOL     OW37144   4.451   3.121  15.448  0.0794 -0.1548 -0.5729
 8503SOL    HW137145   4.432   3.028  15.441  0.6683 -0.1117 -2.9286
 8503SOL    HW237146   4.518   3.114  15.516 -2.0367  1.2993  1.6418
 8504SOL     OW37147   3.606   1.571   7.642  0.2277  0.2636  0.5260
 8504SOL    HW137148   3.695   1.597   7.664 -0.1869  0.9316  1.3796
 8504SOL    HW237149   3.623   1.483   7.608 -0.1593  0.6880 -0.7743
 8505SOL     OW37150   0.481   3.383   6.342 -0.0234 -0.1114  0.2425
 8505SOL    HW137151   0.396   3.400   6.382  0.1711  1.1140  0.1413
 8505SOL    HW237152   0.458   3.364   6.251  1.4672 -0.9439  0.0380
 8506SOL     OW37153   2.289   0.012   4.174  0.1777  0.1353 -0.1287
 8506SOL    HW137154   2.302   0.107   4.174  4.1920 -0.3855 -1.6441
 8506SOL    HW237155   2.267   4.738   4.267  0.2311  0.5398 -0.0611
 8507SOL     OW37156   2.798   2.849   1.701  0.3540 -0.1291 -0.2113
 8507SOL    HW137157   2.869   2.815   1.646  0.6546 -0.7760  0.5892
 8507SOL    HW237158   2.768   2.923   1.647  1.2522 -0.7989 -1.6333
 8508SOL     OW37159   2.567   3.870   5.145  0.4747 -0.5429  0.3382
 8508SOL    HW137160   2.500   3.805   5.121 -1.0598  0.7483  1.0839
 8508SOL    HW237161   2.629   3.814   5.192  0.1811  0.1150  1.5284
 8509SOL     OW37162   2.485   2.318  11.927 -0.1116  0.3446  0.0676
 8509SOL    HW137163   2.446   2.316  11.839 -1.0907 -0.2462  0.5166
 8509SOL    HW237164   2.414   2.339  11.987  0.9503  1.0689  1.0668
 8510SOL     OW37165   1.876   0.761   2.028 -0.0691 -0.5288  0.8647
 8510SOL    HW137166   1.879   0.846   2.071 -0.5278  0.3406 -0.8293
 8510SOL    HW237167   1.787   0.741   2.057 -0.7299  1.9297  0.5052
 8511SOL     OW37168   3.494   1.033  14.927 -0.3579  0.1951 -0.3994
 8511SOL    HW137169   3.538   0.976  14.991  0.9526 -0.0808 -1.5700
 8511SOL    HW237170   3.534   1.119  14.931  0.8163 -0.1918 -4.1609
 8512SOL     OW37171   2.549   1.762  17.576 -0.0140  0.0636  0.3062
 8512SOL    HW137172   2.457   1.783  17.563  0.5206  1.1394 -1.6311
 8512SOL    HW237173   2.571   1.670  17.559 -0.6973  0.1679 -1.0874
 8513SOL     OW37174   0.881   0.119   2.910 -0.0574  0.2671  0.8479
 8513SOL    HW137175   0.891   0.184   2.840 -0.5413  0.9560  1.4177
 8513SOL    HW237176   0.974   0.107   2.930  0.1720 -0.8765 -0.9193
 8514SOL     OW37177   1.299   1.660   1.936  0.4770 -0.3450  0.4460
 8514SOL    HW137178   1.241   1.719   1.887  1.6853  0.5621  0.1025
 8514SOL    HW237179   1.322   1.718   2.008 -0.0723  0.8887 -0.3637
 8515SOL     OW37180   0.694   1.818   2.067  0.3987  0.0972  0.3485
 8515SOL    HW137181   0.605   1.851   2.082  0.4199  0.3456 -0.0710
 8515SOL    HW237182   0.686   1.764   1.988  0.0898 -0.7339  0.9473
 8516SOL     OW37183   1.644   4.656   0.211  0.3666  0.2988 -0.4653
 8516SOL    HW137184   1.588   4.704   0.272 -0.0261 -0.0963 -0.5134
 8516SOL    HW237185   1.714   4.633   0.271  2.1020  3.3572 -1.3027
 8517SOL     OW37186   1.608   0.921   9.623  0.0076 -0.0381 -0.1503
 8517SOL    HW137187   1.596   1.016   9.628 -0.5965 -0.2464  2.3397
 8517SOL    HW237188   1.704   0.925   9.629 -0.0016  0.6364 -0.3862
 8518SOL     OW37189   4.057   0.448   5.744  0.1412  0.3902 -0.6933
 8518SOL    HW137190   4.020   0.517   5.798 -0.9350 -1.3155  0.7234
 8518SOL    HW237191   4.013   0.372   5.781 -1.1357 -0.0021 -3.0540
 8519SOL     OW37192   3.789   4.387  11.179 -0.0514  0.0948 -0.1164
 8519SOL    HW137193   3.810   4.399  11.087 -0.8324 -1.6948 -0.5138
 8519SOL    HW237194   3.759   4.296  11.182  0.9125 -0.1313  2.4020
 8520SOL     OW37195   3.380   3.086   4.321  0.1979 -0.1259 -0.2017
 8520SOL    HW137196   3.361   3.023   4.389  0.5799 -0.5126 -0.4537
 8520SOL    HW237197   3.316   3.060   4.254 -1.8898  0.2662  1.6495
 8521SOL     OW37198   0.882   0.862  11.717 -0.0636 -0.4821 -0.6636
 8521SOL    HW137199   0.866   0.955  11.735  2.1082  0.0560 -1.5588
 8521SOL    HW237200   0.955   0.853  11.655  0.2968 -3.1030  0.1431
 8522SOL     OW37201   3.649   2.815  11.428  0.1524  0.2261  0.2364
 8522SOL    HW137202   3.555   2.812  11.410  0.1275 -0.4082  0.4748
 8522SOL    HW237203   3.647   2.827  11.523  1.2086  0.5814  0.2137
 8523SOL     OW37204   2.898   1.778  12.564 -0.3374 -0.8656  0.1129
 8523SOL    HW137205   2.851   1.838  12.507  0.4884 -1.8856 -1.6570
 8523SOL    HW237206   2.900   1.827  12.646  3.2325 -0.8064 -0.0260
 8524SOL     OW37207   4.465   4.633   2.972 -0.4980 -0.9504 -0.0884
 8524SOL    HW137208   4.556   4.615   2.995 -1.3645 -2.1915  2.4091
 8524SOL    HW237209   4.415   4.655   3.051  0.7361  0.9286  0.1868
 8525SOL     OW37210   0.662   2.470   9.602 -0.6211 -0.5696 -0.5236
 8525SOL    HW137211   0.610   2.518   9.667 -2.0458 -0.3297 -1.8347
 8525SOL    HW237212   0.663   2.531   9.528 -0.4365 -1.7510 -1.4965
 8526SOL     OW37213   4.430   3.779   4.003 -0.5663 -0.2346  0.3178
 8526SOL    HW137214   4.404   3.687   4.004 -0.4076 -0.3102 -3.2907
 8526SOL    HW237215   4.351   3.827   4.026 -1.2807 -0.8111 -0.9437
 8527SOL     OW37216   4.260   3.921   6.228 -0.4309 -0.0991  0.2384
 8527SOL    HW137217   4.350   3.948   6.210 -0.7260  1.3985  0.9941
 8527SOL    HW237218   4.263   3.835   6.271 -3.6489 -1.0854 -1.5194
 8528SOL     OW37219   1.735   3.464  13.420 -0.4961 -0.4772  0.0903
 8528SOL    HW137220   1.746   3.485  13.327 -1.1647  0.0669  0.1339
 8528SOL    HW237221   1.655   3.413  13.407  0.3146 -1.4225 -1.2105
 8529SOL     OW37222   3.229   0.834   2.274 -0.5340  0.4361 -1.0516
 8529SOL    HW137223   3.217   0.891   2.198  0.9799 -0.9186 -2.3263
 8529SOL    HW237224   3.286   0.770   2.230  0.1426 -0.0873  0.6075
 8530SOL     OW37225   0.715   1.417  10.210  0.1104  0.0815  0.3836
 8530SOL    HW137226   0.723   1.437  10.117  1.5538 -1.0017  0.2742
 8530SOL    HW237227   0.796   1.458  10.243 -0.5227 -0.0901  2.1202
 8531SOL     OW37228   3.633   2.761   5.515  0.3873 -0.1473 -0.1999
 8531SOL    HW137229   3.712   2.755   5.569 -0.5354 -2.7438  0.9286
 8531SOL    HW237230   3.664   2.825   5.452  0.2835  0.7811  0.6896
 8532SOL     OW37231   4.147   4.176   1.088  0.3253 -0.5715  0.3351
 8532SOL    HW137232   4.158   4.249   1.026  2.4024 -0.1605  1.1700
 8532SOL    HW237233   4.234   4.138   1.080  0.7113 -0.1363  2.4648
 8533SOL     OW37234   0.815   1.904   8.852 -0.1086 -0.0149 -0.1386
 8533SOL    HW137235   0.848   1.898   8.762 -0.7118  2.4883 -0.5214
 8533SOL    HW237236   0.732   1.857   8.842 -0.1208  0.0324 -0.2706
 8534SOL     OW37237   1.519   1.715   2.345 -0.4260  0.3489 -0.0721
 8534SOL    HW137238   1.609   1.745   2.332  0.3870 -3.3763 -2.9315
 8534SOL    HW237239   1.496   1.735   2.436 -0.2504 -2.4553  0.5754
 8535SOL     OW37240   0.488   4.150   6.701 -0.2834  0.4638 -0.0410
 8535SOL    HW137241   0.488   4.107   6.786  0.8996  0.8526  0.1538
 8535SOL    HW237242   0.468   4.235   6.739  1.0451  0.4817  0.5976
 8536SOL     OW37243   3.486   1.838   2.808  0.6858 -0.1520  0.2329
 8536SOL    HW137244   3.503   1.821   2.716  1.0742 -0.9804  0.4629
 8536SOL    HW237245   3.526   1.760   2.845  1.5321  0.5317  0.7564
 8537SOL     OW37246   4.304   1.205   5.896  0.3669  0.5010 -0.0502
 8537SOL    HW137247   4.330   1.124   5.852  0.9357  0.1494  0.9394
 8537SOL    HW237248   4.318   1.265   5.822  0.9856  0.6115  0.1536
 8538SOL     OW37249   3.830   2.706   2.033  0.0490 -0.5752 -0.1214
 8538SOL    HW137250   3.819   2.730   2.125  1.6609  0.8306 -0.2848
 8538SOL    HW237251   3.873   2.621   2.040  0.9587 -0.2229 -1.2769
 8539SOL     OW37252   1.411   0.753   7.940  0.1080 -0.3293  0.3461
 8539SOL    HW137253   1.343   0.820   7.949 -0.0992 -0.5847  0.6697
 8539SOL    HW237254   1.475   0.802   7.888  0.5592 -1.0147  0.2525
 8540SOL     OW37255   1.699   3.840   4.179 -0.5068 -0.5076  0.1273
 8540SOL    HW137256   1.624   3.813   4.233  0.0926  0.7278  1.5796
 8540SOL    HW237257   1.769   3.808   4.235  0.5483 -1.0418 -1.4832
 8541SOL     OW37258   2.758   2.117   3.608  0.0615 -0.3929 -0.1801
 8541SOL    HW137259   2.802   2.078   3.532 -3.4087 -0.1562 -2.3043
 8541SOL    HW237260   2.791   2.207   3.606  1.4985 -0.8711  1.9576
 8542SOL     OW37261   2.695   0.897   2.631 -0.1460  0.6466  0.0761
 8542SOL    HW137262   2.661   0.964   2.690  0.1782 -0.2766  1.3068
 8542SOL    HW237263   2.771   0.861   2.677  1.1445  1.7793 -1.1445
 8543SOL     OW37264   4.472   4.052  15.486  0.3288 -0.2644  0.4798
 8543SOL    HW137265   4.490   4.066  15.393  0.5114 -1.5089  0.3282
 8543SOL    HW237266   4.398   4.113  15.491 -0.2073 -0.7129 -1.9289
 8544SOL     OW37267   3.112   0.079   2.153  0.2036  0.2763  0.2111
 8544SOL    HW137268   3.019   0.099   2.151  0.5899  1.6419 -3.4184
 8544SOL    HW237269   3.112   4.723   2.139  1.6897  0.1017  1.2900
 8545SOL     OW37270   0.718   3.284   2.226  0.1527  1.1285  0.4006
 8545SOL    HW137271   0.679   3.335   2.297 -1.4784 -0.2132  0.4523
 8545SOL    HW237272   0.776   3.354   2.194 -0.7286  2.0832  0.8791
 8546SOL     OW37273   4.580   3.352   1.967 -0.5611  0.5212  0.3126
 8546SOL    HW137274   4.636   3.343   1.890  0.0931  0.5043  0.7915
 8546SOL    HW237275   4.500   3.306   1.941 -0.2245  1.0856 -1.7263
 8547SOL     OW37276   3.906   3.671   9.331  0.4759 -0.3550 -0.3917
 8547SOL    HW137277   3.931   3.617   9.406 -2.2708  0.8070  1.3759
 8547SOL    HW237278   3.854   3.741   9.371 -0.6507 -1.0271 -0.6626
 8548SOL     OW37279   3.823   2.011   1.533  0.4136  0.0449 -0.3940
 8548SOL    HW137280   3.775   1.932   1.558  0.3908 -0.4725 -2.0741
 8548SOL    HW237281   3.767   2.075   1.576  0.0693 -0.3961 -0.1907
 8549SOL     OW37282   3.221   2.717   3.431  0.0340 -0.3450  0.1204
 8549SOL    HW137283   3.206   2.805   3.398 -1.6084 -1.4326 -2.0117
 8549SOL    HW237284   3.138   2.675   3.408 -1.0454  1.2345  1.1377
 8550SOL     OW37285   3.659   3.618  10.623 -0.6562 -0.7081 -0.3319
 8550SOL    HW137286   3.667   3.702  10.578 -0.4810  0.8877  2.7296
 8550SOL    HW237287   3.748   3.595  10.647 -0.4961  2.1124  1.6454
 8551SOL     OW37288   0.198   2.456  15.016  0.2976  0.1619  0.4277
 8551SOL    HW137289   0.127   2.396  14.992  0.8272 -0.7219  1.0684
 8551SOL    HW237290   0.176   2.529  14.958 -0.5178 -0.1554  0.3391
 8552SOL     OW37291   2.857   2.401  13.797 -0.2103  0.0901 -0.3744
 8552SOL    HW137292   2.858   2.467  13.867 -3.7179  2.0860 -2.2366
 8552SOL    HW237293   2.891   2.454  13.725 -2.3592  0.3362 -1.1946
 8553SOL     OW37294   4.393   1.804   1.088  0.0847  0.4447  0.1306
 8553SOL    HW137295   4.458   1.787   1.155 -0.3785 -1.1498  0.1803
 8553SOL    HW237296   4.337   1.871   1.127  0.4965  0.9382 -0.1194
 8554SOL     OW37297   0.472   1.334  14.787 -0.3630 -0.1565 -0.6271
 8554SOL    HW137298   0.413   1.332  14.712 -1.0873 -1.5979 -0.0244
 8554SOL    HW237299   0.553   1.298  14.751  0.4465 -0.0691  1.0934
 8555SOL     OW37300   0.398   0.290  10.119 -0.4031  0.0635  0.0861
 8555SOL    HW137301   0.462   0.361  10.131  0.0082  0.0223 -1.8269
 8555SOL    HW237302   0.317   0.325  10.158  0.5245  1.4050  0.8309
 8556SOL     OW37303   3.487   1.942   5.873 -0.2800  0.1707  0.1171
 8556SOL    HW137304   3.414   1.955   5.812 -0.7270 -1.2005  0.3757
 8556SOL    HW237305   3.540   1.881   5.822  0.4269 -0.9788  2.2192
 8557SOL     OW37306   3.786   3.659   8.541  0.3855 -0.4709  0.8522
 8557SOL    HW137307   3.864   3.656   8.595  1.3801 -3.9832 -0.7966
 8557SOL    HW237308   3.771   3.565   8.530  4.0286 -0.8620 -0.6268
 8558SOL     OW37309   0.332   3.505   9.516  0.1144  0.0408  0.3706
 8558SOL    HW137310   0.276   3.561   9.570 -0.3153  0.4373 -0.4848
 8558SOL    HW237311   0.369   3.438   9.573  0.5709  1.1334  1.3545
 8559SOL     OW37312   2.319   2.370   4.211 -0.2759 -1.2396  0.0376
 8559SOL    HW137313   2.257   2.300   4.236  1.7404 -2.6605  1.0539
 8559SOL    HW237314   2.256   2.437   4.184  0.6891 -1.4075 -2.6425
 8560SOL     OW37315   0.996   1.163  17.386  0.4322 -0.1033  0.1944
 8560SOL    HW137316   0.947   1.122  17.315  1.8173 -0.2386 -0.6950
 8560SOL    HW237317   1.042   1.227  17.331 -0.8986  2.1701  1.7516
 8561SOL     OW37318   4.393   3.420   5.741  0.2546 -0.0352  0.7538
 8561SOL    HW137319   4.423   3.330   5.731 -1.7714 -0.5671 -0.5460
 8561SOL    HW237320   4.475   3.461   5.768 -0.3731  0.2072  2.2826
 8562SOL     OW37321   1.177   1.092   6.963  0.2924  0.2409  0.2797
 8562SOL    HW137322   1.268   1.090   6.993  0.4839  1.7378 -0.1863
 8562SOL    HW237323   1.134   1.111   7.046 -1.5045  2.3336 -1.1070
 8563SOL     OW37324   4.217   2.556  11.984 -0.0060 -0.3670 -0.3425
 8563SOL    HW137325   4.306   2.538  11.955  0.2756 -0.5062  0.5985
 8563SOL    HW237326   4.189   2.612  11.911  0.3870 -0.8817 -0.8843
 8564SOL     OW37327   2.389   2.068   7.694 -0.3326 -0.4981 -0.1629
 8564SOL    HW137328   2.422   2.146   7.739 -0.1809 -0.0232 -1.0758
 8564SOL    HW237329   2.456   2.003   7.715 -0.6809 -0.3388  1.4283
 8565SOL     OW37330   2.777   0.355   8.532 -0.1446 -0.1954  0.1555
 8565SOL    HW137331   2.844   0.409   8.489  2.4058 -2.5563  1.1513
 8565SOL    HW237332   2.705   0.405   8.495 -0.0697  0.1436  0.4674
 8566SOL     OW37333   0.752   3.769   6.875  0.5853 -0.8873  0.1405
 8566SOL    HW137334   0.720   3.711   6.943 -1.6715 -1.0153 -1.0323
 8566SOL    HW237335   0.758   3.712   6.799 -0.0330 -0.3649 -0.2996
 8567SOL     OW37336   4.349   4.483   9.131 -0.3025 -0.0381 -0.0096
 8567SOL    HW137337   4.405   4.555   9.104  0.6752  0.2662  2.8543
 8567SOL    HW237338   4.407   4.409   9.111 -0.8560 -0.9744  1.8513
 8568SOL     OW37339   3.188   1.069  16.323  0.1710  0.4094 -0.7225
 8568SOL    HW137340   3.279   1.096  16.316  0.7354 -1.6973 -1.3272
 8568SOL    HW237341   3.177   1.084  16.417  1.0384  3.3633 -1.0945
 8569SOL     OW37342   4.510   0.742   7.768  0.0400  0.0015  0.4449
 8569SOL    HW137343   4.593   0.699   7.747  1.2602  2.4420  0.3654
 8569SOL    HW237344   4.514   0.820   7.714 -0.0968 -0.9037 -0.8598
 8570SOL     OW37345   4.710   0.187   4.533 -0.1298 -0.5377  0.3021
 8570SOL    HW137346   4.639   0.125   4.548 -1.6053  1.4014  1.3496
 8570SOL    HW237347   4.732   0.180   4.440 -2.6360  0.5551 -0.3453
 8571SOL     OW37348   3.312   4.369   4.035 -0.2089  0.1257 -0.1659
 8571SOL    HW137349   3.391   4.407   3.997  0.3211 -0.0685  0.7230
 8571SOL    HW237350   3.337   4.290   4.083 -2.1768 -1.2233 -1.3322
 8572SOL     OW37351   1.588   1.786   5.766 -0.3464  1.0401 -0.7329
 8572SOL    HW137352   1.518   1.722   5.761  1.8478 -1.3642 -0.5162
 8572SOL    HW237353   1.534   1.864   5.779  0.1610  0.7757  2.6998
 8573SOL     OW37354   3.758   2.948   3.273 -0.3672  0.1922 -0.1091
 8573SOL    HW137355   3.842   2.955   3.227  0.1758 -1.8337  0.5620
 8573SOL    HW237356   3.742   2.857   3.249 -1.0931  0.7353 -1.7434
 8574SOL     OW37357   3.784   1.079  16.985  0.0028 -0.0878 -0.2181
 8574SOL    HW137358   3.821   1.078  16.896 -1.3747 -0.4384 -0.7889
 8574SOL    HW237359   3.703   1.128  16.972 -0.0830 -0.3438 -0.6408
 8575SOL     OW37360   1.446   2.944   7.840  0.5587  0.3964 -0.2436
 8575SOL    HW137361   1.423   3.007   7.909 -1.9735 -0.4298 -0.3259
 8575SOL    HW237362   1.475   2.865   7.885 -1.1729 -1.2321 -1.9798
 8576SOL     OW37363   3.586   3.951   7.720  0.7687 -0.3054 -0.2500
 8576SOL    HW137364   3.498   3.950   7.758  1.1149  0.7552  0.5931
 8576SOL    HW237365   3.628   3.904   7.792  0.2995 -0.7819 -0.2858
 8577SOL     OW37366   3.612   3.090   5.826  0.3570  0.3449 -0.1707
 8577SOL    HW137367   3.524   3.093   5.789  0.3140 -1.3582 -0.2174
 8577SOL    HW237368   3.646   3.161   5.773 -1.3334  2.7983  2.0139
 8578SOL     OW37369   1.551   3.974   7.713 -0.0943  0.3205  0.2283
 8578SOL    HW137370   1.594   3.919   7.779 -1.7432 -0.0876  0.9827
 8578SOL    HW237371   1.627   4.017   7.676 -1.4432  1.1709 -1.5405
 8579SOL     OW37372   2.609   2.964   5.026 -0.2159 -0.6095  0.1852
 8579SOL    HW137373   2.657   2.950   5.108  1.6419  0.4330 -0.7390
 8579SOL    HW237374   2.680   2.950   4.963  1.4254  0.6218  1.7702
 8580SOL     OW37375   0.798   1.117  11.545 -0.7250  0.4058  0.2799
 8580SOL    HW137376   0.875   1.163  11.579  0.1889 -0.7845 -0.1577
 8580SOL    HW237377   0.838   1.066  11.474 -0.3329  2.2802 -0.8583
 8581SOL     OW37378   4.304   0.155   6.192 -0.0215  0.2271  0.0672
 8581SOL    HW137379   4.326   0.135   6.101  0.4493  1.9559 -0.1976
 8581SOL    HW237380   4.252   0.234   6.178 -0.8043 -0.3446 -0.2125
 8582SOL     OW37381   3.154   1.225   5.923 -0.3943  0.0841  0.2963
 8582SOL    HW137382   3.201   1.142   5.911 -0.7178  0.0598 -0.8441
 8582SOL    HW237383   3.134   1.247   5.832 -1.7704  1.2653  0.8872
 8583SOL     OW37384   3.347   4.342   3.318  0.2501 -0.1717  0.1527
 8583SOL    HW137385   3.265   4.391   3.329  1.1407  1.2473  0.5537
 8583SOL    HW237386   3.358   4.302   3.404  1.2830 -1.0582 -0.3921
 8584SOL     OW37387   1.079   1.375  10.364 -0.2961  0.4650  0.3341
 8584SOL    HW137388   1.174   1.363  10.367 -0.5916 -1.3343  3.0034
 8584SOL    HW237389   1.061   1.337  10.450 -0.4702  0.5375  0.3304
 8585SOL     OW37390   3.166   3.045  10.800  0.5081  0.1155  0.2236
 8585SOL    HW137391   3.127   3.113  10.747  0.9792  0.1610 -0.0701
 8585SOL    HW237392   3.171   3.097  10.880  0.3309 -0.2346  0.4650
 8586SOL     OW37393   1.411   0.870  15.493  0.4529  0.0496  0.7846
 8586SOL    HW137394   1.487   0.928  15.491 -0.9405  1.7993 -0.3388
 8586SOL    HW237395   1.451   0.783  15.479 -2.6004 -0.9971 -1.3138
 8587SOL     OW37396   0.880   4.232   8.267  0.1847  0.4721  0.2804
 8587SOL    HW137397   0.814   4.164   8.253 -0.8221  2.0202 -2.5276
 8587SOL    HW237398   0.947   4.210   8.202  0.1338  1.5644 -0.1422
 8588SOL     OW37399   4.295   2.260   3.599 -0.0153 -0.3938  0.0208
 8588SOL    HW137400   4.310   2.340   3.550  2.7283 -1.4219 -0.8246
 8588SOL    HW237401   4.288   2.291   3.690  0.7329 -0.0039 -0.0507
 8589SOL     OW37402   3.630   3.521   1.236  0.0142 -0.0485 -0.3105
 8589SOL    HW137403   3.557   3.460   1.232  0.8482 -1.0719  0.1917
 8589SOL    HW237404   3.642   3.534   1.330  0.5905 -1.5331 -0.1782
 8590SOL     OW37405   3.385   1.648   2.357  0.1087 -0.0773 -0.1124
 8590SOL    HW137406   3.463   1.664   2.409  0.5644 -0.5474 -0.6482
 8590SOL    HW237407   3.328   1.590   2.408  0.7754  0.0470  0.7633
 8591SOL     OW37408   2.273   1.795   1.340  0.1604 -0.3404 -0.3155
 8591SOL    HW137409   2.243   1.857   1.407  1.0101  0.2546 -0.4848
 8591SOL    HW237410   2.346   1.837   1.295 -0.4379 -0.0058 -0.9637
 8592SOL     OW37411   3.913   2.936  12.340 -0.1694  0.1196  0.6272
 8592SOL    HW137412   3.858   2.948  12.263 -0.5650 -0.9122  0.7539
 8592SOL    HW237413   3.978   2.869  12.322  0.1411  0.3150  1.0009
 8593SOL     OW37414   1.410   4.633   3.647 -0.4725  0.4315 -0.0326
 8593SOL    HW137415   1.380   4.687   3.721 -0.7368  2.2833 -1.5001
 8593SOL    HW237416   1.502   4.642   3.672 -0.3218 -0.9702 -0.0624
 8594SOL     OW37417   0.694   3.766  14.602  0.4202  0.5480  0.2146
 8594SOL    HW137418   0.622   3.774  14.538  0.1884  3.5468  0.8603
 8594SOL    HW237419   0.751   3.838  14.575 -0.8096  1.1394 -0.8368
 8595SOL     OW37420   3.843   2.498   2.205  0.4919  0.4011  0.5096
 8595SOL    HW137421   3.935   2.480   2.189 -0.2329 -0.4767 -2.6350
 8595SOL    HW237422   3.843   2.541   2.290  0.4500  0.3885  0.5162
 8596SOL     OW37423   4.526   0.382   4.543 -0.0661 -0.5359  0.0691
 8596SOL    HW137424   4.505   0.397   4.636 -0.2862  0.2255 -0.1070
 8596SOL    HW237425   4.579   0.303   4.555  2.1035  0.4643 -3.1637
 8597SOL     OW37426   1.340   2.139   0.495 -0.2904 -0.3913  0.3252
 8597SOL    HW137427   1.298   2.118   0.578  0.0758  1.4308  0.9832
 8597SOL    HW237428   1.322   2.058   0.447  0.3196  0.7577 -1.8329
 8598SOL     OW37429   4.398   4.148  10.965  0.1870 -0.0454 -0.2108
 8598SOL    HW137430   4.375   4.234  11.000  1.4723  0.8454 -1.5247
 8598SOL    HW237431   4.488   4.173  10.942 -0.1103  0.6552 -0.6067
 8599SOL     OW37432   4.168   0.887   4.733  0.8376  0.5953  0.2976
 8599SOL    HW137433   4.172   0.951   4.805  2.0321 -0.9897  1.6439
 8599SOL    HW237434   4.171   0.808   4.786 -0.7250 -0.8311 -1.7435
 8600SOL     OW37435   3.666   3.675   9.072  0.0023  0.3819 -0.5541
 8600SOL    HW137436   3.635   3.674   8.981  0.8576  0.2219 -0.8514
 8600SOL    HW237437   3.666   3.769   9.090  1.5367  0.2588  0.1094
 8601SOL     OW37438   2.073   4.401   9.474 -0.8133  0.5084 -0.3234
 8601SOL    HW137439   2.132   4.342   9.521  0.3341  0.9589 -1.1821
 8601SOL    HW237440   2.102   4.484   9.514  2.4731 -0.3490 -0.9113
 8602SOL     OW37441   2.237   0.191  14.107 -0.4776 -0.2844 -0.1751
 8602SOL    HW137442   2.174   0.239  14.160  0.3834  0.5355  0.1155
 8602SOL    HW237443   2.277   0.126  14.166  0.8110  0.3951 -0.2927
 8603SOL     OW37444   0.834   0.180  16.263  0.1145  0.0691  0.3420
 8603SOL    HW137445   0.843   0.088  16.240 -0.5379 -0.1958  1.1363
 8603SOL    HW237446   0.823   0.171  16.357  1.5955  0.7880  0.5808
 8604SOL     OW37447   2.782   1.213  15.822  0.2435  0.7857  0.4538
 8604SOL    HW137448   2.778   1.128  15.866 -0.0106 -0.1122 -1.2951
 8604SOL    HW237449   2.742   1.200  15.737 -0.4520  0.4219  0.8365
 8605SOL     OW37450   0.215   3.093   7.017  0.7201  0.6014  0.4785
 8605SOL    HW137451   0.234   3.105   6.924  0.2958 -0.4460  0.2582
 8605SOL    HW237452   0.237   3.180   7.051  2.5136  0.4467 -0.3067
 8606SOL     OW37453   2.086   3.221   9.419 -0.4893 -0.0565  0.1409
 8606SOL    HW137454   2.038   3.260   9.492 -0.5332 -1.0586  0.6406
 8606SOL    HW237455   2.015   3.197   9.361  1.2616 -0.4476 -1.8340
 8607SOL     OW37456   3.083   1.744  13.643  0.0992  0.0663 -0.5324
 8607SOL    HW137457   3.048   1.702  13.565 -0.2908  0.3359 -0.5012
 8607SOL    HW237458   3.171   1.767  13.612  0.2172  0.8926  0.4086
 8608SOL     OW37459   3.102   1.092   8.736  0.5773  0.3496  0.6319
 8608SOL    HW137460   3.125   1.006   8.700  3.7123  1.2252  0.5253
 8608SOL    HW237461   3.154   1.082   8.816 -1.2247  2.4260  2.0619
 8609SOL     OW37462   2.989   1.745   6.698 -0.7828 -0.0419  0.2638
 8609SOL    HW137463   2.918   1.701   6.745 -1.2826  0.9153  0.3940
 8609SOL    HW237464   3.027   1.675   6.645  0.2602 -0.1438  1.1650
 8610SOL     OW37465   3.170   1.461   9.576 -0.0678 -0.5758  0.8046
 8610SOL    HW137466   3.129   1.413   9.504 -0.4328  2.5911 -1.0972
 8610SOL    HW237467   3.260   1.459   9.542 -0.9319  2.5729 -1.6580
 8611SOL     OW37468   1.384   2.151   6.451 -0.3411 -0.3998  0.1046
 8611SOL    HW137469   1.308   2.125   6.503 -0.6521 -3.1573 -1.7362
 8611SOL    HW237470   1.381   2.088   6.379 -2.5378  3.0766 -2.8437
 8612SOL     OW37471   3.834   3.667   7.684  0.3023 -0.1441 -0.1708
 8612SOL    HW137472   3.803   3.637   7.769 -0.2526  0.0650 -0.2938
 8612SOL    HW237473   3.846   3.761   7.699  0.3765 -0.3807  1.2204
 8613SOL     OW37474   1.336   0.358   2.114 -0.2225 -0.4389 -0.9491
 8613SOL    HW137475   1.413   0.303   2.100  1.3980  1.7335 -0.4937
 8613SOL    HW237476   1.267   0.293   2.101  0.1923 -1.0401 -0.1976
 8614SOL     OW37477   0.985   0.137   1.301 -0.7970  0.6024  0.2929
 8614SOL    HW137478   0.958   0.054   1.263  2.9416 -1.1942  1.5373
 8614SOL    HW237479   0.960   0.192   1.227  0.1793  0.2962 -0.2571
 8615SOL     OW37480   4.505   0.914   5.209  0.2443 -0.0908  0.0427
 8615SOL    HW137481   4.573   0.895   5.273  0.4430 -2.4095 -0.8896
 8615SOL    HW237482   4.475   0.997   5.246  0.8888  0.7868 -1.4069
 8616SOL     OW37483   4.411   1.333   4.855  0.2403  0.4411  0.1184
 8616SOL    HW137484   4.493   1.305   4.814  0.7905 -0.5817  1.9531
 8616SOL    HW237485   4.391   1.248   4.894 -2.6074  1.7809  1.5394
 8617SOL     OW37486   4.159   1.321  16.695  0.3789  0.1199 -0.0144
 8617SOL    HW137487   4.214   1.264  16.750  1.5111 -0.5371 -1.8320
 8617SOL    HW237488   4.151   1.277  16.611  1.3314 -2.1490  1.0760
 8618SOL     OW37489   0.759   3.769  10.310 -0.2791  0.4863  0.0343
 8618SOL    HW137490   0.825   3.706  10.339 -0.4396  0.1090 -0.4203
 8618SOL    HW237491   0.812   3.846  10.332 -2.3767  2.4920 -2.0155
 8619SOL     OW37492   4.256   2.236   8.405 -0.8656 -0.2846  0.4964
 8619SOL    HW137493   4.170   2.278   8.411 -0.1972  1.1176  0.1254
 8619SOL    HW237494   4.244   2.162   8.465 -0.5682 -0.8079 -0.0866
 8620SOL     OW37495   4.096   3.914   2.822 -0.3220 -0.6013 -0.4254
 8620SOL    HW137496   4.187   3.918   2.853 -0.4128 -0.7952 -0.1335
 8620SOL    HW237497   4.054   3.863   2.891  0.5652 -0.2197  0.4114
 8621SOL     OW37498   0.574   2.667   5.899  0.5424 -0.4158  0.6182
 8621SOL    HW137499   0.662   2.698   5.919  0.3381  0.1649  0.6176
 8621SOL    HW237500   0.590   2.670   5.804 -1.2992  2.2987  0.3914
 8622SOL     OW37501   2.855   2.552  14.031  0.4387  0.2768  0.3409
 8622SOL    HW137502   2.859   2.507  14.115 -0.2119  0.0672  0.2656
 8622SOL    HW237503   2.778   2.609  14.036  0.1212 -0.1865  0.7540
 8623SOL     OW37504   2.512   3.640  11.510 -0.0688  0.3324 -0.3901
 8623SOL    HW137505   2.538   3.589  11.587 -1.4480  1.0878  0.5848
 8623SOL    HW237506   2.555   3.725  11.511 -2.5188  1.5698 -0.9841
 8624SOL     OW37507   4.550   3.362   2.460 -0.0247  0.8514  0.4021
 8624SOL    HW137508   4.620   3.306   2.426 -0.8683  0.0676 -0.0182
 8624SOL    HW237509   4.597   3.383   2.541  1.9907  0.1103 -0.5735
 8625SOL     OW37510   1.240   2.721   9.500  0.0495 -0.2900  0.2974
 8625SOL    HW137511   1.299   2.688   9.568 -0.1941  0.4959  0.8920
 8625SOL    HW237512   1.153   2.694   9.527 -0.3349 -0.7545 -1.4421
 8626SOL     OW37513   1.443   1.444  12.285  0.1763  0.1893  0.3563
 8626SOL    HW137514   1.369   1.385  12.299 -0.0464  0.0885 -1.2338
 8626SOL    HW237515   1.511   1.394  12.241  0.2574 -0.1498  0.8643
 8627SOL     OW37516   1.381   0.054  12.086  0.2653  0.2633 -0.2194
 8627SOL    HW137517   1.362   4.701  12.069  0.6017  0.1162  0.2065
 8627SOL    HW237518   1.364   0.045  12.179 -1.8655  1.5014 -0.4751
 8628SOL     OW37519   3.335   2.607   6.490  0.0938  0.4131  0.2741
 8628SOL    HW137520   3.332   2.512   6.475 -0.1426  1.0905 -3.9920
 8628SOL    HW237521   3.383   2.607   6.572 -1.3835  1.0514  1.1384
 8629SOL     OW37522   3.980   2.002   7.437 -0.2038 -0.3138 -0.3827
 8629SOL    HW137523   3.998   2.081   7.386 -0.8468 -0.1712 -0.3860
 8629SOL    HW237524   3.933   2.041   7.511  0.5369 -1.2581  0.5762
 8630SOL     OW37525   2.096   1.915  10.330  0.1484  0.0514  0.1788
 8630SOL    HW137526   2.052   1.989  10.373 -1.2036 -0.1174 -0.9203
 8630SOL    HW237527   2.179   1.949  10.297  0.2118  1.4604  1.7676
 8631SOL     OW37528   1.127   3.794   7.536  0.0610 -0.8978  0.0388
 8631SOL    HW137529   1.172   3.751   7.609 -1.0769 -1.8708  0.1564
 8631SOL    HW237530   1.161   3.883   7.544 -0.2429 -0.9045  1.4745
 8632SOL     OW37531   0.968   3.282   3.908  0.0870  0.1019 -0.1817
 8632SOL    HW137532   0.954   3.267   3.815  2.0312 -0.8512 -0.3211
 8632SOL    HW237533   1.006   3.198   3.934 -1.4237 -0.4660  0.1560
 8633SOL     OW37534   4.025   3.869  16.861  0.1788  0.3819  0.0198
 8633SOL    HW137535   3.996   3.956  16.835  2.1024  0.3765 -2.2063
 8633SOL    HW237536   3.964   3.846  16.932 -0.5262  0.8169 -0.4527
 8634SOL     OW37537   2.164   1.970  12.449 -0.1948  0.6347 -0.2529
 8634SOL    HW137538   2.068   1.974  12.443 -0.0542  1.3981 -1.8581
 8634SOL    HW237539   2.182   2.000  12.360  0.8576 -0.9376 -0.5524
 8635SOL     OW37540   1.307   1.003   9.100  0.3692  0.0034  0.3822
 8635SOL    HW137541   1.259   1.058   9.160 -0.5002  0.4000 -0.6763
 8635SOL    HW237542   1.247   0.929   9.095 -2.9841  2.5661  3.1549
 8636SOL     OW37543   3.052   3.745  14.378 -0.1110  0.1740 -0.4052
 8636SOL    HW137544   3.138   3.704  14.383 -0.4544 -0.7043 -1.5336
 8636SOL    HW237545   2.993   3.674  14.352 -0.8326  0.5940  0.0919
 8637SOL     OW37546   3.705   2.636   2.425  0.1463  0.1468  0.5040
 8637SOL    HW137547   3.650   2.575   2.376 -0.5886 -0.2793  1.8644
 8637SOL    HW237548   3.708   2.575   2.499 -1.4977 -0.5481 -0.0068
 8638SOL     OW37549   0.395   1.880   8.352  0.0500 -0.4641  0.0747
 8638SOL    HW137550   0.468   1.941   8.364 -0.8881  0.7559 -0.3905
 8638SOL    HW237551   0.410   1.828   8.431 -1.1379 -1.0907 -0.1188
 8639SOL     OW37552   3.278   4.027   3.390  0.0885 -0.7697 -0.2670
 8639SOL    HW137553   3.236   4.110   3.413  0.2205 -0.4034 -1.3171
 8639SOL    HW237554   3.370   4.053   3.393  0.6505 -2.8144  0.2361
 8640SOL     OW37555   4.619   2.029  13.109 -0.1406 -0.8198 -0.1591
 8640SOL    HW137556   4.590   1.941  13.133  2.5610 -1.3820  0.9977
 8640SOL    HW237557   4.542   2.062  13.062  1.5109 -0.5869 -2.6726
 8641SOL     OW37558   2.444   2.546  14.549 -0.0190 -0.1058  0.1001
 8641SOL    HW137559   2.492   2.614  14.502  0.8403 -0.7455  0.0518
 8641SOL    HW237560   2.513   2.481  14.565 -0.2237 -0.2221  0.5412
 8642SOL     OW37561   0.217   3.704   2.040 -0.1525  0.5076  0.3759
 8642SOL    HW137562   0.269   3.736   1.967 -0.5355 -1.9697 -0.9708
 8642SOL    HW237563   0.208   3.778   2.101 -2.8138  1.0671 -0.6831
 8643SOL     OW37564   2.086   1.397  10.924  0.6938  0.0540 -0.5406
 8643SOL    HW137565   2.101   1.366  11.014 -1.2798 -0.5416 -0.4022
 8643SOL    HW237566   2.013   1.348  10.887  1.7050 -0.3122 -2.0125
 8644SOL     OW37567   3.131   4.738   8.172 -0.1511  0.0768  0.7520
 8644SOL    HW137568   3.097   0.089   8.167  3.2599  1.3337  0.6050
 8644SOL    HW237569   3.048   4.703   8.203  1.5190 -2.1983  2.5788
 8645SOL     OW37570   4.627   4.664   1.050 -0.1279 -0.4883  0.2883
 8645SOL    HW137571   4.585   4.582   1.023  2.5267 -1.8687  0.3681
 8645SOL    HW237572   4.699   4.630   1.102 -1.6443 -2.4575  1.0850
 8646SOL     OW37573   1.065   4.710   8.465  0.8755  0.0595 -0.3736
 8646SOL    HW137574   1.021   4.686   8.546  1.5394  0.1132  0.0015
 8646SOL    HW237575   0.996   4.690   8.401 -1.3449  2.1432  1.3685
 8647SOL     OW37576   2.000   0.790  15.048  0.1338  0.7398 -0.6435
 8647SOL    HW137577   1.933   0.783  15.115  1.7374 -1.7678  0.6825
 8647SOL    HW237578   1.946   0.813  14.972  0.5617  0.6394 -0.9783
 8648SOL     OW37579   2.394   2.314  11.674  0.1614  0.5707  0.2058
 8648SOL    HW137580   2.412   2.276  11.589  1.2903  2.1004 -0.2472
 8648SOL    HW237581   2.303   2.338  11.656 -0.3791 -0.2667  1.7796
 8649SOL     OW37582   3.444   1.090  16.214  0.0968  0.0732  0.3869
 8649SOL    HW137583   3.440   1.011  16.160  1.3877  1.8328 -2.3013
 8649SOL    HW237584   3.463   1.151  16.143  1.3728 -1.2356 -0.3956
 8650SOL     OW37585   3.403   0.213   2.918 -0.8085 -0.5409  0.2211
 8650SOL    HW137586   3.430   0.173   2.836 -0.7269 -0.1135  0.0378
 8650SOL    HW237587   3.403   0.133   2.970 -3.0741 -0.3955  0.4450
 8651SOL     OW37588   0.429   3.885   3.288  0.0784  0.7452 -0.4153
 8651SOL    HW137589   0.477   3.821   3.341 -1.1937  1.8690  2.1114
 8651SOL    HW237590   0.352   3.833   3.269 -0.7526  1.4741  0.9888
 8652SOL     OW37591   1.338   3.087   1.837  0.1212  0.5345 -0.3377
 8652SOL    HW137592   1.420   3.064   1.794 -0.6459 -0.6626 -1.1563
 8652SOL    HW237593   1.343   3.179   1.862 -2.5557  0.5668  0.1049
 8653SOL     OW37594   4.480   0.805   2.756  0.9321  0.0284  0.2905
 8653SOL    HW137595   4.535   0.761   2.821 -0.3426 -4.5323 -1.7475
 8653SOL    HW237596   4.395   0.784   2.795  0.0919  2.4579 -0.2488
 8654SOL     OW37597   2.899   2.620  10.702  0.1333  0.2119 -0.0025
 8654SOL    HW137598   2.857   2.614  10.617  1.8342 -1.8327 -0.7010
 8654SOL    HW237599   2.919   2.713  10.711  0.1718  0.0460  1.6405
 8655SOL     OW37600   1.013   4.335   5.096 -0.8506 -0.2307 -0.3550
 8655SOL    HW137601   1.073   4.409   5.106  0.5612 -1.6058  1.3150
 8655SOL    HW237602   1.080   4.267   5.083 -0.3884 -0.0678  1.2288
 8656SOL     OW37603   0.845   3.472   3.557  0.4378 -1.0036  0.6472
 8656SOL    HW137604   0.826   3.388   3.598  0.5160 -0.8518  0.9913
 8656SOL    HW237605   0.927   3.460   3.509  0.4478 -0.2957  0.4832
 8657SOL     OW37606   3.787   3.897   8.168  0.2629 -0.4168 -0.6541
 8657SOL    HW137607   3.748   3.978   8.203  0.2763  0.1966 -2.0581
 8657SOL    HW237608   3.853   3.935   8.109  2.2142  0.5203  2.1208
 8658SOL     OW37609   3.025   4.051   1.135  0.1740  0.1368 -0.0184
 8658SOL    HW137610   3.082   4.080   1.064  1.9418 -1.8691  0.5712
 8658SOL    HW237611   2.946   4.041   1.083  0.9900 -4.4884 -0.3783
 8659SOL     OW37612   2.485   0.278   2.288 -0.6643  0.2408  0.4460
 8659SOL    HW137613   2.424   0.322   2.229 -3.0857 -2.0371  1.2188
 8659SOL    HW237614   2.570   0.298   2.249 -0.5511 -1.3208 -0.1101
 8660SOL     OW37615   3.953   2.462   4.186  0.1771  0.2602 -0.3660
 8660SOL    HW137616   3.880   2.452   4.124  0.5120 -1.0174 -0.5664
 8660SOL    HW237617   3.903   2.437   4.265 -1.1422 -1.4929 -1.7496
 8661SOL     OW37618   3.016   3.561  12.643 -0.4434  0.1196  0.0721
 8661SOL    HW137619   3.090   3.524  12.595 -1.6281 -1.0237 -0.8815
 8661SOL    HW237620   3.006   3.633  12.582 -1.7720  0.1305  0.3058
 8662SOL     OW37621   2.958   1.920  12.795  0.5928  0.0658 -0.0392
 8662SOL    HW137622   2.955   1.986  12.725  3.4371  0.2644  0.0150
 8662SOL    HW237623   2.974   1.987  12.862  0.7234  3.1907 -3.1790
 8663SOL     OW37624   0.275   3.986  15.542 -0.0264  0.6173 -0.5123
 8663SOL    HW137625   0.312   4.066  15.579 -1.0818  0.4588  0.8597
 8663SOL    HW237626   0.260   4.020  15.454  2.8546  2.5407 -0.2498
 8664SOL     OW37627   4.282   4.475   9.809 -0.2506 -0.0923 -0.2328
 8664SOL    HW137628   4.192   4.506   9.796  0.5395  1.5150 -1.7326
 8664SOL    HW237629   4.272   4.382   9.787 -1.1608  0.2720 -1.3166
 8665SOL     OW37630   4.393   0.039   9.134 -0.1278  0.0371  0.1300
 8665SOL    HW137631   4.464   0.026   9.197 -1.2774 -2.6677  0.8695
 8665SOL    HW237632   4.359   0.127   9.152  0.4301 -0.1351  2.0448
 8666SOL     OW37633   2.675   0.894  14.397 -0.2633  0.5328 -0.1962
 8666SOL    HW137634   2.769   0.904  14.410 -0.1209 -1.9172  0.6749
 8666SOL    HW237635   2.673   0.833  14.324  1.1341 -2.1833  2.0474
 8667SOL     OW37636   0.617   4.538   3.771 -0.4409 -0.1424 -0.0177
 8667SOL    HW137637   0.568   4.613   3.738 -1.5816 -1.1137 -0.5512
 8667SOL    HW237638   0.615   4.558   3.864 -0.2448  0.0357 -0.0526
 8668SOL     OW37639   1.851   0.841  14.815  0.2562 -0.2456 -0.1150
 8668SOL    HW137640   1.776   0.784  14.802  0.1599 -0.5180  1.6405
 8668SOL    HW237641   1.889   0.850  14.728  0.2129 -2.7365 -0.3877
 8669SOL     OW37642   3.466   4.117   0.110 -0.6471  0.0151 -0.6714
 8669SOL    HW137643   3.460   4.153   0.021  0.1886  2.0552  0.0815
 8669SOL    HW237644   3.478   4.024   0.091 -1.6030 -0.5097  1.2400
 8670SOL     OW37645   0.513   3.056   7.064 -0.1141 -0.0818  0.2528
 8670SOL    HW137646   0.539   3.097   7.146  2.8059  0.7652 -1.0839
 8670SOL    HW237647   0.432   3.106   7.051  0.2844  0.6637  0.6174
 8671SOL     OW37648   2.056   4.438   0.395 -0.5636  0.2475  0.5317
 8671SOL    HW137649   1.966   4.413   0.419 -0.3365 -1.3124 -0.2253
 8671SOL    HW237650   2.064   4.524   0.435 -2.5767  0.6242  0.1360
 8672SOL     OW37651   0.016   0.421   9.684 -0.5190 -0.1360 -0.2405
 8672SOL    HW137652   0.049   0.337   9.717  0.1617  0.5421  0.7991
 8672SOL    HW237653   4.660   0.409   9.689 -0.4884  0.3336  1.2091
 8673SOL     OW37654   0.323   2.794   4.728 -0.1180  0.1794  0.0370
 8673SOL    HW137655   0.338   2.706   4.761 -2.3328 -0.1090  0.2568
 8673SOL    HW237656   0.240   2.815   4.770 -0.8018  1.0583 -1.7489
 8674SOL     OW37657   1.170   1.785   1.469  0.4239 -0.4020  0.1212
 8674SOL    HW137658   1.118   1.854   1.510 -0.2625 -0.8156 -0.0494
 8674SOL    HW237659   1.255   1.822   1.445  0.6062 -1.1042 -0.3315
 8675SOL     OW37660   1.812   0.940   6.366  0.3168 -0.0314 -0.0730
 8675SOL    HW137661   1.811   1.024   6.319 -0.4004 -1.4490 -2.6166
 8675SOL    HW237662   1.720   0.917   6.357 -0.2688  2.6026 -0.7634
 8676SOL     OW37663   4.350   3.773   9.015  0.1946  0.0720 -0.2504
 8676SOL    HW137664   4.342   3.681   8.989  1.2751  0.1762 -0.9945
 8676SOL    HW237665   4.432   3.774   9.065  0.1534  2.0060 -0.2307
 8677SOL     OW37666   0.934   2.179   5.088  0.4747  0.0018 -0.5256
 8677SOL    HW137667   0.997   2.172   5.016  2.9810 -2.0820  1.8825
 8677SOL    HW237668   0.851   2.148   5.050  0.4084 -1.9958  1.2538
 8678SOL     OW37669   0.814   2.245  14.563  0.3675 -0.3722  0.2710
 8678SOL    HW137670   0.834   2.233  14.470 -0.9914  1.8349 -0.3086
 8678SOL    HW237671   0.725   2.214  14.578 -1.1069  3.3181 -0.8407
 8679SOL     OW37672   1.235   2.170   8.256 -0.1127  0.0949  0.2126
 8679SOL    HW137673   1.201   2.258   8.239  2.2363  0.9671 -0.0820
 8679SOL    HW237674   1.183   2.118   8.196 -0.7761  2.4370 -1.2333
 8680SOL     OW37675   1.948   4.596  11.569 -0.1432  0.4014  0.7647
 8680SOL    HW137676   1.983   4.684  11.581 -1.5519  1.2779 -1.6474
 8680SOL    HW237677   1.998   4.536  11.624  0.6563  0.0081 -0.3996
 8681SOL     OW37678   2.575   3.205   6.961  0.0390  0.3353 -0.3260
 8681SOL    HW137679   2.566   3.156   6.879  0.0766  0.0263 -0.1474
 8681SOL    HW237680   2.567   3.136   7.028 -3.3517  1.1401  0.0899
 8682SOL     OW37681   2.168   3.799  14.535 -0.2908 -0.6780 -0.0324
 8682SOL    HW137682   2.188   3.809  14.442 -3.0144 -1.5772 -0.7315
 8682SOL    HW237683   2.197   3.884  14.567 -0.2429 -0.3776 -0.8791
 8683SOL     OW37684   3.326   2.989  13.045  0.3822  0.7850 -0.1803
 8683SOL    HW137685   3.298   2.985  12.953  0.6753 -0.0758 -0.2263
 8683SOL    HW237686   3.241   2.972  13.084  0.0231 -0.8726 -1.6634
 8684SOL     OW37687   1.608   2.141   1.683 -0.2321 -0.1330  0.3577
 8684SOL    HW137688   1.546   2.071   1.705 -0.0657 -1.0479 -2.0455
 8684SOL    HW237689   1.599   2.148   1.588  0.3618 -2.3606  0.1469
 8685SOL     OW37690   3.825   3.721   3.965  0.0229  0.5337 -0.4434
 8685SOL    HW137691   3.819   3.653   4.032 -0.9772  0.3587 -0.7048
 8685SOL    HW237692   3.812   3.793   4.026 -0.2523  0.3515 -0.2821
 8686SOL     OW37693   4.157   2.594  11.703 -0.4683 -0.0263 -0.2656
 8686SOL    HW137694   4.065   2.599  11.729 -0.5315  2.0572 -0.9098
 8686SOL    HW237695   4.151   2.589  11.608 -0.8023 -0.1112 -0.2398
 8687SOL     OW37696   1.361   0.737   6.634  0.4484 -0.0587  0.1077
 8687SOL    HW137697   1.289   0.734   6.571  1.3111 -0.0147 -0.8713
 8687SOL    HW237698   1.338   0.673   6.701 -0.5635  1.4197  1.1823
 8688SOL     OW37699   2.819   0.380   2.340 -0.3530 -0.2432  0.1067
 8688SOL    HW137700   2.882   0.417   2.401  0.4544 -1.8407  0.2403
 8688SOL    HW237701   2.856   0.420   2.262  1.1236 -0.0918  0.8789
 8689SOL     OW37702   1.426   1.091  13.058 -0.5513  0.2411  0.0947
 8689SOL    HW137703   1.431   0.998  13.081 -3.3099 -0.0804 -0.5525
 8689SOL    HW237704   1.504   1.120  13.105  0.0089 -0.0005 -0.7028
 8690SOL     OW37705   1.315   4.026   7.551 -0.1716  0.6015  0.3019
 8690SOL    HW137706   1.291   4.117   7.569 -0.1333  0.2764  1.9188
 8690SOL    HW237707   1.381   4.015   7.619 -1.4291  0.9647  1.5914
 8691SOL     OW37708   4.224   4.642   7.677  0.2962 -0.4911  0.2917
 8691SOL    HW137709   4.305   4.688   7.699 -1.0004  0.4350  3.1478
 8691SOL    HW237710   4.152   4.698   7.706  0.7875 -0.0033  0.5896
 8692SOL     OW37711   3.194   1.377   6.823 -0.6856  0.0366  0.0926
 8692SOL    HW137712   3.130   1.429   6.775 -2.5659 -3.5997 -1.3415
 8692SOL    HW237713   3.145   1.371   6.905  0.3382 -4.1500  0.4117
 8693SOL     OW37714   4.153   4.364   7.419  0.6606  0.1949 -0.4642
 8693SOL    HW137715   4.229   4.314   7.448  0.2119 -0.6271 -0.7265
 8693SOL    HW237716   4.194   4.451   7.417  0.6682  0.1978 -0.2014
 8694SOL     OW37717   1.486   1.755   2.625  0.2010 -0.1248  0.1249
 8694SOL    HW137718   1.479   1.704   2.706  1.6722 -3.0054 -1.5708
 8694SOL    HW237719   1.409   1.812   2.627  0.7464  0.6612 -1.3881
 8695SOL     OW37720   2.638   3.719   2.429  0.2058  1.0098  0.4654
 8695SOL    HW137721   2.683   3.643   2.391 -1.8623  0.1590 -0.3003
 8695SOL    HW237722   2.585   3.749   2.356 -0.5619 -1.9019 -0.1933
 8696SOL     OW37723   2.358   2.339   2.833 -0.3820 -0.2476 -0.1214
 8696SOL    HW137724   2.303   2.299   2.900  1.5136 -1.0674  0.9241
 8696SOL    HW237725   2.439   2.290   2.846 -0.3197 -0.1290 -0.0636
 8697SOL     OW37726   1.088   0.661   7.381 -0.4367  0.0666 -0.4960
 8697SOL    HW137727   1.095   0.716   7.303  2.4698 -0.3421 -0.5386
 8697SOL    HW237728   1.173   0.617   7.377 -0.0427  0.6716  1.1392
 8698SOL     OW37729   0.905   4.546   8.648  0.4526 -0.5795  0.3106
 8698SOL    HW137730   0.831   4.514   8.596 -1.8952  0.5146  2.9305
 8698SOL    HW237731   0.873   4.539   8.739 -0.5110  0.5099  0.0504
 8699SOL     OW37732   0.116   4.561   3.295 -0.1971  0.1542  0.7697
 8699SOL    HW137733   0.068   4.614   3.358 -0.6127 -1.2046  1.5910
 8699SOL    HW237734   0.185   4.527   3.352 -0.1668 -0.1144  0.5711
 8700SOL     OW37735   1.686   0.877   0.884  0.3660  0.4101  0.3433
 8700SOL    HW137736   1.657   0.799   0.837  0.6788  0.1728  0.5503
 8700SOL    HW237737   1.754   0.903   0.821 -0.2130 -0.0165 -0.4631
 8701SOL     OW37738   1.012   1.969   8.335 -0.0771 -0.3174  0.5136
 8701SOL    HW137739   1.001   1.926   8.250 -0.6410  0.5798  0.1227
 8701SOL    HW237740   0.975   2.057   8.345 -0.7020 -0.4687 -0.4712
 8702SOL     OW37741   2.549   1.435  13.416  0.1205  0.0037 -0.2068
 8702SOL    HW137742   2.551   1.359  13.358  0.5956 -0.7565  0.8160
 8702SOL    HW237743   2.475   1.487  13.384 -0.3230  0.8370  2.1500
 8703SOL     OW37744   1.724   4.553   9.452  0.5374  0.1061 -0.0215
 8703SOL    HW137745   1.684   4.590   9.373  0.5569 -0.1513 -0.1486
 8703SOL    HW237746   1.676   4.604   9.518 -1.5123  0.5166 -1.8324
 8704SOL     OW37747   1.278   2.121  17.644 -0.5983 -0.2523  0.2222
 8704SOL    HW137748   1.256   2.211  17.618  2.2052  0.5810  0.7417
 8704SOL    HW237749   1.221   2.117  17.721  0.8657  1.4608  1.3799
 8705SOL     OW37750   2.217   1.168   7.820  0.1365 -0.0529  0.3698
 8705SOL    HW137751   2.254   1.136   7.737  1.2221  0.0908  0.7955
 8705SOL    HW237752   2.237   1.261   7.821  0.1762 -0.0465 -0.4586
 8706SOL     OW37753   3.602   0.062   1.998  0.2010 -0.3472  0.5850
 8706SOL    HW137754   3.668   0.081   2.065  0.4093 -0.2036  0.3411
 8706SOL    HW237755   3.545   0.140   1.995  1.2354  0.4631  2.1882
 8707SOL     OW37756   0.497   0.848   8.341  0.0554  0.0371 -0.3254
 8707SOL    HW137757   0.410   0.806   8.345 -0.0963  0.3580 -0.2932
 8707SOL    HW237758   0.494   0.902   8.420  0.6109  1.0638 -1.0163
 8708SOL     OW37759   2.396   0.536   8.990  0.2543 -0.1368 -0.3157
 8708SOL    HW137760   2.355   0.529   8.903  0.7191  0.0081 -0.5453
 8708SOL    HW237761   2.369   0.454   9.031  0.6838  0.6302  1.4904
 8709SOL     OW37762   2.210   0.086   9.568 -0.2380 -0.1988  0.3417
 8709SOL    HW137763   2.245   0.175   9.563 -0.5159 -0.1147 -0.1454
 8709SOL    HW237764   2.123   0.121   9.583  0.0757  1.3355 -1.4296
 8710SOL     OW37765   1.981   0.134   2.657  0.8630  0.1663 -0.6160
 8710SOL    HW137766   2.018   0.090   2.733  1.2342 -2.7047 -2.4587
 8710SOL    HW237767   1.910   0.180   2.701  0.6312 -1.3458  0.5967
 8711SOL     OW37768   0.673   4.468   2.635  0.2419 -0.0933  0.2959
 8711SOL    HW137769   0.736   4.441   2.702  0.5909  3.6724  1.4950
 8711SOL    HW237770   0.674   4.562   2.652  3.1820  0.1714 -1.2721
 8712SOL     OW37771   0.898   2.241  12.163 -1.0680  0.2558 -0.1444
 8712SOL    HW137772   0.811   2.245  12.123 -1.0621  2.9971  0.0934
 8712SOL    HW237773   0.914   2.147  12.160 -0.5636  0.3548 -0.5970
 8713SOL     OW37774   4.590   3.025   9.490 -0.2473  0.2404 -0.3804
 8713SOL    HW137775   4.524   3.050   9.555 -1.0205  0.8211 -1.3738
 8713SOL    HW237776   4.609   2.939   9.527  0.5741 -0.5865 -2.7515
 8714SOL     OW37777   3.310   1.255   7.150 -0.5542 -0.7176  0.0629
 8714SOL    HW137778   3.267   1.341   7.153  1.0202  0.0349  1.5831
 8714SOL    HW237779   3.299   1.235   7.243  2.1555 -0.1392  0.5085
 8715SOL     OW37780   0.363   1.396  13.310  0.5302  0.2766 -0.4035
 8715SOL    HW137781   0.415   1.402  13.229 -0.9817 -0.4101 -1.4364
 8715SOL    HW237782   0.420   1.338  13.360  0.2414  0.8269  0.5562
 8716SOL     OW37783   2.419   2.046   4.555  0.9101  0.4683 -0.2057
 8716SOL    HW137784   2.446   1.957   4.533 -1.1251 -0.4587  1.0679
 8716SOL    HW237785   2.461   2.065   4.639  1.9997  0.5974 -0.7807
 8717SOL     OW37786   0.045   2.825   9.273  0.3507  0.7004 -0.4652
 8717SOL    HW137787   0.114   2.815   9.339 -0.1503  0.8720  0.0774
 8717SOL    HW237788   0.099   2.878   9.214 -0.2351 -0.8357 -2.3881
 8718SOL     OW37789   1.501   3.342   4.480 -0.2470 -0.4946  0.5584
 8718SOL    HW137790   1.495   3.251   4.510 -0.8725 -0.9484 -0.8839
 8718SOL    HW237791   1.412   3.352   4.444 -0.9156  0.5661  2.5383
 8719SOL     OW37792   0.723   2.381   5.184 -0.2689  0.2371  0.6748
 8719SOL    HW137793   0.663   2.389   5.110  0.2104 -1.3142  0.1089
 8719SOL    HW237794   0.787   2.444   5.149  0.0464 -0.5550 -0.1685
 8720SOL     OW37795   4.497   2.107  11.792  0.3618 -0.1189 -0.7940
 8720SOL    HW137796   4.435   2.072  11.728 -0.3762  0.5762 -0.4768
 8720SOL    HW237797   4.542   2.175  11.742  0.7777  0.7213  0.7300
 8721SOL     OW37798   1.727   1.677   7.747  0.1991 -0.1275  0.3838
 8721SOL    HW137799   1.806   1.626   7.727 -1.1958 -0.7443 -3.6664
 8721SOL    HW237800   1.704   1.703   7.658 -0.1870  0.8035  0.7608
 8722SOL     OW37801   2.525   3.784  14.221 -0.1642 -0.1859  0.0598
 8722SOL    HW137802   2.487   3.782  14.133  1.4647 -0.4913 -0.6353
 8722SOL    HW237803   2.496   3.869  14.256  2.2571  0.1310  1.3184
 8723SOL     OW37804   0.495   1.480   5.983  0.5851 -0.4631  0.0308
 8723SOL    HW137805   0.485   1.520   6.070  0.5425 -2.3901  0.9072
 8723SOL    HW237806   0.580   1.439   5.999  0.1192 -1.7407 -0.8081
 8724SOL     OW37807   2.647   0.564  15.757  0.1711  0.5546  0.1306
 8724SOL    HW137808   2.617   0.655  15.764 -3.1859 -0.4026 -2.0023
 8724SOL    HW237809   2.629   0.552  15.664  1.3857  3.1468 -0.4287
 8725SOL     OW37810   1.835   1.555   7.381 -0.3658  0.2107  0.0522
 8725SOL    HW137811   1.838   1.647   7.407  5.7244  0.5198 -1.7767
 8725SOL    HW237812   1.828   1.558   7.286 -0.3405  1.1771  0.0844
 8726SOL     OW37813   0.856   4.723   8.041 -0.2717 -0.2596 -0.4395
 8726SOL    HW137814   0.895   4.736   7.954  1.0434  0.6442  0.2831
 8726SOL    HW237815   0.912   0.040   8.094  0.5716 -1.6836  0.1723
 8727SOL     OW37816   4.681   1.861   7.580 -0.1730 -0.1211 -0.2555
 8727SOL    HW137817   4.720   1.944   7.554  0.5046 -0.9220 -1.8640
 8727SOL    HW237818   4.601   1.892   7.622 -0.0253  0.7188 -0.6131
 8728SOL     OW37819   2.918   0.023   9.100 -0.6838 -0.1920 -0.4413
 8728SOL    HW137820   2.856   0.078   9.053 -0.2780  0.0993 -0.6312
 8728SOL    HW237821   2.855   4.722   9.160 -0.8957  0.3043 -0.3306
 8729SOL     OW37822   1.479   0.519  13.877  0.2619 -0.0382 -0.1150
 8729SOL    HW137823   1.398   0.470  13.891  0.2605 -0.0998 -0.3334
 8729SOL    HW237824   1.466   0.533  13.783 -1.7717  0.9415  0.3153
 8730SOL     OW37825   1.990   3.776   8.588  0.5655  0.2044 -0.3110
 8730SOL    HW137826   1.909   3.769   8.538  0.4864 -1.2360  0.0118
 8730SOL    HW237827   2.047   3.812   8.520  0.7331 -2.0825 -1.3946
 8731SOL     OW37828   2.255   3.304   6.505  0.3032  0.1938  0.4369
 8731SOL    HW137829   2.270   3.262   6.421 -1.5807 -0.2835  0.3351
 8731SOL    HW237830   2.277   3.397   6.493  3.1323 -0.5462 -0.0725
 8732SOL     OW37831   0.975   2.651  17.040  0.4114 -0.3428 -0.4014
 8732SOL    HW137832   1.067   2.675  17.027  0.9138 -2.1816 -0.3134
 8732SOL    HW237833   0.945   2.729  17.086 -0.1576 -0.3447 -0.7766
 8733SOL     OW37834   1.444   0.037  15.942 -0.0503  0.0736  0.0204
 8733SOL    HW137835   1.496   0.018  16.020 -0.8284  0.2278  0.5803
 8733SOL    HW237836   1.363   0.069  15.982  0.0246  0.7767 -0.3882
 8734SOL     OW37837   0.012   2.274  15.985 -0.1986 -0.0655  0.0088
 8734SOL    HW137838   0.020   2.200  15.925  2.1698  1.7260 -1.8543
 8734SOL    HW237839   0.071   2.241  16.053  0.2620 -1.6830 -1.1687
 8735SOL     OW37840   0.423   4.281  15.181  0.4642 -0.6484  0.1480
 8735SOL    HW137841   0.416   4.352  15.245 -0.5141 -0.2491 -0.3953
 8735SOL    HW237842   0.489   4.320  15.124 -1.0106  0.3196 -0.9105
 8736SOL     OW37843   2.766   0.150   6.198 -0.4595 -0.5591 -0.1697
 8736SOL    HW137844   2.700   0.167   6.266  0.3144 -1.3802  0.7912
 8736SOL    HW237845   2.778   0.230   6.148 -1.7245 -0.4513 -0.3014
 8737SOL     OW37846   3.315   3.231   8.374 -0.0894  0.4497  0.1946
 8737SOL    HW137847   3.357   3.255   8.291  0.1836  0.4146  0.3229
 8737SOL    HW237848   3.312   3.136   8.380 -1.7964  0.7092  3.2852
 8738SOL     OW37849   1.346   3.614   1.930  0.2125  0.0571 -0.5180
 8738SOL    HW137850   1.413   3.682   1.920 -2.9300  3.0711 -1.5887
 8738SOL    HW237851   1.274   3.678   1.925  1.4947  1.4586 -0.9501
 8739SOL     OW37852   0.412   0.426   6.425  0.2196  0.0317 -0.3380
 8739SOL    HW137853   0.460   0.350   6.393  0.7768  0.8880 -1.5414
 8739SOL    HW237854   0.488   0.466   6.467 -0.1551 -0.4663  0.8168
 8740SOL     OW37855   2.182   2.020   2.489  0.5877  0.0509  0.1704
 8740SOL    HW137856   2.195   1.929   2.515 -0.1260  0.0175  0.4219
 8740SOL    HW237857   2.272   2.038   2.464  0.6128 -0.4337 -0.0972
 8741SOL     OW37858   2.996   0.057   6.867 -0.2904  0.5764  0.4220
 8741SOL    HW137859   2.994   0.039   6.773 -0.7221 -0.6779  0.6679
 8741SOL    HW237860   2.920   0.114   6.873  0.2909  1.5716 -1.5640
 8742SOL     OW37861   4.669   2.217   0.819  0.2578 -0.0325  0.0368
 8742SOL    HW137862   4.649   2.310   0.805 -2.6594 -0.9699 -2.0604
 8742SOL    HW237863   4.580   2.185   0.808 -1.0586  2.8048  2.3817
 8743SOL     OW37864   1.008   1.141  13.942 -0.2746  0.3603 -0.3100
 8743SOL    HW137865   0.994   1.135  13.847  1.5771  3.3006 -0.7817
 8743SOL    HW237866   1.060   1.220  13.956  1.9811 -0.5069 -3.7098
 8744SOL     OW37867   1.985   2.583   4.459 -0.5070 -0.9646 -0.1739
 8744SOL    HW137868   2.005   2.534   4.379  1.3575  1.6098 -1.2687
 8744SOL    HW237869   2.021   2.524   4.525  1.4898 -0.2634 -0.6493
 8745SOL     OW37870   0.323   2.406   4.404 -0.3973 -0.4249 -0.3109
 8745SOL    HW137871   0.356   2.463   4.473 -0.9889  1.1941 -1.3521
 8745SOL    HW237872   0.253   2.459   4.367  0.6068  0.9820 -0.1841
 8746SOL     OW37873   0.770   2.835  13.576 -0.4925  0.2596  0.1025
 8746SOL    HW137874   0.800   2.770  13.512 -0.0002 -0.5729  1.1781
 8746SOL    HW237875   0.681   2.806  13.592 -0.1254 -0.4675  0.8129
 8747SOL     OW37876   3.219   4.354   9.710 -0.3276 -0.1342  0.0271
 8747SOL    HW137877   3.236   4.331   9.801 -2.9314 -1.1328  0.2603
 8747SOL    HW237878   3.306   4.382   9.682  0.7474 -3.0577  0.3728
 8748SOL     OW37879   3.662   3.875   6.578 -0.3851  0.4208 -0.2664
 8748SOL    HW137880   3.643   3.841   6.490  1.8287  1.2057 -1.0515
 8748SOL    HW237881   3.757   3.860   6.582 -0.7004 -1.4702  0.0465
 8749SOL     OW37882   0.544   4.305   4.297  0.3968 -0.0449 -0.0299
 8749SOL    HW137883   0.605   4.377   4.309 -0.6752  0.9059 -0.2601
 8749SOL    HW237884   0.507   4.310   4.386 -0.3842  1.0719 -0.4145
 8750SOL     OW37885   0.392   4.573   6.146  0.6561  0.7178 -0.5606
 8750SOL    HW137886   0.364   4.626   6.221 -0.3242 -0.2201 -0.2640
 8750SOL    HW237887   0.320   4.577   6.084  3.2975  0.4715 -3.6172
 8751SOL     OW37888   3.512   1.028   7.287 -0.0193 -0.1478 -0.6696
 8751SOL    HW137889   3.501   1.063   7.375 -2.5939 -0.7074 -0.7693
 8751SOL    HW237890   3.575   0.960   7.309 -0.2008  0.7254  2.5044
 8752SOL     OW37891   3.478   3.092  12.701  0.5406  0.1054  0.6230
 8752SOL    HW137892   3.498   3.001  12.682  0.9726  0.6487 -1.5955
 8752SOL    HW237893   3.391   3.091  12.741  0.0488  0.6782 -0.4215
 8753SOL     OW37894   2.167   1.310   2.379  0.3500 -0.2704  0.2462
 8753SOL    HW137895   2.170   1.221   2.413  0.0551 -1.4247 -2.6950
 8753SOL    HW237896   2.233   1.356   2.431 -0.5694 -0.8431  1.8997
 8754SOL     OW37897   1.113   0.525  12.615  0.3278 -0.3775 -0.2562
 8754SOL    HW137898   1.062   0.483  12.545  1.3122 -1.3311 -0.4049
 8754SOL    HW237899   1.130   0.603  12.563  0.5457 -0.5200 -0.3984
 8755SOL     OW37900   0.785   3.364   7.984  0.0438  0.0175  0.5779
 8755SOL    HW137901   0.690   3.377   7.990  0.1012  0.4479  0.5016
 8755SOL    HW237902   0.798   3.270   7.997  1.2933  0.2426  0.9061
 8756SOL     OW37903   0.819   1.463   5.699  0.6144 -0.1534  0.5333
 8756SOL    HW137904   0.732   1.501   5.711  1.5830  2.4562 -0.6947
 8756SOL    HW237905   0.854   1.528   5.639  0.0559 -1.5135 -1.2605
 8757SOL     OW37906   2.309   3.587   6.924  0.0059  0.0995 -0.0371
 8757SOL    HW137907   2.348   3.517   6.872 -0.1839  1.1284 -1.5779
 8757SOL    HW237908   2.314   3.656   6.858  2.3113  1.4557  1.5767
 8758SOL     OW37909   4.097   1.545   3.437  0.3524  0.2346 -0.6389
 8758SOL    HW137910   4.117   1.510   3.350 -1.0551 -2.0726 -0.0477
 8758SOL    HW237911   4.011   1.585   3.422  0.8742  0.9520 -1.7024
 8759SOL     OW37912   2.589   3.471   2.921 -0.3162  1.2037  0.3725
 8759SOL    HW137913   2.573   3.558   2.959 -1.4136  1.6293 -1.0582
 8759SOL    HW237914   2.673   3.482   2.876  1.3105  0.5800  3.2817
 8760SOL     OW37915   4.546   4.704   7.164  0.3341 -0.0291 -0.1879
 8760SOL    HW137916   4.459   4.721   7.200  0.2657 -0.3784 -0.1951
 8760SOL    HW237917   4.527   4.665   7.079  0.7016 -0.5473 -0.0334
 8761SOL     OW37918   2.033   3.582   4.766  0.2907 -0.5345 -0.2116
 8761SOL    HW137919   1.971   3.621   4.827  0.7453  2.0143 -1.4034
 8761SOL    HW237920   2.024   3.622   4.679  0.2793  0.5597  0.3053
 8762SOL     OW37921   3.388   2.677  16.863 -0.5441  0.0837  0.1057
 8762SOL    HW137922   3.332   2.742  16.820 -0.3508 -0.4588 -0.9710
 8762SOL    HW237923   3.452   2.663  16.793 -2.5190 -0.7727 -1.5278
 8763SOL     OW37924   0.674   0.644   8.365 -0.0826  0.4761 -0.2243
 8763SOL    HW137925   0.761   0.654   8.325 -0.5541  0.4978 -1.2425
 8763SOL    HW237926   0.632   0.719   8.323 -0.1278  0.1520 -0.7557
 8764SOL     OW37927   4.237   0.091   5.471  0.0173  0.5764 -0.2732
 8764SOL    HW137928   4.180   0.150   5.520 -0.8812  1.4943 -2.4775
 8764SOL    HW237929   4.170   0.033   5.435 -1.0262  2.1625 -0.8957
 8765SOL     OW37930   0.306   1.757   2.922  0.3537  0.0179 -0.0140
 8765SOL    HW137931   0.332   1.665   2.924  3.0343  0.8246  1.6928
 8765SOL    HW237932   0.369   1.790   2.858  1.0567 -1.1383  0.0799
 8766SOL     OW37933   0.308   2.554   3.046  0.4835 -0.6635 -0.8005
 8766SOL    HW137934   0.325   2.460   3.037 -1.7047 -1.1418  0.0479
 8766SOL    HW237935   0.385   2.598   3.012  2.1001 -1.2389  2.1084
 8767SOL     OW37936   3.602   3.162   4.176 -0.3958  0.2554 -0.1233
 8767SOL    HW137937   3.610   3.092   4.112 -0.3610 -1.0707  1.3424
 8767SOL    HW237938   3.531   3.141   4.237  0.4491 -1.7792  0.1494
 8768SOL     OW37939   1.898   4.434   7.941 -0.1108  0.6055 -0.3934
 8768SOL    HW137940   1.888   4.431   7.846 -1.7568  1.8655 -0.2561
 8768SOL    HW237941   1.807   4.456   7.960 -0.6980 -0.3335 -2.2133
 8769SOL     OW37942   3.110   1.953   2.587 -0.2348  0.1732 -0.1221
 8769SOL    HW137943   3.173   2.023   2.571  0.4156 -0.5746 -0.7992
 8769SOL    HW237944   3.050   1.973   2.515 -1.7291  0.9294  1.3124
 8770SOL     OW37945   0.177   1.362   8.076  0.1895 -0.2103  0.0920
 8770SOL    HW137946   0.109   1.313   8.030 -1.3194  0.2397  1.8340
 8770SOL    HW237947   0.191   1.432   8.013  0.7581  0.7995  1.3329
 8771SOL     OW37948   1.050   2.512   5.370 -0.4605  0.2111 -0.1900
 8771SOL    HW137949   1.042   2.421   5.340 -0.1962  1.4373 -4.0752
 8771SOL    HW237950   1.037   2.563   5.290  0.3822  0.0072 -0.4623
 8772SOL     OW37951   0.091   3.944   9.179 -0.2565  0.5483  0.1594
 8772SOL    HW137952   0.186   3.959   9.179 -0.2471  0.4322 -2.7886
 8772SOL    HW237953   0.061   3.996   9.105  4.3325  0.8426 -1.4921
 8773SOL     OW37954   1.914   2.179   8.008  0.0859  0.3516 -0.1024
 8773SOL    HW137955   1.851   2.197   7.939  1.9991  1.1712 -1.6151
 8773SOL    HW237956   1.866   2.109   8.053  0.4588 -0.6065 -1.1897
 8774SOL     OW37957   2.061   4.525   7.541  0.0598  0.3323  0.0013
 8774SOL    HW137958   2.061   4.591   7.473  1.2346  0.1720 -0.1512
 8774SOL    HW237959   2.149   4.489   7.530 -0.5077 -1.0494 -0.1340
 8775SOL     OW37960   3.851   3.143   0.634 -0.0814 -0.3528  0.0702
 8775SOL    HW137961   3.872   3.235   0.618 -0.1971 -0.6017 -1.5327
 8775SOL    HW237962   3.915   3.109   0.696  0.4497  2.8282  1.2821
 8776SOL     OW37963   0.624   1.954  17.291 -0.1499  0.2936  0.6461
 8776SOL    HW137964   0.584   2.005  17.220 -0.8090 -1.1060  0.0141
 8776SOL    HW237965   0.701   2.003  17.321 -0.2781  1.4134 -0.8394
 8777SOL     OW37966   2.233   2.461   7.807 -0.0367 -0.6886  0.4556
 8777SOL    HW137967   2.163   2.431   7.864 -1.4395  0.2871 -0.7424
 8777SOL    HW237968   2.265   2.391   7.751  1.2128 -1.5342  2.2225
 8778SOL     OW37969   3.185   2.183  15.669 -0.1381 -0.6518 -0.0114
 8778SOL    HW137970   3.221   2.169  15.581 -2.1500 -2.7837 -0.4685
 8778SOL    HW237971   3.264   2.148  15.709  1.0738  1.6066 -0.4208
 8779SOL     OW37972   3.757   3.983   4.727 -0.3199 -0.3191 -0.6267
 8779SOL    HW137973   3.697   3.951   4.794 -0.1567 -0.6267 -0.6256
 8779SOL    HW237974   3.716   4.070   4.729 -1.5297 -0.9446  2.1878
 8780SOL     OW37975   1.602   4.104   4.749  0.0171 -0.3105  0.4615
 8780SOL    HW137976   1.582   4.051   4.672  1.8303  0.5358 -0.5833
 8780SOL    HW237977   1.531   4.168   4.750  0.0409 -0.2954  1.6248
 8781SOL     OW37978   0.572   1.926   4.501  0.1658  0.2678  0.1387
 8781SOL    HW137979   0.488   1.894   4.534  0.3513 -1.5151 -1.1313
 8781SOL    HW237980   0.546   2.013   4.471  2.4999  1.6430  2.1120
 8782SOL     OW37981   1.410   4.585  14.896 -0.0721  0.0787 -0.4781
 8782SOL    HW137982   1.364   4.669  14.901  0.6667  0.4239  0.3751
 8782SOL    HW237983   1.449   4.592  14.809 -1.0226  1.7111 -0.7690
 8783SOL     OW37984   0.173   4.572  12.482  0.4097  1.0791 -0.5939
 8783SOL    HW137985   0.143   4.631  12.551  1.1375  0.4478  0.2688
 8783SOL    HW237986   0.236   4.624  12.432  0.1704  0.0892 -1.9443
 8784SOL     OW37987   3.243   0.126  15.976  0.2154  0.1897  0.3151
 8784SOL    HW137988   3.215   0.046  16.021  0.8966  0.3782  1.0762
 8784SOL    HW237989   3.165   0.151  15.927 -0.7045 -2.5971  0.3153
 8785SOL     OW37990   2.421   1.350   8.387 -0.1320  0.3653 -0.1900
 8785SOL    HW137991   2.361   1.316   8.321 -1.0505  0.1506  0.7604
 8785SOL    HW237992   2.447   1.267   8.426 -1.2613  0.3348  0.5105
 8786SOL     OW37993   3.508   1.938   8.825  0.8888 -0.3369  0.1611
 8786SOL    HW137994   3.562   1.977   8.757  0.2312  0.5781  0.1724
 8786SOL    HW237995   3.551   1.852   8.821 -0.3331 -0.8957 -1.0859
 8787SOL     OW37996   0.072   3.308   8.268 -0.2747  0.3138  0.1131
 8787SOL    HW137997   0.012   3.382   8.277  0.1502  0.6255  0.4137
 8787SOL    HW237998   0.134   3.324   8.340 -0.1167  1.0466 -0.1841
 8788SOL     OW37999   2.577   3.640  13.212 -0.0828 -0.1107  0.1722
 8788SOL    HW138000   2.554   3.548  13.223  0.1821 -0.2070 -0.0813
 8788SOL    HW238001   2.672   3.646  13.216 -0.1196 -1.9014  3.4018
 8789SOL     OW38002   1.813   3.778   3.915  0.2974 -0.9031 -0.1481
 8789SOL    HW138003   1.786   3.816   3.998  0.8388 -0.1543 -0.3204
 8789SOL    HW238004   1.768   3.693   3.914 -0.3667 -0.5491 -0.0232
 8790SOL     OW38005   1.470   0.860   1.827 -0.0042 -0.4776  0.1491
 8790SOL    HW138006   1.503   0.946   1.853 -0.0853  0.0283 -1.4293
 8790SOL    HW238007   1.523   0.823   1.897 -0.9189  1.7939  2.0510
 8791SOL     OW38008   2.205   3.544  17.184  0.1110  0.5375  0.2532
 8791SOL    HW138009   2.182   3.630  17.148 -0.0014  0.6286  0.5401
 8791SOL    HW238010   2.116   3.515  17.206  0.5033 -0.2680  0.7789
 8792SOL     OW38011   1.109   0.631   0.132  0.0455  0.9543 -0.2930
 8792SOL    HW138012   1.178   0.624   0.066  0.5976  0.7397  0.3156
 8792SOL    HW238013   1.123   0.718   0.169  2.2107  0.0677  0.9504
 8793SOL     OW38014   2.365   3.302   3.842 -0.0084  0.0697  0.2936
 8793SOL    HW138015   2.442   3.359   3.839 -0.2251  0.4853  2.5850
 8793SOL    HW238016   2.384   3.252   3.762  2.9353  1.9360 -0.1761
 8794SOL     OW38017   0.285   2.342   6.323  0.5384 -0.1913 -0.0020
 8794SOL    HW138018   0.305   2.249   6.334 -0.6594 -0.5925 -1.2696
 8794SOL    HW238019   0.191   2.349   6.340  0.6027 -3.1553  1.5400
 8795SOL     OW38020   3.751   0.112   3.979 -0.2095 -0.4535  0.6784
 8795SOL    HW138021   3.673   0.068   3.946  0.6941 -0.9509 -0.7864
 8795SOL    HW238022   3.763   0.195   3.935  1.0635 -0.3951  1.1409
 8796SOL     OW38023   4.593   4.135  12.442  0.2324  0.0431  0.0918
 8796SOL    HW138024   4.669   4.194  12.436  0.5008 -0.1162  1.8330
 8796SOL    HW238025   4.584   4.134  12.537 -0.7093  0.7876  0.0131
 8797SOL     OW38026   4.282   3.326   2.163  0.0534  0.2675 -0.0097
 8797SOL    HW138027   4.222   3.268   2.117  1.5956 -1.1098 -0.2860
 8797SOL    HW238028   4.309   3.269   2.235  0.7575  1.0288  0.3311
 8798SOL     OW38029   3.907   1.217   9.089 -0.3290 -0.0229 -0.1364
 8798SOL    HW138030   3.923   1.137   9.139  1.4073  0.2898 -0.1987
 8798SOL    HW238031   3.884   1.269   9.167  0.1445 -0.0813  0.0391
 8799SOL     OW38032   3.241   2.059   4.268  0.2692  0.0890 -0.0240
 8799SOL    HW138033   3.200   2.137   4.232 -0.3086  0.1936  0.8625
 8799SOL    HW238034   3.295   2.100   4.336 -0.9432  0.2318  0.8517
 8800SOL     OW38035   3.732   1.450   2.075 -0.5008 -0.0720 -0.0654
 8800SOL    HW138036   3.677   1.373   2.062  1.5657 -1.9595  2.4767
 8800SOL    HW238037   3.784   1.421   2.150  0.2741 -0.6964 -0.8560
 8801SOL     OW38038   4.210   3.581   9.484  0.4007 -0.4490 -0.2580
 8801SOL    HW138039   4.114   3.585   9.487  0.4325  0.5917 -0.7476
 8801SOL    HW238040   4.234   3.538   9.566 -0.3464  1.2837  0.8640
 8802SOL     OW38041   4.443   0.961   7.174  0.2077  0.0099 -0.2180
 8802SOL    HW138042   4.427   1.001   7.089  1.9719 -0.8132 -0.9414
 8802SOL    HW238043   4.507   1.014   7.222 -0.8263  0.2959  0.8519
 8803SOL     OW38044   3.766   4.206   7.429  0.3505 -0.0685  0.8815
 8803SOL    HW138045   3.712   4.173   7.501 -1.0535 -1.5100 -0.8266
 8803SOL    HW238046   3.754   4.301   7.423 -0.5144 -0.3652 -1.9271
 8804SOL     OW38047   1.314   0.481   3.860  0.3501 -0.1905 -0.1889
 8804SOL    HW138048   1.325   0.472   3.765 -3.6849 -1.5841 -0.5299
 8804SOL    HW238049   1.278   0.398   3.891  0.9928 -0.4203 -0.0415
 8805SOL     OW38050   3.609   2.617   1.009  0.0486 -0.6545  0.5133
 8805SOL    HW138051   3.603   2.523   1.022 -0.7510 -0.4027  2.0045
 8805SOL    HW238052   3.601   2.613   0.913  1.1119  1.7329  0.3270
 8806SOL     OW38053   4.479   3.898   8.214  0.6817  0.2999  0.1307
 8806SOL    HW138054   4.494   3.941   8.298  0.0055 -1.4112  1.1312
 8806SOL    HW238055   4.419   3.831   8.247  0.5590  1.0152  1.3574
 8807SOL     OW38056   4.445   3.149   9.296  0.1465  0.2382  0.0786
 8807SOL    HW138057   4.507   3.110   9.357 -1.7370 -3.0348 -0.0771
 8807SOL    HW238058   4.361   3.113   9.326  0.2188  1.6762  1.9722
 8808SOL     OW38059   4.156   2.629   8.971  0.0579 -0.5730 -0.2290
 8808SOL    HW138060   4.140   2.597   8.882 -3.2881  0.6341 -0.0664
 8808SOL    HW238061   4.243   2.598   8.997  0.1296  1.1463  1.6741
 8809SOL     OW38062   0.732   2.142   6.807 -0.2622  0.1844  0.0945
 8809SOL    HW138063   0.740   2.185   6.892 -0.5903  2.3740 -0.9958
 8809SOL    HW238064   0.809   2.085   6.798 -0.5067 -0.4384  1.8655
 8810SOL     OW38065   3.488   2.364  15.771  0.3126  0.1270  0.1084
 8810SOL    HW138066   3.448   2.285  15.735 -0.1641  0.5022 -0.1995
 8810SOL    HW238067   3.476   2.344  15.864  0.2397 -3.9793 -0.7915
 8811SOL     OW38068   0.519   0.251   4.628  0.0711 -0.6757 -0.7799
 8811SOL    HW138069   0.462   0.257   4.551 -1.7141  2.0913  0.7479
 8811SOL    HW238070   0.522   0.162   4.662 -2.0280 -0.4968 -0.1630
 8812SOL     OW38071   2.738   1.516   2.461 -0.0998  0.5741  0.1320
 8812SOL    HW138072   2.708   1.446   2.518 -0.1090 -0.6357 -1.3789
 8812SOL    HW238073   2.728   1.583   2.530 -0.8662 -0.7593  1.3107
 8813SOL     OW38074   4.695   0.013   7.533 -0.4195  0.1448 -0.4299
 8813SOL    HW138075   0.042   4.716   7.511  1.0250  3.1177  0.3478
 8813SOL    HW238076   4.705   0.045   7.623 -0.8460 -1.0739  0.0608
 8814SOL     OW38077   0.126   3.214   5.168  0.0080 -0.2688  0.3968
 8814SOL    HW138078   0.162   3.221   5.080 -3.2698  2.2316 -0.7399
 8814SOL    HW238079   0.173   3.286   5.210  0.2438 -0.6642  0.8155
 8815SOL     OW38080   1.366   2.023   2.592  0.1074  0.7541  1.0527
 8815SOL    HW138081   1.271   2.033   2.596  0.0778  0.9006 -0.0208
 8815SOL    HW238082   1.379   2.061   2.504  0.0723  0.5526  0.9608
 8816SOL     OW38083   4.407   3.381  14.450  0.0173  0.1992  0.0348
 8816SOL    HW138084   4.478   3.409  14.508 -0.0838  0.6722 -0.0667
 8816SOL    HW238085   4.377   3.464  14.412 -0.5243  0.5843  1.3004
 8817SOL     OW38086   1.105   0.450  16.545  0.2610 -0.4101 -0.5258
 8817SOL    HW138087   1.053   0.530  16.542 -1.6804 -1.6658  0.0668
 8817SOL    HW238088   1.166   0.463  16.617 -1.5815  0.9745  0.7498
 8818SOL     OW38089   4.443   2.524   5.093  0.5585  0.3489  0.3904
 8818SOL    HW138090   4.454   2.473   5.173 -2.8725  0.7469  1.1247
 8818SOL    HW238091   4.351   2.500   5.081  0.6546  0.9232 -1.3649
 8819SOL     OW38092   3.267   3.487  11.538 -0.5221  0.0991 -0.4963
 8819SOL    HW138093   3.231   3.499  11.451  0.0526  0.5642 -0.6722
 8819SOL    HW238094   3.254   3.573  11.577  0.8895  0.9348 -1.8630
 8820SOL     OW38095   1.271   3.086   9.105 -0.6920 -0.6038 -0.6651
 8820SOL    HW138096   1.273   3.104   9.011 -1.1254 -1.3523 -0.8196
 8820SOL    HW238097   1.345   3.028   9.120  0.1313  0.2250 -1.5703
 8821SOL     OW38098   0.410   4.649   7.590  0.2351 -0.2210 -0.1603
 8821SOL    HW138099   0.408   4.570   7.537 -2.1875  0.5121 -1.1738
 8821SOL    HW238100   0.375   4.716   7.531 -1.3558 -0.9654 -0.0773
 8822SOL     OW38101   0.415   0.902  10.868  0.0716  0.0797  0.0771
 8822SOL    HW138102   0.353   0.929  10.801  0.3437 -0.3942 -0.3660
 8822SOL    HW238103   0.473   0.977  10.858  2.1558 -1.2640  2.1024
 8823SOL     OW38104   1.411   0.557   4.596  0.2131  0.6668  0.1918
 8823SOL    HW138105   1.410   0.523   4.685  0.7004 -0.0102 -0.0663
 8823SOL    HW238106   1.318   0.538   4.583  0.4352 -1.4879  1.8828
 8824SOL     OW38107   0.342   1.884  14.423  0.2983  0.0895  0.3510
 8824SOL    HW138108   0.432   1.851  14.431  0.4190  0.0116 -1.1713
 8824SOL    HW238109   0.316   1.841  14.341 -0.0645 -1.4978  1.3049
 8825SOL     OW38110   4.287   4.233  12.156  0.0678  0.0716  0.0433
 8825SOL    HW138111   4.347   4.268  12.222 -0.3673  1.7004 -0.4414
 8825SOL    HW238112   4.206   4.234  12.207  0.2884 -1.3819  0.4515
 8826SOL     OW38113   1.728   1.279   5.859  0.2188  0.0641  0.0414
 8826SOL    HW138114   1.729   1.221   5.784  0.8928 -0.0818  0.1626
 8826SOL    HW238115   1.651   1.250   5.908 -0.6598  1.7625 -0.3452
 8827SOL     OW38116   2.265   3.828   2.612 -0.7431 -0.0873 -0.2366
 8827SOL    HW138117   2.273   3.733   2.618  0.6798  0.0458 -0.2151
 8827SOL    HW238118   2.186   3.836   2.667  0.0113  0.0128  0.8274
 8828SOL     OW38119   1.273   1.599   7.681  0.0513 -0.6612  0.0598
 8828SOL    HW138120   1.243   1.636   7.764 -2.1059  0.0437 -1.0241
 8828SOL    HW238121   1.332   1.531   7.713  2.2395  1.0206 -0.3992
 8829SOL     OW38122   4.607   4.489   3.648  0.7037 -0.1440  0.5501
 8829SOL    HW138123   4.611   4.425   3.718  2.6501 -0.8179 -0.1780
 8829SOL    HW238124   4.622   4.431   3.573 -0.0798 -2.6099  2.3217
 8830SOL     OW38125   0.663   3.574   7.098 -0.0976  0.1969  0.4159
 8830SOL    HW138126   0.674   3.600   7.190 -1.5986  0.3892  0.5300
 8830SOL    HW238127   0.695   3.485   7.115 -0.1368  0.1003 -0.0200
 8831SOL     OW38128   0.309   0.218   7.602  0.0563 -0.0393 -0.3024
 8831SOL    HW138129   0.374   0.245   7.538  1.1292 -0.6036  0.5604
 8831SOL    HW238130   0.332   0.285   7.666  0.0751  0.4554 -0.8264
 8832SOL     OW38131   2.857   1.799   2.387  0.0871 -0.5004  0.1316
 8832SOL    HW138132   2.786   1.810   2.451 -2.3496  0.3261 -2.7144
 8832SOL    HW238133   2.907   1.880   2.393  0.1400 -0.3444 -2.4852
 8833SOL     OW38134   0.491   0.612   0.434  0.5183  0.4144  0.2903
 8833SOL    HW138135   0.402   0.643   0.420  0.7902  1.3725  0.6629
 8833SOL    HW238136   0.488   0.586   0.526  0.1586 -1.8369 -0.3565
 8834SOL     OW38137   2.223   0.086   4.966  0.2639  0.1252 -0.4292
 8834SOL    HW138138   2.191   0.175   4.982 -1.1408 -0.3640 -0.4840
 8834SOL    HW238139   2.142   0.038   4.949  0.4519 -0.4571  0.3547
 8835SOL     OW38140   3.920   2.094   8.575 -0.0606  0.2209  0.4363
 8835SOL    HW138141   4.013   2.104   8.592  0.1838  1.1539 -1.5113
 8835SOL    HW238142   3.928   2.083   8.481 -0.1705  1.8312  0.2499
 8836SOL     OW38143   0.356   2.650   7.888  0.0395  0.5746 -0.0945
 8836SOL    HW138144   0.268   2.661   7.925 -0.0162 -0.6681  0.1398
 8836SOL    HW238145   0.399   2.712   7.946  0.9353  0.9648 -1.1757
 8837SOL     OW38146   3.634   2.965   1.449  0.1936 -0.6803  0.1959
 8837SOL    HW138147   3.729   2.981   1.445  0.1157  0.4714  2.7233
 8837SOL    HW238148   3.613   3.036   1.510 -1.0063 -1.3540  0.5662
 8838SOL     OW38149   3.890   2.552   5.584  0.2400  0.5172 -0.2407
 8838SOL    HW138150   3.898   2.617   5.654  0.8440  3.1685 -2.7796
 8838SOL    HW238151   3.972   2.564   5.535 -0.4814 -2.0711 -2.0851
 8839SOL     OW38152   3.519   4.689   6.038 -1.1430 -0.4396  0.5012
 8839SOL    HW138153   3.574   4.626   5.990 -1.3952 -1.5154  1.6186
 8839SOL    HW238154   3.538   4.665   6.129  3.9040  1.2042 -0.1128
 8840SOL     OW38155   3.130   4.522   2.452 -0.3313  0.3183 -0.3796
 8840SOL    HW138156   3.208   4.468   2.439 -0.5177  0.3338 -1.5299
 8840SOL    HW238157   3.108   4.544   2.362  2.0571 -0.3253 -1.1131
 8841SOL     OW38158   3.558   1.729   7.436  0.4755  0.5995  0.1438
 8841SOL    HW138159   3.467   1.757   7.450 -0.1860 -0.3859 -2.0261
 8841SOL    HW238160   3.588   1.716   7.526  2.8547  0.2215 -0.7003
 8842SOL     OW38161   3.159   0.804   4.457 -0.1596  0.1126 -0.0101
 8842SOL    HW138162   3.141   0.864   4.530  2.2053  1.3640 -0.4627
 8842SOL    HW238163   3.172   0.872   4.391 -0.2365 -0.1489 -0.2923
 8843SOL     OW38164   0.752   2.438   1.168  0.3790  0.6702  0.3132
 8843SOL    HW138165   0.826   2.499   1.165  0.0399  1.1641  2.3058
 8843SOL    HW238166   0.768   2.377   1.096  0.8461  0.0647  0.9366
 8844SOL     OW38167   0.523   2.602   4.271 -0.1227  0.4097 -0.6225
 8844SOL    HW138168   0.537   2.600   4.366  0.6196 -2.0276 -0.7912
 8844SOL    HW238169   0.442   2.652   4.278 -0.3022 -0.0281  0.5309
 8845SOL     OW38170   4.557   1.453  13.336  0.4340 -0.4495  0.0765
 8845SOL    HW138171   4.521   1.434  13.423  0.6678  0.3221  0.3390
 8845SOL    HW238172   4.648   1.432  13.354  0.4568  0.8706  1.5728
 8846SOL     OW38173   1.348   0.531   6.115 -0.0104 -0.1501  0.5189
 8846SOL    HW138174   1.348   0.451   6.169 -1.6770 -1.5048 -1.4615
 8846SOL    HW238175   1.271   0.569   6.157 -0.1346  0.2295 -0.0575
 8847SOL     OW38176   2.917   0.009   7.442  0.5660 -0.0190  0.2399
 8847SOL    HW138177   2.875   4.666   7.417 -0.1098 -0.0380  1.4623
 8847SOL    HW238178   2.998   4.721   7.484  0.2603 -1.2559  0.0091
 8848SOL     OW38179   1.820   0.379  11.884 -0.0363  0.2304 -0.0050
 8848SOL    HW138180   1.864   0.297  11.862  0.4911  0.5882 -0.2729
 8848SOL    HW238181   1.736   0.342  11.911  0.4394 -0.6625  0.2293
 8849SOL     OW38182   4.185   0.462   6.418  0.7483  0.8843  0.7863
 8849SOL    HW138183   4.124   0.453   6.491  2.4952 -0.0528  2.1279
 8849SOL    HW238184   4.201   0.557   6.418 -1.1686  1.2049 -0.0451
 8850SOL     OW38185   0.354   1.949   8.947  0.2702  0.1447  0.0991
 8850SOL    HW138186   0.317   1.880   8.892  1.6106  0.1504 -0.8232
 8850SOL    HW238187   0.283   1.989   8.997  1.1877  1.9069 -0.0152
 8851SOL     OW38188   0.314   0.888   0.600  0.4042  0.2287 -0.4537
 8851SOL    HW138189   0.222   0.913   0.601  0.1997 -0.5363  1.1423
 8851SOL    HW238190   0.309   0.799   0.637 -1.2167  1.4477  2.2129
 8852SOL     OW38191   1.117   1.087   5.525  0.0632 -0.3937 -0.2374
 8852SOL    HW138192   1.051   1.072   5.593  0.3476  0.8480  0.3091
 8852SOL    HW238193   1.178   1.017   5.547  2.5362  1.6730 -0.5803
 8853SOL     OW38194   4.516   0.273  10.501  0.2348  0.2613 -0.0818
 8853SOL    HW138195   4.532   0.242  10.589  0.1114  0.3351 -0.0324
 8853SOL    HW238196   4.431   0.318  10.502  0.2577  0.2818  1.1174
 8854SOL     OW38197   1.171   2.152   6.182  0.2036 -0.0742 -0.0372
 8854SOL    HW138198   1.235   2.095   6.139 -0.1390  0.0956 -0.7591
 8854SOL    HW238199   1.226   2.227   6.206  0.4280  0.7958 -3.3638
 8855SOL     OW38200   1.438   1.028  11.803  0.4589  0.1744  0.1140
 8855SOL    HW138201   1.416   1.045  11.895 -1.8844 -0.4445 -0.3345
 8855SOL    HW238202   1.533   1.034  11.809  0.4714 -0.7112  0.6426
 8856SOL     OW38203   0.056   0.373   3.425 -0.0866  1.1668  0.3199
 8856SOL    HW138204   0.106   0.361   3.344 -0.9365  1.4867 -0.2497
 8856SOL    HW238205   4.731   0.439   3.399 -1.2860  0.9458  2.7444
 8857SOL     OW38206   3.582   0.165  12.543  0.5346 -0.3230  0.0413
 8857SOL    HW138207   3.588   0.108  12.466 -0.2501 -0.4144  0.0409
 8857SOL    HW238208   3.496   0.144  12.579 -1.0022  1.2821 -2.6607
 8858SOL     OW38209   3.815   4.702   1.765  0.0115  0.1314  0.5868
 8858SOL    HW138210   3.779   4.699   1.676  1.5525  0.7389 -0.0687
 8858SOL    HW238211   3.735   4.711   1.815 -0.4734  1.4165 -0.4090
 8859SOL     OW38212   1.515   4.344   4.974  0.8300 -0.0192 -0.1318
 8859SOL    HW138213   1.504   4.434   5.003 -1.4798 -0.5782  0.7505
 8859SOL    HW238214   1.485   4.354   4.883  0.9358  1.5939  0.0074
 8860SOL     OW38215   0.652   2.170   2.639 -0.9674  0.9308  0.2424
 8860SOL    HW138216   0.562   2.201   2.623 -1.6232  0.3364  2.8538
 8860SOL    HW238217   0.647   2.133   2.727  0.1878  1.9865  0.7389
 8861SOL     OW38218   3.420   1.560  13.101 -0.1151 -0.2302 -0.2030
 8861SOL    HW138219   3.513   1.546  13.117 -0.0766  1.9664  1.5951
 8861SOL    HW238220   3.411   1.507  13.021 -1.4414  0.3959 -0.4733
 8862SOL     OW38221   3.602   1.009   8.399 -0.3996 -0.0190 -0.5972
 8862SOL    HW138222   3.666   1.072   8.368 -1.5311  1.9275  1.0467
 8862SOL    HW238223   3.657   0.945   8.445  0.2004  1.2765  0.4773
 8863SOL     OW38224   2.093   3.251  12.009  0.5115  0.4826 -0.0130
 8863SOL    HW138225   2.005   3.287  11.994  0.2904  0.0132  0.1458
 8863SOL    HW238226   2.135   3.333  11.982 -1.7668  1.4975 -0.5639
 8864SOL     OW38227   2.613   2.099   3.311  0.2579 -0.4562 -0.6713
 8864SOL    HW138228   2.694   2.087   3.361  0.1175  1.1937 -0.0265
 8864SOL    HW238229   2.624   2.029   3.247 -1.5637 -0.1525 -1.3026
 8865SOL     OW38230   3.625   3.767   7.968  0.0232  0.0671 -0.0334
 8865SOL    HW138231   3.677   3.687   7.982 -0.4938 -0.4911 -1.3723
 8865SOL    HW238232   3.686   3.827   8.011 -0.0175  1.4095 -1.8944
 8866SOL     OW38233   2.317   4.105   8.407  0.2606  0.4147 -0.2225
 8866SOL    HW138234   2.391   4.067   8.358  0.0763  0.5591 -0.6130
 8866SOL    HW238235   2.344   4.116   8.498  0.2623  0.7854 -0.2691
 8867SOL     OW38236   4.081   2.876   9.015  0.4858  0.3120 -0.3522
 8867SOL    HW138237   4.165   2.922   9.011 -0.5434  2.1526 -1.2348
 8867SOL    HW238238   4.109   2.789   8.988  0.7414 -0.0180  0.9665
 8868SOL     OW38239   1.287   2.272  11.898 -0.0503  0.4460 -0.0018
 8868SOL    HW138240   1.248   2.185  11.901  1.2382 -0.1690 -1.1614
 8868SOL    HW238241   1.216   2.319  11.853 -0.9986 -0.3783  0.6268
 8869SOL     OW38242   0.390   3.244   8.419  0.4415  0.4430  0.4038
 8869SOL    HW138243   0.378   3.311   8.486  1.1602  1.1629 -0.1936
 8869SOL    HW238244   0.385   3.298   8.340 -0.0154  0.5736  0.5198
 8870SOL     OW38245   3.970   0.965   8.225  0.1668 -0.0345 -0.3180
 8870SOL    HW138246   3.998   0.891   8.170 -1.2232 -0.6866 -0.1477
 8870SOL    HW238247   4.027   1.031   8.187 -0.8613  1.7397  1.2450
 8871SOL     OW38248   2.002   2.646   5.612 -0.3365 -0.1547  0.4571
 8871SOL    HW138249   1.988   2.630   5.519 -2.6917 -0.7832  0.9129
 8871SOL    HW238250   1.915   2.679   5.636 -0.0072 -0.0914  1.5967
 8872SOL     OW38251   3.654   2.411   5.514  0.3533  0.3472  0.2676
 8872SOL    HW138252   3.741   2.451   5.525  1.0418 -0.9963 -0.3415
 8872SOL    HW238253   3.674   2.377   5.427 -1.6125  2.1422 -0.8881
 8873SOL     OW38254   0.402   2.493   1.804  0.1469 -0.0299  0.1312
 8873SOL    HW138255   0.457   2.458   1.734  0.1517  0.0868  0.0770
 8873SOL    HW238256   0.468   2.538   1.856 -0.7938 -0.5198  1.7268
 8874SOL     OW38257   2.473   3.854   9.872  0.1048 -0.0322  0.1381
 8874SOL    HW138258   2.462   3.904   9.791  1.1537  1.2679  0.7792
 8874SOL    HW238259   2.399   3.800   9.846 -0.5015  0.9456 -0.1765
 8875SOL     OW38260   4.494   4.099   3.767 -0.0130 -0.0832  0.1908
 8875SOL    HW138261   4.547   4.178   3.775  3.6543 -2.4963 -0.1333
 8875SOL    HW238262   4.437   4.109   3.691  0.9712  0.1351 -0.5169
 8876SOL     OW38263   1.638   1.593   4.586  0.3329  0.0795  0.1449
 8876SOL    HW138264   1.727   1.622   4.569  1.7348 -2.6039  2.9334
 8876SOL    HW238265   1.648   1.571   4.679 -1.2873  0.1440  0.3488
 8877SOL     OW38266   1.948   1.580   3.745  0.2287 -0.1693  0.3139
 8877SOL    HW138267   1.931   1.664   3.703  0.4235 -0.6000 -0.6256
 8877SOL    HW238268   2.012   1.540   3.686  0.0514 -1.4588  0.9713
 8878SOL     OW38269   1.384   1.083  12.093 -0.1712  0.0765  0.2373
 8878SOL    HW138270   1.408   0.995  12.121  0.8471  0.0671 -0.6858
 8878SOL    HW238271   1.348   1.107  12.179 -0.2736 -0.1447  0.2575
 8879SOL     OW38272   2.178   4.515   3.242  0.2116 -0.0165 -0.3601
 8879SOL    HW138273   2.164   4.554   3.328  1.6885 -1.2993  0.4555
 8879SOL    HW238274   2.134   4.431   3.249 -0.7617  0.4464 -0.9249
 8880SOL     OW38275   2.819   4.291   3.486  0.4041 -0.4219 -0.1933
 8880SOL    HW138276   2.817   4.271   3.393  0.3198  1.4577 -0.5989
 8880SOL    HW238277   2.728   4.315   3.507  0.6862  0.2401  0.2714
 8881SOL     OW38278   1.367   2.885   4.239  0.4854  0.1769 -1.0018
 8881SOL    HW138279   1.456   2.909   4.268  0.4112  0.9358 -1.4164
 8881SOL    HW238280   1.354   2.930   4.156 -1.1099  0.5206 -0.5776
 8882SOL     OW38281   0.779   0.331   0.299  0.6375 -0.5690  0.2940
 8882SOL    HW138282   0.819   0.340   0.385  1.5355 -1.5999 -0.0127
 8882SOL    HW238283   0.811   0.407   0.250 -1.6004 -0.6842 -1.3772
 8883SOL     OW38284   1.567   4.271  13.368 -0.0768  0.4883 -0.2806
 8883SOL    HW138285   1.479   4.260  13.405  0.4153 -3.2151 -0.1589
 8883SOL    HW238286   1.537   4.321  13.292  0.3650  0.7699 -0.2649
 8884SOL     OW38287   0.333   3.417   2.869 -0.7353  0.2285 -0.8688
 8884SOL    HW138288   0.419   3.412   2.911 -1.1422  1.4754  0.1182
 8884SOL    HW238289   0.308   3.325   2.863  0.3770 -0.2797  2.4875
 8885SOL     OW38290   0.148   2.870   3.328  0.6942 -0.5817  0.2008
 8885SOL    HW138291   0.169   2.779   3.348 -2.2319 -1.0367  1.1277
 8885SOL    HW238292   0.127   2.901   3.416  1.2360 -0.7339  0.3864
 8886SOL     OW38293   1.326   1.497   5.444  0.1777 -0.4454  0.0408
 8886SOL    HW138294   1.238   1.463   5.462  0.3046 -1.1111 -0.5832
 8886SOL    HW238295   1.356   1.427   5.386 -1.6624  0.3171 -1.7981
 8887SOL     OW38296   1.566   2.844   3.602 -0.2190  1.0861 -0.3886
 8887SOL    HW138297   1.547   2.750   3.606  1.2401  0.7879 -0.4667
 8887SOL    HW238298   1.481   2.888   3.611 -0.2944  1.4238 -2.7239
 8888SOL     OW38299   3.335   4.431   0.189  0.1194 -0.0296  0.6620
 8888SOL    HW138300   3.420   4.440   0.231  0.8896  0.1960 -0.9641
 8888SOL    HW238301   3.277   4.488   0.240 -0.3732  0.3194 -0.2770
 8889SOL     OW38302   1.596   2.920   3.198 -0.0005  0.1110  0.5091
 8889SOL    HW138303   1.687   2.928   3.228 -0.2512 -1.7975  1.8125
 8889SOL    HW238304   1.574   2.827   3.209 -1.8720  0.3592 -1.3688
 8890SOL     OW38305   0.844   1.012   7.715  0.1908 -0.9526 -0.2166
 8890SOL    HW138306   0.890   0.951   7.657  0.0917 -0.6683 -0.5945
 8890SOL    HW238307   0.768   0.956   7.731 -0.6775  0.7102  1.5955
 8891SOL     OW38308   2.040   3.118   2.147 -0.0149  0.0353  0.2319
 8891SOL    HW138309   2.089   3.037   2.134 -1.2378 -0.6849  0.1270
 8891SOL    HW238310   2.107   3.176   2.111 -1.4730  1.8395  0.3971
 8892SOL     OW38311   0.470   2.373   7.941 -0.4026  0.0049 -0.0210
 8892SOL    HW138312   0.399   2.411   7.890 -0.5928 -0.1662  0.1159
 8892SOL    HW238313   0.457   2.414   8.026  1.3574  1.1634 -0.3080
 8893SOL     OW38314   2.244   2.438  17.007  0.1922  0.2357 -0.0766
 8893SOL    HW138315   2.339   2.452  17.006  0.2090  0.1828  1.5251
 8893SOL    HW238316   2.235   2.355  16.961 -0.2640 -0.4125  1.1985
 8894SOL     OW38317   2.091   0.434   2.259  0.0856  0.2364  0.1105
 8894SOL    HW138318   2.154   0.406   2.193 -0.2310 -0.4898  0.1196
 8894SOL    HW238319   2.143   0.471   2.331  0.0860  1.7110 -0.6513
 8895SOL     OW38320   1.540   0.072   0.420  0.2834 -0.2531 -0.5479
 8895SOL    HW138321   1.580   0.159   0.424 -0.4091  0.0349 -0.0364
 8895SOL    HW238322   1.453   0.097   0.450  0.1147 -0.3634 -0.9434
 8896SOL     OW38323   0.662   4.140   4.122  0.1337 -0.5862  0.5788
 8896SOL    HW138324   0.587   4.084   4.101 -1.6437  1.8360  0.4765
 8896SOL    HW238325   0.630   4.192   4.196  2.8029  0.3671  1.0500
 8897SOL     OW38326   1.893   0.879  11.629  0.7705  0.7393  0.0636
 8897SOL    HW138327   1.935   0.936  11.693 -0.6102 -0.7841  2.3359
 8897SOL    HW238328   1.880   0.799  11.679 -1.7271  0.7729 -0.4816
 8898SOL     OW38329   2.636   3.850   3.949 -0.3213  0.0629 -0.1473
 8898SOL    HW138330   2.673   3.938   3.953 -1.8397  0.6639  1.1291
 8898SOL    HW238331   2.672   3.817   4.032 -0.1958 -1.9545 -1.0088
 8899SOL     OW38332   2.009   3.195   2.430 -0.3266 -0.3988  0.8568
 8899SOL    HW138333   1.948   3.124   2.451 -1.1422  0.1256  0.2939
 8899SOL    HW238334   1.952   3.226   2.359  1.0543 -1.6466 -0.8101
 8900SOL     OW38335   0.619   2.786   5.264 -0.0462 -0.1897  0.1114
 8900SOL    HW138336   0.544   2.815   5.315 -0.1530  1.3648 -0.9266
 8900SOL    HW238337   0.595   2.816   5.176  1.3831 -0.0935 -0.2440
 8901SOL     OW38338   3.222   1.447   1.985  0.7195  0.6360 -0.0584
 8901SOL    HW138339   3.220   1.368   1.931  0.6650  0.7343 -0.1999
 8901SOL    HW238340   3.140   1.441   2.035 -0.3499  2.3299 -1.6060
 8902SOL     OW38341   0.854   4.005   3.718  0.7045  0.2451 -0.1123
 8902SOL    HW138342   0.940   3.967   3.737  0.7658  1.2500  1.7253
 8902SOL    HW238343   0.841   4.060   3.796 -0.8959 -0.3533  0.0289
 8903SOL     OW38344   2.356   2.458   1.498 -0.0231 -0.2091 -0.5038
 8903SOL    HW138345   2.431   2.516   1.512 -1.3207  1.2122  0.4754
 8903SOL    HW238346   2.361   2.449   1.402 -0.5740 -0.0470 -0.5433
 8904SOL     OW38347   4.078   0.363   8.274  0.1379 -0.1977  0.0315
 8904SOL    HW138348   4.158   0.354   8.326  1.0889 -2.8267 -1.8831
 8904SOL    HW238349   4.054   0.270   8.265 -2.6023  0.6664 -1.6140
 8905SOL     OW38350   0.675   2.604   2.407 -0.0563 -0.1526 -0.0360
 8905SOL    HW138351   0.734   2.667   2.366  0.6261 -1.1382 -0.5716
 8905SOL    HW238352   0.730   2.528   2.393  2.0606  1.5606 -0.9722
 8906SOL     OW38353   2.236   1.067  16.573 -0.5436  0.4233  0.0093
 8906SOL    HW138354   2.272   0.978  16.572  1.5905  1.2944  0.0390
 8906SOL    HW238355   2.168   1.048  16.508 -0.4030  0.3966 -0.1308
 8907SOL     OW38356   2.946   2.023   4.073  0.0710 -0.8793 -0.3342
 8907SOL    HW138357   2.876   2.034   4.009 -0.4384  1.8854  0.6732
 8907SOL    HW238358   2.943   2.108   4.118  0.0012 -1.9856  1.7658
 8908SOL     OW38359   1.568   0.644  15.466 -0.4489  0.2977  0.2065
 8908SOL    HW138360   1.631   0.587  15.422 -1.0137  0.2962 -0.5963
 8908SOL    HW238361   1.631   0.688  15.523  0.6821  0.7774 -1.4034
 8909SOL     OW38362   1.066   3.575   5.457 -0.1428 -0.2030  0.2824
 8909SOL    HW138363   1.017   3.597   5.536  1.7406 -0.8714  1.6307
 8909SOL    HW238364   0.990   3.554   5.402  2.4588 -2.1869 -2.5458
 8910SOL     OW38365   4.093   0.476   4.285 -0.0321  0.3515 -0.0638
 8910SOL    HW138366   4.093   0.572   4.280  0.6135  0.4304  1.3798
 8910SOL    HW238367   4.010   0.470   4.238  0.8778  2.9343 -2.0213
 8911SOL     OW38368   2.905   1.285   5.312  0.1553  0.7714 -0.1693
 8911SOL    HW138369   2.884   1.192   5.302  0.3537  0.8496 -1.2987
 8911SOL    HW238370   2.822   1.330   5.330 -0.3268 -0.6635  1.1655
 8912SOL     OW38371   0.805   2.169   8.074  1.0555  0.3020  0.8166
 8912SOL    HW138372   0.865   2.230   8.029 -0.1578  0.4214 -0.6262
 8912SOL    HW238373   0.832   2.156   8.165 -1.7504 -1.5568  1.3853
 8913SOL     OW38374   1.163   1.465   5.935  0.1012 -0.3627 -0.8269
 8913SOL    HW138375   1.139   1.469   6.028  0.7577  1.7424 -0.7326
 8913SOL    HW238376   1.155   1.372   5.913  1.6052  0.1311 -3.4355
 8914SOL     OW38377   0.205   2.046  16.048  0.2081  0.5232  0.2134
 8914SOL    HW138378   0.288   2.003  16.065  0.1167 -0.5526 -2.0188
 8914SOL    HW238379   0.158   1.973  16.007 -0.6579  0.7150  0.8620
 8915SOL     OW38380   2.542   3.593  12.283 -0.4706 -0.1565 -0.2744
 8915SOL    HW138381   2.528   3.678  12.325  0.1601 -1.7495  3.2456
 8915SOL    HW238382   2.569   3.546  12.363  0.6712  0.1486 -0.4711
 8916SOL     OW38383   3.550   1.026   7.007  0.4010 -0.0784 -0.0085
 8916SOL    HW138384   3.462   1.032   6.969  0.5625  0.8937 -0.2178
 8916SOL    HW238385   3.539   1.005   7.100  1.4199  1.1241  0.3846
 8917SOL     OW38386   3.069   4.266  13.793 -0.1045 -0.6165  0.3063
 8917SOL    HW138387   3.038   4.328  13.727  1.1369  0.4305  0.7079
 8917SOL    HW238388   3.103   4.328  13.858 -1.8098 -1.8507  2.3908
 8918SOL     OW38389   0.492   1.580   6.223  0.3632 -0.1242 -0.5091
 8918SOL    HW138390   0.470   1.673   6.218  1.4364  0.1082 -0.7931
 8918SOL    HW238391   0.507   1.573   6.318 -0.0073 -1.2046 -0.5218
 8919SOL     OW38392   3.793   2.122   8.826  0.0637  0.0971 -0.1350
 8919SOL    HW138393   3.845   2.104   8.748 -0.4790 -1.6441 -0.0937
 8919SOL    HW238394   3.708   2.101   8.788  0.5363  0.3422 -1.3402
 8920SOL     OW38395   0.738   2.562  15.661  0.1898 -0.4132  0.2395
 8920SOL    HW138396   0.699   2.602  15.738 -2.9800 -0.0004 -1.5874
 8920SOL    HW238397   0.667   2.502  15.638  1.0294 -1.1690 -0.3887
 8921SOL     OW38398   0.145   2.723   5.892 -0.4553 -0.4511 -0.0251
 8921SOL    HW138399   0.198   2.687   5.964 -2.2102 -0.7947  1.0835
 8921SOL    HW238400   0.074   2.754   5.948 -3.1544 -4.7808 -1.0686
 8922SOL     OW38401   2.994   2.118   2.950  0.0204 -0.5657 -0.1963
 8922SOL    HW138402   3.015   2.151   3.037 -0.8957 -0.7063  0.0763
 8922SOL    HW238403   3.082   2.107   2.912  0.5957  2.3374  0.2788
 8923SOL     OW38404   1.502   4.508   3.893 -0.3149  0.1050 -0.5455
 8923SOL    HW138405   1.482   4.600   3.877 -3.7535  0.0681  3.4708
 8923SOL    HW238406   1.597   4.496   3.895 -0.6030 -2.0380  0.2632
 8924SOL     OW38407   3.579   1.798   2.222 -0.0220 -0.4657  0.4883
 8924SOL    HW138408   3.526   1.831   2.295  0.7390 -1.0723  1.3078
 8924SOL    HW238409   3.517   1.757   2.162 -0.5376  0.0386  0.6757
 8925SOL     OW38410   4.697   3.480   7.873  0.3857  0.3399 -0.1740
 8925SOL    HW138411   0.040   3.505   7.915  0.3606  1.3441 -0.7300
 8925SOL    HW238412   4.638   3.463   7.947 -0.3118  0.0563 -0.7966
 8926SOL     OW38413   4.585   4.305  17.111  0.2068  0.1427 -0.5409
 8926SOL    HW138414   4.677   4.319  17.085  0.3872 -1.1649 -0.6118
 8926SOL    HW238415   4.596   4.220  17.154 -1.9174 -0.4644 -1.2082
 8927SOL     OW38416   2.923   0.471  16.170 -0.0253  0.3854 -0.2027
 8927SOL    HW138417   3.006   0.472  16.124  0.0435 -3.9894 -0.1257
 8927SOL    HW238418   2.869   0.450  16.094 -1.6269 -2.0352  1.5958
 8928SOL     OW38419   1.909   0.454   6.788 -0.3193 -0.5330  0.6067
 8928SOL    HW138420   1.917   0.489   6.876 -1.7806  1.1891  0.0629
 8928SOL    HW238421   1.815   0.435   6.781 -0.5483  1.3487 -1.5758
 8929SOL     OW38422   2.125   2.094  11.919  0.2467 -0.7381 -0.1371
 8929SOL    HW138423   2.215   2.060  11.921  0.7944  0.7528  0.2586
 8929SOL    HW238424   2.092   2.045  11.844  0.2984 -0.7763 -0.1351
 8930SOL     OW38425   0.580   2.362   0.128  0.3539 -0.1825  0.0781
 8930SOL    HW138426   0.516   2.433   0.139  1.2325  0.9922 -2.3561
 8930SOL    HW238427   0.588   2.331   0.218  1.1191  0.5698  0.2693
 8931SOL     OW38428   1.208   3.854   5.469 -0.5957  0.9130 -0.4445
 8931SOL    HW138429   1.145   3.787   5.496  0.5657 -0.4210 -0.9810
 8931SOL    HW238430   1.239   3.889   5.553  1.4844  0.0528 -0.8433
 8932SOL     OW38431   2.960   0.609   4.529 -0.0575 -0.0268 -0.3404
 8932SOL    HW138432   3.000   0.550   4.592 -2.1777 -1.1651 -0.0580
 8932SOL    HW238433   3.029   0.674   4.513  0.5336 -0.3394  1.0010
 8933SOL     OW38434   3.084   3.018  13.195 -0.8365  0.1378  0.5800
 8933SOL    HW138435   3.032   2.938  13.204 -0.7542  0.0203  0.0045
 8933SOL    HW238436   3.068   3.062  13.279  0.3310  0.5221  0.5913
 8934SOL     OW38437   1.336   4.513  13.177 -0.6577 -0.2714  1.0109
 8934SOL    HW138438   1.409   4.551  13.225 -0.1363  0.5477 -0.4349
 8934SOL    HW238439   1.285   4.478  13.250 -1.4711  1.0168  1.0635
 8935SOL     OW38440   4.633   4.141  13.183 -0.5120  0.0706  0.1539
 8935SOL    HW138441   4.664   4.114  13.096  1.6979  1.5422  0.4957
 8935SOL    HW238442   4.622   4.057  13.228 -0.4335  0.5167  1.0033
 8936SOL     OW38443   4.616   2.783  15.587 -0.0632 -0.1911 -1.0373
 8936SOL    HW138444   4.695   2.807  15.636 -0.4669  0.6062 -0.7709
 8936SOL    HW238445   4.656   2.719  15.528 -1.8371 -1.1889 -1.1638
 8937SOL     OW38446   2.698   0.548  14.583 -0.2479  0.0045  0.1761
 8937SOL    HW138447   2.614   0.557  14.539 -0.8659  0.4629  1.4652
 8937SOL    HW238448   2.691   0.600  14.663  0.9126 -0.8685  0.8373
 8938SOL     OW38449   4.495   1.573   7.675  0.2536  0.5376 -0.2018
 8938SOL    HW138450   4.482   1.548   7.767 -1.9900 -0.6988 -0.8489
 8938SOL    HW238451   4.591   1.566   7.675  0.2720  0.7799  0.1183
 8939SOL     OW38452   2.082   2.770  16.657 -0.1456 -0.3493 -1.2628
 8939SOL    HW138453   2.061   2.729  16.573  0.3545 -0.6556 -1.2359
 8939SOL    HW238454   2.071   2.696  16.716 -0.3087 -0.2951 -1.2253
 8940SOL     OW38455   0.883   0.249   1.047 -0.1465  0.0574  0.7677
 8940SOL    HW138456   0.969   0.208   1.035  0.3944  0.6977  2.4119
 8940SOL    HW238457   0.873   0.300   0.966  0.8054  1.3289  1.4511
 8941SOL     OW38458   4.537   2.047   6.774 -0.1580 -0.1176  0.2807
 8941SOL    HW138459   4.512   2.086   6.858  2.0084 -1.6176  1.6111
 8941SOL    HW238460   4.540   1.956   6.803  0.3157 -0.3757 -0.5569
 8942SOL     OW38461   4.545   0.731   4.607 -0.4564 -0.1940 -0.0111
 8942SOL    HW138462   4.471   0.675   4.631 -0.8399  0.6168  0.6783
 8942SOL    HW238463   4.531   0.805   4.666 -1.4444 -0.9227  0.6838
 8943SOL     OW38464   1.911   0.619   1.586  0.2250  0.0785 -0.4445
 8943SOL    HW138465   1.954   0.672   1.520  0.4760  1.5155  0.8723
 8943SOL    HW238466   1.858   0.687   1.627 -0.7328 -0.0735 -1.4412
 8944SOL     OW38467   2.583   0.583   7.181  0.4375 -0.7062 -0.3732
 8944SOL    HW138468   2.576   0.581   7.085  1.9065  1.1589 -0.5334
 8944SOL    HW238469   2.505   0.539   7.214  0.9605  0.2596  2.1812
 8945SOL     OW38470   0.239   2.672   5.095  0.0080  0.1445 -0.2553
 8945SOL    HW138471   0.270   2.762   5.086 -1.4719  0.8589  1.8240
 8945SOL    HW238472   0.153   2.685   5.137  0.5791 -0.8265  1.2133
 8946SOL     OW38473   3.346   3.024   1.681 -0.0332 -0.4240 -0.4809
 8946SOL    HW138474   3.439   3.049   1.674  0.0410  0.1030  2.5523
 8946SOL    HW238475   3.344   2.950   1.741 -0.5170 -0.9845 -1.1966
 8947SOL     OW38476   2.817   1.614   2.766  0.1404  0.1949 -0.0657
 8947SOL    HW138477   2.749   1.669   2.803  1.5968  0.4635  2.2039
 8947SOL    HW238478   2.889   1.635   2.825  0.2635 -0.7514  0.1249
 8948SOL     OW38479   2.291   4.055  14.076  0.0784  0.5207  0.0142
 8948SOL    HW138480   2.346   3.984  14.044  0.2614  0.6134  0.1223
 8948SOL    HW238481   2.346   4.130  14.050  0.2972  0.7382  1.0943
 8949SOL     OW38482   3.544   2.188   6.152  0.0758 -1.0252  0.2535
 8949SOL    HW138483   3.608   2.121   6.178 -0.5259 -1.5209  0.4594
 8949SOL    HW238484   3.556   2.185   6.057  0.8729 -1.1595  0.3634
 8950SOL     OW38485   0.416   3.527  14.006  0.2064 -0.2746 -0.1915
 8950SOL    HW138486   0.343   3.554  13.950 -0.4968  1.3701  1.4729
 8950SOL    HW238487   0.434   3.614  14.043 -1.1324  0.2307 -0.7239
 8951SOL     OW38488   0.606   1.720  13.707  0.1719 -0.4572 -0.7449
 8951SOL    HW138489   0.536   1.722  13.641 -0.9361  2.8745  0.4954
 8951SOL    HW238490   0.591   1.638  13.754 -1.5588 -0.9269 -2.1168
 8952SOL     OW38491   1.448   2.164  11.611  0.0619 -0.0980 -0.3061
 8952SOL    HW138492   1.417   2.115  11.688 -0.3376 -2.1685 -1.7779
 8952SOL    HW238493   1.496   2.238  11.649 -0.4865 -0.8082  1.7623
 8953SOL     OW38494   0.641   3.203   7.351  0.4048 -0.5169  0.3820
 8953SOL    HW138495   0.622   3.278   7.408  1.8677  0.3043 -0.2057
 8953SOL    HW238496   0.565   3.149   7.372 -0.3996  0.1142 -0.8902
 8954SOL     OW38497   1.880   3.655   9.829 -0.1121 -0.2337  0.3930
 8954SOL    HW138498   1.899   3.716   9.759 -3.6071  1.9201  1.3391
 8954SOL    HW238499   1.785   3.655   9.835 -0.1757 -1.4747 -0.5680
 8955SOL     OW38500   2.392   2.793  15.839 -0.2107  0.3314 -0.1783
 8955SOL    HW138501   2.359   2.878  15.869 -1.0817 -0.6201  1.5679
 8955SOL    HW238502   2.481   2.816  15.814 -0.3122  0.4463 -0.4267
 8956SOL     OW38503   1.635   1.514   7.946 -0.2417  0.6100  0.2056
 8956SOL    HW138504   1.664   1.590   7.896 -1.4985  1.5233  0.8644
 8956SOL    HW238505   1.561   1.500   7.887  0.6054  2.2015 -1.2250
 8957SOL     OW38506   2.341   3.532  16.350 -0.2432  0.4493 -0.3960
 8957SOL    HW138507   2.302   3.446  16.334 -0.9144  0.5221  0.9125
 8957SOL    HW238508   2.431   3.515  16.379 -0.8515 -1.1578  0.5124
 8958SOL     OW38509   1.331   3.012   2.325  0.2250 -0.1980 -0.0779
 8958SOL    HW138510   1.338   3.100   2.361 -3.4307 -0.2203  0.6727
 8958SOL    HW238511   1.390   3.007   2.250 -1.1276 -1.5574 -1.0640
 8959SOL     OW38512   3.083   0.291   8.125 -0.0083 -0.1736  0.0703
 8959SOL    HW138513   3.085   0.371   8.072  0.5050  0.4892  1.1012
 8959SOL    HW238514   2.993   0.291   8.156 -1.4351  0.0448 -3.9952
 8960SOL     OW38515   3.608   0.280   3.736 -0.0169 -0.0897 -0.4896
 8960SOL    HW138516   3.703   0.281   3.737 -0.0229 -0.0010 -0.1780
 8960SOL    HW238517   3.598   0.246   3.647 -2.0755  0.0758 -0.3395
 8961SOL     OW38518   2.683   1.875  12.776  0.5671 -0.5567 -0.1023
 8961SOL    HW138519   2.722   1.792  12.746  0.5611 -0.9961  1.1319
 8961SOL    HW238520   2.761   1.911  12.818  1.7573 -2.4469 -0.6847
 8962SOL     OW38521   2.907   3.526   3.713 -0.8531  0.2089 -0.0314
 8962SOL    HW138522   2.892   3.518   3.807 -2.2356 -2.8472 -0.5076
 8962SOL    HW238523   2.837   3.588   3.695 -0.7251  0.3092 -0.1950
 8963SOL     OW38524   3.289   4.255   8.039  0.3609 -0.4475  0.2047
 8963SOL    HW138525   3.331   4.309   7.972  1.1522 -0.5159  0.6436
 8963SOL    HW238526   3.221   4.314   8.071 -0.5452 -0.4822 -1.6429
 8964SOL     OW38527   4.454   4.156  13.537 -0.1033  0.1302 -0.4232
 8964SOL    HW138528   4.373   4.205  13.521 -1.0462 -1.6320 -1.0481
 8964SOL    HW238529   4.452   4.111  13.453  1.7654  1.4848 -1.1929
 8965SOL     OW38530   2.366   2.109   2.336  0.1128 -0.2691 -0.0247
 8965SOL    HW138531   2.326   2.067   2.260  0.4150 -0.1412 -0.2563
 8965SOL    HW238532   2.459   2.099   2.316  0.3001  0.4022  0.4796
 8966SOL     OW38533   3.388   4.160   2.007 -0.3570  0.2989  0.0722
 8966SOL    HW138534   3.364   4.079   1.961  0.0953  0.1472  0.1062
 8966SOL    HW238535   3.348   4.135   2.090  3.6403 -1.6732  1.4282
 8967SOL     OW38536   2.860   3.891   2.175 -0.1849 -0.5846  0.0171
 8967SOL    HW138537   2.834   3.800   2.185 -0.0674 -1.1081 -4.4061
 8967SOL    HW238538   2.836   3.904   2.083 -0.9245 -2.3769 -0.0238
 8968SOL     OW38539   2.076   1.478   6.507 -0.3808  0.3416  0.3226
 8968SOL    HW138540   2.040   1.526   6.433 -0.7979  1.2132  1.0939
 8968SOL    HW238541   2.010   1.410   6.513  0.3383 -0.4709 -1.0587
 8969SOL     OW38542   3.039   1.028   6.858  0.6053  0.5382 -0.1182
 8969SOL    HW138543   3.083   0.964   6.801 -0.9190  0.5431 -1.2840
 8969SOL    HW238544   2.962   1.054   6.808 -0.1423  1.1704  1.3702
 8970SOL     OW38545   4.330   2.009   5.559  0.1866 -0.1312 -0.0440
 8970SOL    HW138546   4.413   2.029   5.515 -0.1548  1.6808  0.1146
 8970SOL    HW238547   4.313   2.086   5.614  0.1590 -1.9351  2.4828
 8971SOL     OW38548   1.677   3.516   4.315 -0.4023  0.6189  0.3196
 8971SOL    HW138549   1.657   3.457   4.387  1.9855 -1.9781 -1.1545
 8971SOL    HW238550   1.698   3.602   4.354 -3.2182  1.0579  0.8664
 8972SOL     OW38551   4.163   4.090   7.055  0.3558 -0.2854 -0.0950
 8972SOL    HW138552   4.107   4.163   7.085  1.4086  0.6723 -0.4640
 8972SOL    HW238553   4.095   4.026   7.034 -2.0328  2.5896 -1.2317
 8973SOL     OW38554   2.717   2.344   6.426  0.1365 -0.2162 -0.0750
 8973SOL    HW138555   2.747   2.335   6.335 -0.5526 -1.8028 -0.1342
 8973SOL    HW238556   2.805   2.346   6.465 -0.3525 -0.9460  1.0330
 8974SOL     OW38557   0.383   3.549   3.954 -0.6714 -0.0614 -0.9407
 8974SOL    HW138558   0.418   3.626   3.909  0.7552  1.3246  2.5030
 8974SOL    HW238559   0.362   3.480   3.891  1.1739 -0.5522 -1.0247
 8975SOL     OW38560   3.374   4.326  13.390  0.4780  0.6406 -0.3756
 8975SOL    HW138561   3.296   4.282  13.425  0.4850  1.3056  0.4572
 8975SOL    HW238562   3.355   4.353  13.300 -0.4601  1.5172  0.0903
 8976SOL     OW38563   1.236   3.792   4.181  0.3415 -0.2463 -0.4300
 8976SOL    HW138564   1.281   3.873   4.158 -0.1541 -0.0352 -0.6542
 8976SOL    HW238565   1.176   3.789   4.106  1.3111  2.0103 -1.3102
 8977SOL     OW38566   1.175   2.681   6.819  0.3089 -0.2794  0.0708
 8977SOL    HW138567   1.141   2.596   6.846  1.5615 -0.4336  1.1821
 8977SOL    HW238568   1.217   2.668   6.734  1.9899  0.7145  0.7450
 8978SOL     OW38569   0.976   0.981   9.387  0.4179  0.6338 -0.1702
 8978SOL    HW138570   0.996   0.946   9.474 -1.5702  1.7481  0.7294
 8978SOL    HW238571   0.952   1.070   9.412  1.4685  0.7302  0.5212
 8979SOL     OW38572   2.082   4.162  10.958  0.3698  0.0018  0.0502
 8979SOL    HW138573   2.040   4.236  11.002 -1.0991  0.0087 -1.3576
 8979SOL    HW238574   2.089   4.102  11.033  2.7217 -1.5285 -1.3977
 8980SOL     OW38575   0.177   0.020   9.036  0.3056  0.8636 -0.2482
 8980SOL    HW138576   0.111   0.089   9.024 -0.7021  0.2435  1.8143
 8980SOL    HW238577   0.249   0.081   9.052  0.9295  0.3827 -1.1665
 8981SOL     OW38578   4.705   3.329   5.918  0.3177 -0.4662 -0.6829
 8981SOL    HW138579   0.059   3.311   5.932 -0.2899 -3.9637 -1.0419
 8981SOL    HW238580   4.705   3.320   5.822 -1.6488 -1.1265 -0.6203
 8982SOL     OW38581   1.954   0.213   8.287 -0.7845 -0.2566 -0.8362
 8982SOL    HW138582   1.971   0.306   8.304  1.2922 -1.0773  1.5790
 8982SOL    HW238583   2.035   0.174   8.320  0.2900 -0.2721 -3.4791
 8983SOL     OW38584   2.454   1.829   5.333  0.0770  0.1105  0.1441
 8983SOL    HW138585   2.534   1.835   5.384  0.4516 -1.4121 -0.2568
 8983SOL    HW238586   2.448   1.916   5.293 -0.6962 -0.3424 -0.7193
 8984SOL     OW38587   0.860   1.676   3.537 -0.1932 -0.2281  0.2052
 8984SOL    HW138588   0.935   1.616   3.536  0.2096  0.2756 -0.0898
 8984SOL    HW238589   0.816   1.642   3.616 -0.8286  0.7915  0.2959
 8985SOL     OW38590   2.625   1.821   2.535  0.1898  0.3615 -0.1136
 8985SOL    HW138591   2.575   1.840   2.615 -2.1001 -2.5317 -0.8603
 8985SOL    HW238592   2.561   1.790   2.471  0.4276 -1.7142  0.6577
 8986SOL     OW38593   1.210   0.686  16.226  0.2179 -0.1884  0.2210
 8986SOL    HW138594   1.167   0.728  16.151 -1.4198  0.4689  1.5225
 8986SOL    HW238595   1.227   0.758  16.288 -0.1451 -0.7216  0.9366
 8987SOL     OW38596   0.089   4.455   1.606  0.5110  0.0517 -0.7827
 8987SOL    HW138597   0.009   4.459   1.553  0.6181  0.2118 -0.9292
 8987SOL    HW238598   0.145   4.410   1.543  1.0176 -2.7627  1.6384
 8988SOL     OW38599   0.320   2.470  13.393  0.1558  0.2433 -0.6280
 8988SOL    HW138600   0.282   2.384  13.413  2.0690  0.5196  4.1085
 8988SOL    HW238601   0.268   2.496  13.316 -0.6054  1.4226  0.2934
 8989SOL     OW38602   1.175   3.302  11.269 -0.0454 -0.0115 -0.0349
 8989SOL    HW138603   1.153   3.209  11.277  0.9832 -0.0469  2.5948
 8989SOL    HW238604   1.241   3.304  11.199 -0.0120  1.4096  0.0268
 8990SOL     OW38605   3.343   1.846   4.014  0.4613  0.4806  0.2477
 8990SOL    HW138606   3.294   1.925   4.036 -0.3353  0.4633 -1.4105
 8990SOL    HW238607   3.389   1.879   3.937  0.5035  2.5850  1.1680
 8991SOL     OW38608   0.961   1.122   0.421 -0.8826 -0.1244  0.1561
 8991SOL    HW138609   0.913   1.062   0.479 -2.0792  1.4165  0.7366
 8991SOL    HW238610   0.934   1.088   0.336  0.1766 -1.5642  0.3861
 8992SOL     OW38611   2.590   4.369   5.176 -0.3073 -0.0715 -0.5676
 8992SOL    HW138612   2.520   4.306   5.194  0.4617 -0.6194  0.5437
 8992SOL    HW238613   2.534   4.446   5.185 -0.8623 -0.6636  1.0252
 8993SOL     OW38614   2.572   2.152   6.678  0.3414  0.5052 -0.0184
 8993SOL    HW138615   2.593   2.076   6.732 -0.2903  0.0611 -0.4013
 8993SOL    HW238616   2.478   2.145   6.660  0.2604  1.6582 -0.0919
 8994SOL     OW38617   1.120   1.193   2.900 -0.2000 -0.0300 -0.1490
 8994SOL    HW138618   1.172   1.143   2.964  2.4888  1.3571 -1.2595
 8994SOL    HW238619   1.031   1.182   2.934 -0.7457  0.8876 -1.3012
 8995SOL     OW38620   4.602   4.358  13.620 -0.1165 -0.4279  0.5125
 8995SOL    HW138621   4.564   4.277  13.588 -0.2439  0.4137 -1.4406
 8995SOL    HW238622   4.544   4.420  13.575  1.2678  0.4718 -0.0347
 8996SOL     OW38623   3.869   0.868  17.462 -0.2660 -0.0235 -0.3134
 8996SOL    HW138624   3.903   0.898  17.378 -2.8739  0.3554 -1.2260
 8996SOL    HW238625   3.806   0.806  17.426  0.1097 -1.8150  2.0869
 8997SOL     OW38626   3.699   2.141  16.821  0.2466  0.3970 -0.2102
 8997SOL    HW138627   3.613   2.181  16.807 -0.1326 -0.3241  0.0184
 8997SOL    HW238628   3.755   2.210  16.787 -0.2539  1.1253  0.4458
 8998SOL     OW38629   2.918   4.282   6.655 -0.2425 -0.3867  0.2711
 8998SOL    HW138630   2.930   4.272   6.749 -3.9227 -0.0219  0.7898
 8998SOL    HW238631   2.823   4.291   6.646 -0.2608 -0.4477  0.3975
 8999SOL     OW38632   3.723   0.038   0.993 -0.0496  0.0852  0.7806
 8999SOL    HW138633   3.696   0.067   1.080 -0.1601  1.2411  0.3561
 8999SOL    HW238634   3.692   0.103   0.930 -1.1319 -0.5876  0.6081
 9000SOL     OW38635   4.592   1.781   6.834 -0.2170 -0.6089  0.1104
 9000SOL    HW138636   4.577   1.733   6.915  1.3883 -1.0674  0.1327
 9000SOL    HW238637   4.564   1.727   6.759  1.5827 -1.6589  0.2062
 9001SOL     OW38638   4.128   2.722   5.556 -0.3337 -0.1129 -0.3467
 9001SOL    HW138639   4.204   2.724   5.615  0.3834 -0.2628 -1.2599
 9001SOL    HW238640   4.057   2.771   5.598 -0.3767 -1.3483  0.9807
 9002SOL     OW38641   0.880   4.254  11.476 -0.1809 -0.5458 -0.3329
 9002SOL    HW138642   0.966   4.233  11.439  0.0787  2.7237 -1.5258
 9002SOL    HW238643   0.876   4.346  11.450  1.7565 -0.2684  0.3406
 9003SOL     OW38644   2.557   2.989   9.718  0.0945 -0.1024 -0.1101
 9003SOL    HW138645   2.647   2.972   9.692 -0.1500  1.3925 -1.8818
 9003SOL    HW238646   2.550   2.930   9.793 -1.4136  0.8695  0.5218
 9004SOL     OW38647   1.996   4.689   8.032  0.3352  0.0157  0.4824
 9004SOL    HW138648   1.982   4.600   7.998  0.5420 -0.0241  0.4995
 9004SOL    HW238649   2.060   4.724   7.969  0.8070 -0.1820  0.8489
 9005SOL     OW38650   3.881   2.055   9.086 -0.2654  0.4746  0.2089
 9005SOL    HW138651   3.820   2.060   9.012  1.2142  2.0068 -0.8966
 9005SOL    HW238652   3.864   2.136   9.135 -0.7754  1.4107 -1.5080
 9006SOL     OW38653   3.060   0.344   2.703  0.1039  0.0520 -0.2878
 9006SOL    HW138654   3.021   0.280   2.644  0.4118  0.5403 -1.0166
 9006SOL    HW238655   3.062   0.423   2.648 -1.9501  0.6372  0.4810
 9007SOL     OW38656   3.563   0.032   8.305 -0.1375  0.0107 -0.1678
 9007SOL    HW138657   3.514   4.718   8.369 -0.0588 -0.6930 -0.6862
 9007SOL    HW238658   3.553   4.717   8.227 -1.5760  0.5697 -0.3790
 9008SOL     OW38659   1.306   2.843   3.374 -0.0841 -0.2650 -0.8704
 9008SOL    HW138660   1.217   2.864   3.348  0.0806 -1.0359 -2.0759
 9008SOL    HW238661   1.344   2.930   3.386  0.9752 -1.0133  1.3743
 9009SOL     OW38662   4.460   1.183  16.373  0.1400  0.0939  0.2251
 9009SOL    HW138663   4.382   1.212  16.419 -1.3751  0.2728 -2.4848
 9009SOL    HW238664   4.523   1.210  16.440  3.2553  1.4735 -3.2691
 9010SOL     OW38665   4.019   3.932   6.392 -0.2740  0.6275 -0.1716
 9010SOL    HW138666   4.095   3.955   6.338 -0.9296 -0.3081 -1.4994
 9010SOL    HW238667   4.047   3.975   6.473 -0.8009 -0.9562  0.8601
 9011SOL     OW38668   4.293   0.293   7.884  0.4864  0.0461 -1.0011
 9011SOL    HW138669   4.382   0.264   7.901 -1.1666 -2.0264  3.8848
 9011SOL    HW238670   4.237   0.216   7.872  2.5191 -1.6356  0.4288
 9012SOL     OW38671   1.823   2.046   7.561  0.0304  0.3217  0.1287
 9012SOL    HW138672   1.802   2.067   7.470  2.3857  1.6751 -0.0870
 9012SOL    HW238673   1.782   1.959   7.558  0.3798  0.1389  0.7136
 9013SOL     OW38674   3.894   0.808   2.418 -0.0634  0.3479  0.2102
 9013SOL    HW138675   3.869   0.782   2.506  0.0448 -0.5584 -0.0301
 9013SOL    HW238676   3.843   0.889   2.417  0.1297  0.4511 -3.0421
 9014SOL     OW38677   2.038   0.978  16.406  0.1218 -0.2521  0.5317
 9014SOL    HW138678   1.984   0.903  16.382 -0.5547  0.5932 -0.5734
 9014SOL    HW238679   1.988   1.055  16.378  1.4842 -0.7364 -3.1976
 9015SOL     OW38680   2.232   2.463   2.623  0.2545 -0.1894 -0.0551
 9015SOL    HW138681   2.208   2.390   2.566  1.6514 -1.1016  0.5228
 9015SOL    HW238682   2.280   2.418   2.693  3.1921  0.3324 -1.7121
 9016SOL     OW38683   4.037   2.372  17.051  0.3279 -0.0848 -0.0809
 9016SOL    HW138684   4.108   2.408  17.104  1.4744  0.1018 -1.7436
 9016SOL    HW238685   4.005   2.455  17.017  3.3458  0.4224 -1.6890
 9017SOL     OW38686   3.787   0.156  12.705 -0.2184 -0.0564  0.2548
 9017SOL    HW138687   3.786   0.062  12.686  0.0866 -0.2965  1.3837
 9017SOL    HW238688   3.723   0.188  12.641  0.0796  2.7764  1.3700
 9018SOL     OW38689   3.029   3.687   0.355 -0.0853 -0.0731  0.1114
 9018SOL    HW138690   2.982   3.728   0.283 -0.7196  1.5889  1.4621
 9018SOL    HW238691   3.121   3.710   0.343  0.4590 -2.0166  0.5580
 9019SOL     OW38692   1.483   2.999  11.331  0.1816 -0.5110 -0.0489
 9019SOL    HW138693   1.522   2.914  11.312  1.0314 -0.4913  1.5886
 9019SOL    HW238694   1.451   2.987  11.421 -0.2987  3.6866  0.3752
 9020SOL     OW38695   3.103   3.164   4.666  0.1206 -0.5502 -0.8060
 9020SOL    HW138696   3.165   3.112   4.615 -0.3284 -2.6241  0.7351
 9020SOL    HW238697   3.017   3.132   4.636 -0.1479 -0.2021 -0.4010
 9021SOL     OW38698   1.067   4.348   6.994  0.6070 -0.7150 -0.2406
 9021SOL    HW138699   0.985   4.335   7.042  0.7193 -0.0283  0.1439
 9021SOL    HW238700   1.133   4.303   7.046  1.1027 -0.2781 -0.4968
 9022SOL     OW38701   3.653   1.471  13.375 -0.3163  0.0394 -0.0462
 9022SOL    HW138702   3.705   1.460  13.296  0.5882 -2.4368  0.8806
 9022SOL    HW238703   3.660   1.563  13.400  0.7642  0.0309 -0.3263
 9023SOL     OW38704   3.729   1.207   4.960  0.3968  0.1511  0.0368
 9023SOL    HW138705   3.807   1.209   4.905  0.4893 -0.9159  0.1459
 9023SOL    HW238706   3.659   1.176   4.903  1.2437 -1.2529 -0.2121
 9024SOL     OW38707   3.925   3.972   8.655  0.1897 -0.1963  0.5097
 9024SOL    HW138708   3.903   3.886   8.618  3.0406 -1.5975  2.1056
 9024SOL    HW238709   4.009   3.951   8.695 -0.3217  0.3756  1.8832
 9025SOL     OW38710   1.203   4.357   4.720  0.4027 -0.1937  0.0497
 9025SOL    HW138711   1.161   4.426   4.772  2.1426  1.4290 -0.7244
 9025SOL    HW238712   1.133   4.295   4.741 -2.2188  1.9498 -2.3507
 9026SOL     OW38713   2.229   2.473   4.970  0.2289 -0.0423 -0.7004
 9026SOL    HW138714   2.321   2.498   4.965  0.0400  0.8231  0.1384
 9026SOL    HW238715   2.223   2.394   5.023  0.8700 -0.5033 -1.3218
 9027SOL     OW38716   4.180   2.698   8.412 -0.4213  0.0658 -0.4894
 9027SOL    HW138717   4.168   2.748   8.493 -0.3421  2.2024 -1.8004
 9027SOL    HW238718   4.208   2.616   8.452  0.0183 -0.3153 -1.5788
 9028SOL     OW38719   1.878   2.602   3.142 -0.5047 -0.0467 -0.1249
 9028SOL    HW138720   1.884   2.693   3.171  1.0937 -1.0576  2.6196
 9028SOL    HW238721   1.832   2.559   3.214  0.1713  0.7177  0.7615
 9029SOL     OW38722   3.678   0.929  11.985 -0.2801  0.2154  0.3282
 9029SOL    HW138723   3.625   0.993  12.033 -2.0184  0.9271 -2.5176
 9029SOL    HW238724   3.751   0.982  11.953 -0.2161 -0.8882 -1.3760
 9030SOL     OW38725   1.956   0.650   8.881  0.1529  0.1697 -0.3600
 9030SOL    HW138726   1.897   0.717   8.915 -0.7085 -0.2986 -0.9224
 9030SOL    HW238727   2.017   0.702   8.828  0.9174 -0.2897  0.0626
 9031SOL     OW38728   0.092   0.651   1.986 -0.3048  0.6031  0.4140
 9031SOL    HW138729   0.040   0.611   2.055  1.7223 -1.4123  0.7824
 9031SOL    HW238730   0.165   0.590   1.975 -1.7382 -0.5017 -2.9752
 9032SOL     OW38731   4.284   3.424   2.493  0.3603  0.5088  0.0188
 9032SOL    HW138732   4.295   3.515   2.463  0.1476  0.9101  1.1550
 9032SOL    HW238733   4.373   3.389   2.485  0.6697  1.0648  0.9539
 9033SOL     OW38734   0.700   3.325   5.891  0.1130 -0.2501  0.0672
 9033SOL    HW138735   0.680   3.369   5.809  0.6563 -0.7213 -0.3138
 9033SOL    HW238736   0.648   3.246   5.883  0.1925 -0.3456  0.4838
 9034SOL     OW38737   3.395   0.024  15.759 -0.1063 -0.5914 -0.4559
 9034SOL    HW138738   3.378   0.066  15.843  1.3322  0.2223 -0.5827
 9034SOL    HW238739   3.398   0.102  15.702 -1.1114  0.7649  1.3468
 9035SOL     OW38740   1.837   2.541  17.560 -0.1618 -0.4695  0.1443
 9035SOL    HW138741   1.800   2.608  17.617  1.0702  1.2821 -1.1186
 9035SOL    HW238742   1.757   2.496  17.532 -1.1617  0.3094  1.8137
 9036SOL     OW38743   4.483   0.028   4.540  0.6479 -0.8476  0.3700
 9036SOL    HW138744   4.469   4.676   4.515 -0.4409 -0.7215  0.5390
 9036SOL    HW238745   4.441   0.027   4.626 -2.2848  0.1683 -1.0657
 9037SOL     OW38746   4.435   2.777   8.194  0.2240  0.4753 -0.3319
 9037SOL    HW138747   4.360   2.743   8.242  0.3722  0.9202  0.2076
 9037SOL    HW238748   4.487   2.699   8.178  0.0207 -0.2047  2.3096
 9038SOL     OW38749   1.710   1.808   5.400  0.3747  0.0998  0.3574
 9038SOL    HW138750   1.650   1.845   5.335  1.1925  1.0574  0.1609
 9038SOL    HW238751   1.771   1.880   5.411  0.2103  0.3041 -0.0752
 9039SOL     OW38752   1.378   4.715   1.656  0.1494  0.0832 -0.5856
 9039SOL    HW138753   1.292   4.682   1.628  0.1971 -0.5416  0.0020
 9039SOL    HW238754   1.432   4.636   1.652  1.2386  0.8107 -0.1571
 9040SOL     OW38755   0.514   2.490   7.390  0.3292  0.1461  0.2842
 9040SOL    HW138756   0.450   2.505   7.320 -0.5559  0.1040  1.0707
 9040SOL    HW238757   0.468   2.469   7.472 -0.3979 -0.2526 -0.2204
 9041SOL     OW38758   1.830   0.073   6.901  0.5360 -0.7751 -0.0131
 9041SOL    HW138759   1.786   0.004   6.951  0.7332 -0.5056  0.5326
 9041SOL    HW238760   1.921   0.056   6.926  0.4266 -0.4116  0.6245
 9042SOL     OW38761   2.783   1.271   1.714  0.3070  0.0406  0.3819
 9042SOL    HW138762   2.707   1.233   1.758 -0.6466  0.9656 -0.4730
 9042SOL    HW238763   2.859   1.257   1.770 -0.7430 -1.4326  1.4357
 9043SOL     OW38764   1.746   2.732   2.583  0.4691  0.1372  0.0986
 9043SOL    HW138765   1.828   2.682   2.583  0.5027  0.1994  1.0248
 9043SOL    HW238766   1.695   2.668   2.533 -0.5619  2.5411 -1.9287
 9044SOL     OW38767   2.934   3.093   2.351  0.3159 -0.4152 -0.6335
 9044SOL    HW138768   3.021   3.077   2.314  0.4400 -1.5477  0.1533
 9044SOL    HW238769   2.926   3.008   2.395 -2.1563  0.9941  1.6477
 9045SOL     OW38770   2.674   0.762   4.021 -0.1476 -0.0409  0.3157
 9045SOL    HW138771   2.693   0.743   3.930 -0.5656 -0.2124  0.2634
 9045SOL    HW238772   2.591   0.810   4.019  0.5197  1.0177 -1.4340
 9046SOL     OW38773   4.178   0.675   4.930 -0.0752  0.2920 -0.1960
 9046SOL    HW138774   4.169   0.709   5.020 -2.0823  0.8609 -0.6061
 9046SOL    HW238775   4.269   0.652   4.911 -0.2554 -0.0588 -0.6209
 9047SOL     OW38776   1.482   2.832   1.957 -0.3661 -0.4189 -0.1019
 9047SOL    HW138777   1.499   2.847   1.864  0.7271  1.7655  0.4494
 9047SOL    HW238778   1.430   2.753   1.945  1.1773 -1.1504 -2.0689
 9048SOL     OW38779   3.904   1.536   3.114 -0.3338 -0.2748  0.3887
 9048SOL    HW138780   3.868   1.521   3.026  0.2005  0.7858 -0.0099
 9048SOL    HW238781   3.880   1.625   3.139 -1.0992 -1.1885  2.9472
 9049SOL     OW38782   0.062   4.008  10.702  0.3205 -0.4294  0.1201
 9049SOL    HW138783   4.734   4.073  10.678  0.1846  0.3347  2.4595
 9049SOL    HW238784   0.078   4.034  10.793 -0.5844  1.0088 -0.1118
 9050SOL     OW38785   4.512   3.085   6.593  0.1192 -0.2043  0.5821
 9050SOL    HW138786   4.425   3.045   6.594  0.6488 -1.2171  4.7842
 9050SOL    HW238787   4.556   3.029   6.658  2.6237 -0.0414 -0.9577
 9051SOL     OW38788   1.463   3.269   8.641 -0.2298 -0.3818  0.1802
 9051SOL    HW138789   1.423   3.343   8.596 -1.6123 -0.6500  0.9688
 9051SOL    HW238790   1.519   3.228   8.574 -0.3526  0.4731 -0.4472
 9052SOL     OW38791   2.199   4.635   2.129  0.2657  0.0207  0.2348
 9052SOL    HW138792   2.265   4.653   2.062  1.3169 -1.6266  0.8235
 9052SOL    HW238793   2.122   4.610   2.078 -0.6644  1.0208  1.1421
 9053SOL     OW38794   0.880   3.998   7.087 -0.8231 -0.7138 -0.3678
 9053SOL    HW138795   0.909   3.962   7.171  0.2994  1.8195  0.3369
 9053SOL    HW238796   0.791   3.965   7.075 -0.9171  0.0019 -1.6545
 9054SOL     OW38797   4.436   0.018   2.708 -0.0534 -0.2221  0.1679
 9054SOL    HW138798   4.477   0.004   2.794  0.1784  3.6457  0.6928
 9054SOL    HW238799   4.509   0.005   2.647 -0.3215  0.3914 -0.2773
 9055SOL     OW38800   0.963   0.186  14.361  0.4573  0.0687 -0.0691
 9055SOL    HW138801   0.975   0.094  14.381  0.3516  0.4198  1.5806
 9055SOL    HW238802   0.956   0.180  14.266  1.0387 -1.1485 -0.0389
 9056SOL     OW38803   2.607   1.403  16.105 -0.0394  0.6816 -0.6137
 9056SOL    HW138804   2.605   1.315  16.068 -2.4658  0.6341 -0.3698
 9056SOL    HW238805   2.583   1.449  16.025 -0.0675 -0.5109 -1.2857
 9057SOL     OW38806   3.480   0.786   6.427 -0.3234  0.0552  0.3497
 9057SOL    HW138807   3.467   0.829   6.512 -1.5399 -0.1049  0.2573
 9057SOL    HW238808   3.573   0.766   6.434 -0.7357 -1.7877  0.4802
 9058SOL     OW38809   4.372   2.266   8.153  0.2674 -0.4233  0.1299
 9058SOL    HW138810   4.319   2.253   8.232 -0.8859 -1.1415 -0.7666
 9058SOL    HW238811   4.457   2.234   8.182  0.6523  0.4521 -0.0394
 9059SOL     OW38812   0.846   2.967   7.589  0.3464 -0.5439  0.9052
 9059SOL    HW138813   0.938   2.978   7.563 -0.0357  1.3657  0.3488
 9059SOL    HW238814   0.862   2.902   7.657 -0.1915 -1.7891 -0.1630
 9060SOL     OW38815   0.592   0.690   6.217  0.1572  0.3394 -0.5141
 9060SOL    HW138816   0.602   0.675   6.311  0.1719  0.0630 -0.5607
 9060SOL    HW238817   0.684   0.704   6.195  0.1334  2.3499  0.6447
 9061SOL     OW38818   3.815   3.243  14.107  0.2633 -0.2840  0.0333
 9061SOL    HW138819   3.769   3.308  14.160  0.4974 -1.0440  1.1678
 9061SOL    HW238820   3.747   3.176  14.098 -0.4929  0.3772  0.8587
 9062SOL     OW38821   0.859   0.318   5.433 -0.9107 -0.8536  0.2030
 9062SOL    HW138822   0.866   0.336   5.527  0.4460  2.8781 -0.6414
 9062SOL    HW238823   0.770   0.349   5.423 -0.6271  0.1410  0.8130
 9063SOL     OW38824   3.140   2.610  16.672 -0.2216  0.1786 -1.0443
 9063SOL    HW138825   3.071   2.608  16.738 -0.0659 -0.4662 -0.8952
 9063SOL    HW238826   3.170   2.700  16.687 -1.1157  0.3342 -0.2025
 9064SOL     OW38827   2.487   0.927  14.599  0.4604 -0.2113  0.4929
 9064SOL    HW138828   2.538   0.911  14.520 -0.3284  3.1750 -0.6871
 9064SOL    HW238829   2.564   0.966  14.640  1.5373 -0.8038 -0.9784
 9065SOL     OW38830   3.024   0.984   6.512  0.0240 -0.3981  0.3591
 9065SOL    HW138831   3.101   0.953   6.559  0.2803 -1.5738 -0.8160
 9065SOL    HW238832   2.976   0.903   6.497  2.6556 -2.3272  2.3107
 9066SOL     OW38833   1.241   3.044  11.206  0.5155 -0.6469  0.4013
 9066SOL    HW138834   1.272   3.006  11.124 -0.5142 -0.3575 -0.1232
 9066SOL    HW238835   1.318   3.027  11.260 -1.0481 -2.7722  1.9822
 9067SOL     OW38836   0.198   3.875   2.751  0.1131  0.0840  0.4922
 9067SOL    HW138837   0.109   3.888   2.785  0.3742  5.6001 -0.8676
 9067SOL    HW238838   0.245   3.837   2.825 -0.8418 -0.3973  0.8508
 9068SOL     OW38839   0.981   4.027  12.947  0.1998 -0.0876  0.0475
 9068SOL    HW138840   0.978   4.096  13.013  1.3508  0.4313 -0.4406
 9068SOL    HW238841   0.986   4.089  12.874  0.1437  1.8892  1.7334
 9069SOL     OW38842   2.479   2.718  10.441 -0.1906  0.2091  0.6065
 9069SOL    HW138843   2.483   2.806  10.401  2.7029 -0.2629 -0.2157
 9069SOL    HW238844   2.569   2.721  10.474 -0.8639 -0.5316  2.4700
 9070SOL     OW38845   3.437   4.010  13.488  0.1560  0.2886 -0.3954
 9070SOL    HW138846   3.455   3.917  13.475 -1.7885 -0.1605  0.0228
 9070SOL    HW238847   3.345   4.017  13.515  0.1622  1.0269 -0.5573
 9071SOL     OW38848   1.825   3.735   4.390 -0.3865  0.6044 -0.2290
 9071SOL    HW138849   1.797   3.742   4.481  1.6581 -1.3659  0.5564
 9071SOL    HW238850   1.909   3.689   4.389 -0.9307 -0.4187  1.6759
 9072SOL     OW38851   3.206   3.107  17.312 -0.4699 -0.1075 -0.1437
 9072SOL    HW138852   3.226   3.106  17.406  3.2295  2.4076 -0.9033
 9072SOL    HW238853   3.112   3.121  17.308 -0.1786  1.4074 -1.4008
 9073SOL     OW38854   3.034   0.988   4.917 -0.0554  0.4154  0.0963
 9073SOL    HW138855   3.100   1.051   4.945  0.1106 -0.3356  1.3913
 9073SOL    HW238856   3.003   0.943   4.995  0.2763  1.3924  0.7830
 9074SOL     OW38857   4.688   0.509   9.290 -0.6371 -0.0462 -0.4454
 9074SOL    HW138858   4.604   0.544   9.319  0.3392  0.8046  1.3626
 9074SOL    HW238859   4.675   0.417   9.310  0.5444 -0.1291 -0.0343
 9075SOL     OW38860   3.656   4.459  11.428  0.1729  0.3568  0.6487
 9075SOL    HW138861   3.713   4.463  11.351 -1.0689 -0.4269 -0.3065
 9075SOL    HW238862   3.675   4.371  11.458 -0.0067 -0.2585 -1.0571
 9076SOL     OW38863   2.976   1.493   4.413  0.1066 -0.1917  0.3222
 9076SOL    HW138864   2.943   1.525   4.329  1.6245  0.5802  0.0204
 9076SOL    HW238865   3.066   1.520   4.432  0.1136  1.7079 -2.3718
 9077SOL     OW38866   3.283   3.318   2.545 -0.7187  0.0030 -0.3868
 9077SOL    HW138867   3.313   3.255   2.480 -1.5787 -1.7434  0.9165
 9077SOL    HW238868   3.251   3.387   2.487  1.8793  1.9832  0.5512
 9078SOL     OW38869   0.457   3.147   9.173 -0.0123  0.3357 -0.1431
 9078SOL    HW138870   0.536   3.093   9.178  0.5535  1.2819  1.1742
 9078SOL    HW238871   0.489   3.231   9.140 -0.9064  0.4450 -0.7315
 9079SOL     OW38872   3.090   1.178   2.997 -0.6615 -0.3554 -0.5690
 9079SOL    HW138873   3.063   1.211   2.912  2.0958 -0.5115 -1.5070
 9079SOL    HW238874   3.172   1.223   3.015 -0.8289 -0.2522 -0.0666
 9080SOL     OW38875   4.256   2.586   2.860  0.6464  0.1962 -0.4592
 9080SOL    HW138876   4.171   2.626   2.875 -0.6893 -2.4593 -0.9743
 9080SOL    HW238877   4.232   2.503   2.899 -0.6326  0.2275 -1.1949
 9081SOL     OW38878   1.281   3.726   8.985  0.1559  0.0853 -0.3765
 9081SOL    HW138879   1.195   3.769   8.986  0.1126 -0.0312  0.8061
 9081SOL    HW238880   1.257   3.634   8.975  1.7510 -0.3433 -0.1557
 9082SOL     OW38881   2.242   2.665   7.620 -0.3705  0.3483  0.1097
 9082SOL    HW138882   2.332   2.697   7.629  0.3034 -1.6785  0.4960
 9082SOL    HW238883   2.252   2.586   7.673 -1.8229 -0.2904 -0.5577
 9083SOL     OW38884   0.608   3.381   2.898  0.5765 -0.9862  0.1422
 9083SOL    HW138885   0.700   3.401   2.887  0.7310 -1.1874  1.0654
 9083SOL    HW238886   0.592   3.319   2.827 -0.7658 -2.1568  1.4414
 9084SOL     OW38887   2.628   1.754   3.885 -0.1275 -0.3124 -0.3335
 9084SOL    HW138888   2.723   1.757   3.872 -0.2184 -0.6190 -1.0417
 9084SOL    HW238889   2.593   1.816   3.822  0.6714 -0.1096 -0.5852
 9085SOL     OW38890   3.555   4.002   5.535 -0.0740  0.2511 -0.1361
 9085SOL    HW138891   3.542   4.010   5.629 -2.7432  0.8910 -0.5516
 9085SOL    HW238892   3.476   3.967   5.494 -0.6225  1.5890 -0.2385
 9086SOL     OW38893   1.559   1.552   6.079  0.1294 -0.0117  0.3423
 9086SOL    HW138894   1.495   1.596   6.023  1.8974  2.3978  0.2187
 9086SOL    HW238895   1.635   1.610   6.075  0.6954 -0.8005 -0.2201
 9087SOL     OW38896   1.392   0.870   1.564  0.5983  0.2769  0.1682
 9087SOL    HW138897   1.386   0.775   1.569 -1.4093  0.2078 -3.0171
 9087SOL    HW238898   1.426   0.886   1.652 -1.0594 -1.5616  1.1349
 9088SOL     OW38899   3.680   3.611   4.582 -0.4252 -0.0392  0.8732
 9088SOL    HW138900   3.764   3.567   4.590  0.1326  0.6982 -1.0375
 9088SOL    HW238901   3.712   3.700   4.568 -0.5959 -0.0423  0.4641
 9089SOL     OW38902   3.291   1.016  17.079 -0.3570 -0.6749  0.6774
 9089SOL    HW138903   3.209   0.997  17.033  0.3455 -1.8028 -0.1210
 9089SOL    HW238904   3.260   1.090  17.131 -0.6943  0.5658 -1.3096
 9090SOL     OW38905   3.907   2.019  14.293 -0.1963 -0.0319 -0.1536
 9090SOL    HW138906   3.899   2.036  14.387  1.5155 -1.1231  0.1831
 9090SOL    HW238907   3.939   2.103  14.261  0.1248  0.5617  1.6948
 9091SOL     OW38908   0.749   0.589   0.693 -0.2462 -0.0440 -0.2787
 9091SOL    HW138909   0.654   0.577   0.692 -0.1409 -0.8942  0.5183
 9091SOL    HW238910   0.751   0.674   0.649 -0.6729  0.4815  0.7215
 9092SOL     OW38911   3.415   2.192   4.448  0.0738  0.0640 -0.3225
 9092SOL    HW138912   3.508   2.207   4.465 -0.1677  1.0685  0.0865
 9092SOL    HW238913   3.382   2.278   4.470  1.0503  0.3878 -0.1196
 9093SOL     OW38914   3.696   1.433   9.214 -0.4098  0.4227 -0.5773
 9093SOL    HW138915   3.777   1.479   9.190  1.2479 -2.6355 -0.7464
 9093SOL    HW238916   3.714   1.365   9.277  0.2319  1.5662  0.4780
 9094SOL     OW38917   1.058   1.731   4.708 -0.3554 -0.2846 -0.5515
 9094SOL    HW138918   1.111   1.802   4.744  1.3050 -1.1525 -1.3038
 9094SOL    HW238919   1.052   1.668   4.779 -1.8809 -1.0842 -1.3966
 9095SOL     OW38920   3.696   0.966  15.091 -0.2523 -0.2389  0.1632
 9095SOL    HW138921   3.742   0.923  15.164 -0.8709  0.3897  0.9274
 9095SOL    HW238922   3.645   1.023  15.148  0.2053  0.3987 -0.0694
 9096SOL     OW38923   1.174   1.289   2.657 -0.1159 -0.5491 -0.2890
 9096SOL    HW138924   1.203   1.379   2.641  0.8215 -0.4030  2.1482
 9096SOL    HW238925   1.165   1.278   2.752  0.3757 -1.3956 -0.3345
 9097SOL     OW38926   4.158   2.974   9.329  0.0385  0.3159  0.4415
 9097SOL    HW138927   4.156   2.880   9.311 -0.4965  0.3597  0.2544
 9097SOL    HW238928   4.105   3.002   9.254  0.2668  0.0903  0.1913
 9098SOL     OW38929   0.498   3.757   4.300  0.1111  0.3101  0.2572
 9098SOL    HW138930   0.441   3.823   4.260 -1.0728 -1.9836 -1.8394
 9098SOL    HW238931   0.564   3.738   4.232  0.1858  0.2894  0.3349
 9099SOL     OW38932   0.532   3.397   3.580 -0.0145  0.1167  0.1815
 9099SOL    HW138933   0.572   3.477   3.613 -0.7102  0.4442  0.2200
 9099SOL    HW238934   0.599   3.334   3.607 -0.8746 -1.2862 -0.9762
 9100SOL     OW38935   3.483   2.093   5.340 -0.3334  0.2723 -0.3739
 9100SOL    HW138936   3.522   2.105   5.426 -1.1429 -0.6471  0.1219
 9100SOL    HW238937   3.433   2.013   5.360  2.6996 -1.1243  1.4932
 9101SOL     OW38938   3.967   3.065   7.192 -0.3921  0.3070 -0.2180
 9101SOL    HW138939   3.952   3.064   7.287  1.0680 -0.0862 -0.0018
 9101SOL    HW238940   3.889   3.102   7.151 -2.1210 -2.3110  0.7150
 9102SOL     OW38941   2.474   1.142   2.976 -0.0293 -0.7759  0.2827
 9102SOL    HW138942   2.389   1.185   2.988  0.1522 -0.0188 -1.1863
 9102SOL    HW238943   2.507   1.114   3.061 -1.9394 -0.8896  0.9740
 9103SOL     OW38944   3.627   4.220   9.134 -0.1548  0.2442 -0.0359
 9103SOL    HW138945   3.557   4.244   9.073 -1.5618 -1.8523  0.7633
 9103SOL    HW238946   3.650   4.136   9.095  0.6422 -0.1630  1.3161
 9104SOL     OW38947   3.108   0.543   9.331  0.2575  0.0224 -0.3482
 9104SOL    HW138948   3.090   0.510   9.418  2.9476 -1.1398 -0.2262
 9104SOL    HW238949   3.033   0.503   9.287  0.2557 -0.8555  0.4748
 9105SOL     OW38950   1.592   4.618  13.912 -0.0143  0.5984 -0.0240
 9105SOL    HW138951   1.580   4.712  13.920 -0.6885  0.5364 -0.2326
 9105SOL    HW238952   1.527   4.599  13.980  0.6066  0.0905  0.4289
 9106SOL     OW38953   2.815   3.019   7.996 -0.1097  0.0020 -0.0489
 9106SOL    HW138954   2.847   2.929   7.993 -1.6634 -0.6128  2.0666
 9106SOL    HW238955   2.872   3.057   8.063  0.6100  1.2821 -1.4027
 9107SOL     OW38956   2.703   0.773   3.750  0.2231 -0.0053 -0.5223
 9107SOL    HW138957   2.797   0.767   3.766  0.6516 -0.4500 -3.1367
 9107SOL    HW238958   2.706   0.845   3.687 -0.4727 -0.9999 -1.6868
 9108SOL     OW38959   0.824   2.124   3.051  0.7485 -0.1694 -0.1772
 9108SOL    HW138960   0.759   2.102   3.117 -1.2381 -0.0117 -2.0681
 9108SOL    HW238961   0.886   2.188   3.088 -0.8452  1.1867  0.1611
 9109SOL     OW38962   3.396   4.170   5.001 -0.2750 -0.1907  0.1194
 9109SOL    HW138963   3.355   4.201   4.920 -0.1517 -0.4531 -0.0442
 9109SOL    HW238964   3.389   4.251   5.051 -2.1501 -0.2065 -0.1534
 9110SOL     OW38965   1.668   3.097   8.739 -0.0084 -0.2243  0.2840
 9110SOL    HW138966   1.737   3.117   8.676 -2.0388 -1.8606 -2.4539
 9110SOL    HW238967   1.704   3.016   8.776  0.6984  0.2062  0.5240
 9111SOL     OW38968   0.509   0.755  11.075  0.0881  0.2457 -0.4951
 9111SOL    HW138969   0.561   0.700  11.016  3.2174  2.3353  0.3156
 9111SOL    HW238970   0.466   0.808  11.007 -0.5257  0.1274 -0.1968
 9112SOL     OW38971   4.683   0.822  12.031  0.0278 -0.6722 -0.2746
 9112SOL    HW138972   4.664   0.731  12.055  1.0108 -0.5164  1.0888
 9112SOL    HW238973   0.002   0.803  11.957  0.0813 -1.1115 -0.1205
 9113SOL     OW38974   0.032   3.972   9.459 -0.1890 -0.6352  0.3108
 9113SOL    HW138975   0.108   4.029   9.476  0.5634 -1.3137 -0.7667
 9113SOL    HW238976   0.001   3.996   9.371  1.5792  1.3653  0.2036
 9114SOL     OW38977   0.535   0.050   6.022 -0.5197  0.2323 -0.5718
 9114SOL    HW138978   0.466   0.072   5.960 -0.4927  2.4606  0.2073
 9114SOL    HW238979   0.509   4.701   6.051  0.0842 -0.3130 -1.6940
 9115SOL     OW38980   2.902   1.252   8.403 -0.3852  0.1928 -0.3965
 9115SOL    HW138981   2.812   1.280   8.413 -0.5214 -0.2309 -0.4284
 9115SOL    HW238982   2.898   1.170   8.453 -1.2273  1.0690  0.9429
 9116SOL     OW38983   1.420   0.287   7.243 -0.1389  0.5592  0.7923
 9116SOL    HW138984   1.443   0.266   7.333 -0.6214 -2.1316  0.2720
 9116SOL    HW238985   1.326   0.287   7.261 -0.5298 -1.9882 -1.2731
 9117SOL     OW38986   3.619   2.396  10.363  0.7753  0.6970 -0.0755
 9117SOL    HW138987   3.708   2.419  10.390  0.7690  3.2147 -2.2142
 9117SOL    HW238988   3.569   2.441  10.431  1.5031 -0.2901  1.1207
 9118SOL     OW38989   3.912   0.776   2.901 -0.2921 -0.3185  0.4471
 9118SOL    HW138990   3.956   0.837   2.960 -3.0379  1.2794  0.8338
 9118SOL    HW238991   3.914   0.698   2.957  1.1864  1.2280  2.5684
 9119SOL     OW38992   0.535   2.129   3.749  0.1221  0.8442  0.0801
 9119SOL    HW138993   0.492   2.100   3.830 -0.0779 -0.6748 -0.5799
 9119SOL    HW238994   0.495   2.067   3.688 -0.9568  1.5524  0.0752
 9120SOL     OW38995   1.164   1.503   4.976 -0.1413 -0.1763 -0.5912
 9120SOL    HW138996   1.117   1.578   5.011 -0.0035 -1.1975  1.8016
 9120SOL    HW238997   1.237   1.544   4.931  0.0439  1.0582  0.8297
 9121SOL     OW38998   2.784   2.665  10.463 -0.4530  0.1990 -0.2615
 9121SOL    HW138999   2.843   2.646  10.390 -0.0289  0.2688  0.0616
 9121SOL    HW239000   2.817   2.755  10.467  0.1982  0.0536 -1.9666
 9122SOL     OW39001   3.870   3.139   8.940  0.8951 -0.3391 -0.0316
 9122SOL    HW139002   3.830   3.166   9.022 -0.7619 -0.4674 -0.7999
 9122SOL    HW239003   3.814   3.064   8.918 -1.3171  0.6923  2.1518
 9123SOL     OW39004   3.245   3.078   7.461 -0.5604 -0.3806 -0.3062
 9123SOL    HW139005   3.284   3.003   7.507 -0.8049  0.5700  1.4485
 9123SOL    HW239006   3.242   3.150   7.524  2.2352  0.0887 -0.6762
 9124SOL     OW39007   2.121   0.963  15.627  0.0601 -0.0849 -0.2745
 9124SOL    HW139008   2.205   0.957  15.673  0.5787  2.4755 -0.8412
 9124SOL    HW239009   2.061   0.916  15.684 -1.9824  0.9998 -1.5362
 9125SOL     OW39010   2.922   2.146  10.361  0.0195 -0.1098  0.4014
 9125SOL    HW139011   2.997   2.194  10.328 -0.5399  1.7145  1.8215
 9125SOL    HW239012   2.956   2.064  10.397  0.0901 -0.4979 -0.5623
 9126SOL     OW39013   4.502   4.666   8.664  0.0117  0.3454  0.4945
 9126SOL    HW139014   4.523   4.579   8.631  0.5047  1.1682 -1.3481
 9126SOL    HW239015   4.433   4.694   8.604 -0.1663 -0.6792  0.2238
 9127SOL     OW39016   0.108   2.713   8.902  0.2523 -0.1449 -0.0634
 9127SOL    HW139017   0.170   2.756   8.962  0.0388 -1.3217  0.9952
 9127SOL    HW239018   0.120   2.776   8.831  0.7101 -1.1112 -0.8486
 9128SOL     OW39019   3.756   2.316   7.661  0.1333 -0.5536  0.3804
 9128SOL    HW139020   3.793   2.297   7.747  2.1113  0.8787 -0.1650
 9128SOL    HW239021   3.799   2.400   7.649  0.2786 -0.9098 -1.6940
 9129SOL     OW39022   1.246   0.296  16.391  0.2905 -0.1942 -0.1992
 9129SOL    HW139023   1.206   0.368  16.441 -1.6526 -1.9276  0.7474
 9129SOL    HW239024   1.210   0.219  16.435 -0.2984  0.0206 -0.3052
 9130SOL     OW39025   0.426   0.716   6.016  0.4814  0.0259 -0.0368
 9130SOL    HW139026   0.477   0.698   6.095  1.5151 -1.3195 -1.0033
 9130SOL    HW239027   0.482   0.662   5.960  1.8736 -0.1419  1.4883
 9131SOL     OW39028   1.119   4.581   7.080  0.1815  0.7091 -0.3741
 9131SOL    HW139029   1.099   4.633   7.002 -0.4437 -1.4637 -1.6441
 9131SOL    HW239030   1.099   4.493   7.050  0.5730  0.0284  1.3819
 9132SOL     OW39031   4.185   3.825   7.759 -0.0694 -0.7222  0.4837
 9132SOL    HW139032   4.123   3.779   7.816  0.4667 -0.0296  1.6287
 9132SOL    HW239033   4.230   3.883   7.820  0.2845 -1.5101  0.9686
 9133SOL     OW39034   3.798   3.519   6.466  0.0337  0.4222 -0.0743
 9133SOL    HW139035   3.837   3.436   6.439 -1.2413 -0.2942  0.3005
 9133SOL    HW239036   3.729   3.497   6.529  2.7291  0.1391  2.7801
 9134SOL     OW39037   0.666   2.677   9.141  0.6334 -0.9232 -0.1739
 9134SOL    HW139038   0.621   2.712   9.065 -1.9851 -1.5575  1.0895
 9134SOL    HW239039   0.736   2.624   9.101 -0.1234 -1.4733 -0.7621
 9135SOL     OW39040   1.119   1.825   6.493 -0.1764 -0.2219 -0.8135
 9135SOL    HW139041   1.212   1.802   6.485 -0.1749 -0.2160 -0.8130
 9135SOL    HW239042   1.127   1.916   6.524 -1.6482 -0.2897 -0.2193
 9136SOL     OW39043   2.878   1.710   6.374  0.6160  0.0282  0.5530
 9136SOL    HW139044   2.929   1.632   6.352  0.3783  0.0507 -0.0799
 9136SOL    HW239045   2.942   1.753   6.431  1.1821  2.0639 -1.6475
 9137SOL     OW39046   3.037   2.949   8.187  0.0924  0.4604 -0.3198
 9137SOL    HW139047   3.099   3.011   8.149 -0.6445 -0.0638 -2.3784
 9137SOL    HW239048   3.076   2.868   8.155  0.9590  0.5036  0.5963
 9138SOL     OW39049   1.573   3.914  15.039 -0.1901  0.0767  0.4933
 9138SOL    HW139050   1.600   3.832  15.080  1.5754  0.8463  0.8545
 9138SOL    HW239051   1.656   3.961  15.039 -0.4905  0.6042  1.0828
 9139SOL     OW39052   0.010   0.165   7.810  0.2849  0.3583  0.3952
 9139SOL    HW139053   0.027   0.073   7.832  1.6221  0.5775  0.2800
 9139SOL    HW239054   0.097   0.191   7.781  0.1130 -2.2297 -2.4336
 9140SOL     OW39055   2.393   1.600  13.268  0.1899  0.3149  0.1211
 9140SOL    HW139056   2.366   1.516  13.231  2.3689 -0.8412  1.1529
 9140SOL    HW239057   2.311   1.649  13.270  0.1081  0.1932 -0.2019
 9141SOL     OW39058   3.989   0.544  11.986  0.5178  0.2694  0.5888
 9141SOL    HW139059   3.915   0.528  11.927  0.9704  0.1722  0.0590
 9141SOL    HW239060   3.936   0.544  12.067 -1.5337 -0.1600 -0.7435
 9142SOL     OW39061   0.694   1.490   5.011  0.1828  0.5331 -0.1291
 9142SOL    HW139062   0.705   1.403   5.049  0.6353  1.8330  2.7578
 9142SOL    HW239063   0.601   1.508   5.027  0.7968  1.7063  2.1773
 9143SOL     OW39064   0.456   2.544   0.747  0.0059 -0.1896 -0.7386
 9143SOL    HW139065   0.455   2.469   0.807  0.7163 -1.0275 -1.7975
 9143SOL    HW239066   0.493   2.493   0.675 -0.3292 -0.3111 -0.8226
 9144SOL     OW39067   0.652   1.265   0.011 -0.3578  0.1511  0.4198
 9144SOL    HW139068   0.737   1.307   0.019 -1.7347  2.5641  2.3817
 9144SOL    HW239069   0.677   1.192  17.709 -3.0107 -1.7908  1.7445
 9145SOL     OW39070   3.437   0.691   6.874 -0.0374  0.1932  0.2115
 9145SOL    HW139071   3.367   0.641   6.833  1.1222  0.0921 -1.6194
 9145SOL    HW239072   3.476   0.744   6.805  0.0885  1.9581  1.6259
 9146SOL     OW39073   1.594   0.182   6.332  0.6877 -0.0625  0.1905
 9146SOL    HW139074   1.660   0.245   6.362  1.8118 -0.6178 -1.0991
 9146SOL    HW239075   1.557   0.154   6.415  1.1578 -1.9432 -0.2378
 9147SOL     OW39076   1.171   4.011   7.001  0.8105 -0.5115 -0.1261
 9147SOL    HW139077   1.240   4.042   6.942  0.0337  1.3487 -0.0472
 9147SOL    HW239078   1.102   3.971   6.947  2.7683  0.3676 -3.3237
 9148SOL     OW39079   0.409   0.600   2.058 -0.7086 -0.4454 -0.0177
 9148SOL    HW139080   0.393   0.516   2.014  0.9403 -0.7046 -0.1257
 9148SOL    HW239081   0.412   0.658   1.982 -2.2155  0.8161  0.8828
 9149SOL     OW39082   2.604   1.312   7.763  0.7175  0.2691  0.2373
 9149SOL    HW139083   2.645   1.231   7.791  1.8775  0.7164 -0.1846
 9149SOL    HW239084   2.667   1.341   7.697 -0.3065 -0.0278 -0.8770
 9150SOL     OW39085   2.998   1.620   0.762 -0.0019 -0.1506 -0.0516
 9150SOL    HW139086   3.037   1.638   0.676  0.8694  2.1410  0.8327
 9150SOL    HW239087   2.914   1.590   0.726 -0.9805  2.3116  0.1425
 9151SOL     OW39088   2.333   0.458   3.293  0.0319  0.4251 -0.2634
 9151SOL    HW139089   2.419   0.489   3.266  0.9326 -0.5262  1.5019
 9151SOL    HW239090   2.286   0.541   3.297 -1.1712 -0.3087  1.2989
 9152SOL     OW39091   0.710   3.433   0.779 -0.2736 -0.1377 -0.6819
 9152SOL    HW139092   0.797   3.410   0.745 -0.1454  0.9853 -1.1037
 9152SOL    HW239093   0.694   3.357   0.834 -2.0670  0.8163  0.0829
 9153SOL     OW39094   2.143   4.578   9.703 -0.0332 -0.3234 -0.4681
 9153SOL    HW139095   2.153   4.667   9.670 -0.4491 -0.3983 -0.8083
 9153SOL    HW239096   2.190   4.586   9.786 -0.8988  0.2545 -0.0380
 9154SOL     OW39097   1.736   2.826   7.388 -0.3721  0.3687  0.2410
 9154SOL    HW139098   1.662   2.816   7.328 -1.0488  2.2188  0.7700
 9154SOL    HW239099   1.748   2.916   7.359 -0.3787  0.4214  0.4051
 9155SOL     OW39100   0.608   4.640   6.715  0.1843  0.2439 -0.0277
 9155SOL    HW139101   0.590   4.685   6.797  2.0598  1.0758 -0.0712
 9155SOL    HW239102   0.590   4.551   6.745 -2.5843  1.3104  1.4136
 9156SOL     OW39103   1.061   1.081   0.987  0.4111 -0.1902 -0.1006
 9156SOL    HW139104   1.033   1.159   1.034  0.1907 -0.7588  0.7138
 9156SOL    HW239105   0.996   1.084   0.916 -0.4857  0.7674  0.7628
 9157SOL     OW39106   2.276   3.055   8.624  0.2051 -0.1373  0.0730
 9157SOL    HW139107   2.308   2.967   8.606  1.1714  0.9441 -3.5468
 9157SOL    HW239108   2.332   3.106   8.566 -0.3767 -0.0934 -0.4591
 9158SOL     OW39109   0.638   1.091   0.392 -0.6808  0.3696  0.3443
 9158SOL    HW139110   0.577   1.137   0.335 -0.3468  0.3044 -0.0731
 9158SOL    HW239111   0.699   1.065   0.322 -1.1799 -0.3609  0.1799
 9159SOL     OW39112   3.558   4.321  13.589  0.6250 -0.5308  0.7246
 9159SOL    HW139113   3.507   4.318  13.508 -0.0662 -0.0521  1.1532
 9159SOL    HW239114   3.499   4.266  13.640  1.3154 -2.5498 -0.6468
 9160SOL     OW39115   2.886   4.505   4.248 -0.0677  0.3850 -0.3525
 9160SOL    HW139116   2.933   4.425   4.225 -0.9059  0.0789 -0.9936
 9160SOL    HW239117   2.894   4.504   4.343  1.6658 -0.1764 -0.5140
 9161SOL     OW39118   3.811   4.189  10.889  0.0747  0.1180  0.2299
 9161SOL    HW139119   3.843   4.119  10.833  0.7389  0.6459 -0.0505
 9161SOL    HW239120   3.890   4.242  10.877  0.3795 -0.2431  0.6628
 9162SOL     OW39121   2.174   3.460   0.504  0.1934 -0.0770  0.3297
 9162SOL    HW139122   2.140   3.371   0.497  0.9326 -0.4472  1.5079
 9162SOL    HW239123   2.137   3.505   0.428 -1.1473  0.6206  1.3987
 9163SOL     OW39124   2.279   2.074   9.000  0.0914 -0.0616 -0.5889
 9163SOL    HW139125   2.207   2.061   9.062 -1.1584 -1.5900 -2.3602
 9163SOL    HW239126   2.343   2.107   9.064 -0.1441  2.2546 -1.5459
 9164SOL     OW39127   3.877   4.008   1.107  0.6445  0.4502  0.1473
 9164SOL    HW139128   3.951   4.068   1.109  0.3628  0.7793  0.8706
 9164SOL    HW239129   3.921   3.925   1.126  0.3022 -0.5676 -3.5464
 9165SOL     OW39130   2.031   1.918  11.741  0.1273 -0.1528 -0.4672
 9165SOL    HW139131   1.957   1.882  11.693 -1.7257  2.5878  0.3027
 9165SOL    HW239132   2.074   1.968  11.671 -1.1217 -0.2591 -1.3124
 9166SOL     OW39133   1.232   1.499   6.781  0.0943  1.1887  0.2577
 9166SOL    HW139134   1.160   1.558   6.760 -1.6400 -0.5933  1.2439
 9166SOL    HW239135   1.264   1.499   6.691 -0.9080  0.2885 -0.0929
 9167SOL     OW39136   3.142   1.060   7.463 -0.1647  0.0678  0.4020
 9167SOL    HW139137   3.148   1.017   7.377 -0.1053  0.0531  0.4133
 9167SOL    HW239138   3.196   1.138   7.450 -0.0428 -0.0307  0.3143
 9168SOL     OW39139   1.434   1.779   1.134 -0.1909 -0.1777  0.2165
 9168SOL    HW139140   1.343   1.808   1.147 -0.7060 -1.0386 -1.4863
 9168SOL    HW239141   1.419   1.692   1.097 -0.9118 -0.1229  0.3699
 9169SOL     OW39142   1.144   1.351   4.405 -0.1684  0.0585  0.5283
 9169SOL    HW139143   1.090   1.272   4.405  1.2066 -0.8606 -1.0877
 9169SOL    HW239144   1.218   1.325   4.351 -2.4065  0.1314 -2.5923
 9170SOL     OW39145   1.422   3.663  16.345  0.2222 -0.0450 -0.3433
 9170SOL    HW139146   1.482   3.652  16.271 -0.8733 -0.8757 -1.1078
 9170SOL    HW239147   1.404   3.757  16.343 -1.4671 -0.3873 -1.2313
 9171SOL     OW39148   4.025   3.620   7.483  0.5849 -0.0707 -0.5552
 9171SOL    HW139149   3.971   3.648   7.557 -0.0519 -1.5892 -0.4552
 9171SOL    HW239150   4.112   3.642   7.517 -0.3880 -1.3646  2.7537
 9172SOL     OW39151   2.831   3.811  16.865  0.5958  0.1816 -1.0181
 9172SOL    HW139152   2.759   3.874  16.867  0.4278 -0.0692  0.6427
 9172SOL    HW239153   2.863   3.810  16.955 -0.6047 -1.3305 -0.6206
 9173SOL     OW39154   0.582   1.925   3.201  0.3846  0.3214 -0.1078
 9173SOL    HW139155   0.582   2.015   3.231  2.8778 -0.4315  2.1173
 9173SOL    HW239156   0.569   1.867   3.276 -0.3331  1.1526  0.4037
 9174SOL     OW39157   1.140   1.648  10.053 -0.7031 -0.0640 -0.1446
 9174SOL    HW139158   1.224   1.678  10.088  0.4648 -2.9382 -0.4596
 9174SOL    HW239159   1.157   1.660   9.960 -0.4988  1.5940  0.1108
 9175SOL     OW39160   0.987   2.328  15.840 -0.2631 -0.3491  0.4275
 9175SOL    HW139161   1.023   2.378  15.767 -3.6767 -2.1317 -2.5343
 9175SOL    HW239162   0.895   2.320  15.813 -0.3082 -2.0154  1.1007
 9176SOL     OW39163   2.346   0.400   7.208  0.3173 -0.9456 -0.4644
 9176SOL    HW139164   2.427   0.349   7.209  0.4617 -0.6418  1.6829
 9176SOL    HW239165   2.316   0.389   7.298  0.5445 -0.5543 -0.3381
 9177SOL     OW39166   0.959   2.261   7.420  0.3837 -0.2971  0.1977
 9177SOL    HW139167   1.004   2.307   7.350  0.1111  0.3710  0.4603
 9177SOL    HW239168   0.891   2.323   7.447 -0.8919 -1.9591  0.8342
 9178SOL     OW39169   0.382   2.114   0.759  0.2122 -0.6601  0.1089
 9178SOL    HW139170   0.304   2.078   0.716  0.4003 -1.6205  0.5908
 9178SOL    HW239171   0.451   2.054   0.729  2.0872  1.0572  0.9707
 9179SOL     OW39172   1.751   1.742   6.148  0.0211  0.0247  0.1442
 9179SOL    HW139173   1.711   1.813   6.199  0.8235  0.8225 -0.3297
 9179SOL    HW239174   1.764   1.787   6.065  1.1225 -0.5555  0.0034
 9180SOL     OW39175   0.976   2.959   4.344 -0.4614 -0.1582  0.0680
 9180SOL    HW139176   1.014   2.987   4.261 -0.7617 -0.7288 -0.2658
 9180SOL    HW239177   0.936   2.877   4.314  0.5212 -0.5868 -0.0931
 9181SOL     OW39178   0.180   4.240   6.720  0.0621  0.3668 -0.3873
 9181SOL    HW139179   0.263   4.284   6.738 -0.2671  1.8753 -2.5486
 9181SOL    HW239180   0.202   4.192   6.641 -0.8034  0.4680 -0.6928
 9182SOL     OW39181   0.596   0.827   8.902 -0.0308  0.2669 -0.0083
 9182SOL    HW139182   0.555   0.853   8.984 -0.4391 -1.8770  0.4499
 9182SOL    HW239183   0.525   0.773   8.868 -1.5313  0.9186  2.0744
 9183SOL     OW39184   2.592   2.781   1.408 -0.9376 -0.2526 -0.0355
 9183SOL    HW139185   2.628   2.863   1.444 -0.0742 -1.2764  1.4326
 9183SOL    HW239186   2.647   2.767   1.331 -1.9122  0.4096 -0.8492
 9184SOL     OW39187   1.756   0.716   0.673  0.0421  0.2837  0.1082
 9184SOL    HW139188   1.695   0.652   0.709  0.0960  0.4641  0.5202
 9184SOL    HW239189   1.695   0.757   0.612 -0.5347 -2.2140 -0.9773
 9185SOL     OW39190   0.098   2.840   7.662 -0.1339  0.3868  0.2327
 9185SOL    HW139191   0.006   2.833   7.686  0.0958  0.1386  1.0450
 9185SOL    HW239192   0.123   2.748   7.650 -0.7808  0.0322  1.6319
 9186SOL     OW39193   2.069   1.946   3.560  0.2116  0.4034  0.7138
 9186SOL    HW139194   2.129   1.962   3.488  1.5103  0.7991  1.8760
 9186SOL    HW239195   2.133   1.934   3.630 -0.8741 -2.1066  1.3121
 9187SOL     OW39196   3.184   1.812   3.072  0.1136 -0.4744  0.0163
 9187SOL    HW139197   3.240   1.853   3.138 -0.4795  0.1950  0.1126
 9187SOL    HW239198   3.205   1.866   2.996  0.1610  0.8842  1.0000
 9188SOL     OW39199   3.796   1.573   2.453 -0.0202  0.2203  0.0148
 9188SOL    HW139200   3.866   1.571   2.388  1.7548 -0.8090  1.9708
 9188SOL    HW239201   3.809   1.487   2.493  0.3050 -0.0437 -0.6615
 9189SOL     OW39202   3.613   2.374   4.130  0.2244 -0.5622 -0.0527
 9189SOL    HW139203   3.627   2.289   4.172  0.2475 -0.5403 -0.0161
 9189SOL    HW239204   3.658   2.443   4.178 -2.1565  0.6819  0.3638
 9190SOL     OW39205   1.820   4.359   0.535  0.5927  0.3969 -0.4518
 9190SOL    HW139206   1.747   4.418   0.551  0.6324  0.6373 -1.1726
 9190SOL    HW239207   1.781   4.272   0.544 -1.3581  1.2930 -0.4263
 9191SOL     OW39208   1.711   2.472  17.136  0.1708 -0.0466 -0.1082
 9191SOL    HW139209   1.703   2.422  17.055  1.5680  3.5608 -2.4684
 9191SOL    HW239210   1.762   2.548  17.107  1.5630 -1.6830 -1.9133
 9192SOL     OW39211   0.067   0.689  13.282  0.2277 -0.1315  0.1109
 9192SOL    HW139212   0.006   0.616  13.272  0.5054 -0.0656 -2.0749
 9192SOL    HW239213   0.150   0.652  13.252 -0.2963 -1.4316  0.2493
 9193SOL     OW39214   0.437   3.270   7.550  0.1615  0.5235 -0.2149
 9193SOL    HW139215   0.461   3.181   7.575 -0.5573 -0.0448 -1.5906
 9193SOL    HW239216   0.341   3.270   7.550  0.1539  1.8073 -2.4321
 9194SOL     OW39217   4.120   0.558  13.893 -0.1267  0.1978 -0.4313
 9194SOL    HW139218   4.163   0.483  13.932  0.2856 -0.0390 -1.3328
 9194SOL    HW239219   4.135   0.623  13.962 -2.0511  2.9160 -2.5703
 9195SOL     OW39220   1.662   3.474  11.382  0.4336 -0.3512  0.8279
 9195SOL    HW139221   1.755   3.481  11.403  0.4991 -1.1395  0.7781
 9195SOL    HW239222   1.645   3.382  11.361  1.8113 -0.0433 -1.6188
 9196SOL     OW39223   1.125   3.940   6.366 -0.1830  0.2931  0.4825
 9196SOL    HW139224   1.053   3.902   6.315  1.4361 -2.5013  0.2505
 9196SOL    HW239225   1.067   4.000   6.412  1.4449  2.4995 -0.3505
 9197SOL     OW39226   3.331   3.831   7.692  0.1431  0.4667  0.1010
 9197SOL    HW139227   3.312   3.910   7.641  0.5046  0.1809 -0.4786
 9197SOL    HW239228   3.362   3.768   7.627 -0.4586 -1.6613  1.8674
 9198SOL     OW39229   1.254   0.602   5.519 -0.0151  0.0242 -0.1078
 9198SOL    HW139230   1.166   0.592   5.481  0.0803 -1.1385 -0.0326
 9198SOL    HW239231   1.301   0.530   5.477  0.7927  0.6083 -0.2058
 9199SOL     OW39232   0.611   0.467   2.927 -0.1873  0.1047  0.1967
 9199SOL    HW139233   0.649   0.439   2.843 -0.4748 -1.6387  0.6299
 9199SOL    HW239234   0.607   0.385   2.977  0.5463  0.6443  1.1134
 9200SOL     OW39235   1.784   3.972   1.001  0.0698 -0.5145  0.1345
 9200SOL    HW139236   1.827   3.904   0.949  1.1466 -0.4004  0.8703
 9200SOL    HW239237   1.845   3.981   1.075 -0.3547  2.1264  0.1384
 9201SOL     OW39238   1.654   2.445   7.766  0.1730 -0.7711  0.1056
 9201SOL    HW139239   1.690   2.424   7.680 -4.2747 -1.8274 -1.4696
 9201SOL    HW239240   1.699   2.529   7.770 -0.3586 -0.3952 -1.8674
 9202SOL     OW39241   4.727   4.619   7.851 -0.4395 -0.0967 -0.1466
 9202SOL    HW139242   4.730   4.600   7.945  1.0652 -2.2357 -0.6444
 9202SOL    HW239243   0.051   4.551   7.826  1.0140  1.4287 -0.6008
 9203SOL     OW39244   0.540   3.444   4.179 -0.5542 -0.1571 -0.1082
 9203SOL    HW139245   0.498   3.492   4.108 -0.1070  2.6705  1.5534
 9203SOL    HW239246   0.625   3.427   4.138 -1.2593  0.3998 -1.7921
 9204SOL     OW39247   2.555   3.213  13.866  0.1810  0.1415  0.2360
 9204SOL    HW139248   2.615   3.208  13.792 -0.9601  0.3884 -0.7148
 9204SOL    HW239249   2.478   3.179  13.820  0.3515  0.2613 -0.1390
 9205SOL     OW39250   2.352   4.583   1.898  0.0901 -0.2001  0.4661
 9205SOL    HW139251   2.386   4.508   1.946  1.4259 -1.7282 -2.8595
 9205SOL    HW239252   2.317   4.532   1.825  1.9969  0.5586 -0.9643
 9206SOL     OW39253   0.402   2.362   8.946  0.0997 -0.1689 -0.5746
 9206SOL    HW139254   0.314   2.360   8.908  0.5226 -0.9454 -1.5115
 9206SOL    HW239255   0.424   2.269   8.943  0.7727 -0.0465  0.3262
 9207SOL     OW39256   2.866   2.539   8.181  0.3249 -0.8926 -0.5233
 9207SOL    HW139257   2.791   2.572   8.231  1.0588  0.7751 -0.5361
 9207SOL    HW239258   2.879   2.445   8.195 -1.6787 -1.0527  0.1887
 9208SOL     OW39259   0.028   0.178   4.255 -0.1692  0.5661  0.0194
 9208SOL    HW139260   0.007   0.149   4.166  1.7115 -1.5848  0.2924
 9208SOL    HW239261   0.032   0.273   4.241  0.9352  0.2413 -1.9180
 9209SOL     OW39262   4.126   2.448  10.135 -0.6773  0.6692  0.4769
 9209SOL    HW139263   4.091   2.401  10.210 -0.4477  0.5865  0.5340
 9209SOL    HW239264   4.055   2.512  10.130 -1.0055  0.2918  0.3662
 9210SOL     OW39265   2.962   2.825   3.632 -0.3954 -0.0607  0.2105
 9210SOL    HW139266   2.931   2.779   3.554 -0.6929 -1.5306  1.2071
 9210SOL    HW239267   2.954   2.921   3.625  0.1537 -0.1753 -1.9511
 9211SOL     OW39268   2.933   4.100   5.292 -0.4087  0.5579  0.4074
 9211SOL    HW139269   2.881   4.022   5.313 -0.7429  0.5273 -0.5313
 9211SOL    HW239270   2.976   4.103   5.378  0.4930  0.4527 -0.0297
 9212SOL     OW39271   0.862   0.426   0.860 -0.0266 -0.6833 -0.1779
 9212SOL    HW139272   0.821   0.476   0.789  0.0695 -2.1905 -1.3010
 9212SOL    HW239273   0.888   0.503   0.910  0.9129  0.1039 -1.8648
 9213SOL     OW39274   1.329   2.842   0.331 -0.1180  0.3695  0.3171
 9213SOL    HW139275   1.366   2.926   0.357 -1.3564  0.5355  1.5575
 9213SOL    HW239276   1.399   2.782   0.357 -1.1881 -1.2876 -0.5916
 9214SOL     OW39277   2.284   1.094   6.005 -0.0765 -0.2306  0.0398
 9214SOL    HW139278   2.240   1.167   6.048 -1.4365 -1.2466  0.3874
 9214SOL    HW239279   2.302   1.054   6.090 -0.6960  2.6092  1.4874
 9215SOL     OW39280   0.693   3.490  10.070  0.3601  0.3438  0.6011
 9215SOL    HW139281   0.665   3.580  10.088  4.3148  1.9274 -1.1797
 9215SOL    HW239282   0.770   3.481  10.127 -0.2131  3.2873  1.8624
 9216SOL     OW39283   2.349   0.120   9.831  0.2959  0.0127  0.0427
 9216SOL    HW139284   2.283   0.068   9.878 -0.7473 -0.9754 -2.5043
 9216SOL    HW239285   2.313   0.135   9.744  1.4390  0.6494 -0.3218
 9217SOL     OW39286   2.554   2.482   4.257  0.0596 -0.2537  0.4290
 9217SOL    HW139287   2.549   2.569   4.218 -0.1776 -1.1222 -1.4622
 9217SOL    HW239288   2.467   2.450   4.233 -0.3013 -1.1963  2.9603
 9218SOL     OW39289   0.298   0.635   1.068  0.0907 -0.0426 -0.2855
 9218SOL    HW139290   0.383   0.601   1.094 -0.5121 -1.1684  0.2241
 9218SOL    HW239291   0.254   0.559   1.030  0.3791 -0.3988  0.0956
 9219SOL     OW39292   0.297   2.743   6.722 -0.5052  0.0390 -0.1905
 9219SOL    HW139293   0.265   2.668   6.772 -0.2859 -0.9786 -1.5725
 9219SOL    HW239294   0.281   2.717   6.631 -0.6781 -0.8321  0.0861
 9220SOL     OW39295   3.616   1.056   5.194 -0.1562  0.0751  0.0862
 9220SOL    HW139296   3.525   1.041   5.168 -0.4590  0.3990  0.9702
 9220SOL    HW239297   3.661   1.076   5.112 -1.0479  0.6147 -0.2752
 9221SOL     OW39298   3.689   0.034   6.319 -0.1912 -0.2562 -0.3632
 9221SOL    HW139299   3.748   0.097   6.359  0.5239 -1.1705  0.0450
 9221SOL    HW239300   3.651   4.734   6.398 -0.2906 -2.4335 -1.4654
 9222SOL     OW39301   0.333   1.736  17.625 -0.4615 -0.1934 -0.0678
 9222SOL    HW139302   0.412   1.763  17.579 -0.1247  0.2783  0.7967
 9222SOL    HW239303   0.365   1.707  17.711  1.0686  3.0323  0.4352
 9223SOL     OW39304   0.411   1.908   2.023 -0.1336 -0.1932  0.0313
 9223SOL    HW139305   0.317   1.897   2.009 -0.3521  0.5599  0.9420
 9223SOL    HW239306   0.424   2.002   2.031 -0.2432 -0.1207 -0.6602
 9224SOL     OW39307   2.653   0.510   8.178  0.4060 -0.1962  0.1720
 9224SOL    HW139308   2.566   0.546   8.165 -0.1303 -1.4122  0.4037
 9224SOL    HW239309   2.669   0.545   8.265 -0.5823  0.7286 -0.0205
 9225SOL     OW39310   2.261   4.568   4.433  0.1052 -0.6226  1.2396
 9225SOL    HW139311   2.256   4.636   4.500  0.6969 -0.1238  0.7831
 9225SOL    HW239312   2.346   4.526   4.449  0.6794  0.9205  2.1831
 9226SOL     OW39313   1.679   3.228   5.867 -0.7601  0.5585  0.5531
 9226SOL    HW139314   1.693   3.313   5.909  0.4187 -0.1695  1.6302
 9226SOL    HW239315   1.602   3.244   5.812 -0.7738 -1.0564  0.0913
 9227SOL     OW39316   0.611   4.446   6.921 -0.2675 -0.2260  0.0981
 9227SOL    HW139317   0.552   4.413   6.989  0.3301  1.6571  1.5204
 9227SOL    HW239318   0.697   4.439   6.961 -0.7996 -1.1582  1.0905
 9228SOL     OW39319   0.211   2.058   8.081  0.1244  0.1124  0.3970
 9228SOL    HW139320   0.267   1.981   8.089  0.8409  0.6132  0.1595
 9228SOL    HW239321   0.245   2.108   8.155 -1.9554 -1.2993  2.3096
 9229SOL     OW39322   1.075   0.727   3.954  0.8179 -0.8280  0.7814
 9229SOL    HW139323   1.075   0.730   4.049  0.7788  0.7549  0.7351
 9229SOL    HW239324   1.135   0.654   3.941  1.1527 -0.7082  1.6933
 9230SOL     OW39325   3.166   0.239   4.052  0.3282  0.0529  0.2144
 9230SOL    HW139326   3.261   0.237   4.040  0.3185  2.5844 -0.3162
 9230SOL    HW239327   3.163   0.212   4.144  0.3314 -1.7553 -0.3287
 9231SOL     OW39328   1.299   3.068  15.514 -0.7043 -0.9006  0.0774
 9231SOL    HW139329   1.262   3.147  15.554 -1.7525 -0.5738 -1.5150
 9231SOL    HW239330   1.224   3.009  15.522  0.3809 -2.2587  0.1025
 9232SOL     OW39331   4.680   1.103   8.246 -0.1283  0.7750  0.6145
 9232SOL    HW139332   0.014   1.097   8.184 -0.1033  2.1079  0.5205
 9232SOL    HW239333   4.614   1.133   8.183  1.1055  0.0026 -1.0408
 9233SOL     OW39334   2.747   1.076   2.293  0.3628  0.0343  0.1488
 9233SOL    HW139335   2.706   0.996   2.326  1.6177 -1.0928 -0.9564
 9233SOL    HW239336   2.838   1.053   2.315 -0.1568 -0.5109  1.7360
 9234SOL     OW39337   2.757   3.971   9.495  0.2975  0.0328 -0.1324
 9234SOL    HW139338   2.781   3.942   9.584  0.2898  2.1994  0.5579
 9234SOL    HW239339   2.796   4.057   9.483  0.3740  0.0095 -0.0569
 9235SOL     OW39340   3.532   1.132  15.849  0.4507 -0.1233  0.6480
 9235SOL    HW139341   3.501   1.062  15.792 -0.4294  0.1087  0.8417
 9235SOL    HW239342   3.456   1.189  15.840 -0.0324 -0.6306  1.4754
 9236SOL     OW39343   0.053   3.129   1.477  0.3867 -0.4319 -0.2798
 9236SOL    HW139344   0.070   3.223   1.482  2.7274 -0.9543  1.2581
 9236SOL    HW239345   0.141   3.103   1.452  0.2070 -2.5320  1.2902
 9237SOL     OW39346   0.550   1.478  14.992  0.1629 -0.1035 -0.4943
 9237SOL    HW139347   0.508   1.414  14.934 -2.8897 -0.0681  1.6876
 9237SOL    HW239348   0.590   1.537  14.928  0.9886 -0.7032 -0.5256
 9238SOL     OW39349   3.807   4.219  13.570  0.0413  0.4250 -0.4263
 9238SOL    HW139350   3.834   4.306  13.598 -1.7493  0.2178  2.0353
 9238SOL    HW239351   3.712   4.228  13.572  0.1128  1.0150  0.3628
 9239SOL     OW39352   4.039   2.887  17.592  0.2231  0.1819  0.4233
 9239SOL    HW139353   4.075   2.975  17.596 -0.1839  0.3001  1.4575
 9239SOL    HW239354   3.970   2.909  17.529  2.1368  3.4772 -0.5111
 9240SOL     OW39355   0.667   1.308   6.236  0.0224 -0.3333  0.5063
 9240SOL    HW139356   0.573   1.302   6.218  0.0040  0.0461  0.4749
 9240SOL    HW239357   0.703   1.287   6.150 -0.1631  1.0904  0.0818
 9241SOL     OW39358   1.761   2.582   5.778 -0.2618  0.2108 -0.3432
 9241SOL    HW139359   1.749   2.549   5.867 -1.3613 -0.7828 -0.8499
 9241SOL    HW239360   1.707   2.660   5.788  0.7322  0.4004  3.5487
 9242SOL     OW39361   2.485   1.060   7.237  0.4327  0.2654 -0.3269
 9242SOL    HW139362   2.462   0.981   7.187 -2.4478  0.4875  0.6453
 9242SOL    HW239363   2.497   1.022   7.324  1.3008 -4.3516 -2.4138
 9243SOL     OW39364   2.367   0.600   4.493 -0.1728  0.1338 -0.4349
 9243SOL    HW139365   2.408   0.686   4.497 -0.2465 -0.0784  4.9433
 9243SOL    HW239366   2.427   0.560   4.431  1.9750  0.9214  1.1568
 9244SOL     OW39367   2.713   4.655   6.815  0.3752  0.8082  0.3396
 9244SOL    HW139368   2.709   4.589   6.745  4.1938  1.0851 -0.1035
 9244SOL    HW239369   2.723   4.604   6.896 -0.8050 -0.9522 -0.6017
 9245SOL     OW39370   0.683   3.483   5.674  0.3729  0.3574  0.4482
 9245SOL    HW139371   0.704   3.434   5.594  1.0249  2.3672 -0.5997
 9245SOL    HW239372   0.763   3.534   5.686  2.1939 -2.2276 -0.6477
 9246SOL     OW39373   3.394   4.661   8.517  0.4029  0.1248 -0.3364
 9246SOL    HW139374   3.351   4.626   8.595  1.0407 -1.3935 -0.6608
 9246SOL    HW239375   3.337   4.638   8.444 -0.6386  1.5542  0.0315
 9247SOL     OW39376   1.481   1.394   3.898 -0.0556  0.2945  0.0658
 9247SOL    HW139377   1.527   1.362   3.975  2.1007 -0.5282 -1.5543
 9247SOL    HW239378   1.418   1.459   3.929  0.1083  1.3851 -1.8840
 9248SOL     OW39379   4.106   3.487  11.610 -0.4342 -0.8177  0.4666
 9248SOL    HW139380   4.059   3.567  11.586 -0.1633 -1.9275 -3.7443
 9248SOL    HW239381   4.198   3.506  11.590  0.3275 -3.2957  1.6128
 9249SOL     OW39382   3.639   3.920  14.525 -0.0773  0.6197 -0.1320
 9249SOL    HW139383   3.687   3.843  14.555 -0.3948 -0.1604 -1.6479
 9249SOL    HW239384   3.720   3.969  14.509  1.0587 -1.0880  0.4533
 9250SOL     OW39385   3.915   0.971   4.647  0.8179 -0.3214 -0.1964
 9250SOL    HW139386   3.906   1.057   4.687 -0.9908 -1.7375  2.5090
 9250SOL    HW239387   4.001   0.941   4.676  0.3012  0.4483  2.1768
 9251SOL     OW39388   4.305   0.630   7.476 -0.2265  0.0493  0.4688
 9251SOL    HW139389   4.248   0.705   7.489 -0.9452 -0.8771  2.5955
 9251SOL    HW239390   4.267   0.563   7.534 -1.3265  0.6375  0.4248
 9252SOL     OW39391   0.591   3.808   2.033  0.0669  0.1045  0.3111
 9252SOL    HW139392   0.538   3.887   2.038  0.8689  0.7506 -1.0672
 9252SOL    HW239393   0.674   3.833   2.074  0.0646  2.4246 -1.1089
 9253SOL     OW39394   3.260   2.319  10.050  0.1246  0.2010 -0.1110
 9253SOL    HW139395   3.222   2.287  10.132 -1.5220  0.5672 -0.7268
 9253SOL    HW239396   3.302   2.399  10.080 -0.8709 -0.1176  2.1614
 9254SOL     OW39397   2.875   3.101   4.526  0.3357 -0.4742  0.5882
 9254SOL    HW139398   2.862   3.180   4.473  3.3524 -0.7165 -0.4894
 9254SOL    HW239399   2.794   3.104   4.577 -1.3990  0.0430 -2.1928
 9255SOL     OW39400   3.645   0.574  15.217 -1.0828 -0.0105  0.2104
 9255SOL    HW139401   3.690   0.658  15.217 -2.0188  0.4939 -0.3748
 9255SOL    HW239402   3.728   0.529  15.232 -2.3955 -2.0153  1.5583
 9256SOL     OW39403   1.012   1.501  16.440 -0.0912 -0.0447 -0.2497
 9256SOL    HW139404   1.042   1.572  16.497 -0.4212 -0.1524  0.0558
 9256SOL    HW239405   1.068   1.520  16.365  0.2188  0.7356  0.1782
 9257SOL     OW39406   1.123   1.211  14.932 -0.3200 -0.5791  0.1710
 9257SOL    HW139407   1.072   1.262  14.868 -1.2490 -0.0539  1.3378
 9257SOL    HW239408   1.100   1.263  15.008 -3.5830  1.1718 -1.9866
 9258SOL     OW39409   4.239   3.576   1.773 -0.3452  0.4868 -0.6965
 9258SOL    HW139410   4.272   3.627   1.847  1.8261 -0.1963 -1.1904
 9258SOL    HW239411   4.283   3.628   1.706 -0.6046 -0.1275 -1.3484
 9259SOL     OW39412   2.244   3.950   9.524 -0.1473 -0.4184  0.2806
 9259SOL    HW139413   2.318   3.896   9.496 -1.4053 -0.5537 -2.8065
 9259SOL    HW239414   2.292   4.016   9.574  0.7541 -1.4211  0.7357
 9260SOL     OW39415   2.564   0.174   3.219 -0.3395  0.0684 -0.3332
 9260SOL    HW139416   2.642   0.189   3.165 -0.5510  1.0078 -0.3689
 9260SOL    HW239417   2.555   0.251   3.275  1.1246  0.7890 -1.0921
 9261SOL     OW39418   0.070   2.582   4.489  0.0950 -0.5396  0.5498
 9261SOL    HW139419   4.730   2.535   4.464 -0.4458 -0.2958  1.7872
 9261SOL    HW239420   0.042   2.672   4.471  1.2097 -0.8333 -2.6795
 9262SOL     OW39421   1.855   0.178   4.824  0.1612 -0.0974  0.0975
 9262SOL    HW139422   1.776   0.228   4.841  0.3010  1.0559 -2.5839
 9262SOL    HW239423   1.862   0.187   4.729 -1.5998 -1.6918 -0.1865
 9263SOL     OW39424   2.824   0.239   7.359  0.4245  0.3063 -0.7383
 9263SOL    HW139425   2.772   0.267   7.435  0.1458  1.1013 -1.2138
 9263SOL    HW239426   2.871   0.159   7.381 -1.8194 -1.2101 -1.3708
 9264SOL     OW39427   3.115   0.391   1.074  0.0521  0.2947 -0.1586
 9264SOL    HW139428   3.118   0.298   1.049 -1.9362 -0.0144  0.7442
 9264SOL    HW239429   3.176   0.441   1.020 -1.1359  1.9142 -0.0095
 9265SOL     OW39430   2.371   3.348   6.751  0.0620  0.1804 -0.0596
 9265SOL    HW139431   2.344   3.356   6.660 -1.4961 -0.9999  0.3050
 9265SOL    HW239432   2.406   3.260   6.752 -2.7510 -0.9611 -1.3814
 9266SOL     OW39433   3.901   1.566   7.327  0.0673 -0.1020  0.0783
 9266SOL    HW139434   3.924   1.556   7.419  0.4969  0.0904 -0.0113
 9266SOL    HW239435   3.983   1.550   7.280  0.2416 -1.9755  1.0297
 9267SOL     OW39436   1.653   0.893   2.925  0.6235  0.0536  0.2129
 9267SOL    HW139437   1.678   0.802   2.943  0.0962 -0.1563 -0.1008
 9267SOL    HW239438   1.727   0.922   2.873 -1.1756 -0.6530 -2.7634
 9268SOL     OW39439   2.460   2.396   6.554 -0.1431 -0.8457 -0.0968
 9268SOL    HW139440   2.547   2.359   6.538 -0.0922 -1.5306  1.6951
 9268SOL    HW239441   2.438   2.440   6.472  2.0902 -0.4218 -0.4799
 9269SOL     OW39442   1.687   4.611  10.802  0.4747 -0.0622  0.4412
 9269SOL    HW139443   1.601   4.586  10.836  0.3096 -0.5207 -0.3322
 9269SOL    HW239444   1.692   4.700  10.838  3.7071  0.2228 -0.7279
 9270SOL     OW39445   3.523   2.098  16.506 -0.3870  0.2204 -0.0378
 9270SOL    HW139446   3.487   2.013  16.481  0.0693 -1.0345  3.4396
 9270SOL    HW239447   3.454   2.123  16.568  0.3003 -2.4109  1.8191
 9271SOL     OW39448   2.670   3.730   5.423  0.1409  0.0543 -0.4833
 9271SOL    HW139449   2.632   3.817   5.435  0.6062  0.4632 -2.0138
 9271SOL    HW239450   2.664   3.683   5.507  3.0598 -1.8441 -1.3515
 9272SOL     OW39451   2.056   1.311   4.562  0.6688 -0.0738 -0.1453
 9272SOL    HW139452   2.134   1.261   4.585  0.6837 -0.1601 -0.3826
 9272SOL    HW239453   2.025   1.267   4.482 -0.3196 -0.8421  0.6574
 9273SOL     OW39454   2.365   1.181  16.259 -0.1530 -0.3340  0.2609
 9273SOL    HW139455   2.415   1.155  16.337  0.0253 -1.8746 -0.3689
 9273SOL    HW239456   2.336   1.268  16.287 -1.5036 -0.5734 -0.4037
 9274SOL     OW39457   3.557   2.655   2.064  0.2643 -0.4359 -0.0575
 9274SOL    HW139458   3.549   2.560   2.072 -0.9426 -0.4747 -1.5834
 9274SOL    HW239459   3.652   2.658   2.049  0.4464 -1.7060  0.9008
 9275SOL     OW39460   0.113   2.645  11.776  0.4971  0.0492  0.2193
 9275SOL    HW139461   0.040   2.705  11.785  0.1337 -0.5446  1.1923
 9275SOL    HW239462   0.074   2.558  11.789 -0.0536  0.6343  2.3439
 9276SOL     OW39463   2.307   4.628   8.387 -0.6983  0.6583  0.1592
 9276SOL    HW139464   2.238   4.562   8.391  0.5832 -0.7387 -0.9986
 9276SOL    HW239465   2.260   4.704   8.353  0.3222  1.3945  0.4147
 9277SOL     OW39466   1.547   0.706   9.469 -0.1514 -0.5173  0.7245
 9277SOL    HW139467   1.559   0.789   9.515  0.0134 -0.1038 -0.0742
 9277SOL    HW239468   1.544   0.646   9.543 -2.1229 -1.8610 -0.4317
 9278SOL     OW39469   1.234   0.311   5.390 -0.0648  0.1071 -0.3013
 9278SOL    HW139470   1.204   0.370   5.321  0.8059 -0.9432 -1.5915
 9278SOL    HW239471   1.317   0.349   5.419  1.1756 -1.6603 -1.5263
 9279SOL     OW39472   2.328   3.173   3.568 -0.0456  0.1934 -0.1901
 9279SOL    HW139473   2.381   3.136   3.498 -0.8573 -1.4475  0.0639
 9279SOL    HW239474   2.325   3.093   3.620 -0.8004 -0.3427 -1.0517
 9280SOL     OW39475   4.631   2.763   3.127  0.0907 -0.4195  0.2298
 9280SOL    HW139476   4.680   2.845   3.126  2.3668 -1.8138 -2.3817
 9280SOL    HW239477   4.541   2.792   3.142 -0.1872 -1.0864 -0.1135
 9281SOL     OW39478   2.437   0.287   9.351 -0.4450  0.4525  0.3966
 9281SOL    HW139479   2.506   0.348   9.377 -0.2160  0.0044  0.8504
 9281SOL    HW239480   2.368   0.318   9.410 -0.8941  1.2734 -0.5583
 9282SOL     OW39481   3.362   1.144   9.189  0.0056 -0.3059  0.0013
 9282SOL    HW139482   3.317   1.059   9.190 -0.2695 -0.1645 -0.4038
 9282SOL    HW239483   3.451   1.116   9.168  0.7791  1.4985  0.9233
 9283SOL     OW39484   4.560   1.165   9.564  0.2227  0.2346 -0.2201
 9283SOL    HW139485   4.529   1.117   9.488 -0.3438  2.5694 -1.4789
 9283SOL    HW239486   4.583   1.247   9.520  1.6242 -0.7107 -1.2111
 9284SOL     OW39487   4.000   0.249   5.522  0.2491 -0.1832  0.0434
 9284SOL    HW139488   4.029   0.338   5.503 -1.2812  0.5599  1.2132
 9284SOL    HW239489   3.908   0.270   5.538 -0.3610 -0.8151 -2.5870
 9285SOL     OW39490   0.962   2.414   2.715  0.0063  0.4462 -0.3985
 9285SOL    HW139491   0.913   2.474   2.659 -0.2753  0.9010  0.3311
 9285SOL    HW239492   1.037   2.473   2.729  3.1600 -3.3934 -1.1201
 9286SOL     OW39493   1.184   4.416   4.140 -0.3202  0.6570  0.1019
 9286SOL    HW139494   1.277   4.394   4.131 -0.2294  0.0083  2.5504
 9286SOL    HW239495   1.174   4.498   4.093 -1.5771  0.1386 -0.5329
 9287SOL     OW39496   4.239   3.121   4.127 -0.1234  0.3696 -0.1087
 9287SOL    HW139497   4.327   3.144   4.097  0.5408 -1.9799  0.1132
 9287SOL    HW239498   4.192   3.203   4.112  0.7733  0.6331 -1.4958
 9288SOL     OW39499   2.394   1.813   6.359  0.2101  0.3027  0.0922
 9288SOL    HW139500   2.482   1.851   6.355 -0.3490  1.4867 -0.8751
 9288SOL    HW239501   2.341   1.893   6.354  0.9103  0.7272 -0.5288
 9289SOL     OW39502   0.853   0.997   0.207  0.4102  0.4456 -0.0032
 9289SOL    HW139503   0.800   1.010   0.129 -0.1121  1.9405  0.6088
 9289SOL    HW239504   0.922   0.952   0.159 -0.3554 -1.8329  1.0178
 9290SOL     OW39505   4.059   3.986   5.715  0.7364  0.4812 -0.4242
 9290SOL    HW139506   4.037   3.899   5.682  1.9576  0.1615 -0.3969
 9290SOL    HW239507   4.086   3.972   5.806 -1.0312 -2.6513 -0.3828
 9291SOL     OW39508   2.622   2.544  10.784 -0.0952  0.5168 -0.1186
 9291SOL    HW139509   2.615   2.639  10.778  3.2775  0.8374  0.9084
 9291SOL    HW239510   2.613   2.530  10.879 -0.8036 -1.7296 -0.5157
 9292SOL     OW39511   0.546   1.242  13.440 -0.4217 -0.3891  0.0245
 9292SOL    HW139512   0.625   1.224  13.388  0.2268  2.0469  0.1942
 9292SOL    HW239513   0.555   1.183  13.515  2.3326 -1.8849 -1.4535
 9293SOL     OW39514   1.870   1.584   2.641 -0.2094  0.3473 -0.4457
 9293SOL    HW139515   1.862   1.652   2.574 -1.3164  0.6697  0.0159
 9293SOL    HW239516   1.834   1.509   2.593 -2.5099  1.8845 -1.1261
 9294SOL     OW39517   3.184   1.150   3.841 -0.7474  0.3240  0.0678
 9294SOL    HW139518   3.227   1.193   3.767  0.1122 -2.8193 -1.2511
 9294SOL    HW239519   3.119   1.215   3.867 -0.9704 -0.2907  1.0574
 9295SOL     OW39520   1.981   0.119   0.128 -0.4543 -0.1338 -0.2278
 9295SOL    HW139521   1.935   0.096   0.209  0.6433 -3.0706 -0.4558
 9295SOL    HW239522   1.941   0.059   0.065 -0.6624 -1.3751  1.1078
 9296SOL     OW39523   1.031   0.321  10.890 -0.0340  0.1527  0.0474
 9296SOL    HW139524   1.046   0.405  10.932 -0.1936  0.5004 -0.5939
 9296SOL    HW239525   1.122   0.295  10.873  0.2896  1.8429 -0.8024
 9297SOL     OW39526   3.395   0.324  16.060 -0.1367 -0.7522 -0.1858
 9297SOL    HW139527   3.473   0.312  16.006 -0.1737  0.3309 -0.4777
 9297SOL    HW239528   3.351   0.241  16.042 -0.6405 -0.3064 -1.0192
 9298SOL     OW39529   3.073   0.995   4.646  0.0717  0.1564  0.3004
 9298SOL    HW139530   3.047   0.984   4.737 -1.3731 -0.0440 -0.1347
 9298SOL    HW239531   3.014   1.066   4.623 -0.0002  0.3170  0.9967
 9299SOL     OW39532   4.310   3.718   8.329  0.2251 -0.5608 -0.4393
 9299SOL    HW139533   4.287   3.767   8.407 -0.4557 -0.7490 -0.5153
 9299SOL    HW239534   4.224   3.733   8.290  0.1918 -2.0556 -0.9569
 9300SOL     OW39535   0.807   2.836   7.185 -0.0134 -0.6351  0.1270
 9300SOL    HW139536   0.845   2.899   7.124  2.5847 -2.2836  0.0284
 9300SOL    HW239537   0.877   2.846   7.249  0.1594 -0.7031 -0.0489
 9301SOL     OW39538   0.586   0.534   5.856  0.5522  0.2046  0.6446
 9301SOL    HW139539   0.522   0.468   5.829  0.9324  0.0308  0.1718
 9301SOL    HW239540   0.629   0.488   5.929 -2.7090 -0.6803  1.9934
 9302SOL     OW39541   0.611   3.819  12.776 -0.1098  0.0794 -0.2220
 9302SOL    HW139542   0.592   3.736  12.819 -1.1495  0.1828 -0.4858
 9302SOL    HW239543   0.706   3.815  12.791 -0.3114  0.2236  1.0909
 9303SOL     OW39544   2.152   1.064   1.515  0.4637 -0.0757 -0.4923
 9303SOL    HW139545   2.218   1.130   1.539 -2.8164  2.0829  2.5178
 9303SOL    HW239546   2.191   0.979   1.534  0.4842 -0.2384 -1.2377
 9304SOL     OW39547   1.659   3.226  10.224  0.1020  0.1557  0.3121
 9304SOL    HW139548   1.735   3.241  10.167 -0.1883  0.2031 -0.0585
 9304SOL    HW239549   1.640   3.316  10.251 -1.1764 -0.0814  0.1709
 9305SOL     OW39550   0.077   3.806   3.677  0.7921 -0.1327  0.2984
 9305SOL    HW139551   4.721   3.807   3.685  0.7216 -2.4785 -0.2757
 9305SOL    HW239552   0.105   3.865   3.747 -0.5727 -1.0693  1.6407
 9306SOL     OW39553   2.125   3.491  15.082 -0.2284  0.1193  0.1364
 9306SOL    HW139554   2.060   3.503  15.012  1.0170  0.6238 -0.9435
 9306SOL    HW239555   2.078   3.421  15.128  2.2467 -0.1625  2.2057
 9307SOL     OW39556   4.381   4.163   2.221  0.2619  0.2415  0.5492
 9307SOL    HW139557   4.319   4.106   2.268 -0.0076 -0.2936 -0.4444
 9307SOL    HW239558   4.356   4.255   2.231 -1.0048 -0.2438  1.8715
 9308SOL     OW39559   1.985   2.674  12.500  0.4619  0.3588  0.1139
 9308SOL    HW139560   1.958   2.712  12.584 -2.8996  1.5433 -1.5182
 9308SOL    HW239561   2.012   2.751  12.450  2.6023  0.5214  1.5368
 9309SOL     OW39562   2.543   2.095  14.471 -0.1203  0.4018 -0.1742
 9309SOL    HW139563   2.466   2.114  14.525  0.7934  0.6837  1.0579
 9309SOL    HW239564   2.551   2.000  14.481  1.1884  0.4431 -0.8214
 9310SOL     OW39565   2.305   3.616  13.306 -0.1008 -0.1388  0.2292
 9310SOL    HW139566   2.391   3.656  13.298 -0.1702  0.3163  1.7034
 9310SOL    HW239567   2.269   3.643  13.222  0.8505  0.1854 -0.0657
 9311SOL     OW39568   3.618   3.282  12.847  0.2093 -0.2322  0.0606
 9311SOL    HW139569   3.682   3.311  12.782 -0.0611  0.7981  0.2703
 9311SOL    HW239570   3.580   3.205  12.805 -0.0835  0.0178 -0.1265
 9312SOL     OW39571   2.469   2.598   4.969 -0.0283 -0.0485  0.6486
 9312SOL    HW139572   2.535   2.624   5.032 -0.1750 -2.1744  1.6946
 9312SOL    HW239573   2.518   2.558   4.897 -1.0969  0.8904 -0.6140
 9313SOL     OW39574   1.455   0.248   7.505  0.1293  0.1996  0.1016
 9313SOL    HW139575   1.498   0.269   7.588  0.8848 -0.4430 -0.1322
 9313SOL    HW239576   1.365   0.222   7.527  0.1445 -0.0394 -0.1180
 9314SOL     OW39577   1.175   0.085   8.932  0.1861 -0.2430 -0.1102
 9314SOL    HW139578   1.181   0.059   8.840  2.5393 -0.2230  0.0334
 9314SOL    HW239579   1.118   0.162   8.931  2.1153  1.2129  0.9500
 9315SOL     OW39580   2.271   1.849  12.671  0.0648 -0.0289  0.4569
 9315SOL    HW139581   2.254   1.764  12.630 -1.9684  1.4435 -1.7576
 9315SOL    HW239582   2.234   1.901  12.599 -0.1381  0.8120  1.1663
 9316SOL     OW39583   0.093   2.296   5.558  0.1227 -0.4418 -0.2176
 9316SOL    HW139584   0.141   2.360   5.611 -2.0038 -0.1745  1.3767
 9316SOL    HW239585   0.155   2.305   5.486 -1.7192  1.1434 -1.5900
 9317SOL     OW39586   2.680   0.955   1.643  0.2057  0.3024 -0.3218
 9317SOL    HW139587   2.763   0.944   1.691  0.9559  0.4381 -1.5916
 9317SOL    HW239588   2.628   1.013   1.699  1.6981  1.2928  0.0415
 9318SOL     OW39589   4.553   0.116   6.025 -0.3482 -0.4186 -0.1133
 9318SOL    HW139590   4.555   0.030   5.983  2.2874 -0.7118  0.5816
 9318SOL    HW239591   4.510   0.163   5.954 -1.3387  0.7589  1.2557
 9319SOL     OW39592   2.089   3.955  11.136 -0.0778  0.1329  0.2759
 9319SOL    HW139593   2.004   3.917  11.115  1.0692 -1.4627 -1.5553
 9319SOL    HW239594   2.123   3.888  11.195  1.0145  0.4014 -0.0481
 9320SOL     OW39595   1.748   2.130   7.289 -0.4103 -0.4204  0.9964
 9320SOL    HW139596   1.841   2.153   7.280 -0.8510  0.7101 -0.7782
 9320SOL    HW239597   1.754   2.041   7.254 -0.0800  0.1197 -0.3389
 9321SOL     OW39598   0.673   4.134   4.574 -0.0026  0.0247 -0.3548
 9321SOL    HW139599   0.655   4.046   4.542 -1.5941  0.1111  0.3372
 9321SOL    HW239600   0.597   4.153   4.628  0.4718 -2.2419  1.1091
 9322SOL     OW39601   1.902   1.801   6.795  0.7330  0.5076 -0.2715
 9322SOL    HW139602   1.894   1.824   6.887 -0.6312 -2.0939  0.2556
 9322SOL    HW239603   1.997   1.788   6.793  0.8461  1.1496  0.7408
 9323SOL     OW39604   2.661   4.268   4.584  0.4801 -0.3800 -0.6826
 9323SOL    HW139605   2.625   4.282   4.496  0.4383  0.6703 -0.4943
 9323SOL    HW239606   2.582   4.238   4.629  2.9098 -2.5728  2.0257
 9324SOL     OW39607   2.641   3.470   4.402 -0.2212 -0.3188 -0.4283
 9324SOL    HW139608   2.695   3.467   4.481 -0.4556 -1.6444 -0.3259
 9324SOL    HW239609   2.564   3.415   4.417 -1.8078  2.2149  0.7590
 9325SOL     OW39610   4.605   1.726   0.639  0.0469 -0.1196  0.5453
 9325SOL    HW139611   4.581   1.633   0.647 -1.6717  0.3003  0.3846
 9325SOL    HW239612   4.530   1.769   0.679 -0.6980 -1.5643  0.7279
 9326SOL     OW39613   2.326   2.960   3.983 -0.3110 -0.2612 -0.3238
 9326SOL    HW139614   2.421   2.975   3.985 -0.4312  0.5770 -1.4312
 9326SOL    HW239615   2.323   2.866   4.004  3.0735 -0.2656  0.1263
 9327SOL     OW39616   2.558   3.224   9.931  0.6501  0.3565 -0.3072
 9327SOL    HW139617   2.640   3.200   9.974  0.5229 -0.3114 -0.4287
 9327SOL    HW239618   2.552   3.161   9.860 -1.2664  1.0362 -0.7642
 9328SOL     OW39619   2.294   2.282   7.290 -0.1993 -0.2231 -0.5052
 9328SOL    HW139620   2.270   2.226   7.216  0.4684 -4.3089  2.3836
 9328SOL    HW239621   2.359   2.224   7.329 -1.5967 -2.5239 -1.6260
 9329SOL     OW39622   0.184   0.456   0.458 -0.2587 -0.0267 -0.0096
 9329SOL    HW139623   0.150   0.480   0.545 -0.6623  0.1671 -0.2217
 9329SOL    HW239624   0.208   0.545   0.432  2.0615 -0.1163  1.8080
 9330SOL     OW39625   2.846   2.295   6.159  0.4540 -0.5762  0.7999
 9330SOL    HW139626   2.838   2.341   6.075  0.6996  0.0698  1.1288
 9330SOL    HW239627   2.822   2.207   6.131 -0.6508 -0.7786  2.3747
 9331SOL     OW39628   4.223   2.515  15.776  0.1307  0.1763 -0.6515
 9331SOL    HW139629   4.151   2.568  15.809  0.6932  0.2192  0.4936
 9331SOL    HW239630   4.295   2.578  15.768 -0.6739  1.0761 -0.9242
 9332SOL     OW39631   1.388   0.332  17.123 -0.6929  0.1513  0.0005
 9332SOL    HW139632   1.341   0.399  17.173 -1.2621 -0.2830  0.0498
 9332SOL    HW239633   1.408   0.386  17.047  2.5972  0.1679  0.8645
 9333SOL     OW39634   3.469   4.623   4.660 -0.9130 -0.5495  0.0808
 9333SOL    HW139635   3.487   4.578   4.742 -0.6884 -0.9062 -0.1631
 9333SOL    HW239636   3.540   4.595   4.603  1.7490  2.1031  2.0767
 9334SOL     OW39637   3.190   2.330   1.271  0.2810  0.3919 -0.7436
 9334SOL    HW139638   3.212   2.279   1.193 -1.3287 -3.5819  1.4005
 9334SOL    HW239639   3.172   2.261   1.335  0.9330 -1.5856 -2.7041
 9335SOL     OW39640   3.225   0.167  14.831  0.2100 -0.0437 -0.5788
 9335SOL    HW139641   3.169   0.095  14.860  3.5556 -2.0128  0.9711
 9335SOL    HW239642   3.181   0.241  14.874 -2.2292 -1.2201 -1.0236
 9336SOL     OW39643   2.955   3.883   6.729 -0.6128  0.2592 -0.4870
 9336SOL    HW139644   2.892   3.863   6.799  1.8328 -1.7640  1.1481
 9336SOL    HW239645   3.025   3.902   6.791 -0.6116  0.8417 -0.6651
 9337SOL     OW39646   1.996   3.197   1.549  0.0289 -0.1575  0.2151
 9337SOL    HW139647   2.040   3.111   1.554  0.0387 -0.0908  1.1677
 9337SOL    HW239648   1.951   3.181   1.466 -0.0036  0.1649  0.1721
 9338SOL     OW39649   0.051   3.463   1.750 -0.7382 -0.2752  0.2304
 9338SOL    HW139650   0.053   3.558   1.734 -0.2238 -0.2923  0.1938
 9338SOL    HW239651   0.026   3.432   1.663 -2.6416 -1.8639  1.3404
 9339SOL     OW39652   3.994   2.370   8.513 -0.7858  0.4258  0.0178
 9339SOL    HW139653   3.979   2.287   8.558 -0.5143  0.2269 -0.2627
 9339SOL    HW239654   3.902   2.399   8.517 -1.2225 -1.1269  1.4473
 9340SOL     OW39655   0.177   4.518   2.827 -0.3031 -0.1321  0.0676
 9340SOL    HW139656   0.100   4.514   2.770 -0.5669  0.9679  0.3564
 9340SOL    HW239657   0.245   4.527   2.760  1.4235 -0.8549  1.7229
 9341SOL     OW39658   2.526   2.437   1.255 -0.3364 -0.2715 -0.4254
 9341SOL    HW139659   2.555   2.388   1.332 -0.6089  2.1082  1.1764
 9341SOL    HW239660   2.609   2.452   1.210 -0.4938 -0.1002 -0.6539
 9342SOL     OW39661   2.360   3.098   4.220  0.0094 -0.0321  0.6084
 9342SOL    HW139662   2.344   3.089   4.126 -0.4677 -1.2165  0.8042
 9342SOL    HW239663   2.450   3.072   4.237  0.2386  0.7665  0.6131
 9343SOL     OW39664   1.230   2.048   2.962  0.3452 -0.1019 -0.9267
 9343SOL    HW139665   1.165   1.999   3.011  2.2718 -0.4359  1.2866
 9343SOL    HW239666   1.176   2.115   2.920  1.2947  0.2823 -1.5336
 9344SOL     OW39667   0.328   1.825   4.891  1.0569  0.0278  0.8775
 9344SOL    HW139668   0.319   1.910   4.848  1.3635 -1.0505 -1.3067
 9344SOL    HW239669   0.234   1.808   4.893  1.2926 -1.1868  1.8345
 9345SOL     OW39670   0.723   0.506   4.220 -0.2830 -0.1026  0.2114
 9345SOL    HW139671   0.731   0.503   4.316  1.6529 -2.3228 -0.0384
 9345SOL    HW239672   0.701   0.598   4.204 -1.3134 -0.0764  1.7268
 9346SOL     OW39673   2.903   0.088   4.007 -0.4662 -0.0233 -0.4106
 9346SOL    HW139674   2.880   0.179   3.988  0.1810 -0.2124 -2.0947
 9346SOL    HW239675   2.952   0.114   4.085 -1.6065  1.4158 -0.1804
 9347SOL     OW39676   2.806   0.816   4.229  0.4670  0.2330  0.3047
 9347SOL    HW139677   2.759   0.776   4.156  0.5086  0.6810  0.0296
 9347SOL    HW239678   2.889   0.773   4.247 -2.3670 -5.5756 -0.4140
 9348SOL     OW39679   2.115   3.237   3.841 -0.4133 -0.4279  0.6438
 9348SOL    HW139680   2.210   3.231   3.830 -0.2902  1.7626  0.4563
 9348SOL    HW239681   2.105   3.332   3.848 -0.2643 -0.2590 -1.4617
 9349SOL     OW39682   1.309   1.819   3.253 -0.5502 -0.2723  0.2191
 9349SOL    HW139683   1.309   1.914   3.267  0.8183 -0.1563 -0.5927
 9349SOL    HW239684   1.298   1.785   3.342  1.5369  0.6865  0.8372
 9350SOL     OW39685   1.488   2.865   0.048  0.2551  0.0517  0.6048
 9350SOL    HW139686   1.518   2.904  17.720  0.2829  0.0739  0.6257
 9350SOL    HW239687   1.392   2.858   0.039  0.3025  0.3899 -0.1714
 9351SOL     OW39688   4.238   4.090   6.804  0.3766 -0.8214  0.1164
 9351SOL    HW139689   4.238   4.184   6.821 -0.8051 -1.1895  2.0115
 9351SOL    HW239690   4.247   4.060   6.894 -2.7216 -0.1112  0.6447
 9352SOL     OW39691   3.152   3.592   1.775  0.1956  0.2216  0.2154
 9352SOL    HW139692   3.220   3.624   1.834 -0.7203 -1.0580  1.9655
 9352SOL    HW239693   3.103   3.523   1.820  1.8506 -1.8892 -1.2201
 9353SOL     OW39694   0.543   2.117   7.960  0.3648  0.5790 -0.2504
 9353SOL    HW139695   0.632   2.130   7.993  0.7315  0.6096 -1.2258
 9353SOL    HW239696   0.507   2.205   7.967 -1.6301 -0.1449 -1.4266
 9354SOL     OW39697   1.053   0.454   9.891 -0.0642 -0.0511 -0.5519
 9354SOL    HW139698   0.964   0.488   9.878  1.2422  2.3422 -3.5191
 9354SOL    HW239699   1.042   0.383   9.828  1.9136  0.4275 -1.4263
 9355SOL     OW39700   1.807   4.290   9.419  0.5410  0.0231 -0.0214
 9355SOL    HW139701   1.770   4.378   9.426 -1.6725 -0.8229 -0.9915
 9355SOL    HW239702   1.898   4.312   9.438  1.2326 -2.2360 -0.7097
 9356SOL     OW39703   1.759   2.399   4.415 -0.6921  1.0280 -0.2068
 9356SOL    HW139704   1.791   2.391   4.325 -0.9733 -1.5601 -0.0858
 9356SOL    HW239705   1.699   2.472   4.400 -2.4564 -0.0752  1.4018
 9357SOL     OW39706   1.238   0.134  16.079 -0.1682 -0.3373 -1.3112
 9357SOL    HW139707   1.189   0.110  16.157  1.7861  1.5481  0.4631
 9357SOL    HW239708   1.252   0.228  16.094  0.0466 -0.6432  0.3932
 9358SOL     OW39709   0.773   4.528   7.221  0.1051 -0.1813 -0.1453
 9358SOL    HW139710   0.799   4.585   7.148  0.9706 -0.2379  0.1210
 9358SOL    HW239711   0.785   4.440   7.185 -0.6625 -0.2041 -0.3473
 9359SOL     OW39712   1.966   3.970   6.867 -0.5242 -0.0715  0.1455
 9359SOL    HW139713   2.018   3.893   6.893  2.7912  1.2105 -2.6740
 9359SOL    HW239714   1.884   3.934   6.834 -1.4445  1.1185  1.1576
 9360SOL     OW39715   1.669   0.503   3.005  0.4326 -0.4412 -0.7428
 9360SOL    HW139716   1.744   0.550   3.040 -2.0940  4.0365 -1.4143
 9360SOL    HW239717   1.703   0.413   3.000  1.4552 -0.0650 -0.4695
 9361SOL     OW39718   0.499   2.416   3.845  0.1213 -0.1944  0.5149
 9361SOL    HW139719   0.539   2.457   3.768 -1.6914 -0.2416 -0.4313
 9361SOL    HW239720   0.575   2.385   3.895  0.2542  0.4262  0.6994
 9362SOL     OW39721   0.069   2.855   1.965  0.3789 -0.1423 -0.0386
 9362SOL    HW139722   0.113   2.790   1.911  1.2514 -0.6604  1.3014
 9362SOL    HW239723   0.054   2.930   1.907  1.6188 -0.2451 -0.4881
 9363SOL     OW39724   3.905   2.239   0.550  0.5048 -0.0920  0.1169
 9363SOL    HW139725   3.839   2.274   0.609 -0.6236 -1.2468 -0.4512
 9363SOL    HW239726   3.864   2.164   0.506 -0.7061  2.3932 -3.0220
 9364SOL     OW39727   0.053   0.085   3.373 -0.2123 -0.0518 -0.1666
 9364SOL    HW139728   0.040   0.170   3.417 -1.7493  0.4854 -1.6325
 9364SOL    HW239729   4.713   0.076   3.319 -0.2618 -0.7332  0.0157
 9365SOL     OW39730   3.385   1.905   6.204  0.4302 -0.3055  0.6166
 9365SOL    HW139731   3.379   1.961   6.127  0.7319 -0.2435  0.6396
 9365SOL    HW239732   3.441   1.834   6.171 -0.7048 -1.3057  0.8211
 9366SOL     OW39733   1.965   1.220   3.240 -0.9714 -0.0535 -0.1012
 9366SOL    HW139734   1.887   1.217   3.297  0.1250 -0.6531  1.3538
 9366SOL    HW239735   2.028   1.170   3.292 -1.2529 -0.6329 -0.3153
 9367SOL     OW39736   1.955   1.432  17.122  0.1015 -0.0615 -0.4944
 9367SOL    HW139737   1.971   1.347  17.082 -0.2290 -0.0589 -0.6328
 9367SOL    HW239738   2.041   1.473  17.112  1.2875 -2.6021 -0.6245
 9368SOL     OW39739   2.857   4.207   3.087  0.2359  0.5674  0.3889
 9368SOL    HW139740   2.911   4.151   3.143 -0.0837 -0.8530 -0.7372
 9368SOL    HW239741   2.889   4.173   3.003  0.6690  0.3803  0.6280
 9369SOL     OW39742   3.684   4.339  13.173  0.5927  0.1807 -0.3189
 9369SOL    HW139743   3.640   4.424  13.175  1.1831  0.5117 -1.2592
 9369SOL    HW239744   3.773   4.364  13.196 -0.0347  1.4770  0.6675
 9370SOL     OW39745   1.566   1.442   1.284 -0.3578  0.0982 -0.0072
 9370SOL    HW139746   1.612   1.459   1.202 -2.9954 -4.3767 -2.4107
 9370SOL    HW239747   1.641   1.458   1.342  0.2583 -0.8942 -0.5205
 9371SOL     OW39748   0.376   2.517   7.614 -0.2398  0.3674 -0.4637
 9371SOL    HW139749   0.372   2.565   7.697  1.1412  1.1533 -0.8403
 9371SOL    HW239750   0.324   2.439   7.631  0.5801  0.4261  2.3856
 9372SOL     OW39751   4.624   0.972  16.597 -0.8381 -0.1210 -0.1632
 9372SOL    HW139752   4.694   0.956  16.534 -1.0990 -0.4796 -0.3625
 9372SOL    HW239753   4.636   0.885  16.636  1.4799  0.6431  0.8171
 9373SOL     OW39754   4.268   2.774  12.373  0.2857 -0.4321 -0.3271
 9373SOL    HW139755   4.188   2.765  12.321 -1.5785  0.9182  2.3157
 9373SOL    HW239756   4.305   2.858  12.343 -0.9875 -0.6911 -2.6619
 9374SOL     OW39757   3.378   1.180  14.225 -0.4353  0.3126  0.3833
 9374SOL    HW139758   3.346   1.259  14.182  2.0091  1.4905  0.7582
 9374SOL    HW239759   3.300   1.132  14.253 -0.7247  0.4875 -0.1114
 9375SOL     OW39760   1.353   4.356   2.523 -0.3034 -0.1810  0.3934
 9375SOL    HW139761   1.312   4.374   2.438 -3.9786  2.4289  2.6991
 9375SOL    HW239762   1.444   4.382   2.512 -0.1041 -0.7049  0.8190
 9376SOL     OW39763   0.332   1.806   6.164  0.1975 -0.0924 -0.4368
 9376SOL    HW139764   0.266   1.831   6.099 -1.3874 -1.8626  0.5065
 9376SOL    HW239765   0.407   1.861   6.142 -0.2357  0.6736  0.0209
 9377SOL     OW39766   4.342   0.928   6.743  0.5514  0.4089  0.0408
 9377SOL    HW139767   4.413   0.979   6.782  1.9735 -1.6386  0.1432
 9377SOL    HW239768   4.362   0.841   6.778 -1.7890  1.2323  3.4099
 9378SOL     OW39769   1.537   3.301   5.055  0.2809 -0.2163 -0.1554
 9378SOL    HW139770   1.596   3.241   5.101 -0.9494 -1.3437 -0.0770
 9378SOL    HW239771   1.592   3.380   5.051  2.2527 -1.5699 -0.0419
 9379SOL     OW39772   4.205   1.111  14.155 -0.1456  0.6625  0.0840
 9379SOL    HW139773   4.205   1.205  14.175  1.9869  0.7443 -0.3188
 9379SOL    HW239774   4.185   1.124  14.062  0.6414 -2.4962 -0.5057
 9380SOL     OW39775   0.098   4.028   0.888  0.3498 -0.8648  0.2538
 9380SOL    HW139776   0.089   4.013   0.794  1.7969 -2.4383  0.3783
 9380SOL    HW239777   0.188   3.999   0.904  0.8716  0.4745 -0.2198
 9381SOL     OW39778   1.556   2.183   3.598 -0.8511 -0.2501  0.0845
 9381SOL    HW139779   1.586   2.164   3.509 -0.1242  1.2636 -0.0014
 9381SOL    HW239780   1.490   2.114   3.602 -1.4211  0.5094  3.7490
 9382SOL     OW39781   0.424   2.114  15.783  0.6965  0.6563  0.1956
 9382SOL    HW139782   0.337   2.098  15.818  0.7400 -2.3072 -1.0623
 9382SOL    HW239783   0.482   2.132  15.857 -0.5609  1.2707  1.0329
 9383SOL     OW39784   3.707   2.722   2.901  0.0603 -0.3991  0.0064
 9383SOL    HW139785   3.663   2.647   2.940  0.3611 -1.0520 -0.9059
 9383SOL    HW239786   3.644   2.794   2.905  1.1420  0.4964  0.9739
 9384SOL     OW39787   1.674   2.070   3.385 -0.5432  0.4901 -0.0043
 9384SOL    HW139788   1.685   2.056   3.291 -1.3037 -3.0550  0.4137
 9384SOL    HW239789   1.763   2.099   3.406  0.0506 -1.0489 -0.3923
 9385SOL     OW39790   0.480   0.565   0.107 -0.3648 -0.3716 -0.4684
 9385SOL    HW139791   0.419   0.635   0.129 -0.9423 -0.9266 -0.2884
 9385SOL    HW239792   0.465   0.495   0.171  2.5194  1.5370  2.3361
 9386SOL     OW39793   3.049   2.969   7.009  0.4588  0.8510  0.1283
 9386SOL    HW139794   3.028   3.021   7.087 -2.1268 -0.5850  0.3942
 9386SOL    HW239795   3.125   2.915   7.030 -1.3254 -1.9089 -0.4309
 9387SOL     OW39796   2.325   1.598   6.841 -0.1331 -0.5972  0.3494
 9387SOL    HW139797   2.316   1.516   6.890 -0.3292 -0.2504  0.8915
 9387SOL    HW239798   2.357   1.650   6.915  1.3398  1.2149 -1.5629
 9388SOL     OW39799   3.915   3.320   6.763 -0.3469 -0.2887  0.0834
 9388SOL    HW139800   3.935   3.312   6.669  2.5001  0.2529  0.6398
 9388SOL    HW239801   3.936   3.413   6.771 -1.5955 -0.0499  0.5707
 9389SOL     OW39802   3.996   1.540  15.534 -0.0425  0.0989  0.0777
 9389SOL    HW139803   4.028   1.626  15.507  0.1887  0.3751  1.2452
 9389SOL    HW239804   4.064   1.477  15.513 -0.3370  0.0729 -0.7806
 9390SOL     OW39805   1.255   0.337   4.413 -0.6933 -0.0628  0.0851
 9390SOL    HW139806   1.185   0.388   4.455 -0.1638  0.2278  0.6161
 9390SOL    HW239807   1.220   0.350   4.325  2.3474  1.1238 -0.9222
 9391SOL     OW39808   1.285   0.086  14.924  0.4261 -0.0391  0.0453
 9391SOL    HW139809   1.266   0.149  14.854 -2.0144  0.3473  1.0487
 9391SOL    HW239810   1.199   0.065  14.961  0.0843 -1.3601 -1.5519
 9392SOL     OW39811   1.340   1.965   4.609 -0.4749 -0.0572 -0.5544
 9392SOL    HW139812   1.336   1.994   4.518 -1.7090 -1.6345 -1.0252
 9392SOL    HW239813   1.370   2.039   4.661 -1.9049  0.9566 -1.1670
 9393SOL     OW39814   1.425   0.593   8.371  0.0998  0.2410 -0.6447
 9393SOL    HW139815   1.481   0.516   8.383  0.5586  0.6450 -0.2076
 9393SOL    HW239816   1.490   0.648   8.327  1.0625  0.8642  1.5971
 9394SOL     OW39817   2.356   4.233   6.894  0.4400  0.2757 -0.0562
 9394SOL    HW139818   2.380   4.205   6.806 -0.9730  0.7768 -0.6021
 9394SOL    HW239819   2.415   4.176   6.944  0.6881  2.4478  2.1049
 9395SOL     OW39820   3.758   4.496   2.012  0.0502  0.2399 -0.3331
 9395SOL    HW139821   3.754   4.404   2.041 -0.3301  0.5218  0.5052
 9395SOL    HW239822   3.826   4.490   1.945 -1.6291 -1.1531 -1.9241
 9396SOL     OW39823   2.097   0.768   7.923  0.0136 -0.2004 -0.3552
 9396SOL    HW139824   2.072   0.729   8.007 -0.2627 -0.5119 -0.5811
 9396SOL    HW239825   2.098   0.859   7.950 -0.9593 -0.0367 -0.8500
 9397SOL     OW39826   3.220   2.576   9.390  0.6046  0.4580  0.3083
 9397SOL    HW139827   3.131   2.554   9.365  0.6757 -0.1282  0.5826
 9397SOL    HW239828   3.242   2.512   9.457 -0.3017  0.6982  0.8336
 9398SOL     OW39829   3.518   0.266   6.663  0.2019 -0.2369 -0.8539
 9398SOL    HW139830   3.568   0.185   6.674  0.0664 -0.2406 -0.2334
 9398SOL    HW239831   3.591   0.325   6.643 -0.3425  0.6341 -0.3089
 9399SOL     OW39832   0.602   2.001   2.840  0.1883 -0.3795  0.1073
 9399SOL    HW139833   0.600   1.914   2.800  0.2915 -1.0697  1.5909
 9399SOL    HW239834   0.683   2.001   2.891  0.4377  1.4993 -0.2703
 9400SOL     OW39835   2.686   1.695   1.315  0.2880  0.3854  0.1581
 9400SOL    HW139836   2.621   1.693   1.246  0.2104 -1.2997  0.2806
 9400SOL    HW239837   2.657   1.759   1.380  1.3654  1.3060 -0.2498
 9401SOL     OW39838   2.079   0.815   3.583 -0.3896 -0.2751 -0.3595
 9401SOL    HW139839   2.067   0.846   3.673  1.0837 -0.3463 -0.1389
 9401SOL    HW239840   2.162   0.858   3.565  0.1286 -1.1024  0.0634
 9402SOL     OW39841   1.852   2.195   4.953 -0.0636  0.1699  0.5889
 9402SOL    HW139842   1.852   2.274   4.899  0.8143 -0.5652 -0.5054
 9402SOL    HW239843   1.852   2.248   5.032 -0.8617  0.5175  0.3595
 9403SOL     OW39844   4.451   4.396   5.376  0.5156  0.8979  0.3181
 9403SOL    HW139845   4.444   4.338   5.300 -0.4452  0.1766  0.9539
 9403SOL    HW239846   4.367   4.391   5.421  0.0707  2.3943 -0.3421
 9404SOL     OW39847   4.093   1.542   3.861  0.5058 -0.1187 -0.0646
 9404SOL    HW139848   4.059   1.496   3.939 -1.1975  1.5111  0.1669
 9404SOL    HW239849   4.183   1.511   3.854  0.7122  0.0470  1.6661
 9405SOL     OW39850   2.876   3.885   5.001 -0.4011  0.1700  0.7906
 9405SOL    HW139851   2.885   3.879   5.096  1.2899 -2.4755  0.4788
 9405SOL    HW239852   2.947   3.949   4.992  0.1601 -0.9441 -2.8717
 9406SOL     OW39853   3.693   1.673   1.075  0.2233 -0.3217 -0.9026
 9406SOL    HW139854   3.698   1.701   0.984 -1.9884 -0.0891 -0.9441
 9406SOL    HW239855   3.774   1.621   1.081  1.3070  1.3534 -0.7718
 9407SOL     OW39856   3.862   3.835   9.752  0.3056 -0.2354 -0.1743
 9407SOL    HW139857   3.933   3.774   9.736 -0.8144 -1.0340 -2.0655
 9407SOL    HW239858   3.826   3.838   9.663  0.9822 -0.5814 -0.4547
 9408SOL     OW39859   3.224   4.335  13.178  0.1163 -0.4954  0.2896
 9408SOL    HW139860   3.164   4.263  13.155  0.1351 -0.1409 -0.8493
 9408SOL    HW239861   3.224   4.387  13.098  0.4008  0.4347  0.8914
 9409SOL     OW39862   4.499   1.764   3.522  0.1654 -0.1164 -0.2401
 9409SOL    HW139863   4.411   1.733   3.542  1.6911 -2.8774  2.0512
 9409SOL    HW239864   4.487   1.829   3.452 -0.6606  0.2615  0.2510
 9410SOL     OW39865   2.409   3.715   1.642 -0.0545  0.2117  0.3348
 9410SOL    HW139866   2.429   3.734   1.551  2.2342  0.0899  0.8014
 9410SOL    HW239867   2.426   3.795   1.693  0.4205  0.3720 -0.0711
 9411SOL     OW39868   2.517   2.118   8.762 -0.0922  0.1868 -0.4664
 9411SOL    HW139869   2.527   2.211   8.781  0.6504  0.0407 -0.1341
 9411SOL    HW239870   2.495   2.071   8.843 -1.8427  1.2487 -0.3247
 9412SOL     OW39871   1.077   4.313  15.051  0.2837 -0.2280  0.2913
 9412SOL    HW139872   1.046   4.223  15.047 -0.1258  0.0431 -2.6111
 9412SOL    HW239873   1.072   4.332  15.145  2.8484  1.7987  0.0099
 9413SOL     OW39874   2.297   3.427   3.480  0.8142  0.0260 -0.2408
 9413SOL    HW139875   2.306   3.336   3.507  1.5735  0.7163  1.7898
 9413SOL    HW239876   2.380   3.469   3.498  0.9410 -0.4642  0.3371
 9414SOL     OW39877   1.642   4.702   5.154  0.6736  0.1130 -0.5041
 9414SOL    HW139878   1.716   4.694   5.214 -1.2436 -1.0035  1.6833
 9414SOL    HW239879   1.693   4.688   5.074  2.0638  0.1109  0.3698
 9415SOL     OW39880   3.981   2.919   3.092  0.0536 -0.0191 -0.1257
 9415SOL    HW139881   4.016   2.969   3.018 -0.9458  0.0960 -0.5157
 9415SOL    HW239882   4.003   2.831   3.064 -1.4959 -0.3463 -0.2512
 9416SOL     OW39883   1.430   0.595   2.884 -0.0728 -0.4430  0.0680
 9416SOL    HW139884   1.508   0.574   2.935 -2.6318 -2.1676  3.2815
 9416SOL    HW239885   1.396   0.506   2.873  0.6105 -0.0454 -4.9447
 9417SOL     OW39886   4.123   0.212   4.424 -0.3744 -0.2065 -0.3840
 9417SOL    HW139887   4.072   0.276   4.375  0.6381  0.6284 -0.3555
 9417SOL    HW239888   4.050   0.161   4.458  0.7018  0.1480  2.4919
 9418SOL     OW39889   1.642   0.322   0.387  0.1802 -0.6058  0.2081
 9418SOL    HW139890   1.666   0.379   0.314 -0.5671 -0.8912 -0.2543
 9418SOL    HW239891   1.719   0.320   0.444 -0.0190  0.0787  0.5069
 9419SOL     OW39892   0.326   3.156   2.787  0.0614 -0.2787  0.2161
 9419SOL    HW139893   0.330   3.060   2.785  1.5742 -0.2444  1.7312
 9419SOL    HW239894   0.300   3.176   2.697 -1.6356  1.0713  1.0237
 9420SOL     OW39895   2.607   2.907   9.118 -0.4231  0.5257  0.1770
 9420SOL    HW139896   2.548   2.960   9.064 -0.3712  2.1841  1.7797
 9420SOL    HW239897   2.668   2.976   9.144  0.8269  0.7717 -3.3628
 9421SOL     OW39898   1.512   0.983   6.687  0.1468  0.1014 -0.0072
 9421SOL    HW139899   1.453   1.057   6.692 -0.3406 -0.1403 -2.2718
 9421SOL    HW239900   1.441   0.920   6.674 -0.1153  0.5020 -0.4878
 9422SOL     OW39901   0.681   4.673   5.542 -0.1183 -0.6115 -0.1713
 9422SOL    HW139902   0.685   0.023   5.576  0.0969 -0.3027 -1.0119
 9422SOL    HW239903   0.751   4.633   5.593 -0.4187 -0.9844 -0.0466
 9423SOL     OW39904   1.003   4.658   5.183  0.2501  0.0379 -0.0662
 9423SOL    HW139905   1.047   4.593   5.236 -1.5525 -0.8531  0.3435
 9423SOL    HW239906   0.959   4.719   5.242 -0.5951 -1.5391  0.9355
 9424SOL     OW39907   1.800   3.395   1.283  0.8218 -0.4440  0.3987
 9424SOL    HW139908   1.826   3.304   1.269 -2.8412 -1.3369 -0.4899
 9424SOL    HW239909   1.864   3.442   1.229  0.2386  0.2755  0.3351
 9425SOL     OW39910   4.427   1.861   8.058 -0.2285  0.4501  0.2837
 9425SOL    HW139911   4.507   1.825   8.020 -1.5232 -1.8516 -0.2222
 9425SOL    HW239912   4.373   1.872   7.980 -1.4821  0.3229  1.1316
 9426SOL     OW39913   4.167   2.358   9.792  0.6526 -0.0096  0.5773
 9426SOL    HW139914   4.139   2.277   9.834  2.4278 -1.1680 -0.5216
 9426SOL    HW239915   4.238   2.384   9.851  0.9179  1.0496 -0.1977
 9427SOL     OW39916   4.584   3.673  10.898  0.5923  0.0435 -0.0881
 9427SOL    HW139917   4.671   3.654  10.932  0.3034 -1.6783 -0.3393
 9427SOL    HW239918   4.580   3.767  10.916 -2.5349 -0.5564  2.4226
 9428SOL     OW39919   4.593   1.628   3.154  0.1799  0.1526  0.2660
 9428SOL    HW139920   4.580   1.714   3.195  2.2867  1.1119 -1.0690
 9428SOL    HW239921   4.674   1.642   3.104  0.1635  0.3069  0.2820
 9429SOL     OW39922   1.272   3.356   5.487  0.3108  0.2003 -0.1203
 9429SOL    HW139923   1.288   3.322   5.398 -0.9269  0.7332 -0.5408
 9429SOL    HW239924   1.196   3.411   5.469  0.3498  0.6753  1.2141
 9430SOL     OW39925   0.775   2.725   4.535  0.2490  0.0678 -0.7492
 9430SOL    HW139926   0.814   2.729   4.447 -1.3440 -1.5729 -1.5244
 9430SOL    HW239927   0.840   2.668   4.576  0.9180  0.3986 -1.3452
 9431SOL     OW39928   3.738   3.764   0.838  0.2012 -0.5150 -0.1671
 9431SOL    HW139929   3.691   3.835   0.880  0.9271 -0.1899  0.0899
 9431SOL    HW239930   3.766   3.707   0.909  1.1264  0.3853  0.1892
 9432SOL     OW39931   2.514   2.367   4.507  0.3159  0.4805  0.1635
 9432SOL    HW139932   2.490   2.459   4.501 -1.9529 -0.2739 -2.3009
 9432SOL    HW239933   2.552   2.356   4.420  0.1140 -2.7494  0.4789
 9433SOL     OW39934   4.207   0.493   8.726  0.2016 -0.5046 -0.2004
 9433SOL    HW139935   4.168   0.539   8.651 -1.2585  0.5893  1.2174
 9433SOL    HW239936   4.239   0.565   8.779 -0.2968 -0.0752 -0.4757
 9434SOL     OW39937   3.242   2.505   1.012 -0.2703 -0.5929  0.3957
 9434SOL    HW139938   3.179   2.434   1.000 -1.0215  0.0190  0.7425
 9434SOL    HW239939   3.318   2.474   0.962 -0.3446 -0.1096 -0.0160
 9435SOL     OW39940   2.697   4.430  15.633  0.3323  0.4011  0.7856
 9435SOL    HW139941   2.634   4.435  15.561 -0.3539  1.8414  1.4710
 9435SOL    HW239942   2.720   4.522  15.646  1.4392  0.1593  0.4657
 9436SOL     OW39943   2.358   4.258   3.665  0.0998 -0.3747  0.4156
 9436SOL    HW139944   2.430   4.310   3.630  1.7108 -1.9952  1.3627
 9436SOL    HW239945   2.352   4.286   3.756  2.0430  0.6739  0.2104
 9437SOL     OW39946   3.025   3.009   9.142  0.0813  0.8450 -0.2007
 9437SOL    HW139947   2.963   3.064   9.191 -1.8469 -0.2928 -1.3640
 9437SOL    HW239948   3.017   3.038   9.052 -2.0642  0.3184 -0.1783
 9438SOL     OW39949   0.054   1.496   8.603  0.6647 -0.1540  0.0132
 9438SOL    HW139950   0.143   1.488   8.638  0.7225 -1.9056 -0.5483
 9438SOL    HW239951   0.059   1.454   8.518 -1.6412  2.5894 -1.4712
 9439SOL     OW39952   2.457   0.092   5.609  0.3051  0.4240 -0.1038
 9439SOL    HW139953   2.533   0.034   5.598 -1.8472 -2.5471  0.6322
 9439SOL    HW239954   2.485   0.173   5.566  0.2424  0.0034 -0.9303
 9440SOL     OW39955   3.668   4.021  13.687  0.0788 -0.1401 -0.0330
 9440SOL    HW139956   3.598   4.005  13.624 -0.2434  2.1663 -0.2845
 9440SOL    HW239957   3.738   4.035  13.624  0.3601 -0.4456  0.2102
 9441SOL     OW39958   1.800   2.707   3.403  0.1699 -0.1755  0.2550
 9441SOL    HW139959   1.829   2.728   3.492 -1.6194  1.8690  0.3621
 9441SOL    HW239960   1.712   2.671   3.412 -0.3236  1.1695  0.7972
 9442SOL     OW39961   0.329   1.128   3.922 -0.3854 -0.3795 -0.4607
 9442SOL    HW139962   0.406   1.071   3.915  0.0304 -0.0705  1.6517
 9442SOL    HW239963   0.366   1.215   3.941 -0.8720 -0.0066 -1.2265
 9443SOL     OW39964   4.015   1.945   0.882  0.1976 -0.0028  0.0674
 9443SOL    HW139965   4.078   1.931   0.952  1.3761  2.1058 -0.5618
 9443SOL    HW239966   4.016   2.040   0.870  0.5328 -0.0350 -0.1676
 9444SOL     OW39967   2.049   1.149   8.403 -0.2328 -0.0004  0.1834
 9444SOL    HW139968   2.054   1.240   8.372 -1.1887 -0.4112 -1.1695
 9444SOL    HW239969   2.140   1.120   8.407  0.2106  1.3402  0.0343
 9445SOL     OW39970   2.221   2.991  15.792  0.2753  0.4260  0.4392
 9445SOL    HW139971   2.146   3.036  15.754 -0.0156  0.7951  1.4707
 9445SOL    HW239972   2.286   3.046  15.747  1.1305 -0.1924  0.9052
 9446SOL     OW39973   1.165   2.059   8.689  0.0935  0.3298  0.1356
 9446SOL    HW139974   1.179   2.151   8.667  0.9145  0.4736  1.2250
 9446SOL    HW239975   1.250   2.035   8.727  1.0904  3.8611  0.1450
 9447SOL     OW39976   4.531   2.332   8.498  0.1774  0.6088  0.4945
 9447SOL    HW139977   4.465   2.269   8.469  1.9091 -1.6996  1.5924
 9447SOL    HW239978   4.592   2.334   8.425  0.3472 -1.7404  0.5838
 9448SOL     OW39979   0.411   0.206   1.705 -0.2434  0.0483 -0.1498
 9448SOL    HW139980   0.494   0.230   1.665  0.4374 -0.9824  0.6290
 9448SOL    HW239981   0.388   0.121   1.666  1.2606  0.2068 -1.3895
 9449SOL     OW39982   0.534   2.415   4.990  0.2462 -1.4132  0.0067
 9449SOL    HW139983   0.453   2.458   4.963  0.4295 -0.7064  0.5795
 9449SOL    HW239984   0.593   2.489   4.974  0.9644 -2.1458 -0.7177
 9450SOL     OW39985   0.063   2.624  16.456  0.2082 -0.1046  0.0378
 9450SOL    HW139986   0.053   2.569  16.379  1.3346  0.4289 -0.4838
 9450SOL    HW239987   0.084   2.706  16.412  1.1731 -0.7075 -0.6146
 9451SOL     OW39988   2.325   1.726   8.231 -0.6985 -0.6498 -0.0541
 9451SOL    HW139989   2.252   1.760   8.179 -0.7182 -0.1394  0.3116
 9451SOL    HW239990   2.297   1.701   8.319 -2.0900  0.7059 -0.1054
 9452SOL     OW39991   3.872   0.467   5.260  0.1032 -0.6523  0.3912
 9452SOL    HW139992   3.868   0.562   5.245  1.1711 -0.2728  2.4185
 9452SOL    HW239993   3.842   0.475   5.351  1.3231 -0.4932  0.7874
 9453SOL     OW39994   1.706   4.440   6.404  0.4503  0.2712 -0.1617
 9453SOL    HW139995   1.785   4.388   6.417 -0.0278 -0.7885 -1.6183
 9453SOL    HW239996   1.717   4.450   6.310 -0.0427  0.2411 -0.2247
 9454SOL     OW39997   0.938   2.737  10.437 -0.0279 -0.1323  0.6608
 9454SOL    HW139998   0.882   2.721  10.360  1.0303  2.1313 -0.5679
 9454SOL    HW239999   0.882   2.752  10.513 -2.0136  2.0045 -1.2219
 9455SOL     OW40000   3.274   1.403  14.130  0.6542 -0.0241 -0.9869
 9455SOL    HW140001   3.356   1.452  14.122  0.0361  1.2474  0.5983
 9455SOL    HW240002   3.218   1.466  14.175 -0.1696 -1.9610  0.7036
 9456SOL     OW40003   1.371   1.659   8.778  0.6360  0.4141 -0.1153
 9456SOL    HW140004   1.312   1.682   8.706  2.3905  0.9651 -1.3708
 9456SOL    HW240005   1.330   1.584   8.821  0.4539  0.8437  0.4648
 9457SOL     OW40006   4.477   3.836   2.510  0.4852 -0.0228 -0.1605
 9457SOL    HW140007   4.390   3.805   2.535  1.2685  0.2044  2.8280
 9457SOL    HW240008   4.478   3.924   2.548  2.6572  0.8973 -2.3018
 9458SOL     OW40009   3.182   1.179  14.791 -0.5458  0.8173 -0.0194
 9458SOL    HW140010   3.235   1.132  14.726 -2.5138  1.6222 -2.2136
 9458SOL    HW240011   3.198   1.122  14.866  1.5546  1.5051  0.0630
 9459SOL     OW40012   0.856   4.398   6.025  0.4993 -0.1717 -0.0217
 9459SOL    HW140013   0.865   4.317   6.076 -2.4139  0.1926  1.0901
 9459SOL    HW240014   0.773   4.431   6.061 -0.9342 -3.4534 -0.2233
 9460SOL     OW40015   2.909   1.993   4.606  0.0656 -0.1025  0.8573
 9460SOL    HW140016   2.950   1.938   4.672  1.9230 -1.1379 -1.1770
 9460SOL    HW240017   2.909   1.926   4.538 -1.9517  1.4022 -0.6253
 9461SOL     OW40018   1.226   0.419  13.927  0.4143 -0.6737 -0.1990
 9461SOL    HW140019   1.139   0.403  13.891  1.1917 -1.2153 -1.8164
 9461SOL    HW240020   1.204   0.385  14.014  0.1235  2.7060  1.0429
 9462SOL     OW40021   4.131   2.938   7.013  0.3931 -0.0960 -0.4351
 9462SOL    HW140022   4.097   2.965   6.928  0.2292  0.7187 -0.1091
 9462SOL    HW240023   4.069   2.983   7.070 -0.0729 -1.1655 -0.0843
 9463SOL     OW40024   3.383   3.572   4.106 -0.0715  0.1409  0.0837
 9463SOL    HW140025   3.461   3.627   4.111  0.4600 -0.6288  0.3423
 9463SOL    HW240026   3.406   3.516   4.031  0.3142  0.1110  0.2236
 9464SOL     OW40027   1.166   0.974  15.544  0.0693 -0.2535 -0.4654
 9464SOL    HW140028   1.122   0.910  15.600 -2.1784  0.4040 -1.5065
 9464SOL    HW240029   1.257   0.947  15.553  0.2753  0.0863 -1.4842
 9465SOL     OW40030   0.907   2.936   1.709 -0.4528  0.0740  0.0386
 9465SOL    HW140031   0.909   3.012   1.650  1.5945  0.1634  0.2358
 9465SOL    HW240032   0.829   2.891   1.675  0.5427  0.2200 -2.4354
 9466SOL     OW40033   3.035   3.283   5.829  0.5813  0.4908  0.5310
 9466SOL    HW140034   3.116   3.304   5.876  2.0631 -3.0538 -0.4626
 9466SOL    HW240035   3.016   3.370   5.792  0.6932  2.1041  4.2180
 9467SOL     OW40036   4.033   0.438  14.460 -0.0903 -0.3767 -0.6547
 9467SOL    HW140037   3.988   0.354  14.465 -1.2452  0.3211  0.6856
 9467SOL    HW240038   3.968   0.507  14.469 -0.5992 -1.1565  1.6626
 9468SOL     OW40039   2.943   2.281   6.911  0.0926  0.2608  0.7379
 9468SOL    HW140040   2.955   2.376   6.912 -0.4500  0.3336  0.0452
 9468SOL    HW240041   2.856   2.283   6.871  1.3986 -1.3742 -2.1785
 9469SOL     OW40042   4.658   4.134   6.084  0.3657  0.0067 -0.5457
 9469SOL    HW140043   4.581   4.174   6.126  2.2270  3.5175 -0.4947
 9469SOL    HW240044   4.708   4.213   6.067 -0.3273  0.8901  1.5130
 9470SOL     OW40045   0.667   0.707  11.608 -0.1581  0.2657 -0.1763
 9470SOL    HW140046   0.708   0.782  11.565  1.6178 -1.6516 -1.8315
 9470SOL    HW240047   0.737   0.655  11.646  1.3279  2.5068  0.1123
 9471SOL     OW40048   2.650   1.693   0.845 -0.5749  0.2298 -0.4560
 9471SOL    HW140049   2.566   1.647   0.845  0.0068 -0.8280  1.7718
 9471SOL    HW240050   2.695   1.657   0.769 -1.2049  2.5444 -1.9202
 9472SOL     OW40051   2.852   2.896  13.801 -0.2671 -0.2458 -0.3301
 9472SOL    HW140052   2.875   2.862  13.887 -0.7353  0.8055  0.2079
 9472SOL    HW240053   2.935   2.865  13.765  0.1705 -0.0724  0.5241
 9473SOL     OW40054   2.403   4.183   7.983 -0.4024 -0.4075  0.2498
 9473SOL    HW140055   2.346   4.136   7.922 -1.1283 -1.1537  1.5143
 9473SOL    HW240056   2.474   4.119   7.990 -0.6623 -0.9672 -2.0779
 9474SOL     OW40057   0.375   3.062   7.356  0.3464  1.0522 -0.2290
 9474SOL    HW140058   0.361   2.969   7.374  2.3969  0.5361 -1.2664
 9474SOL    HW240059   0.289   3.096   7.379  0.2779  1.1795 -0.6584
 9475SOL     OW40060   4.084   4.096   1.790  0.3688  0.4698 -0.5681
 9475SOL    HW140061   4.088   4.084   1.695  0.6501  0.3704 -0.5439
 9475SOL    HW240062   4.148   4.166   1.806  1.1485 -0.8177  1.9117
 9476SOL     OW40063   4.533   1.868   2.863 -0.0034  0.1202 -0.6569
 9476SOL    HW140064   4.618   1.825   2.858 -0.1577 -0.4051  1.3160
 9476SOL    HW240065   4.481   1.819   2.927 -0.5500 -2.8083 -3.3377
 9477SOL     OW40066   4.310   1.256   2.288 -0.0347 -0.3379  0.1666
 9477SOL    HW140067   4.291   1.166   2.262  2.5289 -0.8622  0.1713
 9477SOL    HW240068   4.338   1.296   2.205  0.0088  0.5992  0.6413
 9478SOL     OW40069   1.123   4.553   5.421 -0.3288 -0.1404 -0.2905
 9478SOL    HW140070   1.193   4.517   5.475 -0.6056  1.2791  1.0037
 9478SOL    HW240071   1.065   4.596   5.484  0.7330  0.4527  0.2743
 9479SOL     OW40072   4.514   1.487  12.032 -0.3083 -0.5478  0.1840
 9479SOL    HW140073   4.522   1.560  11.971  0.1786  0.0603  0.9766
 9479SOL    HW240074   4.606   1.463  12.041  0.0775  0.6053 -0.8100
 9480SOL     OW40075   4.027   2.573   3.146  0.1497 -0.6502  0.4489
 9480SOL    HW140076   4.023   2.625   3.066  1.0664 -0.0825  0.7742
 9480SOL    HW240077   3.933   2.558   3.157  0.5389 -3.3575  0.0042
 9481SOL     OW40078   3.604   2.826   4.568  0.3011  0.4252 -0.3308
 9481SOL    HW140079   3.571   2.879   4.641  0.8537 -0.3027  0.4507
 9481SOL    HW240080   3.525   2.783   4.536  0.5852  1.2074 -2.0526
 9482SOL     OW40081   2.035   2.649   8.684 -0.4582 -0.6697 -0.1699
 9482SOL    HW140082   2.062   2.695   8.605 -0.9342 -0.1424 -0.0259
 9482SOL    HW240083   1.943   2.634   8.660 -1.3125  1.1950  1.8656
 9483SOL     OW40084   2.551   3.049   8.339 -0.0714  0.6439 -0.4387
 9483SOL    HW140085   2.564   3.142   8.355  0.7819  0.3177  0.7526
 9483SOL    HW240086   2.554   3.050   8.244  1.7511  0.0315 -0.3896
 9484SOL     OW40087   2.530   3.454   2.030  0.9968 -0.2497  0.2422
 9484SOL    HW140088   2.604   3.401   2.061  1.6538  0.2781 -0.4226
 9484SOL    HW240089   2.470   3.424   2.098  1.8777  0.4053  1.3141
 9485SOL     OW40090   2.149   3.733   0.085  0.0956  0.4145 -0.1254
 9485SOL    HW140091   2.233   3.776   0.095  0.7177 -0.8907  0.2331
 9485SOL    HW240092   2.183   3.662   0.031 -0.4782 -0.4040  0.6027
 9486SOL     OW40093   4.452   3.762   7.378  0.4590 -0.7858 -0.2519
 9486SOL    HW140094   4.439   3.717   7.294 -0.1542  1.6631 -1.4818
 9486SOL    HW240095   4.420   3.842   7.336  1.8191  0.9159  1.9484
 9487SOL     OW40096   1.895   2.211  11.825 -0.1201  0.5730  0.5992
 9487SOL    HW140097   1.918   2.288  11.772 -0.5816 -0.9513 -1.7892
 9487SOL    HW240098   1.975   2.184  11.870  0.2239  2.2094  0.9737
 9488SOL     OW40099   1.595   0.486  15.203 -0.3522  0.3721 -0.1311
 9488SOL    HW140100   1.536   0.547  15.159 -0.5460 -0.6141 -1.2442
 9488SOL    HW240101   1.547   0.403  15.199  3.3669 -1.8456  1.2360
 9489SOL     OW40102   0.430   4.699   6.382 -0.4581 -0.2557  0.5800
 9489SOL    HW140103   0.503   4.638   6.397  0.5307  0.3843 -1.6290
 9489SOL    HW240104   0.381   4.684   6.463  0.6203 -1.7127  0.9792
 9490SOL     OW40105   1.649   4.726   8.860  0.1173 -0.2619 -0.1704
 9490SOL    HW140106   1.688   4.650   8.906 -1.8007 -1.2584 -0.2026
 9490SOL    HW240107   1.564   4.690   8.834  0.2110 -0.6258  0.0200
 9491SOL     OW40108   3.105   4.228   5.977  0.6404  0.0544 -0.0139
 9491SOL    HW140109   3.058   4.311   5.968  2.4913  1.5226  3.6942
 9491SOL    HW240110   3.114   4.236   6.072  0.2721  1.0669 -0.0661
 9492SOL     OW40111   1.031   0.853  14.100 -0.3736  0.0374  0.0760
 9492SOL    HW140112   0.977   0.805  14.037 -0.0334 -1.3910  0.8619
 9492SOL    HW240113   1.037   0.791  14.173  0.0101  2.7775  2.3634
 9493SOL     OW40114   3.101   2.085   1.396  0.6937 -0.5729 -0.1309
 9493SOL    HW140115   3.035   2.060   1.331 -0.2539  2.2905 -0.2440
 9493SOL    HW240116   3.034   2.116   1.457 -0.9660 -0.7586 -1.8410
 9494SOL     OW40117   2.260   3.220   9.650 -0.1727  0.4495  0.0803
 9494SOL    HW140118   2.246   3.193   9.741 -2.5428  0.5912 -0.2423
 9494SOL    HW240119   2.229   3.144   9.602 -2.5176  1.1211  0.5693
 9495SOL     OW40120   2.727   3.370   6.303 -0.3836 -0.2116 -0.0367
 9495SOL    HW140121   2.746   3.453   6.258  1.4278  0.0246  1.1922
 9495SOL    HW240122   2.815   3.333   6.302 -0.1024  0.4759 -1.2854
 9496SOL     OW40123   1.544   0.841  15.026 -0.9787 -0.6589 -0.0914
 9496SOL    HW140124   1.601   0.802  14.960  0.2200 -0.9789  1.1212
 9496SOL    HW240125   1.485   0.889  14.967 -0.1670  0.5598  0.0897
 9497SOL     OW40126   0.111   2.822  16.243 -0.2310 -0.6417  0.0011
 9497SOL    HW140127   0.186   2.881  16.252  0.1968 -0.8454 -2.1309
 9497SOL    HW240128   0.087   2.830  16.151  0.8332  0.3256 -0.2003
 9498SOL     OW40129   4.209   4.494   6.990 -0.5376  0.1973  0.0404
 9498SOL    HW140130   4.155   4.435   7.043  1.3927 -1.0794  0.5800
 9498SOL    HW240131   4.140   4.522   6.931  0.5472  2.7723 -0.0039
 9499SOL     OW40132   0.967   2.478  12.270 -0.4256 -0.7158  0.0681
 9499SOL    HW140133   1.057   2.457  12.295  0.1353 -0.3967 -1.6671
 9499SOL    HW240134   0.937   2.390  12.247 -0.6294 -0.3506 -1.0368
 9500SOL     OW40135   2.126   1.700  12.033  0.0978  0.1745  0.0392
 9500SOL    HW140136   2.133   1.740  11.946 -0.1570 -2.2902 -1.1121
 9500SOL    HW240137   2.030   1.692  12.034  0.1700 -1.0840 -3.3945
 9501SOL     OW40138   4.399   1.114   4.462 -0.3689 -0.2922 -0.2918
 9501SOL    HW140139   4.356   1.030   4.473 -0.4203 -0.0200  1.6993
 9501SOL    HW240140   4.386   1.125   4.368  0.9719 -0.6063 -0.5070
 9502SOL     OW40141   3.680   3.917   1.748  0.0011  0.0061 -0.1471
 9502SOL    HW140142   3.656   3.874   1.830  0.0256 -0.2205 -0.2587
 9502SOL    HW240143   3.607   3.976   1.731 -2.0584 -2.3166  0.6352
 9503SOL     OW40144   2.100   3.634   7.949  0.2401  0.0026  0.4719
 9503SOL    HW140145   2.043   3.563   7.979 -0.9852  1.2792  1.1956
 9503SOL    HW240146   2.097   3.702   8.016 -0.9949 -0.5382  0.9634
 9504SOL     OW40147   0.356   1.128  10.639  0.2564  0.1702 -0.1598
 9504SOL    HW140148   0.440   1.129  10.685 -0.3461 -0.0641  0.9422
 9504SOL    HW240149   0.377   1.124  10.546 -1.9500  0.0846 -0.6560
 9505SOL     OW40150   3.293   3.741   3.445 -0.2616 -0.4616 -0.5001
 9505SOL    HW140151   3.271   3.828   3.414 -1.0020  0.5818  2.9649
 9505SOL    HW240152   3.347   3.766   3.519 -2.2926 -1.2352  1.2524
 9506SOL     OW40153   3.232   0.989  14.367  0.3869  0.2321  0.5321
 9506SOL    HW140154   3.252   1.015  14.457  1.3592  0.1078  0.3527
 9506SOL    HW240155   3.180   0.915  14.399  0.1353 -0.3470 -1.2298
 9507SOL     OW40156   1.325   4.137   4.590 -0.3156 -0.3820 -0.3325
 9507SOL    HW140157   1.284   4.221   4.612 -1.8474 -1.1765 -0.1693
 9507SOL    HW240158   1.343   4.143   4.497  0.9162  1.1044 -0.0107
 9508SOL     OW40159   4.314   1.074   5.321  0.0768  0.0618  0.3055
 9508SOL    HW140160   4.297   1.019   5.398 -0.0761  0.8658  0.8430
 9508SOL    HW240161   4.311   1.165   5.350 -0.0822 -0.1994  1.1160
 9509SOL     OW40162   1.303   4.539  11.928 -0.0031 -0.5330 -0.3820
 9509SOL    HW140163   1.348   4.455  11.916 -0.0142 -0.4306 -1.1712
 9509SOL    HW240164   1.366   4.589  11.877  0.0111 -1.5234 -1.3401
 9510SOL     OW40165   3.600   3.957  15.904 -0.0185  0.2287 -0.8987
 9510SOL    HW140166   3.685   3.947  15.948  0.8267  0.1173 -2.5388
 9510SOL    HW240167   3.619   4.013  15.828 -0.7613  0.3620 -0.9807
 9511SOL     OW40168   3.161   4.150  16.104 -0.0697 -1.1738  0.1372
 9511SOL    HW140169   3.250   4.157  16.068 -0.8757 -3.5941 -2.2685
 9511SOL    HW240170   3.163   4.090  16.179  1.6823 -1.4548 -0.1356
 9512SOL     OW40171   4.336   3.582  14.794  0.3926  0.3104 -1.1039
 9512SOL    HW140172   4.420   3.553  14.757  1.8281  0.0878  2.2721
 9512SOL    HW240173   4.347   3.599  14.888 -0.8703  1.8704 -1.2537
 9513SOL     OW40174   4.304   2.003   6.589  0.0957  0.2531  0.0880
 9513SOL    HW140175   4.320   2.094   6.614  1.6753  1.1739 -4.3411
 9513SOL    HW240176   4.357   1.958   6.654  1.5383 -1.2125 -2.1250
 9514SOL     OW40177   2.359   0.960   8.926 -0.3558 -0.3638  0.7253
 9514SOL    HW140178   2.367   1.020   8.852  0.1785  1.0120  1.8791
 9514SOL    HW240179   2.265   0.941   8.923 -0.2381 -0.9095  0.5407
 9515SOL     OW40180   3.360   2.845  10.096  0.0409  0.5528  0.5186
 9515SOL    HW140181   3.415   2.828  10.021 -0.3900 -0.9100  0.5315
 9515SOL    HW240182   3.426   2.853  10.165  0.8684  1.4938 -0.3883
 9516SOL     OW40183   4.227   1.861  11.962 -0.3420  0.5217  0.7257
 9516SOL    HW140184   4.132   1.876  11.964 -0.3150  0.6740  0.9181
 9516SOL    HW240185   4.258   1.890  12.048  0.8281  0.3354  0.3635
 9517SOL     OW40186   2.267   4.650   3.486  0.4446  0.0964 -0.2370
 9517SOL    HW140187   2.192   4.670   3.541  1.0512 -1.7196  1.2748
 9517SOL    HW240188   2.301   4.737   3.466 -0.5827  0.7328  0.8503
 9518SOL     OW40189   0.347   0.016   3.404  0.1385  0.2554 -0.4446
 9518SOL    HW140190   0.401   0.052   3.334  1.1040  1.0657  0.7044
 9518SOL    HW240191   0.263   0.059   3.388 -1.4550 -2.7055  0.0298
 9519SOL     OW40192   2.393   1.508   4.645 -0.6615 -0.0134  0.0425
 9519SOL    HW140193   2.472   1.545   4.604  0.1895 -1.1702  0.6397
 9519SOL    HW240194   2.326   1.575   4.633 -0.9213 -0.4842 -1.1023
 9520SOL     OW40195   2.408   4.153   8.664 -0.1475  0.1380  0.1220
 9520SOL    HW140196   2.367   4.187   8.743 -0.8017 -1.9829  0.7147
 9520SOL    HW240197   2.430   4.233   8.616  0.1290 -0.3167 -0.5133
 9521SOL     OW40198   3.349   1.288   8.649  0.9468  0.1867  0.3064
 9521SOL    HW140199   3.316   1.264   8.735 -1.4044  1.1843 -0.3176
 9521SOL    HW240200   3.444   1.278   8.660  0.9807 -0.0066 -0.1683
 9522SOL     OW40201   4.009   2.433  13.305  0.1994 -0.3211  0.0654
 9522SOL    HW140202   4.032   2.345  13.334  2.2050  0.4691  0.8528
 9522SOL    HW240203   4.044   2.497  13.367  1.9229 -0.6438 -0.5719
 9523SOL     OW40204   0.731   4.165   0.146 -0.1396 -0.6598 -0.7025
 9523SOL    HW140205   0.799   4.125   0.201  1.3956  2.8478 -0.0098
 9523SOL    HW240206   0.761   4.256   0.141  1.1727 -1.1080 -1.0834
 9524SOL     OW40207   0.200   3.218   7.789  0.2041  0.2976 -0.6782
 9524SOL    HW140208   0.110   3.190   7.806  1.1105 -1.7564  0.8913
 9524SOL    HW240209   0.180   3.308   7.766 -2.8215  0.3651  2.1006
 9525SOL     OW40210   2.633   0.700   1.700  0.2641 -0.3194 -0.1472
 9525SOL    HW140211   2.575   0.657   1.636 -0.3358 -0.7382  0.6790
 9525SOL    HW240212   2.617   0.788   1.666 -3.2436  0.4597  3.4304
 9526SOL     OW40213   2.494   2.106   7.338  0.0628 -0.1353  0.0402
 9526SOL    HW140214   2.547   2.052   7.280 -0.7652 -1.4460  0.4929
 9526SOL    HW240215   2.545   2.113   7.418  1.9421  1.9583 -1.3390
 9527SOL     OW40216   1.286   1.992   7.633 -0.1546  0.2228  0.0119
 9527SOL    HW140217   1.251   1.967   7.719 -1.4497 -0.6561 -0.7754
 9527SOL    HW240218   1.212   1.975   7.575 -2.5822 -0.4231  3.3127
 9528SOL     OW40219   2.333   2.707   0.845  0.3819 -0.4698 -0.1605
 9528SOL    HW140220   2.327   2.736   0.754  0.9176  1.8315  0.5309
 9528SOL    HW240221   2.241   2.691   0.867  0.6342 -0.2471  1.0648
 9529SOL     OW40222   1.908   1.873   4.101 -0.0041 -0.1673 -0.3611
 9529SOL    HW140223   1.959   1.927   4.041  2.0170 -1.7877 -0.1049
 9529SOL    HW240224   1.866   1.929   4.166 -0.6871 -0.0097 -0.9310
 9530SOL     OW40225   2.142   0.275  11.925  0.0725 -0.3589 -0.4716
 9530SOL    HW140226   2.053   0.247  11.906 -0.5775  0.2310  1.7215
 9530SOL    HW240227   2.176   0.207  11.983 -2.0898 -1.6078 -0.7046
 9531SOL     OW40228   3.978   1.235  14.808 -0.4615  0.0107 -0.0066
 9531SOL    HW140229   3.914   1.270  14.746 -0.1801  1.9129  0.7625
 9531SOL    HW240230   3.940   1.151  14.834  0.5119 -0.5968 -0.5156
 9532SOL     OW40231   3.673   3.446   9.294  0.7512 -0.0504 -0.6843
 9532SOL    HW140232   3.732   3.498   9.348 -0.9264  0.6702  0.4439
 9532SOL    HW240233   3.662   3.487   9.208  2.4866 -1.5337 -1.6243
 9533SOL     OW40234   2.511   2.395  12.873  0.0068 -1.1462  0.1896
 9533SOL    HW140235   2.445   2.330  12.847 -1.2924 -0.0309  0.7014
 9533SOL    HW240236   2.499   2.402  12.967 -0.3177 -0.8586  0.1243
 9534SOL     OW40237   1.309   2.035   3.613 -0.0975  0.3598 -0.1868
 9534SOL    HW140238   1.299   1.940   3.617  1.2589  0.2125 -0.1320
 9534SOL    HW240239   1.250   2.077   3.675  1.1837 -1.2724  2.1538
 9535SOL     OW40240   2.930   1.579  11.352 -0.4337 -0.0656  0.3932
 9535SOL    HW140241   2.879   1.544  11.280  0.0236 -1.2803  0.6599
 9535SOL    HW240242   2.903   1.670  11.362  0.2622  0.3246 -1.3336
 9536SOL     OW40243   2.139   0.496   4.254  0.1730  0.2106  0.0642
 9536SOL    HW140244   2.169   0.583   4.229  2.1399 -0.0731  1.3905
 9536SOL    HW240245   2.047   0.495   4.226  0.7758 -1.5504 -1.8237
 9537SOL     OW40246   2.416   1.404   3.620  0.5417 -0.0505  0.6826
 9537SOL    HW140247   2.325   1.435   3.623  0.1370 -0.9736 -2.3188
 9537SOL    HW240248   2.445   1.441   3.704  3.4629 -1.2496  0.1900
 9538SOL     OW40249   0.717   0.318  14.454 -0.7202  0.0806  0.3203
 9538SOL    HW140250   0.644   0.269  14.416  0.0831  0.8553 -2.1896
 9538SOL    HW240251   0.798   0.280  14.420  0.6317  0.8667  2.6776
 9539SOL     OW40252   3.305   2.416   0.728  0.3039  0.0308  0.1148
 9539SOL    HW140253   3.365   2.441   0.658 -0.4795  0.7026 -0.3188
 9539SOL    HW240254   3.217   2.437   0.695 -0.5223  0.2328  2.4899
 9540SOL     OW40255   0.806   1.321   7.149  0.0428 -0.0169  0.3209
 9540SOL    HW140256   0.736   1.386   7.145 -0.6858 -0.8622 -0.8064
 9540SOL    HW240257   0.825   1.306   7.056  0.6742  0.0767  0.4385
 9541SOL     OW40258   0.028   4.233  16.295  0.4892  0.4300 -0.3429
 9541SOL    HW140259   4.672   4.228  16.280  0.5732  2.9235 -1.7658
 9541SOL    HW240260   0.046   4.299  16.228 -0.3273  0.6361 -0.3702
 9542SOL     OW40261   1.723   1.803   0.096 -0.0499  0.4732  0.4236
 9542SOL    HW140262   1.805   1.793   0.144  0.9848  1.9308 -1.0395
 9542SOL    HW240263   1.753   1.847   0.016 -0.9281  0.3520  0.0232
 9543SOL     OW40264   2.149   1.659   4.224 -0.1826 -0.7420 -0.3988
 9543SOL    HW140265   2.066   1.647   4.179 -0.2876 -1.1106 -0.1058
 9543SOL    HW240266   2.120   1.629   4.310 -1.5642  1.6158 -0.0396
 9544SOL     OW40267   4.487   1.846   6.395 -0.2167 -0.0999  0.0130
 9544SOL    HW140268   4.404   1.872   6.437 -1.1541 -2.1184 -0.5714
 9544SOL    HW240269   4.475   1.754   6.373 -0.7591  1.1131 -4.7908
 9545SOL     OW40270   3.607   0.904   2.815 -0.0148 -0.7121  0.9350
 9545SOL    HW140271   3.572   0.835   2.872 -0.4903 -0.5253  0.8721
 9545SOL    HW240272   3.619   0.860   2.731  0.3533 -0.3671  0.8116
 9546SOL     OW40273   0.340   4.047   1.570  0.0392  0.8648 -0.1489
 9546SOL    HW140274   0.383   3.978   1.521 -0.7718 -0.7776  1.4221
 9546SOL    HW240275   0.417   4.077   1.618 -0.3118  2.4336 -0.5602
 9547SOL     OW40276   2.972   4.360  14.448 -0.2015 -0.1370 -0.4100
 9547SOL    HW140277   2.966   4.294  14.379 -0.7463 -1.9913  1.4598
 9547SOL    HW240278   2.956   4.436  14.390 -1.9230  0.8048  1.3103
 9548SOL     OW40279   3.883   0.936   9.146 -0.2969 -0.8422  0.1430
 9548SOL    HW140280   3.906   0.881   9.221 -0.5494  1.1473  1.6684
 9548SOL    HW240281   3.870   0.869   9.078  0.0403 -1.5734  0.7933
 9549SOL     OW40282   2.167   2.765  10.047 -0.5474 -0.5327 -0.0808
 9549SOL    HW140283   2.178   2.815   9.967  1.6053  0.2428  0.7121
 9549SOL    HW240284   2.261   2.755  10.060 -0.3167  2.9396  1.1375
 9550SOL     OW40285   2.896   0.549   8.391  0.3497  0.2511  0.2438
 9550SOL    HW140286   2.990   0.560   8.404  0.1982  2.1972 -0.3176
 9550SOL    HW240287   2.872   0.618   8.329  0.6233 -0.1420 -0.2888
 9551SOL     OW40288   0.668   3.894   7.253  0.2434 -0.0017  0.2201
 9551SOL    HW140289   0.709   3.882   7.339  0.7380 -0.9468 -0.1450
 9551SOL    HW240290   0.591   3.841   7.272 -0.8157  1.5755  0.3112
 9552SOL     OW40291   1.327   3.913  16.338  0.0567  0.1822  0.0254
 9552SOL    HW140292   1.349   3.974  16.409  0.7319 -0.3137  0.2363
 9552SOL    HW240293   1.247   3.962  16.318 -0.0674 -0.7205 -1.6054
 9553SOL     OW40294   2.710   2.864   0.258  0.6977 -0.4640  0.3906
 9553SOL    HW140295   2.791   2.858   0.207  0.7433 -1.7458  0.6127
 9553SOL    HW240296   2.645   2.880   0.190  0.7745  0.3182  0.4916
 9554SOL     OW40297   1.547   1.119   1.861  0.0582 -0.1678 -0.1448
 9554SOL    HW140298   1.543   1.132   1.956 -1.0363  1.8376 -0.4634
 9554SOL    HW240299   1.487   1.192   1.846  1.1157  0.8206  0.3474
 9555SOL     OW40300   2.037   2.688  15.430 -0.8353 -0.6716 -0.2283
 9555SOL    HW140301   1.990   2.729  15.357 -0.1589 -0.3720 -0.4980
 9555SOL    HW240302   2.093   2.625  15.384 -0.5906 -1.4431  1.1291
 9556SOL     OW40303   0.333   2.632   6.067 -0.0569  0.4493 -0.0975
 9556SOL    HW140304   0.367   2.681   6.141 -2.1916  2.5508 -0.5193
 9556SOL    HW240305   0.412   2.622   6.013 -1.5474  1.7010 -2.4886
 9557SOL     OW40306   3.566   4.507   4.892 -0.1843 -0.5607 -0.2484
 9557SOL    HW140307   3.488   4.480   4.940 -0.2893 -0.3602 -0.3066
 9557SOL    HW240308   3.637   4.480   4.951 -1.2359 -0.2405  1.1602
 9558SOL     OW40309   4.378   1.173   3.663 -0.0983 -0.7957 -0.0143
 9558SOL    HW140310   4.472   1.165   3.680 -0.6851 -1.7936  2.7189
 9558SOL    HW240311   4.362   1.260   3.626 -0.3166 -0.2192  1.4382
 9559SOL     OW40312   3.403   2.749   6.245 -0.5402  0.6706 -0.1935
 9559SOL    HW140313   3.375   2.773   6.333  1.0792 -1.3357  0.8851
 9559SOL    HW240314   3.491   2.724   6.273 -1.3654 -1.0629  0.8547
 9560SOL     OW40315   3.161   4.559   9.408 -0.2811 -0.1292 -0.0699
 9560SOL    HW140316   3.248   4.550   9.370  1.3009  1.2882  3.2251
 9560SOL    HW240317   3.183   4.640   9.454 -3.1437  0.5585  0.0848
 9561SOL     OW40318   4.396   1.427   8.799 -0.7079 -0.4301 -0.0735
 9561SOL    HW140319   4.487   1.398   8.785 -0.3116 -1.0340  3.6833
 9561SOL    HW240320   4.347   1.349   8.824 -1.0158 -0.4475 -0.7372
 9562SOL     OW40321   1.579   2.704  12.476  0.2778 -0.3250 -0.1871
 9562SOL    HW140322   1.651   2.762  12.452  0.2913 -0.7986 -1.3277
 9562SOL    HW240323   1.507   2.765  12.488  0.5011  0.1455 -1.2638
 9563SOL     OW40324   0.786   0.902   3.149  0.0399  0.4239 -0.6387
 9563SOL    HW140325   0.720   0.834   3.134  1.0234 -1.0160  1.6008
 9563SOL    HW240326   0.740   0.966   3.204  0.8390  1.3450 -1.0572
 9564SOL     OW40327   1.185   1.883   1.819 -0.2738  0.6262 -0.0871
 9564SOL    HW140328   1.146   1.956   1.867 -0.6389 -0.4025  1.1959
 9564SOL    HW240329   1.111   1.847   1.771  0.8657 -0.5302 -0.9970
 9565SOL     OW40330   3.802   0.497   4.038 -0.6072  0.6091  0.1845
 9565SOL    HW140331   3.727   0.532   3.989 -0.0731  1.4949  0.0045
 9565SOL    HW240332   3.873   0.508   3.975 -1.1768  1.3386 -0.3237
 9566SOL     OW40333   0.283   0.780   9.564  0.4739 -0.3043 -0.1955
 9566SOL    HW140334   0.230   0.731   9.502 -0.2442 -1.5097  1.3827
 9566SOL    HW240335   0.274   0.726   9.643 -1.6967 -0.7988 -0.7923
 9567SOL     OW40336   1.758   1.146   2.905 -0.0959 -0.3204  0.0677
 9567SOL    HW140337   1.801   1.221   2.948  2.0593 -1.9666  0.8098
 9567SOL    HW240338   1.761   1.081   2.976  0.9710 -0.4389 -0.0775
 9568SOL     OW40339   0.316   4.315  17.470 -0.3236  0.3493 -0.1577
 9568SOL    HW140340   0.321   4.220  17.481  1.3540  0.3984 -0.5857
 9568SOL    HW240341   0.347   4.341  17.557 -2.2736  0.3268  0.5609
 9569SOL     OW40342   3.460   0.232  14.964 -0.1875 -0.5286  0.4191
 9569SOL    HW140343   3.404   0.202  14.893  0.1199 -2.4393  0.9953
 9569SOL    HW240344   3.448   0.158  15.022  1.2261  0.3242  1.8099
   4.73908   4.73908  17.75415
