Membrane in water
40344
    1TMC1    C1    1   2.584   2.665  10.948  0.4952 -0.2734 -0.5494
    1TMC1    C2    2   2.625   2.757  11.042 -0.4557 -0.0322 -0.1194
    1TMC1    C3    3   2.719   2.837  11.001  0.1239 -0.3072  0.6694
    1TMC1    C4    4   2.631   2.659  10.820 -0.5142 -0.4277 -0.4379
    1TMC1    C5    5   2.721   2.756  10.790 -0.7469  0.7298  0.1793
    1TMC1    C6    6   2.767   2.842  10.877 -0.4051  0.2015 -0.1029
    1TMC1     C    7   2.528   2.537  11.004  0.0148  0.7220 -0.7671
    1TMC1     O    8   2.541   2.510  11.125 -0.3343 -0.1600  0.0546
    1TMC1     H    9   2.590   2.748  11.144  1.7927 -0.7200  0.5804
    1TMC1    H1   10   2.606   2.580  10.751  0.2840 -1.3277  0.3122
    1TMC1    H2   11   2.813   2.937  10.854 -0.0887 -0.0419 -0.4732
    1TMC1    C7   12   2.762   2.760  10.648 -0.1616 -0.3358  0.0299
    1TMC1    C8   13   2.783   2.925  11.101  0.4300  0.4497 -0.5852
    1TMC1    O1   14   2.694   2.703  10.567  0.2166  0.2585 -0.2929
    1TMC1    O2   15   2.906   2.933  11.112  0.9302  0.3998  0.6628
    1TMC1    O3   16   2.896   2.770  10.637 -0.7555  0.3200 -0.0350
    1TMC1    H3   17   2.932   2.835  10.701  0.8352 -0.7721  0.2020
    1TMC1    O5   18   2.687   2.985  11.170  0.0884  0.6750 -0.0373
    1TMC1    H5   19   2.594   2.958  11.155  0.2804  0.4653 -0.8376
    2MPD2     C   20   2.171   2.155  10.971  0.0500 -0.4356  0.4725
    2MPD2    C1   21   2.232   2.207  11.082  0.5361 -0.6494 -0.3179
    2MPD2    C2   22   2.325   2.315  11.066  0.9680 -0.0247  0.1796
    2MPD2    C3   23   2.348   2.375  10.942 -0.3092 -0.6848  0.9355
    2MPD2    C4   24   2.275   2.327  10.832 -0.1654 -0.3587  0.8427
    2MPD2    C5   25   2.186   2.223  10.850 -1.0477  0.1374  0.4027
    2MPD2     H   26   2.381   2.353  11.150 -0.7231  0.8793  0.9142
    2MPD2    H1   27   2.285   2.366  10.731  0.6776 -0.5989  0.8334
    2MPD2    H2   28   2.111   2.066  10.978  0.1455 -0.5867 -0.5972
    2MPD2    H3   29   2.140   2.178  10.762  1.9032 -2.7036  0.2997
    2MPD2     N   30   2.431   2.489  10.920 -0.0873  0.0798  0.2943
    2MPD2    H5   31   2.419   2.535  10.830 -1.5527 -0.3120  0.3005
    2MPD2    N1   32   2.209   2.149  11.211  0.0056  0.1327 -0.3242
    2MPD2    H7   33   2.251   2.207  11.282  1.0325 -2.5427  1.2413
    3TMC1    C1   34   1.016   3.317  10.724  0.0504  0.0160  0.2771
    3TMC1    C2   35   0.899   3.385  10.696 -0.1166 -0.0997  0.1478
    3TMC1    C3   36   0.844   3.379  10.569  0.0173 -0.7325  0.2159
    3TMC1    C4   37   1.077   3.238  10.628  0.5266  0.5210  0.4341
    3TMC1    C5   38   1.017   3.249  10.506  0.4919 -0.4015  0.0911
    3TMC1    C6   39   0.896   3.304  10.472 -0.0125 -0.7311 -0.3231
    3TMC1     C   40   1.086   3.332  10.847 -0.5833 -0.4088 -0.3043
    3TMC1     O   41   1.197   3.282  10.850  0.0794  0.2445 -0.7495
    3TMC1     H   42   0.847   3.442  10.772 -0.0951 -0.8960  0.7553
    3TMC1    H1   43   1.164   3.177  10.649  1.2996  0.6395 -2.4373
    3TMC1    H2   44   0.848   3.302  10.375  4.3818  0.6659 -2.5352
    3TMC1    C7   45   1.091   3.171  10.409  1.2793 -0.1337 -0.1737
    3TMC1    C8   46   0.712   3.434  10.548 -0.1724  0.0746  0.3226
    3TMC1    O1   47   1.155   3.067  10.427 -0.3977 -0.2925  0.3923
    3TMC1    O2   48   0.641   3.380  10.459 -0.0445 -0.1948  0.1655
    3TMC1    O3   49   1.060   3.220  10.283 -0.5998 -0.0706 -0.5667
    3TMC1    H3   50   1.023   3.309  10.301 -0.4765  0.0509 -0.9026
    3TMC1    O5   51   0.720   3.562  10.572  0.4108  0.1867  0.4013
    3TMC1    H5   52   0.783   3.568  10.647  1.1304 -0.8715 -0.1208
    4MPD2     C   53   1.140   3.424  11.344 -0.0925 -0.2377  0.7457
    4MPD2    C1   54   1.037   3.503  11.303 -0.4682 -0.2986 -0.2397
    4MPD2    C2   55   1.002   3.498  11.166  0.5903  1.2073 -0.2473
    4MPD2    C3   56   1.076   3.423  11.075  0.4043  0.0202 -0.0016
    4MPD2    C4   57   1.179   3.344  11.126  0.4259 -0.5945 -0.3384
    4MPD2    C5   58   1.220   3.355  11.255  0.0382  0.1831 -0.0001
    4MPD2     H   59   0.913   3.545  11.128 -0.1836  1.0382  1.3448
    4MPD2    H1   60   1.234   3.268  11.072  1.5106  1.3169 -1.9016
    4MPD2    H2   61   1.186   3.423  11.443  1.3787  0.8716  0.0780
    4MPD2    H3   62   1.307   3.306  11.298 -0.5190 -1.3302 -0.6111
    4MPD2     N   63   1.026   3.405  10.942  0.3394 -0.5465  0.9364
    4MPD2    H5   64   0.933   3.446  10.936 -0.2460 -1.7452  1.8054
    4MPD2    N1   65   0.955   3.579  11.391  0.1251 -0.4525 -0.1995
    4MPD2    H7   66   0.881   3.631  11.346  2.5800  1.7020 -1.7127
    5TCq1    O1   67   1.737   0.229  12.477 -0.1178 -0.2921 -0.1256
    5TCq1    C1   68   1.707   0.159  12.368 -0.2840  0.9314 -0.4458
    5TCq1    O2   69   1.786   0.088  12.306 -0.4749  0.0743 -0.1202
    5TCq1    C2   70   1.607   0.234  12.301 -0.2627 -0.6642  0.0276
    5TCq1    C3   71   1.487   0.274  12.365 -0.0831 -0.8902  0.1720
    5TCq1    C4   72   1.384   0.318  12.285 -0.7465  0.1611 -0.1243
    5TCq1    C5   73   1.398   0.309  12.150  0.1072  0.2375 -0.3862
    5TCq1    C6   74   1.517   0.270  12.091  0.1162  0.1105 -0.5901
    5TCq1    C7   75   1.623   0.235  12.168  0.4769  0.2448  0.3702
    5TCq1    C8   76   1.519   0.228  11.954  0.4847  0.3930  0.4181
    5TCq1    O4   77   1.626   0.183  11.914 -0.0563  0.6389 -0.0165
    5TCq1    C9   78   1.256   0.352  12.342  0.4491  0.1530 -0.1609
    5TCq1    O5   79   1.155   0.317  12.278  0.6113  0.2337 -0.1360
    5TCq1    O6   80   1.256   0.389  12.459  0.4407  0.3833  0.2332
    5TCq1    H1   81   1.660   0.288  12.494 -0.9465 -1.0297 -1.3266
    5TCq1    H2   82   1.475   0.278  12.473  0.7812  1.4908  0.1617
    5TCq1    H3   83   1.307   0.343  12.101 -0.7890  0.2985  1.2847
    5TCq1    H4   84   1.714   0.199  12.121  1.1630 -2.2536  3.6221
    6MPD2     C   85   1.235   0.232  11.726  0.0884  0.1409  0.1895
    6MPD2    C1   86   1.364   0.225  11.759 -0.3104  0.3696 -0.6405
    6MPD2    C2   87   1.467   0.235  11.659 -0.1664  0.5754 -0.0094
    6MPD2    C3   88   1.430   0.244  11.528  0.3082  1.0024  0.1671
    6MPD2    C4   89   1.299   0.257  11.496 -0.9849 -0.2557  0.5707
    6MPD2    C5   90   1.207   0.237  11.590 -0.4499  0.2262  0.1223
    6MPD2     H   91   1.572   0.243  11.684 -0.6559  0.0008  2.2074
    6MPD2    H1   92   1.265   0.281  11.396  0.8284  0.3482  0.1173
    6MPD2    H2   93   1.148   0.219  11.789  0.3011  1.7303  0.8202
    6MPD2    H3   94   1.103   0.241  11.559 -0.3612 -0.2001 -0.2293
    6MPD2     N   95   1.531   0.237  11.428  0.1623 -0.0423 -0.0990
    6MPD2    H5   96   1.626   0.242  11.464  0.4879 -3.7523 -0.5093
    6MPD2    N1   97   1.394   0.231  11.896  0.5551 -0.0315  0.2385
    6MPD2    H7   98   1.316   0.243  11.960  0.7733  1.3994  0.2375
    7TCq1    O1   99   3.267   4.684  13.576  0.6264 -0.7422 -0.3289
    7TCq1    C1  100   3.393   4.673  13.617 -0.0050  0.5168 -0.6569
    7TCq1    O2  101   3.426   4.665  13.734 -0.3341  0.4039  1.1510
    7TCq1    C2  102   3.472   4.650  13.503 -1.0806  0.2203  1.0003
    7TCq1    C3  103   3.459   4.730  13.387  0.4224  0.0821  0.3184
    7TCq1    C4  104   3.533   4.702  13.276  0.3873  0.0665  0.3694
    7TCq1    C5  105   3.634   4.616  13.287  0.7193  0.0564  0.5911
    7TCq1    C6  106   3.646   4.544  13.400  0.2997  0.3746  0.3501
    7TCq1    C7  107   3.571   4.558  13.515  0.2920 -0.3108  0.7161
    7TCq1    C8  108   3.746   4.445  13.405  0.0350 -0.4510  0.3263
    7TCq1    O4  109   3.734   4.357  13.489 -0.1211  0.6301  0.4471
    7TCq1    C9  110   3.515   0.037  13.144 -0.0383 -0.1395  0.2688
    7TCq1    O5  111   3.444   0.139  13.150 -0.7729 -0.4268  0.2374
    7TCq1    O6  112   3.601   0.014  13.053  0.8667  0.0109  0.1223
    7TCq1    H1  113   3.249   4.662  13.482  0.5301 -2.5152  0.0998
    7TCq1    H2  114   3.380   0.070  13.384 -1.0753 -1.4939  0.4767
    7TCq1    H3  115   3.680   4.584  13.194 -0.2861 -0.5752  0.3093
    7TCq1    H4  116   3.586   4.490  13.599 -1.7262 -2.9650 -1.0793
    8MPD2     C  117   4.214   4.275  13.239 -0.6477 -0.4412  0.0948
    8MPD2    C1  118   4.126   4.209  13.323 -0.6925  0.4120  0.2375
    8MPD2    C2  119   4.005   4.272  13.352  0.3464 -0.2241  0.0804
    8MPD2    C3  120   3.976   4.398  13.296  0.1843  0.4982  0.4598
    8MPD2    C4  121   4.063   4.460  13.211 -0.0396  0.2195  0.4288
    8MPD2    C5  122   4.183   4.399  13.194 -0.7938  0.1927  0.3369
    8MPD2     H  123   3.937   4.216  13.415 -0.8387 -0.9950 -1.8848
    8MPD2    H1  124   4.048   4.564  13.183 -1.1750 -0.2002 -0.4816
    8MPD2    H2  125   4.311   4.235  13.208 -0.9139  0.2214 -1.5794
    8MPD2    H3  126   4.264   4.445  13.138  1.3301 -3.2389  0.5935
    8MPD2     N  127   3.855   4.475  13.318 -0.2551  0.5622 -0.1119
    8MPD2    H5  128   3.853   4.566  13.274 -1.7602  1.2005  1.2470
    8MPD2    N1  129   4.155   4.066  13.348 -0.2352 -0.0540 -0.4729
    8MPD2    H7  130   4.244   4.027  13.318  0.3183  0.0896  1.0332
    9TMC1    C1  131   2.047   3.462  11.291  0.2587 -0.3138 -0.0819
    9TMC1    C2  132   2.039   3.350  11.204  0.2335  0.4833  0.5054
    9TMC1    C3  133   2.138   3.333  11.103 -0.4862  0.1443  0.0974
    9TMC1    C4  134   2.151   3.559  11.275 -0.0346  0.0986 -0.7180
    9TMC1    C5  135   2.242   3.536  11.171 -1.0186 -0.2338 -0.4814
    9TMC1    C6  136   2.242   3.420  11.092  0.3104 -0.3581  0.4004
    9TMC1     C  137   1.946   3.472  11.399  0.6982 -0.7211 -0.6850
    9TMC1     O  138   1.940   3.578  11.458  0.5647 -0.9230 -0.1784
    9TMC1     H  139   1.953   3.285  11.202  0.5208  0.0667  1.4544
    9TMC1    H1  140   2.141   3.654  11.326 -0.2427  0.1619 -0.8765
    9TMC1    H2  141   2.317   3.411  11.014  0.7774 -1.5511  0.9920
    9TMC1    C7  142   2.345   3.635  11.158 -0.0125 -0.2055  0.0350
    9TMC1    C8  143   2.119   3.232  11.002  0.6342 -0.4320  0.2652
    9TMC1    O1  144   2.391   3.636  11.047  0.0655 -0.3386  0.7219
    9TMC1    O2  145   2.004   3.187  10.990 -0.3979  0.3366  0.1012
    9TMC1    O3  146   2.419   3.626  11.274 -0.1997 -0.4084  0.7492
    9TMC1    H3  147   2.375   3.601  11.357  1.9133  4.6548  3.4274
    9TMC1    O5  148   2.228   3.153  11.007 -0.5126 -0.5293  0.8348
    9TMC1    H5  149   2.309   3.190  11.048  0.7345 -3.0093  0.6111
   10MPD2     C  150   1.678   3.426  11.521  0.2189  0.5420 -0.4301
   10MPD2    C1  151   1.767   3.329  11.489 -0.7089  0.4063 -0.4555
   10MPD2    C2  152   1.738   3.200  11.529 -0.2263 -0.0996 -0.3132
   10MPD2    C3  153   1.616   3.165  11.593  0.4901 -0.5744  0.2111
   10MPD2    C4  154   1.533   3.269  11.613  0.5447 -0.6099 -0.8141
   10MPD2    C5  155   1.564   3.398  11.582 -0.4019 -0.1001  0.0315
   10MPD2     H  156   1.809   3.122  11.506 -1.1028 -2.0141  3.5253
   10MPD2    H1  157   1.438   3.246  11.658  1.3001 -0.0949  1.0353
   10MPD2    H2  158   1.688   3.522  11.470 -2.6843  1.0068 -0.1121
   10MPD2    H3  159   1.486   3.473  11.594 -0.9872 -0.8498  0.8358
   10MPD2     N  160   1.589   3.039  11.648  0.4935 -0.0625  0.3505
   10MPD2    H5  161   1.498   3.022  11.690  0.0905 -2.3357 -1.4381
   10MPD2    N1  162   1.889   3.351  11.424 -0.8374  0.8342  0.0525
   10MPD2    H7  163   1.943   3.274  11.386 -1.0389  2.3348 -3.2511
   11TCq1    O1  164   3.018   2.932  14.287  0.6245  0.0787  0.5808
   11TCq1    C1  165   2.913   2.870  14.346 -0.4534 -0.5624 -0.2192
   11TCq1    O2  166   2.924   2.825  14.459 -0.0723 -0.6162  0.0931
   11TCq1    C2  167   2.831   2.817  14.243  0.3823  0.6246 -0.3990
   11TCq1    C3  168   2.884   2.777  14.119 -0.6800  0.3436 -0.3744
   11TCq1    C4  169   2.800   2.736  14.013 -0.6379 -0.0039  0.6056
   11TCq1    C5  170   2.663   2.716  14.036  0.5526 -0.1988  0.3074
   11TCq1    C6  171   2.614   2.741  14.169 -0.0247 -0.5214 -0.5379
   11TCq1    C7  172   2.699   2.798  14.269  0.1823 -0.4419  0.4717
   11TCq1    C8  173   2.496   2.679  14.212  0.2148 -0.1489 -0.5050
   11TCq1    O4  174   2.453   2.705  14.323 -0.5383 -0.2445  0.0037
   11TCq1    C9  175   2.852   2.720  13.881 -0.5877  0.3512 -0.7309
   11TCq1    O5  176   2.777   2.689  13.788  0.3469 -0.1701 -0.1974
   11TCq1    O6  177   2.974   2.754  13.870  0.8197  0.1768 -0.8431
   11TCq1    H1  178   3.001   2.960  14.195  1.6447  0.7451  0.5987
   11TCq1    H2  179   2.990   2.785  14.096 -0.5913 -0.3998 -0.2303
   11TCq1    H3  180   2.599   2.703  13.950  0.5553  0.7080  0.1731
   11TCq1    H4  181   2.671   2.828  14.370 -0.9568  0.0348  0.0069
   12MPD2     C  182   2.253   2.502  14.238  0.4807  1.4172  0.3634
   12MPD2    C1  183   2.358   2.487  14.140  0.1359 -0.4714 -0.4060
   12MPD2    C2  184   2.354   2.377  14.056 -0.4234  1.2700  0.1543
   12MPD2    C3  185   2.245   2.288  14.062 -0.1051 -0.0618 -0.4105
   12MPD2    C4  186   2.142   2.315  14.149 -0.6867 -0.0655  0.2476
   12MPD2    C5  187   2.145   2.419  14.238  0.4441  0.2786  0.4747
   12MPD2     H  188   2.432   2.366  13.982 -1.0690 -1.6543 -0.1240
   12MPD2    H1  189   2.059   2.247  14.164  0.5077 -1.1485  1.9377
   12MPD2    H2  190   2.242   2.594  14.293  1.9190  0.9481  1.4271
   12MPD2    H3  191   2.054   2.437  14.295 -1.0705 -0.3510 -1.7374
   12MPD2     N  192   2.240   2.164  13.998 -0.1925  0.5873  0.1921
   12MPD2    H5  193   2.160   2.106  14.020  0.0562 -0.5420 -1.9024
   12MPD2    N1  194   2.462   2.578  14.123 -0.3144 -0.1024 -0.1015
   12MPD2    H7  195   2.531   2.556  14.052 -1.7894 -0.4076 -1.4423
   13TCq1    O1  196   2.623   3.654  10.868  0.2225  0.2569 -0.0861
   13TCq1    C1  197   2.692   3.605  10.764  0.5938 -0.6200 -0.4598
   13TCq1    O2  198   2.814   3.593  10.769 -0.2907 -0.7945 -0.2232
   13TCq1    C2  199   2.611   3.529  10.669  0.2783  0.5893  0.3282
   13TCq1    C3  200   2.661   3.529  10.544  0.2756 -0.4555  0.0079
   13TCq1    C4  201   2.581   3.475  10.447 -0.1155  0.1822  0.0741
   13TCq1    C5  202   2.460   3.423  10.475  0.4777 -0.6967  0.6826
   13TCq1    C6  203   2.412   3.426  10.606  0.8798 -0.5286 -0.1261
   13TCq1    C7  204   2.481   3.491  10.705 -0.5036  0.2935  0.2358
   13TCq1    C8  205   2.313   3.334  10.656 -0.9751  0.3084 -0.0088
   13TCq1    O4  206   2.238   3.374  10.743  0.6228  0.3030 -0.6205
   13TCq1    C9  207   2.634   3.470  10.311  0.4878  0.3542 -0.1616
   13TCq1    O5  208   2.563   3.437  10.211 -0.1187 -0.4332 -0.0874
   13TCq1    O6  209   2.748   3.525  10.291  0.1215 -0.4423  0.0094
   13TCq1    H1  210   2.532   3.672  10.838 -0.2319 -3.5354 -0.9590
   13TCq1    H2  211   2.757   3.575  10.524  1.1501 -1.4230  1.9638
   13TCq1    H3  212   2.408   3.382  10.389  1.4830 -1.6896  0.5437
   13TCq1    H4  213   2.441   3.490  10.806 -0.0867  0.7014  0.4079
   14MPD2     C  214   2.235   3.013  10.492  0.6730  1.1257 -0.2700
   14MPD2    C1  215   2.226   3.111  10.584  0.4935  0.5007 -0.6579
   14MPD2    C2  216   2.129   3.096  10.685 -0.2739  0.1600  0.3729
   14MPD2    C3  217   2.049   2.983  10.696  0.2478 -0.0427 -0.2407
   14MPD2    C4  218   2.057   2.888  10.597  0.0348  0.1139  0.5083
   14MPD2    C5  219   2.152   2.909  10.501  0.1803  0.5341 -0.5657
   14MPD2     H  220   2.113   3.171  10.761  2.2838 -0.3195  1.3961
   14MPD2    H1  221   2.017   2.787  10.606 -0.2965  0.2779  0.8527
   14MPD2    H2  222   2.300   3.011  10.405 -1.5926 -2.0356 -1.8657
   14MPD2    H3  223   2.163   2.827  10.431  1.8482 -1.4665  2.0847
   14MPD2     N  224   1.965   2.966  10.813 -0.3565 -0.0060 -0.4864
   14MPD2    H5  225   1.961   3.040  10.883 -1.2876  0.4091 -0.9742
   14MPD2    N1  226   2.319   3.224  10.574  0.6089 -0.0615  0.5772
   14MPD2    H7  227   2.395   3.214  10.507  0.8060  0.6836  0.6887
   15TCq1    O1  228   2.878   2.775   1.027 -1.1581  0.4351  0.1972
   15TCq1    C1  229   3.009   2.776   1.032 -0.1225  0.3453 -0.3476
   15TCq1    O2  230   3.089   2.731   0.951  0.2109 -0.2031 -0.4537
   15TCq1    C2  231   3.033   2.740   1.170  0.2080  0.0266  0.1044
   15TCq1    C3  232   3.002   2.824   1.267 -0.1051 -0.2899  0.1071
   15TCq1    C4  233   3.023   2.790   1.402  0.0776 -0.2749 -0.4876
   15TCq1    C5  234   3.079   2.669   1.429 -0.6563 -0.1186 -0.7781
   15TCq1    C6  235   3.102   2.582   1.322 -0.5776  0.0510  0.1953
   15TCq1    C7  236   3.089   2.624   1.192  0.1456  0.4652 -0.0746
   15TCq1    C8  237   3.184   2.463   1.344  0.6155 -0.5784  0.4672
   15TCq1    O4  238   3.234   2.407   1.246  0.4495 -0.3507  0.2020
   15TCq1    C9  239   3.001   2.881   1.509 -0.6481 -0.4497 -0.7018
   15TCq1    O5  240   3.031   2.835   1.624 -0.0809 -0.0243  0.8297
   15TCq1    O6  241   2.959   3.002   1.487  0.0575 -0.5058 -0.5609
   15TCq1    H1  242   2.836   2.792   1.114  2.0389  3.0993  1.2309
   15TCq1    H2  243   2.974   2.928   1.254 -0.9663 -0.9155 -3.0108
   15TCq1    H3  244   3.096   2.635   1.530 -0.7006 -2.3241 -1.5175
   15TCq1    H4  245   3.117   2.566   1.104 -0.0883 -0.4183  0.4375
   16MPD2     C  246   3.145   2.246   1.633 -0.3217  0.5296 -0.0826
   16MPD2    C1  247   3.182   2.281   1.505 -0.1238 -0.3405  0.5597
   16MPD2    C2  248   3.232   2.178   1.425 -0.1201 -0.1315 -0.0413
   16MPD2    C3  249   3.266   2.057   1.474 -0.1196  0.4246 -0.6009
   16MPD2    C4  250   3.235   2.033   1.601 -0.1258  0.1244  0.1405
   16MPD2    C5  251   3.166   2.123   1.677  0.1067  0.6258 -0.1129
   16MPD2     H  252   3.253   2.197   1.320  2.9246 -0.1136  0.5570
   16MPD2    H1  253   3.264   1.944   1.655 -1.8005 -1.2917 -1.3228
   16MPD2    H2  254   3.092   2.320   1.691 -3.7285 -0.3137 -2.0721
   16MPD2    H3  255   3.153   2.101   1.782 -1.3642 -4.6820 -1.4098
   16MPD2     N  256   3.323   1.958   1.387 -0.5869  0.1861  1.0982
   16MPD2    H5  257   3.325   1.975   1.287 -3.0764 -2.0140  0.6848
   16MPD2    N1  258   3.157   2.412   1.467 -0.6659  0.4722  0.8025
   16MPD2    H7  259   3.095   2.471   1.522 -1.7934  1.7113 -1.7850
   17TMC1    C1  260   1.311   2.019  11.113 -0.9041 -0.0465 -0.2895
   17TMC1    C2  261   1.299   2.149  11.073  0.5202  0.0411 -0.0892
   17TMC1    C3  262   1.199   2.227  11.127 -0.0928  0.2740  0.8160
   17TMC1    C4  263   1.240   1.960  11.211  1.1241 -0.3068  0.2721
   17TMC1    C5  264   1.142   2.048  11.267  0.5071  0.0585  0.3954
   17TMC1    C6  265   1.119   2.178  11.226  0.2472  0.5498 -0.8171
   17TMC1     C  266   1.434   1.948  11.085 -0.0095 -0.2517 -0.1733
   17TMC1     O  267   1.459   1.863  11.172  0.3614 -0.3327 -0.2090
   17TMC1     H  268   1.371   2.194  11.005  0.2527 -3.7494 -2.8684
   17TMC1    H1  269   1.253   1.858  11.243 -0.7489 -1.2707 -2.0436
   17TMC1    H2  270   1.069   2.250  11.290  2.6514  0.7578  0.8149
   17TMC1    C7  271   1.082   1.993  11.389  0.2449 -0.6275  0.3011
   17TMC1    C8  272   1.213   2.370  11.116 -0.3784  0.0139 -0.3275
   17TMC1    O1  273   1.129   1.898  11.447  0.3413  0.5349 -0.5410
   17TMC1    O2  274   1.194   2.450  11.207  0.4254  0.1882 -0.3054
   17TMC1    O3  275   0.963   2.049  11.425 -0.0319  0.1006 -0.0834
   17TMC1    H3  276   0.934   2.124  11.368  1.1207 -0.4536 -1.4005
   17TMC1    O5  277   1.190   2.399  10.990 -0.4201 -0.2396 -0.4118
   17TMC1    H5  278   1.220   2.326  10.932 -1.5275 -1.7000  0.8455
   18MPD2     C  279   1.663   1.798  10.959  0.8884 -0.2495  0.4295
   18MPD2    C1  280   1.617   1.916  10.910  0.0159  0.0797  0.6270
   18MPD2    C2  281   1.690   1.985  10.813 -0.1558  0.4227  0.5356
   18MPD2    C3  282   1.807   1.926  10.765  0.1810 -1.1134 -0.1948
   18MPD2    C4  283   1.846   1.803  10.814  0.2435 -0.0864 -0.3191
   18MPD2    C5  284   1.775   1.737  10.905  0.0694 -0.5286  0.0142
   18MPD2     H  285   1.656   2.082  10.780  0.2856  0.1145 -0.8430
   18MPD2    H1  286   1.935   1.753  10.776  0.1509  0.0344 -0.6949
   18MPD2    H2  287   1.613   1.737  11.033  0.4514  1.5822  1.6199
   18MPD2    H3  288   1.810   1.641  10.941  0.4652 -0.6053 -0.5687
   18MPD2     N  289   1.877   1.975  10.654 -0.1906  0.1426  0.3640
   18MPD2    H5  290   1.956   1.918  10.627 -1.1025 -0.9366 -0.0199
   18MPD2    N1  291   1.498   1.982  10.965 -0.9689 -0.4695 -0.2649
   18MPD2    H7  292   1.448   2.050  10.909 -3.1883 -1.0908  0.9764
   19TMC2    C1  293   3.471   2.898  13.856  0.4124 -0.0081 -0.0039
   19TMC2    C2  294   3.373   2.969  13.780  0.0743 -0.0794 -0.5069
   19TMC2    C3  295   3.272   2.887  13.737  0.7646  0.4543 -0.2384
   19TMC2    C4  296   3.454   2.774  13.909 -0.2496 -0.1136  0.1295
   19TMC2    C5  297   3.337   2.710  13.873  0.4103  0.0787  0.1441
   19TMC2    C6  298   3.247   2.763  13.785  0.2236  1.0047  0.4606
   19TMC2     C  299   3.590   2.972  13.879  0.2261  0.4176 -0.0632
   19TMC2     O  300   3.588   3.093  13.866 -0.9065 -0.0654 -0.1441
   19TMC2     H  301   3.375   3.076  13.762  0.8817  0.2305  1.4457
   19TMC2    H1  302   3.514   2.734  13.989  0.2710  3.7281  1.6723
   19TMC2    H2  303   3.167   2.709  13.734  0.3891  0.3007  0.9443
   19TMC2    C7  304   3.308   2.597  13.955  0.4123  0.8662 -0.5152
   19TMC2    C8  305   3.175   2.952  13.650 -0.6990  0.9326  0.6950
   19TMC2    O1  306   3.399   2.538  14.012  0.0665 -0.6411  0.1070
   19TMC2    O2  307   3.206   3.064  13.616 -0.0687 -0.3660  0.1965
   19TMC2    O5  308   3.060   2.919  13.719 -0.0535  0.5985 -0.1374
   19TMC2    H5  309   3.044   2.840  13.776 -1.9847  1.5450  0.6094
   20MPD2     C  310   3.846   3.052  14.004  0.3890 -0.9414  0.7883
   20MPD2    C1  311   3.816   2.922  13.976 -0.0843  0.8523 -0.6167
   20MPD2    C2  312   3.892   2.820  14.033 -0.4225 -0.7410  0.0138
   20MPD2    C3  313   4.002   2.845  14.113 -0.0973 -0.1111 -0.1328
   20MPD2    C4  314   4.032   2.976  14.137  0.2260 -0.5079  0.6469
   20MPD2    C5  315   3.955   3.080  14.086 -0.7513  0.2406 -0.3730
   20MPD2     H  316   3.857   2.720  14.014  0.2148 -1.0082  0.2658
   20MPD2    H1  317   4.113   2.999  14.206 -0.0417  0.7327  0.5351
   20MPD2    H2  318   3.792   3.138  13.964 -0.7428 -0.9310  2.3529
   20MPD2    H3  319   3.971   3.185  14.109  0.8948 -0.9982  4.1930
   20MPD2     N  320   4.084   2.749  14.175 -0.0290 -0.1566  0.3787
   20MPD2    H5  321   4.175   2.776  14.210 -1.1834 -0.2353  3.4753
   20MPD2    N1  322   3.696   2.885  13.917 -0.2755  0.6415  1.0833
   20MPD2    H7  323   3.688   2.785  13.902 -0.6174  0.5135  2.1034
   21TMC2    C1  324   1.182   3.052  14.501  0.2563  0.1797 -0.0183
   21TMC2    C2  325   1.165   2.932  14.438 -0.4183  0.1971  0.0905
   21TMC2    C3  326   1.046   2.915  14.359  0.0588  0.0068  0.4577
   21TMC2    C4  327   1.086   3.152  14.510  0.0069 -0.1241  0.8919
   21TMC2    C5  328   0.973   3.130  14.430  0.2436  0.4597  0.4158
   21TMC2    C6  329   0.961   3.027  14.343  0.2253  0.7959 -0.0469
   21TMC2     C  330   1.319   3.093  14.529  0.2825  0.2390 -0.6811
   21TMC2     O  331   1.396   3.005  14.566  0.2043 -0.0536  0.2609
   21TMC2     H  332   1.241   2.855  14.437  0.0328  0.6649 -0.9740
   21TMC2    H1  333   1.110   3.247  14.556  1.1874 -0.7831  1.6355
   21TMC2    H2  334   0.872   3.007  14.285  1.0600 -1.8041 -0.4479
   21TMC2    C7  335   0.861   3.216  14.447  0.4098 -0.9053  0.4483
   21TMC2    C8  336   1.061   2.813  14.253 -0.4548  0.0800 -0.2505
   21TMC2    O1  337   0.756   3.188  14.396  0.0763 -0.2276 -0.1472
   21TMC2    O2  338   1.093   2.702  14.284 -0.4907  0.0086 -0.1548
   21TMC2    O5  339   1.146   2.885  14.170  0.2792  0.0181  0.5712
   21TMC2    H5  340   1.129   2.981  14.181  1.3002  0.2379  0.1955
   22MPD2     C  341   1.713   3.372  14.372 -0.2492  0.9403  0.2865
   22MPD2    C1  342   1.709   3.252  14.430  0.0683 -0.1141 -0.0986
   22MPD2    C2  343   1.591   3.205  14.485  0.1293  0.5231  0.3484
   22MPD2    C3  344   1.471   3.280  14.458  0.4430 -1.1451 -0.2978
   22MPD2    C4  345   1.486   3.405  14.401 -0.2199 -0.0298  0.4425
   22MPD2    C5  346   1.604   3.449  14.363  0.3726  0.4146 -0.5424
   22MPD2     H  347   1.597   3.114  14.543  1.4221  0.7567  0.5757
   22MPD2    H1  348   1.403   3.472  14.382 -0.3723 -0.8915 -1.9044
   22MPD2    H2  349   1.802   3.405  14.319 -1.3442  0.8729 -1.5882
   22MPD2    H3  350   1.620   3.534  14.297  0.4637  0.5405 -0.3602
   22MPD2     N  351   1.343   3.222  14.487  0.1857  0.1701  0.5752
   22MPD2    H5  352   1.270   3.277  14.441 -1.0883 -0.6252  1.6345
   22MPD2    N1  353   1.816   3.159  14.427 -0.3843 -0.0757 -1.0811
   22MPD2    H7  354   1.799   3.078  14.486  1.4677  0.9750  0.8847
   23TMC2    C1  355   2.214   4.507  14.710 -0.3645 -0.1062 -0.1742
   23TMC2    C2  356   2.154   4.614  14.666 -0.4295  0.1978  0.2209
   23TMC2    C3  357   2.064   4.604  14.570 -0.0660  0.3962  0.4240
   23TMC2    C4  358   2.197   4.387  14.660  0.1424  0.0408 -0.3161
   23TMC2    C5  359   2.101   4.375  14.562 -0.1958 -0.3584  0.4178
   23TMC2    C6  360   2.028   4.485  14.516  0.1964  0.1790 -0.1671
   23TMC2     C  361   2.328   4.518  14.801 -0.7532 -0.5867  0.1315
   23TMC2     O  362   2.341   4.426  14.881  0.4530 -0.2408 -0.5680
   23TMC2     H  363   2.190   4.714  14.686 -0.6630  0.2999  0.1347
   23TMC2    H1  364   2.249   4.303  14.704 -0.1340  0.9015  1.6324
   23TMC2    H2  365   1.939   4.475  14.455 -0.1432  0.9976  0.2018
   23TMC2    C7  366   2.043   4.244  14.562 -0.1398  0.4112 -0.0562
   23TMC2    C8  367   2.012   4.728  14.511  0.1272 -0.5383  0.1405
   23TMC2    O1  368   2.108   4.151  14.608  0.2525  0.1570  0.1626
   23TMC2    O2  369   2.067   0.096  14.550 -0.2043  0.7873 -0.1260
   23TMC2    O5  370   1.888   4.713  14.451 -0.1665 -0.0170 -0.5463
   23TMC2    H5  371   1.857   4.622  14.432 -0.0296 -0.3138  0.6278
   24MPD2     C  372   2.591   0.075  15.134  0.5296  0.1778  0.4715
   24MPD2    C1  373   2.553   4.675  15.130  0.0460 -0.3145 -0.8668
   24MPD2    C2  374   2.509   4.618  15.013 -0.3618  0.3010 -0.1380
   24MPD2    C3  375   2.462   4.704  14.911 -0.3741  0.0431 -0.0016
   24MPD2    C4  376   2.507   0.101  14.910  0.2245  0.6393  0.3994
   24MPD2    C5  377   2.572   0.148  15.017  0.2630 -0.2560  0.0558
   24MPD2     H  378   2.485   4.513  15.020 -1.1162  0.6086  2.0544
   24MPD2    H1  379   2.500   0.166  14.823  0.0945 -1.1807 -0.9563
   24MPD2    H2  380   2.647   0.130  15.209 -0.4497  2.2034 -0.2816
   24MPD2    H3  381   2.616   0.247  15.019  1.4208 -0.7177 -3.3640
   24MPD2     N  382   2.371   4.653  14.817 -0.1771 -0.4328 -0.2540
   24MPD2    H5  383   2.354   4.724  14.747  0.9987 -2.2265 -2.3728
   24MPD2    N1  384   2.600   4.588  15.237 -0.0218  0.7204 -0.1629
   24MPD2    H7  385   2.585   4.490  15.216 -2.3317  1.1369 -0.4517
   25TMC2    C1  386   1.858   1.395  11.429  0.1994 -0.0444 -0.1085
   25TMC2    C2  387   1.900   1.280  11.493 -0.3955  0.1620 -0.7686
   25TMC2    C3  388   1.908   1.278  11.626  0.0099 -0.1255  0.5553
   25TMC2    C4  389   1.832   1.505  11.504  0.0139  0.2187  1.0110
   25TMC2    C5  390   1.857   1.495  11.641 -0.1226 -0.2177  0.5942
   25TMC2    C6  391   1.885   1.386  11.705 -0.0749 -0.8486  0.1672
   25TMC2     C  392   1.818   1.380  11.297  0.6104 -0.6589 -0.5533
   25TMC2     O  393   1.872   1.293  11.227  0.3725 -0.0890 -0.6890
   25TMC2     H  394   1.936   1.199  11.430  0.8021  1.5006 -1.8016
   25TMC2    H1  395   1.794   1.596  11.458 -1.7717 -1.5355 -0.9845
   25TMC2    H2  396   1.870   1.375  11.812  0.4893 -2.1017  0.1239
   25TMC2    C7  397   1.818   1.605  11.722  0.6247  0.4139  0.4851
   25TMC2    C8  398   1.944   1.151  11.687  0.5177 -0.0653  0.6345
   25TMC2    O1  399   1.780   1.581  11.834 -0.2942  0.3975  0.1484
   25TMC2    O2  400   1.981   1.138  11.802 -0.4508 -0.0351 -0.6788
   25TMC2    O5  401   1.868   1.056  11.629  0.2067 -0.3851 -0.8488
   25TMC2    H5  402   1.820   1.084  11.548 -0.3098  2.9400  0.6126
   26MPD2     C  403   1.449   1.432  10.946  0.1378  0.3220 -0.2885
   26MPD2    C1  404   1.417   1.494  11.063  0.3134 -0.7686 -0.6138
   26MPD2    C2  405   1.508   1.503  11.163 -0.2203  0.3232 -0.8089
   26MPD2    C3  406   1.637   1.456  11.142  0.0350  0.6714 -0.0541
   26MPD2    C4  407   1.680   1.399  11.021 -0.3584 -0.2053 -0.2100
   26MPD2    C5  408   1.581   1.395  10.922  0.4225  0.8730 -0.6041
   26MPD2     H  409   1.485   1.554  11.256  0.2840  0.2000 -0.6163
   26MPD2    H1  410   1.776   1.353  11.001 -1.9734 -3.3718 -0.6967
   26MPD2    H2  411   1.381   1.426  10.862 -0.0972 -1.3391  0.0119
   26MPD2    H3  412   1.604   1.354  10.824 -1.9390  1.4994 -1.4192
   26MPD2     N  413   1.709   1.455  11.264 -0.3563  0.4622 -0.3745
   26MPD2    H5  414   1.673   1.520  11.333  1.3743  0.2885  0.7147
   26MPD2    N1  415   1.282   1.528  11.070 -0.0078 -0.4022 -0.1378
   26MPD2    H7  416   1.225   1.506  10.989 -2.8000  0.0333  1.6806
   27TMC2    C1  417   0.079   3.868  12.119 -1.1633 -0.1810 -0.0859
   27TMC2    C2  418   0.024   3.738  12.114  0.1613 -0.3968 -0.7475
   27TMC2    C3  419   0.110   3.635  12.146 -0.6863  0.2423 -1.1487
   27TMC2    C4  420   0.218   3.889  12.122  0.3949 -0.2780  0.1981
   27TMC2    C5  421   0.299   3.778  12.128 -0.6456 -0.3206  0.3641
   27TMC2    C6  422   0.246   3.650  12.142 -0.0793  0.4529 -0.3338
   27TMC2     C  423   4.729   3.989  12.137  0.4238 -0.0495  0.0111
   27TMC2     O  424   0.049   4.096  12.117  0.0800  0.1170  0.2834
   27TMC2     H  425   4.655   3.705  12.110  0.2371 -0.6395 -0.7357
   27TMC2    H1  426   0.249   3.992  12.136  2.6601 -0.8827 -0.4938
   27TMC2    H2  427   0.306   3.559  12.146  0.6438  0.9504  0.1997
   27TMC2    C7  428   0.441   3.795  12.162  0.1367  0.1738  0.9139
   27TMC2    C8  429   0.062   3.499  12.149  0.6401  0.1328  0.6760
   27TMC2    O1  430   0.495   3.719  12.245 -0.0244  0.1483  0.2925
   27TMC2    O2  431   0.097   3.418  12.239  0.3706  0.7872 -0.1095
   27TMC2    O5  432   0.081   3.475  12.020 -0.1430 -0.3192 -0.2491
   27TMC2    H5  433   0.079   3.561  11.972  1.2670  0.3025  0.8079
   28MPD2     C  434   4.320   4.258  12.268  0.2923 -0.4151  0.9869
   28MPD2    C1  435   4.280   4.126  12.253  0.5880  0.1871  0.0987
   28MPD2    C2  436   4.371   4.029  12.218 -0.1798 -0.0197 -0.2181
   28MPD2    C3  437   4.502   4.067  12.199 -0.3899  0.3419  1.0752
   28MPD2    C4  438   4.532   4.204  12.204 -0.1979  0.0972  0.3728
   28MPD2    C5  439   4.443   4.304  12.227  0.5672 -0.8242 -0.0589
   28MPD2     H  440   4.342   3.925  12.207  1.6249 -0.6320  0.7296
   28MPD2    H1  441   4.631   4.240  12.178 -0.2313  0.7303  1.1008
   28MPD2    H2  442   4.245   4.325  12.307  0.2178  1.0247 -1.6500
   28MPD2    H3  443   4.482   4.405  12.234  0.2148 -0.8284  1.7983
   28MPD2     N  444   4.599   3.967  12.165 -0.0175 -0.2462 -0.7369
   28MPD2    H5  445   4.557   3.875  12.170 -1.1562  0.1946 -2.1614
   28MPD2    N1  446   4.144   4.107  12.279 -0.4985 -0.0450 -0.8239
   28MPD2    H7  447   4.086   4.184  12.309 -1.0588 -0.6944 -0.2362
   29TMC2    C1  448   4.328   1.665  14.336 -0.1937  0.2954  0.0885
   29TMC2    C2  449   4.327   1.658  14.472  0.7862 -0.1416 -0.1978
   29TMC2    C3  450   4.288   1.764  14.546 -0.0520  0.0963  0.3391
   29TMC2    C4  451   4.308   1.786  14.272 -0.4344 -0.2954 -0.0879
   29TMC2    C5  452   4.282   1.891  14.350  1.1496 -0.5499 -0.4248
   29TMC2    C6  453   4.276   1.882  14.493 -0.7166 -0.4369 -0.4502
   29TMC2     C  454   4.362   1.534  14.273  0.4205  0.0293 -0.5213
   29TMC2     O  455   4.336   1.434  14.341  0.0130  0.3429  0.6644
   29TMC2     H  456   4.330   1.561  14.519 -3.4672 -0.3068 -0.2725
   29TMC2    H1  457   4.296   1.792  14.165 -1.1733  0.1289  0.0215
   29TMC2    H2  458   4.230   1.967  14.542  0.8211 -1.3717  2.6384
   29TMC2    C7  459   4.300   2.025  14.289 -0.0096 -0.4571 -0.0126
   29TMC2    C8  460   4.264   1.756  14.684 -0.3816 -0.2002 -0.3621
   29TMC2    O1  461   4.253   2.058  14.183  0.3595  0.1033  0.2465
   29TMC2    O2  462   4.177   1.826  14.732  0.1698  0.1575 -0.4604
   29TMC2    O5  463   4.357   1.679  14.745 -0.8745 -0.3469 -0.1730
   29TMC2    H5  464   4.421   1.644  14.679  0.0737  2.1425 -0.5698
   30MPD2     C  465   4.452   1.256  13.865  0.0867 -0.2486 -0.3834
   30MPD2    C1  466   4.445   1.218  13.996  0.7550  0.0074  0.1929
   30MPD2    C2  467   4.424   1.316  14.086  0.2956  0.3040  0.2407
   30MPD2    C3  468   4.409   1.447  14.050 -0.7389 -0.3878 -0.4649
   30MPD2    C4  469   4.417   1.489  13.920 -0.1314  0.1248  0.6919
   30MPD2    C5  470   4.434   1.388  13.828  0.2641  0.1147 -0.0795
   30MPD2     H  471   4.411   1.285  14.189 -0.9841  1.9111  0.5768
   30MPD2    H1  472   4.401   1.595  13.903 -0.0249  0.0508  0.1223
   30MPD2    H2  473   4.469   1.198  13.775  1.9637  0.1747 -0.3128
   30MPD2    H3  474   4.417   1.410  13.724  0.9305  0.4727 -0.1134
   30MPD2     N  475   4.395   1.551  14.138 -0.3445  1.0592  0.5894
   30MPD2    H5  476   4.393   1.644  14.097 -1.6226  0.6056 -0.3754
   30MPD2    N1  477   4.448   1.078  14.038  0.0732  0.4462  0.1031
   30MPD2    H7  478   4.443   1.049  14.136  0.8320  2.4603  0.7428
   31TMC2    C1  479   1.995   0.278  15.718 -0.2709 -0.3517  0.5159
   31TMC2    C2  480   1.862   0.238  15.709 -0.2729  0.3002  0.5454
   31TMC2    C3  481   1.785   0.237  15.821 -1.0045  0.2906  0.1870
   31TMC2    C4  482   2.049   0.316  15.840  0.0937  0.5295  0.7947
   31TMC2    C5  483   1.964   0.326  15.940  0.9640 -0.5376  0.3284
   31TMC2    C6  484   1.834   0.279  15.937  0.6624 -0.7223 -0.1215
   31TMC2     C  485   2.066   0.304  15.597  0.9417 -0.7955  0.1904
   31TMC2     O  486   2.006   0.280  15.493  0.4838 -0.5255  0.0106
   31TMC2     H  487   1.825   0.207  15.612  1.0514 -0.3689  0.2569
   31TMC2    H1  488   2.149   0.356  15.854  0.8596 -0.2093 -2.5562
   31TMC2    H2  489   1.769   0.273  16.023 -2.0007 -2.4132 -2.2651
   31TMC2    C7  490   2.021   0.361  16.067 -0.1501 -0.0067  0.7942
   31TMC2    C8  491   1.645   0.225  15.812  0.6358  0.1147 -0.1824
   31TMC2    O1  492   2.143   0.359  16.081 -0.6176  0.1772  0.2658
   31TMC2    O2  493   1.573   0.247  15.907  0.2197 -0.2121 -0.4201
   31TMC2    O5  494   1.602   0.232  15.685  0.2402 -0.6095 -0.0187
   31TMC2    H5  495   1.667   0.227  15.611 -0.4618 -0.7149 -0.6288
   32MPD2     C  496   2.470   0.444  15.321  0.1808  0.0743  0.1860
   32MPD2    C1  497   2.339   0.467  15.287 -0.7408 -0.0391  0.2316
   32MPD2    C2  498   2.244   0.422  15.375 -0.1020 -0.4292 -0.3101
   32MPD2    C3  499   2.277   0.379  15.504  0.0390 -0.5796 -0.1962
   32MPD2    C4  500   2.410   0.374  15.537 -0.3012  0.3953 -0.2591
   32MPD2    C5  501   2.506   0.403  15.446 -0.3658  0.4719 -0.3492
   32MPD2     H  502   2.137   0.426  15.361  0.0646 -1.1069 -1.7556
   32MPD2    H1  503   2.443   0.348  15.637  2.7682  2.0720 -0.8358
   32MPD2    H2  504   2.550   0.482  15.259  0.3941 -2.5309 -1.1638
   32MPD2    H3  505   2.607   0.397  15.483 -0.4825  0.8234  0.0227
   32MPD2     N  506   2.192   0.342  15.607 -0.4183  0.0605 -0.2423
   32MPD2    H5  507   2.231   0.334  15.701 -0.6409  1.2798 -0.0379
   32MPD2    N1  508   2.314   0.525  15.160 -0.1100 -0.2035 -0.0116
   32MPD2    H7  509   2.400   0.530  15.106 -0.1172  1.6555  0.1390
   33TMC2    C1  510   1.923   3.043  10.277  0.8911 -0.1082 -0.2926
   33TMC2    C2  511   1.822   3.051  10.376 -0.5954 -0.5475 -0.2960
   33TMC2    C3  512   1.806   3.174  10.440  0.2632  0.0608  1.2856
   33TMC2    C4  513   2.004   3.152  10.254 -1.0497  0.0472  0.3518
   33TMC2    C5  514   1.991   3.268  10.328 -0.2461  0.2756  1.5109
   33TMC2    C6  515   1.892   3.277  10.416 -0.3654 -0.0618  0.3983
   33TMC2     C  516   1.950   2.911  10.229  0.2613 -0.0265 -0.4001
   33TMC2     O  517   1.876   2.820  10.265  0.1106 -0.2246  0.1920
   33TMC2     H  518   1.758   2.967  10.396 -0.4868 -0.9102 -1.5143
   33TMC2    H1  519   2.081   3.148  10.178  0.8252 -3.3655  2.3984
   33TMC2    H2  520   1.867   3.365  10.474 -1.3483  0.9257 -1.5316
   33TMC2    C7  521   2.082   3.381  10.302 -0.2341 -0.5292 -0.1104
   33TMC2    C8  522   1.731   3.158  10.567  0.2230  0.0306  0.3993
   33TMC2    O1  523   2.187   3.363  10.240 -0.4894  0.0884  0.0720
   33TMC2    O2  524   1.639   3.077  10.577 -0.2748 -0.4582 -0.4640
   33TMC2    O5  525   1.765   3.266  10.648 -0.6894 -0.4021  0.5931
   33TMC2    H5  526   1.847   3.313  10.626 -3.2878  3.5080 -0.6266
   34MPD2     C  527   2.308   2.566  10.114  1.1787 -0.0866  0.1430
   34MPD2    C1  528   2.197   2.567  10.200 -0.3079 -0.1797 -0.1858
   34MPD2    C2  529   2.124   2.681  10.217 -0.0876  0.0163  0.4615
   34MPD2    C3  530   2.143   2.791  10.134 -0.2024 -0.3043 -0.6172
   34MPD2    C4  531   2.238   2.786  10.032  0.1591 -0.5076 -0.2536
   34MPD2    C5  532   2.318   2.670  10.023 -0.6782 -0.2478 -0.5617
   34MPD2     H  533   2.048   2.680  10.295 -0.8723 -0.0247 -0.2929
   34MPD2    H1  534   2.268   2.876   9.979 -1.7084  0.6299  0.6087
   34MPD2    H2  535   2.379   2.486  10.102 -0.1625 -0.9090 -2.3550
   34MPD2    H3  536   2.403   2.663   9.957 -0.1233  1.2709 -0.0261
   34MPD2     N  537   2.062   2.911  10.151 -0.4663 -0.6985 -0.1925
   34MPD2    H5  538   2.089   2.997  10.105 -1.1136  0.1860  1.0440
   34MPD2    N1  539   2.185   2.457  10.287 -0.2113 -0.1439 -0.1393
   34MPD2    H7  540   2.252   2.386  10.261 -0.4479 -0.5636  0.4029
   35TMC2    C1  541   2.706   4.051  11.213 -0.9449  0.2866  0.0409
   35TMC2    C2  542   2.579   4.073  11.163  0.9491  0.4680 -0.5621
   35TMC2    C3  543   2.471   4.005  11.226  0.1050 -0.6180 -0.2958
   35TMC2    C4  544   2.727   3.975  11.326 -0.2281 -0.1542 -0.5545
   35TMC2    C5  545   2.620   3.910  11.379  0.1018  0.2278 -0.2730
   35TMC2    C6  546   2.492   3.922  11.332 -0.1560 -0.2560  0.1472
   35TMC2     C  547   2.802   4.169  11.202  0.1981 -0.2539 -0.1235
   35TMC2     O  548   2.760   4.256  11.128 -0.1375 -0.3736  0.3318
   35TMC2     H  549   2.561   4.151  11.090 -3.1983 -0.8662 -0.9942
   35TMC2    H1  550   2.829   3.955  11.356 -0.6090 -1.0016  0.1912
   35TMC2    H2  551   2.412   3.861  11.371 -1.7729  2.7008  1.4484
   35TMC2    C7  552   2.657   3.823  11.487  0.3765 -0.6812  0.1411
   35TMC2    C8  553   2.335   4.030  11.193 -0.0855  0.5928 -0.0062
   35TMC2    O1  554   2.773   3.810  11.513 -0.0775 -0.0150 -0.0404
   35TMC2    O2  555   2.250   3.966  11.255  0.1242 -0.1505  0.4225
   35TMC2    O5  556   2.317   4.160  11.149 -0.1256  0.2046 -0.0040
   35TMC2    H5  557   2.397   4.216  11.160 -0.9756  1.3070  0.6050
   36MPD2     C  558   3.235   4.419  11.294 -0.0194  0.2655 -0.8251
   36MPD2    C1  559   3.253   4.292  11.345  1.1331  0.1841  0.2452
   36MPD2    C2  560   3.149   4.199  11.317  0.2929 -0.2755  0.0965
   36MPD2    C3  561   3.029   4.239  11.263  0.0319 -0.1916 -0.2539
   36MPD2    C4  562   3.022   4.367  11.209  0.4900  0.6949  0.0218
   36MPD2    C5  563   3.128   4.454  11.224  0.2890 -0.4989  0.2921
   36MPD2     H  564   3.158   4.097  11.354  0.2187 -0.9407 -1.6915
   36MPD2    H1  565   2.934   4.404  11.158  0.2163  0.7556  0.5418
   36MPD2    H2  566   3.305   4.496  11.322 -0.7213  0.3999  0.5423
   36MPD2    H3  567   3.126   4.552  11.177  0.1418 -1.7888 -2.3777
   36MPD2     N  568   2.919   4.148  11.261  0.4133  0.1384  0.5768
   36MPD2    H5  569   2.944   4.056  11.293  0.3578 -0.6603 -1.6905
   36MPD2    N1  570   3.368   4.260  11.426 -0.1946 -0.4451 -0.4517
   36MPD2    H7  571   3.431   4.339  11.432  0.9883 -1.3102 -1.2849
   37TMC2    C1  572   1.437   3.872  12.208  0.8286 -0.0099 -0.3440
   37TMC2    C2  573   1.327   3.790  12.239  0.6029  0.1317 -1.1709
   37TMC2    C3  574   1.245   3.753  12.134  0.3771  0.0180 -0.4011
   37TMC2    C4  575   1.464   3.904  12.078  0.2009 -0.8038  0.3320
   37TMC2    C5  576   1.384   3.859  11.980  0.2048  0.0552  0.2513
   37TMC2    C6  577   1.272   3.783  12.000 -0.0561  0.3856 -0.1882
   37TMC2     C  578   1.526   3.903  12.316  0.4250  0.2125 -0.6649
   37TMC2     O  579   1.591   4.009  12.304 -0.2078 -0.0597  0.1715
   37TMC2     H  580   1.283   3.775  12.337 -0.3159  0.4401 -1.5284
   37TMC2    H1  581   1.546   3.974  12.064  0.0016 -0.3566  1.3363
   37TMC2    H2  582   1.221   3.735  11.917 -0.9672 -0.6410  0.9675
   37TMC2    C7  583   1.432   3.886  11.841  0.4473  0.1842 -0.2448
   37TMC2    C8  584   1.142   3.656  12.170  0.3635  0.0532  0.0214
   37TMC2    O1  585   1.488   3.993  11.826  0.0493  0.1823 -0.0145
   37TMC2    O2  586   1.177   3.574  12.254  0.1404 -0.8500  0.3847
   37TMC2    O5  587   1.074   3.621  12.063 -0.0600 -0.3450 -0.1434
   37TMC2    H5  588   1.061   3.691  11.996  0.3787  1.1070  1.2868
   38MPD2     C  589   1.655   3.872  12.822  0.1525  0.2807 -0.5764
   38MPD2    C1  590   1.639   3.751  12.770 -0.1983 -0.8456  0.2001
   38MPD2    C2  591   1.598   3.735  12.636 -0.1066 -0.0520  0.7604
   38MPD2    C3  592   1.574   3.836  12.553  0.2012 -1.1338 -0.8552
   38MPD2    C4  593   1.592   3.965  12.604  0.0603  0.0749  0.2647
   38MPD2    C5  594   1.646   3.969  12.731  0.0711  0.5366 -0.4728
   38MPD2     H  595   1.563   3.637  12.606 -2.7399  1.1718 -0.1596
   38MPD2    H1  596   1.581   4.056  12.546 -0.4240  0.7519  1.4244
   38MPD2    H2  597   1.685   3.892  12.924  1.7721 -1.2773 -0.7421
   38MPD2    H3  598   1.660   4.070  12.768  2.3728  0.9697 -2.5259
   38MPD2     N  599   1.519   3.816  12.424 -0.2550 -0.1332  0.2807
   38MPD2    H5  600   1.491   3.722  12.397 -3.1649  0.9800 -0.5031
   38MPD2    N1  601   1.685   3.637  12.836  0.3635 -0.4693  0.1235
   38MPD2    H7  602   1.697   3.551  12.785  1.2020 -0.9601  1.1603
   39TMC2    C1  603   3.486   1.577   1.787  0.5145  1.1181  0.6491
   39TMC2    C2  604   3.417   1.668   1.864  0.6485 -0.2695  0.0938
   39TMC2    C3  605   3.475   1.788   1.891 -0.5770 -0.4519 -0.1817
   39TMC2    C4  606   3.621   1.597   1.754  0.1451  0.1383  0.0933
   39TMC2    C5  607   3.672   1.719   1.789  0.3948  0.1489 -0.5784
   39TMC2    C6  608   3.605   1.818   1.857  0.5496 -0.0593  0.2102
   39TMC2     C  609   3.399   1.506   1.700 -0.4205  0.3388 -0.1849
   39TMC2     O  610   3.275   1.516   1.707 -0.2225 -0.4503 -0.0947
   39TMC2     H  611   3.310   1.657   1.878  1.0437 -4.0950  0.1046
   39TMC2    H1  612   3.674   1.521   1.698  1.2992  1.5705 -0.7478
   39TMC2    H2  613   3.646   1.915   1.882 -1.0729 -0.0788  2.9244
   39TMC2    C7  614   3.817   1.746   1.771  0.2670 -0.1924  0.1146
   39TMC2    C8  615   3.389   1.905   1.903  0.5276 -0.5666  0.0353
   39TMC2    O1  616   3.866   1.827   1.849  0.1933 -0.0959  0.0776
   39TMC2    O2  617   3.430   2.020   1.884 -0.4082  0.0580  0.7438
   39TMC2    O5  618   3.306   1.867   2.006  0.0262 -0.4000  0.0662
   39TMC2    H5  619   3.318   1.778   2.044 -1.8765  0.7930  3.5409
   40MPD2     C  620   3.502   1.274   1.431 -0.7798 -0.3707  0.6643
   40MPD2    C1  621   3.429   1.370   1.499  0.5377 -0.5617  0.0268
   40MPD2    C2  622   3.317   1.416   1.433  0.1399 -0.3139 -0.0773
   40MPD2    C3  623   3.278   1.373   1.306 -0.3754  0.5514  0.6447
   40MPD2    C4  624   3.357   1.279   1.240 -0.9214 -0.0722  0.5140
   40MPD2    C5  625   3.469   1.234   1.303  0.2672 -0.4258  0.0446
   40MPD2     H  626   3.247   1.485   1.479 -0.4845  0.2039 -1.8197
   40MPD2    H1  627   3.337   1.251   1.137  0.9791 -1.3457  0.4920
   40MPD2    H2  628   3.597   1.231   1.462 -1.8000 -2.9457  0.2660
   40MPD2    H3  629   3.541   1.167   1.258  0.5114 -0.4803  0.5170
   40MPD2     N  630   3.176   1.428   1.228 -0.0488  0.3555 -0.3396
   40MPD2    H5  631   3.152   1.378   1.143 -1.7036 -0.7246  0.7663
   40MPD2    N1  632   3.477   1.420   1.623 -0.2192 -0.4390 -0.2727
   40MPD2    H7  633   3.565   1.379   1.654  0.8933  3.6678  1.9398
   41TMC2    C1  634   2.651   4.264  13.971 -0.1958 -0.2988 -0.0137
   41TMC2    C2  635   2.584   4.283  13.854 -0.0994  0.5542 -0.5959
   41TMC2    C3  636   2.657   4.317  13.742  0.0493 -0.3007 -0.1674
   41TMC2    C4  637   2.785   4.292  13.980  0.0252  0.2005 -0.0303
   41TMC2    C5  638   2.853   4.321  13.868 -0.3856 -0.3096 -0.2251
   41TMC2    C6  639   2.791   4.343  13.745  0.0309 -0.0847  0.2410
   41TMC2     C  640   2.573   4.269  14.092  0.3883 -0.0157  0.7615
   41TMC2     O  641   2.465   4.214  14.091  0.6262  0.4497 -0.0573
   41TMC2     H  642   2.476   4.277  13.858 -0.1002  1.3405  0.5738
   41TMC2    H1  643   2.843   4.266  14.068  0.0887  1.9560  0.4535
   41TMC2    H2  644   2.836   4.370  13.650  0.5354  0.6984  0.6927
   41TMC2    C7  645   2.992   4.292  13.868 -0.3769 -0.5409 -0.3692
   41TMC2    C8  646   2.597   4.360  13.616 -0.0573 -0.7061  0.2483
   41TMC2    O1  647   3.070   4.321  13.956 -0.2114  0.2417 -0.0808
   41TMC2    O2  648   2.654   4.361  13.507  0.6037 -0.2035  0.3184
   41TMC2    O5  649   2.466   4.388  13.642  0.0745 -0.1824  0.4122
   41TMC2    H5  650   2.449   4.403  13.737  2.0807 -1.0314  0.8960
   42MPD2     C  651   2.528   4.233  14.380 -0.0679  0.1580 -0.3260
   42MPD2    C1  652   2.608   4.333  14.331  0.2161 -0.5110 -0.0387
   42MPD2    C2  653   2.666   4.427  14.416 -0.0674  0.1845 -0.2775
   42MPD2    C3  654   2.625   4.429  14.548 -0.5917  0.1098 -0.0051
   42MPD2    C4  655   2.556   4.323  14.600  0.7565 -0.3608 -0.9630
   42MPD2    C5  656   2.508   4.226  14.519 -0.4576  0.8602 -0.1050
   42MPD2     H  657   2.724   4.502  14.363 -0.9861  1.2822  0.2695
   42MPD2    H1  658   2.541   4.313  14.707  0.9999  0.9828 -0.8007
   42MPD2    H2  659   2.502   4.152  14.314 -1.4437 -0.8872  1.5096
   42MPD2    H3  660   2.461   4.135  14.554  1.7230 -0.6167 -0.9876
   42MPD2     N  661   2.665   4.530  14.634  0.1538 -0.1363  0.3237
   42MPD2    H5  662   2.661   4.512  14.734  1.1964 -2.1616  0.0077
   42MPD2    N1  663   2.645   4.335  14.196  0.3092  0.3069 -0.6613
   42MPD2    H7  664   2.720   4.394  14.162  0.1828  0.5252 -0.5624
   43TMC2    C1  665   3.744   2.865   0.772  0.4609  0.0874 -0.1204
   43TMC2    C2  666   3.638   2.936   0.732  0.0804 -0.0898  0.0619
   43TMC2    C3  667   3.632   3.066   0.775 -0.0464  0.7518  0.1842
   43TMC2    C4  668   3.834   2.912   0.862 -0.6971 -0.5300  0.0378
   43TMC2    C5  669   3.827   3.043   0.894 -0.6684  0.0749 -0.4855
   43TMC2    C6  670   3.728   3.128   0.853 -0.0327  0.0011 -0.3720
   43TMC2     C  671   3.789   2.754   0.689  0.6528 -0.6454  0.3944
   43TMC2     O  672   3.913   2.746   0.678 -0.3120 -0.6228  0.4934
   43TMC2     H  673   3.580   2.903   0.647 -0.9093 -1.2769  1.2033
   43TMC2    H1  674   3.908   2.843   0.900 -0.9637 -2.0234 -2.1686
   43TMC2    H2  675   3.721   3.232   0.885 -0.4689 -0.2382  0.2935
   43TMC2    C7  676   3.944   3.091   0.962  0.1753  0.7990  0.7438
   43TMC2    C8  677   3.542   3.150   0.699  0.3822  0.0687 -0.1866
   43TMC2    O1  678   4.038   3.012   0.971  0.0008  0.2737 -0.0348
   43TMC2    O2  679   3.568   3.268   0.675  0.1708  0.4564  0.3255
   43TMC2    O5  680   3.429   3.085   0.658 -0.1758  1.1640  0.2397
   43TMC2    H5  681   3.403   3.003   0.706 -0.3796 -0.2280 -2.2487
   44MPD2     C  682   3.708   2.274   0.562  0.0110  0.5672  0.7058
   44MPD2    C1  683   3.820   2.350   0.547 -0.0515  0.4070  0.5358
   44MPD2    C2  684   3.813   2.489   0.569  0.6249 -0.5940  0.2163
   44MPD2    C3  685   3.697   2.541   0.608 -0.9129  0.0812  0.0148
   44MPD2    C4  686   3.587   2.463   0.610 -1.4133 -0.5232 -0.2798
   44MPD2    C5  687   3.587   2.332   0.582  0.7334  0.0372  1.0291
   44MPD2     H  688   3.901   2.550   0.553  0.2994 -0.3794 -0.7253
   44MPD2    H1  689   3.493   2.507   0.641 -0.1703  0.7103  1.7491
   44MPD2    H2  690   3.723   2.167   0.573 -0.9289  0.2576 -1.0994
   44MPD2    H3  691   3.500   2.266   0.580 -0.4691  1.6706 -0.6515
   44MPD2     N  692   3.682   2.674   0.655 -0.2991  0.2394  0.0891
   44MPD2    H5  693   3.590   2.693   0.691  0.1371 -0.1794  1.4198
   44MPD2    N1  694   3.943   2.298   0.497  0.3893 -0.2021 -0.0954
   44MPD2    H7  695   4.034   2.338   0.520 -0.5023  1.4334  0.5359
   45TMC2    C1  696   0.821   4.392   9.844  0.2177  0.4696 -0.3015
   45TMC2    C2  697   0.907   4.325   9.929  0.1231  0.1863 -0.2758
   45TMC2    C3  698   0.954   4.394  10.034  0.5713 -0.1805  0.2419
   45TMC2    C4  699   0.806   4.525   9.855  0.1402 -0.7536  0.1350
   45TMC2    C5  700   0.861   4.589   9.963  0.4019 -0.7027  0.1757
   45TMC2    C6  701   0.932   4.523  10.058  0.0970 -0.3648  0.7322
   45TMC2     C  702   0.732   4.316   9.758  0.8157  0.5028  0.0278
   45TMC2     O  703   0.747   4.197   9.765 -0.6851  0.2541  0.1848
   45TMC2     H  704   0.920   4.217   9.921 -2.1799 -0.1171 -0.0000
   45TMC2    H1  705   0.752   4.576   9.776 -0.3792  1.3431  1.8432
   45TMC2    H2  706   0.976   4.591  10.130  0.0412  2.6661 -2.1030
   45TMC2    C7  707   0.850   0.004   9.981 -0.0530  0.3743 -0.0031
   45TMC2    C8  708   1.026   4.324  10.138 -0.3821 -0.2818 -0.8638
   45TMC2    O1  709   0.900   0.051  10.079 -0.0588 -0.1177 -0.0768
   45TMC2    O2  710   1.008   4.211  10.167 -0.0961 -0.1842  0.0322
   45TMC2    O5  711   1.146   4.382  10.125 -0.1941  0.4275 -0.2568
   45TMC2    H5  712   1.163   4.471  10.089 -2.5905  0.5194 -1.1738
   46MPD2     C  713   0.527   4.207   9.584  0.3534 -0.0057  0.3554
   46MPD2    C1  714   0.517   4.327   9.642  0.6405 -0.0487  0.1534
   46MPD2    C2  715   0.390   4.393   9.640 -0.0150 -0.2008 -0.0434
   46MPD2    C3  716   0.285   4.348   9.567  0.0662 -0.4490 -0.4739
   46MPD2    C4  717   0.300   4.224   9.509 -0.7767 -0.5707  0.4102
   46MPD2    C5  718   0.419   4.155   9.520  0.3941  0.1657  0.5057
   46MPD2     H  719   0.385   4.489   9.691  1.3224  0.2651 -0.7818
   46MPD2    H1  720   0.220   4.172   9.458  0.0788 -1.4751 -0.0100
   46MPD2    H2  721   0.620   4.154   9.567 -0.5787 -1.6165  0.3005
   46MPD2    H3  722   0.425   4.058   9.472 -0.8227 -0.2032  1.0933
   46MPD2     N  723   0.165   4.428   9.557 -0.0079 -0.1575  0.1835
   46MPD2    H5  724   0.166   4.507   9.621 -1.5414  0.0625 -0.0741
   46MPD2    N1  725   0.624   4.389   9.703 -0.3552 -0.4948  0.6590
   46MPD2    H7  726   0.618   4.490   9.715 -0.1114 -0.5848  1.5168
   47TMC2    C1  727   3.367   4.109   9.413  0.3717 -0.7696 -1.0160
   47TMC2    C2  728   3.385   4.028   9.293  1.2378  0.1826  0.2564
   47TMC2    C3  729   3.278   4.012   9.217 -0.0649  0.1031  0.2366
   47TMC2    C4  730   3.254   4.186   9.423 -0.1854 -0.1544 -0.0722
   47TMC2    C5  731   3.152   4.167   9.343 -0.0772  0.3046  0.4419
   47TMC2    C6  732   3.162   4.082   9.236 -0.5048 -0.2429  0.4255
   47TMC2     C  733   3.468   4.105   9.514  0.6491 -0.0332  0.2724
   47TMC2     O  734   3.544   4.013   9.498  0.0375 -0.1683 -0.0521
   47TMC2     H  735   3.477   3.973   9.276  0.2098 -1.3380 -0.4766
   47TMC2    H1  736   3.232   4.246   9.510 -0.5554  0.5539 -0.6603
   47TMC2    H2  737   3.074   4.084   9.173 -0.5094 -0.1696  0.4337
   47TMC2    C7  738   3.037   4.254   9.356 -0.2918  0.2716 -0.2993
   47TMC2    C8  739   3.299   3.966   9.077  0.3184 -0.1142 -0.0377
   47TMC2    O1  740   2.937   4.203   9.311  0.0921 -0.8797  0.0384
   47TMC2    O2  741   3.228   4.007   8.987  0.2670 -0.2493 -0.0017
   47TMC2    O5  742   3.394   3.873   9.070 -0.2472  0.2760 -0.4570
   47TMC2    H5  743   3.411   3.831   9.157  0.3708  0.5860 -0.4288
   48MPD2     C  744   3.637   4.117   9.759 -0.1871  0.8039  0.1493
   48MPD2    C1  745   3.548   4.214   9.721  0.0764 -0.1111  0.6842
   48MPD2    C2  746   3.532   4.322   9.805  0.1326 -0.0907 -0.2986
   48MPD2    C3  747   3.600   4.338   9.919  1.0645 -0.1956 -0.1757
   48MPD2    C4  748   3.706   4.250   9.939 -0.4292 -0.5806  0.6103
   48MPD2    C5  749   3.710   4.136   9.873  0.5168  0.5472 -0.1492
   48MPD2     H  750   3.455   4.396   9.786  0.6823  0.5343 -0.0864
   48MPD2    H1  751   3.774   4.252  10.023 -1.1216 -0.2617  1.1521
   48MPD2    H2  752   3.632   4.018   9.716 -0.7153 -0.1292  2.3164
   48MPD2    H3  753   3.780   4.060   9.905 -0.5336 -0.2162  0.3126
   48MPD2     N  754   3.567   4.448  10.002 -0.0117  0.3162 -0.8610
   48MPD2    H5  755   3.493   4.510   9.972 -1.1156 -0.0733  0.9983
   48MPD2    N1  756   3.462   4.200   9.608  0.0790 -0.8718  0.2413
   48MPD2    H7  757   3.384   4.263   9.592 -1.0719 -2.4941 -0.5078
   49TMC2    C1  758   1.612   2.398  10.380 -0.2319  0.0596  0.0259
   49TMC2    C2  759   1.683   2.472  10.289 -0.6833 -0.0367 -0.1330
   49TMC2    C3  760   1.754   2.400  10.193 -0.1646 -0.6900 -0.1109
   49TMC2    C4  761   1.621   2.258  10.371  0.6786 -0.3336  0.6401
   49TMC2    C5  762   1.690   2.193  10.270 -0.0613  0.5651  0.3248
   49TMC2    C6  763   1.750   2.265  10.176 -0.0768  0.0279  0.0586
   49TMC2     C  764   1.564   2.459  10.506 -0.0342 -0.1201  0.6486
   49TMC2     O  765   1.525   2.578  10.494  0.4025 -0.6425 -0.1164
   49TMC2     H  766   1.674   2.579  10.281 -0.7943 -0.3149 -3.8200
   49TMC2    H1  767   1.575   2.209  10.456 -0.1389 -2.0734 -0.8043
   49TMC2    H2  768   1.813   2.222  10.099  2.8807 -1.0212  3.0695
   49TMC2    C7  769   1.674   2.050  10.252 -0.0925 -0.3130 -0.5414
   49TMC2    C8  770   1.818   2.467  10.085  0.6002  0.1788  0.0698
   49TMC2    O1  771   1.729   1.993  10.158 -0.2187  0.1491 -0.2597
   49TMC2    O2  772   1.839   2.420   9.973  0.3603 -0.0619  0.6361
   49TMC2    O5  773   1.831   2.598  10.107  0.6405  0.3825  0.4714
   49TMC2    H5  774   1.836   2.605  10.205 -0.2915  1.0024  0.4708
   50MPD2     C  775   1.490   2.521  10.781 -0.0676  0.3830  0.3674
   50MPD2    C1  776   1.575   2.419  10.748  0.8368  0.0461 -0.0570
   50MPD2    C2  777   1.641   2.352  10.845  0.0067  0.0507  0.4573
   50MPD2    C3  778   1.608   2.373  10.982 -0.0358 -0.0589 -0.1829
   50MPD2    C4  779   1.524   2.477  11.018  0.1481 -0.7152 -0.1195
   50MPD2    C5  780   1.469   2.557  10.915 -0.0577  0.1434  0.0887
   50MPD2     H  781   1.707   2.271  10.816  0.5256  1.0582 -1.1709
   50MPD2    H1  782   1.491   2.499  11.119  0.6175  1.6278 -0.4819
   50MPD2    H2  783   1.431   2.564  10.700 -1.5800  0.0671  1.2936
   50MPD2    H3  784   1.400   2.637  10.938  1.3597  1.5673 -0.5325
   50MPD2     N  785   1.660   2.297  11.089  0.2770  0.3801 -0.2861
   50MPD2    H5  786   1.607   2.312  11.174 -2.0277 -0.6309 -1.5604
   50MPD2    N1  787   1.595   2.377  10.615 -0.1062 -0.0271  0.7118
   50MPD2    H7  788   1.643   2.290  10.595 -0.9772  0.0934 -1.9254
   51TMC2    C1  789   2.244   1.256   1.990 -0.1227  0.0962  0.3379
   51TMC2    C2  790   2.328   1.349   2.056  0.4146 -0.7885 -0.8938
   51TMC2    C3  791   2.290   1.477   2.058 -0.2498  0.0211 -0.1657
   51TMC2    C4  792   2.138   1.298   1.909 -0.8815  0.5444  0.0470
   51TMC2    C5  793   2.103   1.432   1.921 -0.2770 -0.1161  0.2315
   51TMC2    C6  794   2.181   1.518   1.990 -0.1920  0.2650 -0.2288
   51TMC2     C  795   2.280   1.112   1.975  0.0570  0.9198 -0.6644
   51TMC2     O  796   2.229   1.043   1.888 -0.3101  0.1924  0.5842
   51TMC2     H  797   2.426   1.316   2.087 -1.7013 -3.3580  3.1045
   51TMC2    H1  798   2.080   1.225   1.855  1.5588 -1.0864 -0.3803
   51TMC2    H2  799   2.161   1.624   1.985  1.5394  0.6190  0.3197
   51TMC2    C7  800   1.997   1.479   1.834  0.0684 -0.8508  0.5693
   51TMC2    C8  801   2.350   1.554   2.161  0.1823  0.0231 -0.2034
   51TMC2    O1  802   2.002   1.599   1.796  0.0802  0.1718 -0.5034
   51TMC2    O2  803   2.455   1.518   2.213  0.4414  0.0232  0.0170
   51TMC2    O5  804   2.262   1.636   2.221 -0.3137 -0.3360  0.3937
   51TMC2    H5  805   2.170   1.636   2.186 -0.1268 -0.4902 -0.1020
   52MPD2     C  806   2.601   0.729   2.046  0.5094  0.2869 -0.6031
   52MPD2    C1  807   2.509   0.759   1.948  0.5013 -0.2267  0.9293
   52MPD2    C2  808   2.440   0.875   1.953 -0.3502  0.1943  0.4963
   52MPD2    C3  809   2.449   0.958   2.065  0.3220  0.0511 -0.1166
   52MPD2    C4  810   2.538   0.932   2.168 -1.2192 -0.3303  0.3370
   52MPD2    C5  811   2.620   0.823   2.149 -0.0641 -0.1287 -0.5467
   52MPD2     H  812   2.370   0.893   1.872  0.6808  4.6380  0.5468
   52MPD2    H1  813   2.553   0.985   2.262  0.5156 -0.0562 -0.0866
   52MPD2    H2  814   2.677   0.653   2.036  0.8462  0.3516  1.4248
   52MPD2    H3  815   2.693   0.803   2.228 -2.1553 -3.5203  0.5052
   52MPD2     N  816   2.369   1.078   2.069 -0.0026 -0.4637  0.3271
   52MPD2    H5  817   2.390   1.151   2.137  1.8303 -0.2603 -0.4582
   52MPD2    N1  818   2.491   0.679   1.844  0.2379  0.2050  0.1281
   52MPD2    H7  819   2.418   0.711   1.781 -0.0239  0.5002  0.5861
   53TMC2    C1  820   1.579   4.194  11.190 -0.1057  0.1395 -0.0471
   53TMC2    C2  821   1.514   4.294  11.135 -0.4186 -0.4856  0.7454
   53TMC2    C3  822   1.565   4.418  11.160  0.3687  0.3497 -0.2002
   53TMC2    C4  823   1.680   4.208  11.282 -0.3204  0.3838 -0.2055
   53TMC2    C5  824   1.723   4.335  11.306  0.3752  0.3926  0.0652
   53TMC2    C6  825   1.667   4.443  11.250  0.0364  0.2474  0.4263
   53TMC2     C  826   1.498   4.076  11.211  0.6573 -0.5527 -0.8487
   53TMC2     O  827   1.410   4.043  11.133  0.6987 -0.4931  0.1286
   53TMC2     H  828   1.422   4.289  11.078  0.1333 -0.4185 -0.1466
   53TMC2    H1  829   1.727   4.119  11.322 -0.0347 -0.9534 -3.4846
   53TMC2    H2  830   1.694   4.547  11.258  2.7129 -0.3823 -0.7056
   53TMC2    C7  831   1.787   4.365  11.426 -0.2821 -0.3522  0.3746
   53TMC2    C8  832   1.464   4.524  11.141 -0.2500  0.1136 -0.3374
   53TMC2    O1  833   1.751   4.471  11.474  0.4551  0.4422  0.1791
   53TMC2    O2  834   1.371   4.503  11.065 -0.3459  0.0546 -0.2705
   53TMC2    O5  835   1.454   4.584  11.258  0.0379  0.2286 -0.1693
   53TMC2    H5  836   1.525   4.549  11.315  0.4889 -0.7015 -1.2890
   54MPD2     C  837   1.361   3.846  11.341 -0.0793  0.0581 -0.2176
   54MPD2    C1  838   1.442   3.931  11.405 -0.3464 -0.3886 -0.0002
   54MPD2    C2  839   1.461   3.911  11.541  0.4277  0.5754  0.9935
   54MPD2    C3  840   1.398   3.803  11.605 -0.3111  0.0029 -0.3593
   54MPD2    C4  841   1.317   3.714  11.531 -0.0724 -0.5510 -0.0302
   54MPD2    C5  842   1.297   3.741  11.395 -0.4120 -0.1686 -0.1373
   54MPD2     H  843   1.527   3.968  11.605 -0.8662  2.5701  0.5517
   54MPD2    H1  844   1.255   3.639  11.579 -0.1156  0.5258  1.6129
   54MPD2    H2  845   1.352   3.850  11.233 -3.0633  1.7778  0.0793
   54MPD2    H3  846   1.240   3.670  11.336 -1.8270 -0.6183  1.7568
   54MPD2     N  847   1.387   3.792  11.746 -0.0027 -0.1332 -0.2215
   54MPD2    H5  848   1.347   3.705  11.779 -2.2400  0.9198 -0.2058
   54MPD2    N1  849   1.515   4.031  11.345  0.6260 -0.4130  0.3081
   54MPD2    H7  850   1.575   4.088  11.404  0.1635 -1.4313  1.7688
   55TMC2    C1  851   2.031   3.554   0.194  0.3600  0.6586 -1.3753
   55TMC2    C2  852   2.135   3.639   0.165  0.0873  0.5095 -0.2920
   55TMC2    C3  853   2.244   3.588   0.116  0.4020 -1.1917 -0.4688
   55TMC2    C4  854   2.034   3.417   0.162  0.7882  0.3235  0.0486
   55TMC2    C5  855   2.152   3.367   0.120  0.6924 -0.0997  0.7873
   55TMC2    C6  856   2.257   3.452   0.097  0.2358  0.6264 -0.0084
   55TMC2     C  857   1.903   3.602   0.219  0.1485 -0.2873 -0.2308
   55TMC2     O  858   1.831   3.515   0.264 -0.5505  0.0145 -0.3053
   55TMC2     H  859   2.136   3.741   0.203  1.6969  0.2512  0.3823
   55TMC2    H1  860   1.949   3.353   0.184  0.1133  0.1134 -3.1558
   55TMC2    H2  861   2.352   3.411   0.066 -1.7184 -3.3373 -0.7520
   55TMC2    C7  862   2.164   3.230   0.100 -0.2516 -0.2015 -0.2917
   55TMC2    C8  863   2.361   3.663   0.140  0.1479  0.4820  0.3717
   55TMC2    O1  864   2.251   3.185   0.024 -0.1766  0.6467  0.0263
   55TMC2    O2  865   2.375   3.743   0.231  0.0575  0.6357 -0.2922
   55TMC2    O5  866   2.418   3.682   0.014  0.2354 -0.7220 -0.0243
   55TMC2    H5  867   2.387   3.624  17.678 -2.8790  0.6615  0.1858
   56MPD2     C  868   1.717   3.892   0.087 -0.4027 -0.1704 -0.2432
   56MPD2    C1  869   1.747   3.792   0.171  0.4498  0.0677 -0.8744
   56MPD2    C2  870   1.644   3.746   0.260 -0.2269 -0.4078  0.2646
   56MPD2    C3  871   1.515   3.794   0.256  0.6998  0.8971  0.1901
   56MPD2    C4  872   1.500   3.901   0.171  0.1332  0.5219  0.2650
   56MPD2    C5  873   1.593   3.954   0.094 -0.5032 -0.0370 -0.2711
   56MPD2     H  874   1.660   3.664   0.330 -0.4072  1.6357  2.6886
   56MPD2    H1  875   1.406   3.955   0.170  0.2652  0.7923  2.5236
   56MPD2    H2  876   1.788   3.937   0.019 -1.1219  1.9017  0.3682
   56MPD2    H3  877   1.569   4.038   0.030 -1.4234  0.5554  0.8491
   56MPD2     N  878   1.413   3.733   0.338  0.2271 -1.0151  0.0799
   56MPD2    H5  879   1.447   3.656   0.395  3.3871  0.8211  0.6931
   56MPD2    N1  880   1.872   3.725   0.162 -0.1827 -0.1310 -0.3088
   56MPD2    H7  881   1.939   3.761   0.094  1.8194 -0.8047  1.3220
   57TMC2    C1  882   1.913   2.583  13.607 -0.1584  0.0627 -0.8503
   57TMC2    C2  883   1.904   2.448  13.576 -0.0348  0.6040  0.6089
   57TMC2    C3  884   1.997   2.395  13.490  0.1576  0.3557 -0.1664
   57TMC2    C4  885   1.989   2.668  13.544 -0.4766 -0.1670 -0.1912
   57TMC2    C5  886   2.087   2.611  13.473 -0.6502  0.0401 -0.1383
   57TMC2    C6  887   2.093   2.480  13.439 -0.4691  0.1706  0.4118
   57TMC2     C  888   1.838   2.635  13.716 -0.2885 -0.3218  0.4067
   57TMC2     O  889   1.894   2.706  13.798 -0.0173 -0.0900 -0.4191
   57TMC2     H  890   1.848   2.381  13.640 -2.6331 -0.8819 -3.1935
   57TMC2    H1  891   1.994   2.772  13.573 -4.0542 -0.6534  2.0616
   57TMC2    H2  892   2.174   2.428  13.390 -1.3400  0.4721 -1.3579
   57TMC2    C7  893   2.171   2.705  13.395  0.4171  0.4122  0.0268
   57TMC2    C8  894   1.975   2.268  13.418  0.1293  0.1004 -0.0675
   57TMC2    O1  895   2.206   2.814  13.442 -0.3693  0.4287 -0.5283
   57TMC2    O2  896   2.052   2.174  13.399  0.6887 -0.4582  0.2429
   57TMC2    O5  897   1.843   2.251  13.421  0.1944 -0.0513  0.2305
   57TMC2    H5  898   1.793   2.334  13.436 -0.2265 -0.6293  2.0963
   58MPD2     C  899   1.376   2.695  13.941  0.1092 -0.4403  0.1374
   58MPD2    C1  900   1.499   2.757  13.970 -0.1259  0.6953  0.3291
   58MPD2    C2  901   1.609   2.729  13.898  0.4301 -0.8333 -0.7882
   58MPD2    C3  902   1.597   2.628  13.801 -0.4739  1.0700 -0.5045
   58MPD2    C4  903   1.481   2.555  13.786 -0.9348  1.1681  0.4308
   58MPD2    C5  904   1.367   2.585  13.856  0.8478  0.6067  0.3711
   58MPD2     H  905   1.702   2.784  13.904  0.0459 -0.5868  2.3681
   58MPD2    H1  906   1.479   2.470  13.719  1.0220  1.9553 -0.6236
   58MPD2    H2  907   1.288   2.721  14.000  0.4541  0.4291  0.2639
   58MPD2    H3  908   1.272   2.537  13.836  0.3279  2.1677 -0.9083
   58MPD2     N  909   1.709   2.593  13.712  0.0405 -0.3538 -0.0509
   58MPD2    H5  910   1.684   2.538  13.631 -0.7919  1.2403 -0.8698
   58MPD2    N1  911   1.491   2.859  14.066 -0.1828 -0.4368  0.2206
   58MPD2    H7  912   1.395   2.883  14.091 -0.5885 -1.6840 -0.1708
   59TMC2    C1  913   4.118   3.627  12.465 -0.1900  0.0298  1.4506
   59TMC2    C2  914   4.244   3.650  12.408  0.1578  0.1013  1.1850
   59TMC2    C3  915   4.263   3.610  12.276  0.3274 -0.1367  0.0682
   59TMC2    C4  916   4.015   3.580  12.384  0.1461  0.0399 -0.3556
   59TMC2    C5  917   4.043   3.545  12.259  0.1664 -0.2428  0.0508
   59TMC2    C6  918   4.164   3.548  12.199 -0.3206 -0.0228 -0.8853
   59TMC2     C  919   4.080   3.700  12.585 -0.5270  0.1025 -1.3108
   59TMC2     O  920   3.962   3.722  12.611 -0.4490  0.2962 -0.5339
   59TMC2     H  921   4.327   3.699  12.459  0.5697 -1.5749  2.1358
   59TMC2    H1  922   3.918   3.564  12.429  1.0372 -0.5718  1.3790
   59TMC2    H2  923   4.166   3.507  12.098 -1.2689 -0.9139 -0.5514
   59TMC2    C7  924   3.941   3.490  12.175  0.5415 -0.7195 -0.0952
   59TMC2    C8  925   4.398   3.630  12.223 -0.0720  0.0090 -0.5321
   59TMC2    O1  926   3.855   3.423  12.234 -0.2678 -0.6618 -0.2438
   59TMC2    O2  927   4.486   3.695  12.279  0.4759 -0.2922  0.2041
   59TMC2    O5  928   4.420   3.563  12.110 -0.3380 -0.3088  0.3489
   59TMC2    H5  929   4.347   3.501  12.089 -0.0178 -0.0719 -1.5488
   60MPD2     C  930   4.077   3.880  12.834 -0.5432 -0.4142  0.0726
   60MPD2    C1  931   4.189   3.817  12.775  0.5075 -0.2024 -0.4780
   60MPD2    C2  932   4.310   3.829  12.832  0.1330  0.2441 -0.0073
   60MPD2    C3  933   4.328   3.909  12.941 -0.8326 -0.0905  0.4395
   60MPD2    C4  934   4.220   3.974  12.992  0.1768 -0.3268  0.5423
   60MPD2    C5  935   4.094   3.952  12.944  0.2433  0.4175 -0.2802
   60MPD2     H  936   4.387   3.772  12.783 -0.1138 -0.2620  0.1942
   60MPD2    H1  937   4.230   4.046  13.073  0.7359 -0.0800  0.2583
   60MPD2    H2  938   3.979   3.879  12.787 -0.2721  2.1533 -0.5584
   60MPD2    H3  939   4.012   4.014  12.980 -1.5226 -2.3874  0.4919
   60MPD2     N  940   4.459   3.917  12.996 -0.2596  0.6821  0.1626
   60MPD2    H5  941   4.528   3.893  12.926 -2.1128 -1.7969 -0.8017
   60MPD2    N1  942   4.188   3.737  12.658  0.0736 -0.4191 -0.0135
   60MPD2    H7  943   4.277   3.693  12.637 -1.7407 -4.4161  0.8234
   61TMC2    C1  944   3.919   4.602  15.489 -0.1713  0.1717  0.1540
   61TMC2    C2  945   3.942   4.562  15.610 -0.1911 -0.4438  0.2865
   61TMC2    C3  946   3.914   4.645  15.716 -0.9097 -0.1303 -0.2987
   61TMC2    C4  947   3.850   4.719  15.463  0.2910 -0.0500  0.8216
   61TMC2    C5  948   3.802   0.050  15.570  0.0224 -0.0182 -0.5752
   61TMC2    C6  949   3.847   0.029  15.694  0.6888 -0.4411  0.3142
   61TMC2     C  950   3.931   4.514  15.374  0.5329 -0.5819  0.7841
   61TMC2     O  951   3.932   4.393  15.405 -0.6952 -0.0059 -0.3243
   61TMC2     H  952   3.984   4.464  15.623 -1.3677 -1.1315 -1.1073
   61TMC2    H1  953   3.819   0.002  15.361 -0.3891  2.6634  1.5074
   61TMC2    H2  954   3.838   0.108  15.768 -0.8496  2.0421 -2.5386
   61TMC2    C7  955   3.723   0.169  15.548 -0.6752  0.3201 -0.0729
   61TMC2    C8  956   3.950   4.605  15.851  0.3326 -0.0129 -0.0365
   61TMC2    O1  957   3.721   0.221  15.435  0.1683  0.0975 -0.1967
   61TMC2    O2  958   3.903   4.657  15.953 -0.7524 -0.3583 -0.2683
   61TMC2    O5  959   4.059   4.526  15.835 -0.2825 -0.2405  0.0498
   61TMC2    H5  960   4.093   4.496  15.748 -0.2416  1.1667 -0.4136
   62MPD2     C  961   3.864   4.378  15.122  0.8326 -0.8409 -0.2621
   62MPD2    C1  962   3.925   4.499  15.126  0.1006  0.0353  0.2289
   62MPD2    C2  963   3.937   4.556  15.003 -0.3602  0.4829 -0.1866
   62MPD2    C3  964   3.915   4.494  14.889 -0.5317 -0.6033 -0.0162
   62MPD2    C4  965   3.868   4.371  14.888 -0.2376  0.2916 -0.1168
   62MPD2    C5  966   3.849   4.305  15.006 -0.0651 -0.1487 -0.0301
   62MPD2     H  967   3.973   4.658  14.998 -0.5954  0.4266 -2.7743
   62MPD2    H1  968   3.851   4.320  14.795  0.5440 -0.7720  0.3233
   62MPD2    H2  969   3.855   4.316  15.211 -0.7204  0.0896  0.2288
   62MPD2    H3  970   3.824   4.199  15.005 -0.2741 -0.1100  2.5278
   62MPD2     N  971   3.944   4.555  14.761  0.1645 -0.0994 -0.8474
   62MPD2    H5  972   3.894   4.523  14.679  0.3488 -0.2546 -0.9012
   62MPD2    N1  973   3.947   4.568  15.246  0.5815 -0.1654  0.2945
   62MPD2    H7  974   3.984   4.662  15.234  0.0327  0.0609  0.3721
   63TMC2    C1  975   3.049   0.698  10.225  0.4507 -0.4281  0.0689
   63TMC2    C2  976   3.142   0.789  10.207  0.2783  0.6133  0.0994
   63TMC2    C3  977   3.211   0.785  10.088 -0.2858 -0.3128  0.4526
   63TMC2    C4  978   3.009   0.606  10.126  0.1783  0.0425 -0.0833
   63TMC2    C5  979   3.082   0.609  10.012  0.3272  0.1412 -0.6689
   63TMC2    C6  980   3.179   0.697   9.988 -0.2377 -0.0072  0.3087
   63TMC2     C  981   3.016   0.663  10.364  0.1786  0.2889 -0.0525
   63TMC2     O  982   3.047   0.729  10.463 -0.3409 -0.0374  0.2843
   63TMC2     H  983   3.171   0.847  10.294  0.6588  1.3952 -0.5516
   63TMC2    H1  984   2.927   0.536  10.141  0.8135 -0.7755 -0.4432
   63TMC2    H2  985   3.228   0.698   9.891  0.2126 -1.2373  0.5284
   63TMC2    C7  986   3.033   0.528   9.901 -0.1997 -0.5427  0.4882
   63TMC2    C8  987   3.345   0.828  10.108 -0.6744 -0.4106 -0.5070
   63TMC2    O1  988   2.915   0.515   9.891 -0.5373  0.1390 -0.7169
   63TMC2    O2  989   3.392   0.795  10.213  0.0049 -0.0488 -0.2189
   63TMC2    O5  990   3.416   0.838   9.995  0.4291 -0.9261 -0.0512
   63TMC2    H5  991   3.359   0.846   9.916  1.0120 -0.0508 -0.3808
   64MPD2     C  992   2.856   0.290  10.690  0.3336 -0.1344  0.2851
   64MPD2    C1  993   2.910   0.235  10.573 -0.2060 -1.0387  0.3055
   64MPD2    C2  994   2.954   0.317  10.471 -0.1033 -0.2172  0.1587
   64MPD2    C3  995   2.947   0.451  10.483 -0.8063  0.2130  0.0695
   64MPD2    C4  996   2.896   0.508  10.603  0.6151  0.0193  0.5084
   64MPD2    C5  997   2.855   0.427  10.707 -0.3414  0.0254  0.0579
   64MPD2     H  998   3.003   0.258  10.395 -1.3072 -0.3061 -0.5464
   64MPD2    H1  999   2.900   0.613  10.631  0.6794  0.0653  0.3241
   64MPD2    H2 1000   2.815   0.229  10.770 -0.6011  0.0781 -0.0351
   64MPD2    H3 1001   2.831   0.478  10.800  0.0625  1.5620 -0.6715
   64MPD2     N 1002   2.992   0.525  10.366 -0.9962  0.0504 -0.2084
   64MPD2    H5 1003   3.013   0.471  10.283  2.1234  0.1287  0.5220
   64MPD2    N1 1004   2.940   0.096  10.566 -0.2019 -0.6514  0.0926
   64MPD2    H7 1005   3.007   0.065  10.496 -1.7446 -1.6243 -0.9535
   65TMC2    C1 1006   4.344   4.545  15.462  0.2754  0.0999 -0.5839
   65TMC2    C2 1007   4.410   4.523  15.347 -0.2743  1.0224  0.4401
   65TMC2    C3 1008   4.434   4.626  15.256  0.6448 -0.1405 -0.1312
   65TMC2    C4 1009   4.303   4.672  15.495  0.2547  1.5637 -0.1941
   65TMC2    C5 1010   4.331   0.040  15.403 -0.5284 -0.2758 -0.1627
   65TMC2    C6 1011   4.396   0.020  15.278  0.0083 -0.4743 -0.0422
   65TMC2     C 1012   4.275   4.444  15.531  0.3918  0.3865 -0.0261
   65TMC2     O 1013   4.218   4.482  15.630 -0.1332 -0.0234 -0.5512
   65TMC2     H 1014   4.463   4.429  15.347 -2.9562 -0.5135  2.4022
   65TMC2    H1 1015   4.229   4.681  15.574 -0.9264 -0.3501 -1.0977
   65TMC2    H2 1016   4.412   0.106  15.214  1.0500  0.2523  1.1933
   65TMC2    C7 1017   4.279   0.171  15.416 -0.5446 -0.2586 -0.1133
   65TMC2    C8 1018   4.511   4.588  15.142  0.3494 -0.4336  0.9354
   65TMC2    O1 1019   4.274   0.235  15.312  0.2933 -0.3103  0.0125
   65TMC2    O2 1020   4.596   4.506  15.149 -0.0025 -0.1727 -0.6357
   65TMC2    O5 1021   4.487   4.670  15.041 -0.2003 -0.6504  0.1824
   65TMC2    H5 1022   4.421   0.008  15.047  2.2303  1.5586  0.1529
   66MPD2     C 1023   4.204   4.193  15.665  0.3812  0.2426  0.6778
   66MPD2    C1 1024   4.219   4.201  15.532 -0.6492 -0.2687  0.6534
   66MPD2    C2 1025   4.185   4.098  15.451  0.1127  0.0362 -0.2496
   66MPD2    C3 1026   4.126   3.983  15.498  0.8722  0.1825  0.8448
   66MPD2    C4 1027   4.098   3.979  15.632  0.5368  0.0652 -0.0431
   66MPD2    C5 1028   4.136   4.085  15.710 -0.5127 -0.5466 -0.1897
   66MPD2     H 1029   4.209   4.108  15.346  0.2489 -2.5500 -0.4803
   66MPD2    H1 1030   4.050   3.897  15.684  1.0180 -0.3789 -0.2984
   66MPD2    H2 1031   4.226   4.280  15.726 -0.4747  0.9833 -0.0717
   66MPD2    H3 1032   4.102   4.076  15.812 -1.8742  1.9078 -0.4399
   66MPD2     N 1033   4.095   3.878  15.406  0.3854  0.3963 -0.0127
   66MPD2    H5 1034   4.047   3.800  15.449  0.0578  0.8273  0.3996
   66MPD2    N1 1035   4.272   4.315  15.471  0.3482 -0.8741  0.4039
   66MPD2    H7 1036   4.311   4.309  15.377  1.0344  1.7351  0.4942
   67TMC2    C1 1037   4.481   3.630  14.244  0.3235  0.2004  0.2636
   67TMC2    C2 1038   4.369   3.708  14.284  0.3396  0.6295 -0.4573
   67TMC2    C3 1039   4.392   3.805  14.388 -0.0585 -0.3887 -0.4419
   67TMC2    C4 1040   4.592   3.630  14.321 -0.1662  0.1530  0.6329
   67TMC2    C5 1041   4.604   3.712  14.428  0.3562  0.0631  0.3430
   67TMC2    C6 1042   4.511   3.806  14.463 -0.4254  0.5799 -0.4528
   67TMC2     C 1043   4.451   3.504  14.185 -0.6233 -1.2339  0.3501
   67TMC2     O 1044   4.518   3.413  14.237  0.2869 -0.1700 -0.1140
   67TMC2     H 1045   4.284   3.708  14.217 -1.1681  0.1837  1.4512
   67TMC2    H1 1046   4.672   3.566  14.286 -0.4867 -0.3766  0.8852
   67TMC2    H2 1047   4.534   3.874  14.544 -1.6551 -0.9295  1.1749
   67TMC2    C7 1048   4.710   3.668  14.525  0.1058  0.1274 -0.0146
   67TMC2    C8 1049   4.284   3.898  14.425  0.0243 -0.1001 -0.0648
   67TMC2    O1 1050   0.080   3.612  14.484 -0.6217  0.7195  0.6370
   67TMC2    O2 1051   4.294   3.997  14.496  0.3924  0.4271 -0.0858
   67TMC2    O5 1052   4.161   3.856  14.377  0.3751 -0.1363  0.1343
   67TMC2    H5 1053   4.147   3.759  14.383  0.9626 -0.2077  0.3498
   68MPD2     C 1054   4.363   3.278  14.017  0.7802 -0.0041 -0.3701
   68MPD2    C1 1055   4.312   3.408  13.997  0.5103  0.4317 -0.3329
   68MPD2    C2 1056   4.224   3.430  13.887 -0.3526 -1.2066 -0.2218
   68MPD2    C3 1057   4.192   3.329  13.801  0.3634 -0.2224  0.5489
   68MPD2    C4 1058   4.240   3.205  13.826  0.0095 -0.8008 -0.0810
   68MPD2    C5 1059   4.326   3.178  13.933  0.0322 -0.0727  0.3745
   68MPD2     H 1060   4.181   3.529  13.876 -0.5083 -1.1362  1.0271
   68MPD2    H1 1061   4.224   3.114  13.769  0.0454 -1.8970  1.6595
   68MPD2    H2 1062   4.413   3.242  14.106 -0.2426 -0.4336  0.0394
   68MPD2    H3 1063   4.359   3.076  13.944 -2.4001 -0.8917  0.0981
   68MPD2     N 1064   4.119   3.340  13.682  0.3514 -0.2941 -0.6301
   68MPD2    H5 1065   4.100   3.256  13.629 -0.9540 -0.0297 -0.6067
   68MPD2    N1 1066   4.363   3.517  14.081 -0.3642 -0.8043 -0.5030
   68MPD2    H7 1067   4.328   3.607  14.049 -1.1109 -0.3446  1.5853
   69TMC2    C1 1068   1.322   4.700  12.943 -0.4365  0.5334  0.0219
   69TMC2    C2 1069   1.188   4.690  12.939  0.0604  0.1263 -0.4749
   69TMC2    C3 1070   1.120   4.701  12.828  0.4858  0.4285  0.0756
   69TMC2    C4 1071   1.395   4.708  12.825  0.1906 -0.0574  0.7888
   69TMC2    C5 1072   1.323   4.715  12.709 -0.2709 -0.4299  0.1477
   69TMC2    C6 1073   1.184   4.718  12.710  0.6271 -0.5599 -0.7868
   69TMC2     C 1074   1.398   4.667  13.059 -0.5246  0.2249 -0.0571
   69TMC2     O 1075   1.354   4.585  13.139 -0.4036  0.6234  0.2287
   69TMC2     H 1076   1.129   4.670  13.027 -0.1706  1.1619 -0.3917
   69TMC2    H1 1077   1.496   4.670  12.821 -0.7009 -2.1906 -1.5110
   69TMC2    H2 1078   1.127   4.723  12.618  0.6025 -0.9224 -0.7909
   69TMC2    C7 1079   1.402   4.698  12.593 -0.7653  0.0071  0.7363
   69TMC2    C8 1080   0.977   4.675  12.831  0.2780  0.7485  0.0874
   69TMC2    O1 1081   1.523   4.703  12.607  0.3128  0.1744 -0.0086
   69TMC2    O2 1082   0.903   4.732  12.906 -0.1381  0.2286  0.0870
   69TMC2    O5 1083   0.956   4.575  12.738 -0.2993  0.6461 -0.2319
   69TMC2    H5 1084   1.031   4.551  12.680 -2.6994  1.1831 -3.5564
   70MPD2     C 1085   1.758   4.712  13.064  0.0204  0.1585  0.3031
   70MPD2    C1 1086   1.642   4.655  13.102  0.3688 -0.4417  0.1468
   70MPD2    C2 1087   1.644   4.542  13.182 -0.4838 -0.0544 -0.2782
   70MPD2    C3 1088   1.770   4.480  13.210 -0.1764  0.0171  0.8139
   70MPD2    C4 1089   1.887   4.533  13.161 -0.0673  0.0601  0.0867
   70MPD2    C5 1090   1.875   4.655  13.096 -0.2179  1.0634  0.1097
   70MPD2     H 1091   1.551   4.503  13.221 -1.3206  0.5566 -1.6307
   70MPD2    H1 1092   1.980   4.477  13.152 -0.6265 -1.0864  1.6592
   70MPD2    H2 1093   1.758   0.064  12.998 -0.8788  0.3075  0.4905
   70MPD2    H3 1094   1.972   4.698  13.069 -0.2152  0.1558 -1.3450
   70MPD2     N 1095   1.781   4.350  13.243 -0.0183  0.0820  1.1160
   70MPD2    H5 1096   1.874   4.310  13.237  1.0317  2.9600 -1.5283
   70MPD2    N1 1097   1.525   4.703  13.037 -0.1441 -0.0681  0.7569
   70MPD2    H7 1098   1.530   0.047  12.973 -0.7714  0.6474  1.5774
   71TMC2    C1 1099   3.869   0.904   1.083  0.4888 -0.1145 -0.7647
   71TMC2    C2 1100   3.996   0.862   1.074  0.4182 -0.7522 -0.3699
   71TMC2    C3 1101   4.069   0.844   1.191 -0.3461  0.1832  0.1146
   71TMC2    C4 1102   3.815   0.957   1.197  0.0164 -0.0214 -0.4427
   71TMC2    C5 1103   3.895   0.947   1.307  0.0535 -0.5953 -0.0097
   71TMC2    C6 1104   4.019   0.894   1.309 -0.4469 -0.4076 -0.5343
   71TMC2     C 1105   3.794   0.913   0.970  0.0965 -0.1509 -0.1644
   71TMC2     O 1106   3.704   0.997   0.971  0.4703 -0.2741  0.2957
   71TMC2     H 1107   4.049   0.848   0.981  0.5134  2.9224 -0.8832
   71TMC2    H1 1108   3.711   0.988   1.198 -0.2193 -0.7504 -1.4308
   71TMC2    H2 1109   4.082   0.906   1.397  0.3324  1.6129 -1.3796
   71TMC2    C7 1110   3.835   0.958   1.440 -0.7822  0.0656 -0.3874
   71TMC2    C8 1111   4.191   0.768   1.181  0.6530  0.4636 -0.1985
   71TMC2    O1 1112   3.910   1.002   1.523  0.0544  0.2818 -0.1656
   71TMC2    O2 1113   4.246   0.744   1.073 -0.2307 -0.2035 -0.3594
   71TMC2    O5 1114   4.214   0.699   1.295 -0.4949 -0.1350  0.3548
   71TMC2    H5 1115   4.149   0.718   1.366  0.0288 -0.9755  1.0584
   72MPD2     C 1116   3.638   0.731   0.512 -0.2278  0.6661 -0.2348
   72MPD2    C1 1117   3.595   0.844   0.576 -0.4869 -0.5175  0.2238
   72MPD2    C2 1118   3.651   0.873   0.698  0.4323  0.3807  1.0902
   72MPD2    C3 1119   3.743   0.785   0.758 -0.1097  0.8782  0.2957
   72MPD2    C4 1120   3.768   0.666   0.699 -0.1654  0.4372 -0.1713
   72MPD2    C5 1121   3.717   0.640   0.573  0.0597 -0.1003 -1.2278
   72MPD2     H 1122   3.617   0.958   0.757 -0.3447  0.3393  0.7080
   72MPD2    H1 1123   3.838   0.594   0.740 -2.5661 -2.5206 -1.2773
   72MPD2    H2 1124   3.605   0.708   0.412  0.9395  0.7373 -0.6317
   72MPD2    H3 1125   3.738   0.549   0.519 -1.1780 -0.5012 -1.0504
   72MPD2     N 1126   3.815   0.810   0.880 -0.1660 -0.0894  0.1606
   72MPD2    H5 1127   3.884   0.739   0.905 -1.5975 -2.1408 -1.6743
   72MPD2    N1 1128   3.496   0.928   0.525  0.3234 -0.0620 -0.0686
   72MPD2    H7 1129   3.478   1.011   0.580 -0.1093 -0.5566  0.5290
   73TMC2    C1 1130   3.536   2.234  13.835 -0.0482  0.5118 -0.4962
   73TMC2    C2 1131   3.485   2.131  13.903  0.5090 -0.1787  0.9758
   73TMC2    C3 1132   3.571   2.044  13.964  0.2506  0.3942  0.0028
   73TMC2    C4 1133   3.667   2.261  13.832  0.1220 -0.4498  0.1792
   73TMC2    C5 1134   3.749   2.190  13.913 -0.3106 -0.1697  0.2517
   73TMC2    C6 1135   3.705   2.070  13.971 -0.5421 -0.7193  0.2908
   73TMC2     C 1136   3.445   2.299  13.744  0.1132  0.2348 -0.7220
   73TMC2     O 1137   3.363   2.236  13.684  0.2924 -0.2077 -0.0230
   73TMC2     H 1138   3.381   2.107  13.882  1.9855 -3.3337 -2.8142
   73TMC2    H1 1139   3.717   2.305  13.746  0.2783 -1.0882 -0.0558
   73TMC2    H2 1140   3.770   2.010  14.033 -1.2614  0.6946  2.4146
   73TMC2    C7 1141   3.891   2.228  13.930 -0.3292  0.2031  0.0925
   73TMC2    C8 1142   3.535   1.905  13.968  0.2424  0.2729  0.1086
   73TMC2    O1 1143   3.983   2.148  13.942 -0.3350  0.4688 -0.0831
   73TMC2    O2 1144   3.428   1.861  14.009 -0.2720  0.0410  0.3198
   73TMC2    O5 1145   3.618   1.839  13.883 -0.0513 -0.4030  0.9887
   73TMC2    H5 1146   3.690   1.896  13.848 -1.0040  0.4028  0.3662
   74MPD2     C 1147   3.401   2.696  13.428 -0.3346 -0.1020 -0.1230
   74MPD2    C1 1148   3.515   2.708  13.506  0.0949 -0.2829 -0.3624
   74MPD2    C2 1149   3.532   2.617  13.603  0.5573 -0.1342 -0.1325
   74MPD2    C3 1150   3.451   2.512  13.622  0.0148 -0.2852  0.7725
   74MPD2    C4 1151   3.346   2.497  13.538 -0.0935 -0.4772 -0.2984
   74MPD2    C5 1152   3.320   2.595  13.445 -0.3344  0.1456  0.5044
   74MPD2     H 1153   3.613   2.610  13.674  0.3268 -0.7364  0.0721
   74MPD2    H1 1154   3.276   2.415  13.549 -0.3833 -0.3379 -1.0962
   74MPD2    H2 1155   3.378   2.774  13.356 -0.2006 -0.0378 -0.0963
   74MPD2    H3 1156   3.227   2.590  13.390  0.6025  1.9756 -1.2575
   74MPD2     N 1157   3.497   2.420  13.720  0.1524  0.2097 -0.3679
   74MPD2    H5 1158   3.573   2.451  13.781  2.3773 -1.1215 -2.4689
   74MPD2    N1 1159   3.618   2.809  13.478 -0.0535 -0.4836 -0.1174
   74MPD2    H7 1160   3.614   2.856  13.388 -0.7048  0.3164  0.3290
   75TMC2    C1 1161   4.040   3.448  13.483  0.1123 -0.6120 -0.8910
   75TMC2    C2 1162   4.097   3.343  13.414  0.0231 -0.1850 -0.0788
   75TMC2    C3 1163   4.040   3.304  13.293 -0.1569 -0.3222 -0.1537
   75TMC2    C4 1164   3.932   3.515  13.442  0.2334 -0.6548  0.0336
   75TMC2    C5 1165   3.883   3.476  13.325 -0.3726 -0.3018  0.0359
   75TMC2    C6 1166   3.938   3.378  13.249  0.7495 -0.0312 -0.3066
   75TMC2     C 1167   4.074   3.460  13.626 -0.4239  0.1183 -0.6120
   75TMC2     O 1168   4.081   3.570  13.678 -0.1247  0.0412 -0.7260
   75TMC2     H 1169   4.193   3.309  13.450 -0.6381 -0.9277  1.0105
   75TMC2    H1 1170   3.898   3.602  13.497  2.3091 -0.4518  0.9637
   75TMC2    H2 1171   3.895   3.348  13.154 -0.4534 -0.3488  0.3344
   75TMC2    C7 1172   3.741   3.508  13.294 -0.5471 -0.0085 -0.7646
   75TMC2    C8 1173   4.127   3.211  13.214 -0.7224 -0.2547 -0.0935
   75TMC2    O1 1174   3.694   3.464  13.188 -0.3735  0.3485  0.6262
   75TMC2    O2 1175   4.251   3.202  13.231 -0.2991 -0.0309  0.1457
   75TMC2    O5 1176   4.050   3.112  13.162 -0.1221 -0.3722 -0.0918
   75TMC2    H5 1177   3.953   3.121  13.174 -0.2455 -1.1921 -0.4825
   76TMC2    C1 1178   2.419   3.786  12.526  0.0427 -0.3928 -0.0565
   76TMC2    C2 1179   2.326   3.725  12.605  0.1186  0.7882  0.1295
   76TMC2    C3 1180   2.375   3.646  12.702 -0.5535 -0.0769 -0.1259
   76TMC2    C4 1181   2.549   3.754  12.531 -0.2741 -0.6223  0.1378
   76TMC2    C5 1182   2.594   3.665  12.621 -0.6815  0.2180  0.1827
   76TMC2    C6 1183   2.502   3.610  12.712 -0.3664  0.3487 -0.1467
   76TMC2     C 1184   2.366   3.879  12.427  0.2699 -0.3643  0.3210
   76TMC2     O 1185   2.258   3.940  12.441  0.0383  0.1506  0.2530
   76TMC2     H 1186   2.225   3.764  12.593  0.0028 -0.3076 -2.5348
   76TMC2    H1 1187   2.620   3.805  12.466 -1.2867 -0.1947 -0.6320
   76TMC2    H2 1188   2.541   3.543  12.788  1.0283  2.3152  0.8645
   76TMC2    C7 1189   2.732   3.658  12.661  0.6517  0.0524 -0.8977
   76TMC2    C8 1190   2.277   3.580  12.780  0.4546  0.4144 -0.1842
   76TMC2    O1 1191   2.752   3.648  12.784 -0.5070  0.5880  0.2275
   76TMC2    O2 1192   2.176   3.640  12.822  0.6102  0.3323 -0.2706
   76TMC2    O5 1193   2.259   3.461  12.722  0.1345 -0.5525 -0.8448
   76TMC2    H5 1194   2.341   3.407  12.715  1.0468  0.4551  2.1856
   77MPD2     C 1195   2.407   4.087  11.941 -0.2983  0.9570  0.1005
   77MPD2    C1 1196   2.319   4.110  12.043 -0.1249  0.1690  0.2754
   77MPD2    C2 1197   2.329   4.041  12.166 -0.0068 -0.3541 -0.5046
   77MPD2    C3 1198   2.430   3.950  12.187  0.1766 -0.5412 -0.1933
   77MPD2    C4 1199   2.512   3.921  12.082  0.2319 -0.3392 -0.3305
   77MPD2    C5 1200   2.503   3.985  11.965 -0.2332 -0.1825  0.3601
   77MPD2     H 1201   2.262   4.075  12.244  0.9719  3.1767 -1.1966
   77MPD2    H1 1202   2.578   3.837  12.102 -0.5132 -1.1931 -1.4513
   77MPD2    H2 1203   2.402   4.140  11.847 -0.4050 -0.0438 -0.4529
   77MPD2    H3 1204   2.564   3.952  11.881 -1.8383 -0.8612 -0.5400
   77MPD2     N 1205   2.450   3.880  12.310 -0.2099 -0.3695 -0.3257
   77MPD2    H5 1206   2.536   3.826  12.315  1.5032  2.2902 -1.6999
   77MPD2    N1 1207   2.220   4.211  12.021  0.4737  0.0153 -0.0141
   77MPD2    H7 1208   2.226   4.269  11.938 -0.4989  0.7958  0.4653
   78TMC2    C1 1209   3.204   0.805   0.837  0.7610  0.1016 -0.8143
   78TMC2    C2 1210   3.130   0.879   0.921 -0.0358 -0.5433  0.2141
   78TMC2    C3 1211   3.184   0.916   1.043 -0.0212 -0.0088  0.3636
   78TMC2    C4 1212   3.330   0.760   0.868 -0.5941 -0.2653 -0.0031
   78TMC2    C5 1213   3.376   0.783   0.992 -0.1682  0.3007 -0.3026
   78TMC2    C6 1214   3.309   0.869   1.081  0.3538 -0.1760  0.1954
   78TMC2     C 1215   3.172   0.804   0.696  0.3415  1.1290 -0.0005
   78TMC2     O 1216   3.232   0.722   0.628 -0.1735 -0.0212 -0.1132
   78TMC2     H 1217   3.024   0.899   0.905  0.2886 -0.0092 -1.2492
   78TMC2    H1 1218   3.378   0.696   0.795  1.4376  1.6540 -0.3349
   78TMC2    H2 1219   3.355   0.887   1.178  0.5729 -0.7014  0.1888
   78TMC2    C7 1220   3.484   0.687   1.035  0.6059 -0.3436 -1.0707
   78TMC2    C8 1221   3.101   0.970   1.146  0.3331  0.0722  0.6674
   78TMC2    O1 1222   3.539   0.613   0.952 -0.6814  0.5984  0.2738
   78TMC2    O2 1223   3.139   0.994   1.258  0.4902  0.7273  0.0169
   78TMC2    O5 1224   3.006   1.048   1.086 -0.0346 -0.3798  0.3097
   78TMC2    H5 1225   3.018   1.051   0.989  0.1875  3.5649  0.4573
   79MPD1     C 1226   2.956   0.984   0.269 -0.5544 -0.8460  0.2062
   79MPD1    C1 1227   3.030   0.876   0.287 -0.6501  0.3331  0.0235
   79MPD1    C2 1228   3.068   0.835   0.413 -0.4368 -0.1074  0.1494
   79MPD1    C3 1229   3.030   0.913   0.526 -0.4042 -0.1156 -0.1827
   79MPD1    C4 1230   2.959   1.032   0.501  0.7282 -0.8581 -0.4329
   79MPD1    C5 1231   2.923   1.066   0.373 -0.1078 -0.3974  0.0029
   79MPD1     H 1232   3.141   0.756   0.422 -0.5066 -0.5195 -2.7632
   79MPD1    H1 1233   2.928   1.097   0.582 -1.8835 -2.5780 -0.0841
   79MPD1    H2 1234   2.945   1.019   0.167  0.2886  1.8227  1.0116
   79MPD1    H3 1235   2.884   1.166   0.357 -1.4084 -0.6707  1.4262
   79MPD1     N 1236   3.067   0.883   0.659  0.1912 -0.3161 -0.1343
   79MPD1    H5 1237   3.016   0.939   0.727  0.0262 -3.1963  2.1060
   79MPD1    N1 1238   3.097   0.826   0.174 -0.3053 -0.3591 -0.1357
   79MPD1    H6 1239   3.140   0.739   0.205 -5.1308 -2.6190  0.2303
   79MPD1    H7 1240   3.053   0.823   0.082 -3.5889  0.7096  1.4229
   80TMC2    C1 1241   1.496   3.393  12.099  0.9404 -0.0129 -0.3248
   80TMC2    C2 1242   1.434   3.440  11.986 -0.2997  0.2076  0.4399
   80TMC2    C3 1243   1.343   3.366  11.920 -0.1503  0.4721  0.8655
   80TMC2    C4 1244   1.446   3.280  12.162  0.5655  0.6215 -0.4274
   80TMC2    C5 1245   1.339   3.218  12.108 -0.1474 -0.6634 -0.0049
   80TMC2    C6 1246   1.287   3.261  11.984 -0.7087  0.1856 -0.3912
   80TMC2     C 1247   1.594   3.488  12.158  0.0160 -0.6015  0.0159
   80TMC2     O 1248   1.611   3.591  12.096 -0.1178 -0.3009 -0.1745
   80TMC2     H 1249   1.479   3.521  11.929 -0.9803 -0.3394 -0.8746
   80TMC2    H1 1250   1.504   3.231  12.240  0.6275 -0.0050 -0.8694
   80TMC2    H2 1251   1.201   3.212  11.940 -0.7529  1.0392 -1.2635
   80TMC2    C7 1252   1.335   3.075  12.116  0.8271  0.0979 -0.4362
   80TMC2    C8 1253   1.279   3.425  11.806  0.2087 -0.3252 -0.4322
   80TMC2    O1 1254   1.319   3.023  12.007  0.3854 -0.3400 -0.0993
   80TMC2    O2 1255   1.302   3.539  11.773  0.1503 -0.0577 -0.1034
   80TMC2    O5 1256   1.193   3.335  11.757 -0.3858  0.5667 -0.5043
   80TMC2    H5 1257   1.115   3.372  11.709 -1.4224 -0.5683  0.3275
   81MPD2     C 1258   1.801   3.632  12.320 -0.0152  0.2416 -0.2053
   81MPD2    C1 1259   1.750   3.504  12.348  0.1266 -0.3181  0.1121
   81MPD2    C2 1260   1.785   3.435  12.468  0.0300 -0.4747 -0.5407
   81MPD2    C3 1261   1.883   3.492  12.547 -0.1806 -0.0924  0.0333
   81MPD2    C4 1262   1.940   3.611  12.517  0.0070  0.1881  0.3261
   81MPD2    C5 1263   1.898   3.685  12.408  0.0981 -0.0157  0.2742
   81MPD2     H 1264   1.740   3.338  12.487  0.7346 -0.2054  2.5863
   81MPD2    H1 1265   2.026   3.654  12.567  1.8815 -2.4556 -0.6821
   81MPD2    H2 1266   1.756   3.692  12.241 -0.8173 -1.5685 -1.1370
   81MPD2    H3 1267   1.933   3.787  12.391  0.3125 -0.1786 -0.2664
   81MPD2     N 1268   1.923   3.439  12.673  0.0094  0.5099  0.0351
   81MPD2    H5 1269   1.996   3.497  12.713  0.7734  0.0724 -0.7274
   81MPD2    N1 1270   1.655   3.435  12.269 -0.1830  0.3531  0.3533
   81MPD2    H7 1271   1.619   3.347  12.302 -2.0597  1.6494  1.7300
   82TMC2    C1 1272   4.329   3.220  10.826  0.1533 -0.2223  0.1921
   82TMC2    C2 1273   4.382   3.172  10.710  0.8924  0.3544  0.6529
   82TMC2    C3 1274   4.406   3.044  10.697  0.6735  0.2479 -0.3318
   82TMC2    C4 1275   4.310   3.132  10.930  0.3631 -0.2906  0.3470
   82TMC2    C5 1276   4.328   2.999  10.910  0.2566  0.4183  0.4823
   82TMC2    C6 1277   4.385   2.949  10.795 -0.8109  0.3055  0.6070
   82TMC2     C 1278   4.230   3.324  10.821 -0.8797  0.1872 -0.1091
   82TMC2     O 1279   4.171   3.335  10.714  0.5752  0.5483 -0.3687
   82TMC2     H 1280   4.381   3.231  10.620  1.3352 -1.1945 -0.3626
   82TMC2    H1 1281   4.254   3.165  11.017 -2.3166  0.0950 -1.5369
   82TMC2    H2 1282   4.410   2.844  10.780  0.5916  0.9330 -1.4502
   82TMC2    C7 1283   4.285   2.907  11.008  0.6342 -0.0729  0.2331
   82TMC2    C8 1284   4.449   3.007  10.568  0.1372 -0.4973 -0.8687
   82TMC2    O1 1285   4.261   2.953  11.119 -0.0252  0.0788  0.9396
   82TMC2    O2 1286   4.411   2.899  10.523  0.3315 -0.2206  0.9572
   82TMC2    O5 1287   4.567   3.062  10.553  0.0810  1.0509  0.1573
   82TMC2    H5 1288   4.587   3.138  10.612 -0.9478  0.0079  1.8495
   83MPD2     C 1289   3.976   3.721  11.030 -0.3789 -0.9319  0.2407
   83MPD2    C1 1290   3.937   3.639  10.922  0.3558 -0.7401  0.3108
   83MPD2    C2 1291   4.021   3.534  10.898  0.6817  0.9684 -0.1687
   83MPD2    C3 1292   4.136   3.510  10.969 -0.5726 -0.7905 -0.1271
   83MPD2    C4 1293   4.169   3.588  11.078  0.5983  0.3667 -0.6400
   83MPD2    C5 1294   4.087   3.692  11.101  0.2282  0.0585  0.0738
   83MPD2     H 1295   3.996   3.463  10.820  0.6781 -0.4884  1.1617
   83MPD2    H1 1296   4.262   3.581  11.132  0.0126 -0.0767  0.3109
   83MPD2    H2 1297   3.929   3.817  11.047  1.0290 -0.9377  4.0904
   83MPD2    H3 1298   4.126   3.761  11.175 -1.3807  0.2048  0.7809
   83MPD2     N 1299   4.228   3.404  10.932  0.0054  0.0139 -0.6094
   83MPD2    H5 1300   4.306   3.395  10.996 -0.9093 -3.2628  0.0653
   83MPD2    N1 1301   3.838   3.678  10.834 -0.0153  0.4676 -0.0851
   83MPD2    H7 1302   3.817   3.777  10.849  0.0500  0.1717  1.9625
   84TMC2    C1 1303   1.665   2.124  11.387  0.1044  0.2221 -0.2287
   84TMC2    C2 1304   1.658   1.987  11.376 -0.3374 -0.4197  0.1768
   84TMC2    C3 1305   1.747   1.947  11.282  0.2426 -0.1695 -0.0005
   84TMC2    C4 1306   1.733   2.205  11.303  0.4795 -0.4812 -0.0234
   84TMC2    C5 1307   1.809   2.156  11.207 -0.0475 -0.0307  0.1586
   84TMC2    C6 1308   1.819   2.020  11.193 -0.6890  0.2864 -0.0162
   84TMC2     C 1309   1.536   2.177  11.395  0.4954  0.3956 -0.1980
   84TMC2     O 1310   1.498   2.262  11.315  0.0494  0.0798  0.5649
   84TMC2     H 1311   1.599   1.924  11.442 -0.7367  0.1793  0.3937
   84TMC2    H1 1312   1.734   2.311  11.324  2.1875 -0.5295  0.1872
   84TMC2    H2 1313   1.864   1.977  11.105  1.7411 -0.7191  1.7173
   84TMC2    C7 1314   1.768   2.217  11.082 -0.6435  0.2295  0.2424
   84TMC2    C8 1315   1.763   1.806  11.273 -0.2801  0.4240  0.2988
   84TMC2    O1 1316   1.846   2.202  10.990 -0.1142 -0.2561 -0.1116
   84TMC2    O2 1317   1.869   1.751  11.246 -0.2006  0.1057 -0.4087
   84TMC2    O5 1318   1.646   1.749  11.312  0.0712  0.3403  0.9748
   84TMC2    H5 1319   1.569   1.804  11.286 -0.2336 -0.4207  0.2734
   85TMC2    C1 1320   1.579   0.926  15.857  0.0247  0.2064 -0.5303
   85TMC2    C2 1321   1.690   1.001  15.861 -0.2877  0.3127  0.0733
   85TMC2    C3 1322   1.742   1.049  15.748  0.5683  0.0126 -0.0243
   85TMC2    C4 1323   1.533   0.879  15.736  0.4902 -0.4916 -0.3870
   85TMC2    C5 1324   1.588   0.932  15.619  0.5029 -0.3605  0.5880
   85TMC2    C6 1325   1.701   1.008  15.625  0.1029  0.7511 -1.1691
   85TMC2     C 1326   1.545   0.858  15.980  0.6696 -0.2938 -0.0183
   85TMC2     O 1327   1.577   0.920  16.082 -0.0072 -0.1537 -0.1137
   85TMC2     H 1328   1.742   1.026  15.953 -1.6127  0.4351  0.7816
   85TMC2    H1 1329   1.446   0.814  15.724 -0.5903  0.8493  0.1589
   85TMC2    H2 1330   1.735   1.064  15.539  2.9062  0.5268 -0.2151
   85TMC2    C7 1331   1.542   0.875  15.491 -0.4010 -0.0024  0.8408
   85TMC2    C8 1332   1.852   1.146  15.762 -0.3148 -1.0106 -0.3420
   85TMC2    O1 1333   1.422   0.843  15.482 -0.4206  0.1738 -0.5229
   85TMC2    O2 1334   1.941   1.115  15.845 -0.4552  0.7236  0.6781
   85TMC2    O5 1335   1.831   1.261  15.698  0.1345 -0.4894 -0.3647
   85TMC2    H5 1336   1.746   1.268  15.649  1.4564  3.2596 -2.0097
   86MPD2     C 1337   1.450   0.467  16.298  0.3278  0.2972 -0.3596
   86MPD2    C1 1338   1.417   0.429  16.165  0.1973  0.2691  0.2318
   86MPD2    C2 1339   1.444   0.510  16.057 -0.4252 -0.1199 -0.5553
   86MPD2    C3 1340   1.491   0.641  16.082 -0.2724  0.2361 -0.0908
   86MPD2    C4 1341   1.532   0.676  16.213  0.2441 -0.0640  0.2310
   86MPD2    C5 1342   1.511   0.587  16.313 -0.0102  0.3384  0.3415
   86MPD2     H 1343   1.420   0.486  15.954 -0.2710 -0.2265 -0.5668
   86MPD2    H1 1344   1.574   0.769  16.250  0.7547 -1.2777  2.6849
   86MPD2    H2 1345   1.436   0.402  16.383  2.1043 -0.7339 -0.8508
   86MPD2    H3 1346   1.547   0.616  16.411 -2.8790 -0.5035  1.6248
   86MPD2     N 1347   1.507   0.728  15.974 -0.3103 -0.0266 -0.4020
   86MPD2    H5 1348   1.508   0.687  15.881 -0.4532  0.4421 -0.6084
   86MPD2    N1 1349   1.356   0.305  16.135 -0.6888 -0.9443  0.0035
   86MPD2    H7 1350   1.347   0.269  16.041 -0.5996  1.8061 -1.0385
   87TMC2    C1 1351   4.057   3.701   0.698 -0.4963  0.0138 -0.3856
   87TMC2    C2 1352   4.191   3.714   0.721 -0.2943 -0.2307  0.0351
   87TMC2    C3 1353   4.236   3.835   0.771  0.3450 -0.3051  0.6653
   87TMC2    C4 1354   3.970   3.809   0.714 -0.1431 -0.4175 -0.1255
   87TMC2    C5 1355   4.025   3.931   0.740 -0.7097  0.2130  0.0377
   87TMC2    C6 1356   4.160   3.953   0.761 -0.1661 -0.0302 -0.0774
   87TMC2     C 1357   3.999   3.593   0.625  0.2125 -0.1316  0.3718
   87TMC2     O 1358   3.892   3.612   0.570  0.1056 -0.0910  0.1561
   87TMC2     H 1359   4.261   3.631   0.726  0.7177  0.5787 -0.5343
   87TMC2    H1 1360   3.863   3.791   0.725 -0.2434 -0.5273 -1.3356
   87TMC2    H2 1361   4.208   4.050   0.773  1.7269 -1.0515  0.6789
   87TMC2    C7 1362   3.937   4.044   0.762 -0.3865 -0.2414 -0.3099
   87TMC2    C8 1363   4.375   3.843   0.809  1.1999  0.4604 -0.6729
   87TMC2    O1 1364   3.983   4.144   0.814  0.5031 -0.8551 -0.4804
   87TMC2    O2 1365   4.441   3.744   0.794 -0.3214  0.0587  0.1556
   87TMC2    O5 1366   4.386   3.941   0.907 -0.2695 -0.3254  0.1590
   87TMC2    H5 1367   4.298   3.981   0.923  0.7385  1.8889  0.1511
   88MPD2     C 1368   3.623   4.099   0.602  0.1351  0.1403  0.6100
   88MPD2    C1 1369   3.719   4.120   0.700 -0.1764  0.1338  0.1761
   88MPD2    C2 1370   3.710   4.225   0.790 -0.1085 -0.2116 -0.4864
   88MPD2    C3 1371   3.592   4.301   0.794  0.1304  0.5843  0.2681
   88MPD2    C4 1372   3.499   4.283   0.703  0.6596 -0.4760 -1.0025
   88MPD2    C5 1373   3.512   4.183   0.608  0.0727  0.2091  0.2361
   88MPD2     H 1374   3.787   4.238   0.865 -0.1243 -1.2909 -0.2745
   88MPD2    H1 1375   3.415   4.349   0.686 -0.1186 -0.8940  1.1774
   88MPD2    H2 1376   3.626   4.021   0.526 -0.6568 -0.2450  0.9683
   88MPD2    H3 1377   3.432   4.175   0.535  0.4381  1.9287 -0.3327
   88MPD2     N 1378   3.576   4.423   0.861 -0.5835 -0.2080  0.4210
   88MPD2    H5 1379   3.492   4.478   0.854  1.2558  2.6949  1.1530
   88MPD2    N1 1380   3.821   4.027   0.695 -0.1204  0.2283 -0.2638
   88MPD2    H7 1381   3.807   3.945   0.637  1.7080 -0.6016  0.4477
   89TMC2    C1 1382   4.338   1.504   1.175  0.0836  0.4018 -0.5205
   89TMC2    C2 1383   4.451   1.459   1.115 -0.1556  0.1048 -0.5453
   89TMC2    C3 1384   4.448   1.469   0.975  0.1999 -0.0415 -0.6079
   89TMC2    C4 1385   4.232   1.544   1.105  0.1369 -0.2809 -0.4936
   89TMC2    C5 1386   4.236   1.562   0.968 -0.5931 -0.0736  0.1398
   89TMC2    C6 1387   4.346   1.527   0.898  0.1442 -0.1313 -0.3170
   89TMC2     C 1388   4.347   1.515   1.325  0.7319  0.0849  0.4028
   89TMC2     O 1389   4.452   1.506   1.387  0.1547 -0.8223  0.1384
   89TMC2     H 1390   4.531   1.409   1.168 -0.0873  0.0665 -0.6840
   89TMC2    H1 1391   4.147   1.591   1.152  1.8697  0.2639  2.1218
   89TMC2    H2 1392   4.355   1.529   0.790  1.3340  1.9834 -0.1905
   89TMC2    C7 1393   4.136   1.646   0.911  0.3109  0.6170 -0.9764
   89TMC2    C8 1394   4.551   1.396   0.895  0.1347  0.0417 -0.0785
   89TMC2    O1 1395   4.022   1.645   0.961 -0.5838  0.0030  0.0808
   89TMC2    O2 1396   4.597   1.294   0.941 -0.3627  0.3494  0.1060
   89TMC2    O5 1397   4.607   1.472   0.803  0.5382 -0.0697  0.5734
   89TMC2    H5 1398   4.576   1.566   0.806 -0.3104 -0.3304  0.0929
   90MPD2     C 1399   4.116   1.689   1.754  0.7686 -0.2566 -0.2582
   90MPD2    C1 1400   4.019   1.640   1.667  0.6395 -0.3383  0.5348
   90MPD2    C2 1401   4.060   1.592   1.542  0.0073  0.2888 -0.1639
   90MPD2    C3 1402   4.187   1.579   1.509  0.7237  0.6291 -0.4590
   90MPD2    C4 1403   4.286   1.632   1.596 -0.1499  0.0619 -0.5195
   90MPD2    C5 1404   4.250   1.684   1.715 -0.1769  0.4287  0.2979
   90MPD2     H 1405   3.987   1.556   1.471  0.1327 -0.7918  0.2535
   90MPD2    H1 1406   4.393   1.636   1.577  0.2823 -0.6217  1.7815
   90MPD2    H2 1407   4.091   1.736   1.849  0.0882 -1.3243  0.0906
   90MPD2    H3 1408   4.333   1.706   1.782 -0.5603  1.4630  0.4292
   90MPD2     N 1409   4.219   1.530   1.378  0.4061 -0.3422  0.1950
   90MPD2    H5 1410   4.143   1.510   1.314  0.8312  1.4446 -0.8554
   90MPD2    N1 1411   3.882   1.665   1.676 -0.0549  0.0596  0.1992
   90MPD2    H7 1412   3.829   1.621   1.602 -0.5502  2.5407 -0.9260
   91TMC2    C1 1413   1.847   1.322  16.821  0.5357  0.0673 -0.1523
   91TMC2    C2 1414   1.907   1.321  16.697 -0.6985 -0.4382 -0.0778
   91TMC2    C3 1415   1.823   1.274  16.600 -0.2051 -0.5486 -0.3403
   91TMC2    C4 1416   1.723   1.284  16.850  0.2182 -0.2231 -0.1365
   91TMC2    C5 1417   1.651   1.237  16.749 -0.0684 -0.0070 -0.4747
   91TMC2    C6 1418   1.701   1.230  16.624  0.0760  0.1602 -0.4052
   91TMC2     C 1419   1.934   1.388  16.923 -0.6984  0.5691  0.9705
   91TMC2     O 1420   1.890   1.384  17.039 -0.4678 -0.3223  0.2569
   91TMC2     H 1421   2.008   1.354  16.679 -0.9042  1.2267  1.8213
   91TMC2    H1 1422   1.675   1.294  16.946 -0.4351  1.0142 -0.5908
   91TMC2    H2 1423   1.641   1.185  16.546 -1.1902  0.5767  0.3292
   91TMC2    C7 1424   1.503   1.234  16.764  0.0669 -0.6084 -0.0823
   91TMC2    C8 1425   1.865   1.276  16.455  0.8613 -0.4484  0.2780
   91TMC2    O1 1426   1.457   1.228  16.877 -1.0273  0.1515 -0.1969
   91TMC2    O2 1427   1.823   1.183  16.388  0.1695 -0.1526 -0.4497
   91TMC2    O5 1428   1.990   1.328  16.434  0.2993  0.1947 -0.4687
   91TMC2    H5 1429   2.012   1.400  16.497  0.2854 -0.5683  0.4030
   92MPD2     C 1430   2.152   1.505  17.093  0.0135  0.1150  0.3399
   92MPD2    C1 1431   2.144   1.512  16.957 -0.2700  0.5235 -0.3627
   92MPD2    C2 1432   2.240   1.588  16.885  0.1747 -0.0590 -0.1355
   92MPD2    C3 1433   2.345   1.647  16.955  0.0858  0.2500 -0.1336
   92MPD2    C4 1434   2.351   1.640  17.093 -0.2339 -0.0538 -0.5703
   92MPD2    C5 1435   2.255   1.571  17.159 -0.1156 -0.0473  0.2845
   92MPD2     H 1436   2.227   1.583  16.778 -0.1832  0.0312 -0.0963
   92MPD2    H1 1437   2.415   1.698  17.158  0.7856 -1.5415 -0.2418
   92MPD2    H2 1438   2.091   1.437  17.152 -0.4301  0.2645  0.0522
   92MPD2    H3 1439   2.264   1.560  17.266 -0.3725  1.9075  0.5003
   92MPD2     N 1440   2.450   1.711  16.887 -0.3248  0.0452 -0.0491
   92MPD2    H5 1441   2.429   1.719  16.788 -1.6693  1.3959  0.3543
   92MPD2    N1 1442   2.042   1.449  16.875 -0.0955 -0.8243  0.9684
   92MPD2    H7 1443   2.052   1.461  16.775  0.4201 -1.8557  0.8958
   93TMC2    C1 1444   3.809   1.549  13.859 -0.3801 -0.0768  0.0083
   93TMC2    C2 1445   3.799   1.561  13.996 -0.9796 -0.7016  1.0005
   93TMC2    C3 1446   3.883   1.655  14.052 -0.1156 -0.2315 -0.4473
   93TMC2    C4 1447   3.895   1.617  13.777 -0.8374 -0.1049  0.7575
   93TMC2    C5 1448   3.968   1.719  13.840 -0.5088 -0.4181  0.3352
   93TMC2    C6 1449   3.971   1.726  13.972  0.1169 -0.4853 -0.1939
   93TMC2     C 1450   3.741   1.447  13.789  0.2953 -0.2688  0.1731
   93TMC2     O 1451   3.779   1.420  13.671 -0.1205 -0.6078  0.1453
   93TMC2     H 1452   3.739   1.507  14.068  0.0614 -0.8232  1.7733
   93TMC2    H1 1453   3.910   1.600  13.671  0.7963 -0.7945  1.0987
   93TMC2    H2 1454   4.041   1.790  14.024 -1.4568  1.3236 -0.3086
   93TMC2    C7 1455   4.076   1.782  13.765  0.0227  0.4626  0.8102
   93TMC2    C8 1456   3.958   1.598  14.159  0.9862 -0.7411 -0.4736
   93TMC2    O1 1457   4.100   1.756  13.645  0.4747 -0.1856  0.0573
   93TMC2    O2 1458   3.998   1.484  14.154 -0.5084 -0.2208  0.3491
   93TMC2    O5 1459   4.004   1.687  14.240 -0.0032 -0.3427 -0.2417
   93TMC2    H5 1460   3.954   1.772  14.233  0.7093  0.3098  2.5572
   94MPD2     C 1461   3.508   1.306  13.668  0.0108 -0.4438 -0.5469
   94MPD2    C1 1462   3.514   1.344  13.799 -0.7170 -0.0535  0.5694
   94MPD2    C2 1463   3.405   1.321  13.885 -1.4781  0.5530  0.5119
   94MPD2    C3 1464   3.290   1.260  13.835 -0.3501  0.1218  0.4152
   94MPD2    C4 1465   3.276   1.232  13.700 -0.1007  0.3969  0.5832
   94MPD2    C5 1466   3.394   1.254  13.624 -0.0804  0.1214 -0.0143
   94MPD2     H 1467   3.421   1.354  13.986 -0.2673 -1.5337  1.0109
   94MPD2    H1 1468   3.182   1.209  13.651 -1.3652  3.1739  1.7194
   94MPD2    H2 1469   3.586   1.336  13.600  1.4592 -1.6367  0.5775
   94MPD2    H3 1470   3.386   1.250  13.516  0.9022 -0.2765 -0.0674
   94MPD2     N 1471   3.184   1.215  13.920 -0.1814 -0.3946 -0.3546
   94MPD2    H5 1472   3.096   1.188  13.877 -1.1175  1.8102  0.1763
   94MPD2    N1 1473   3.626   1.408  13.857 -0.1661  0.1213  0.1494
   94MPD2    H7 1474   3.615   1.445  13.951  0.4179  0.0914  0.2293
   95TMC2    C1 1475   3.286   3.748  15.738 -0.4609  0.0803 -0.3862
   95TMC2    C2 1476   3.155   3.730  15.772  0.6253 -0.7590 -0.3436
   95TMC2    C3 1477   3.107   3.815  15.872  0.0257 -0.3359 -0.1901
   95TMC2    C4 1478   3.368   3.852  15.781  0.4613  0.0435 -0.7404
   95TMC2    C5 1479   3.307   3.929  15.880  0.1682 -0.0992 -0.1368
   95TMC2    C6 1480   3.173   3.921  15.923 -0.1339 -0.3323 -0.9290
   95TMC2     C 1481   3.326   3.688  15.616  0.1628 -0.7385  0.1221
   95TMC2     O 1482   3.351   3.767  15.530  0.4787 -0.0548  0.0179
   95TMC2     H 1483   3.094   3.654  15.723  0.0594 -0.9069  0.5886
   95TMC2    H1 1484   3.462   3.873  15.731  0.1021  1.9752 -0.5778
   95TMC2    H2 1485   3.142   3.986  16.004 -1.5359 -2.0238 -0.0981
   95TMC2    C7 1486   3.382   4.040  15.933 -0.7019  0.0761 -0.5872
   95TMC2    C8 1487   2.968   3.804  15.887  0.4200  0.4860  0.0061
   95TMC2    O1 1488   3.321   4.138  15.977  1.0391 -0.3392  0.5251
   95TMC2    O2 1489   2.912   3.695  15.871 -0.2776  0.1765  0.3241
   95TMC2    O5 1490   2.935   3.908  15.958  0.6495 -0.1445 -0.2227
   95TMC2    H5 1491   2.966   3.996  15.928  1.2833 -0.6520 -1.0704
   96MPD2     C 1492   3.515   3.347  15.296 -0.1015  0.1686  0.1289
   96MPD2    C1 1493   3.546   3.478  15.321 -0.1285  0.2441  0.0715
   96MPD2    C2 1494   3.481   3.532  15.426  0.7654 -0.4516 -0.6448
   96MPD2    C3 1495   3.382   3.476  15.511 -0.0268  0.3961 -0.1083
   96MPD2    C4 1496   3.350   3.347  15.480 -0.0441  0.6862 -0.2286
   96MPD2    C5 1497   3.416   3.292  15.373 -0.0712  0.3727  0.5835
   96MPD2     H 1498   3.518   3.632  15.446 -0.4836 -0.5205  2.0603
   96MPD2    H1 1499   3.268   3.295  15.528  0.4133  1.1036  1.0086
   96MPD2    H2 1500   3.568   3.298  15.215  0.5576  1.7565 -0.3954
   96MPD2    H3 1501   3.372   3.196  15.347 -0.9771  0.8238  0.4510
   96MPD2     N 1502   3.316   3.551  15.611  0.2283 -0.0406  0.5184
   96MPD2    H5 1503   3.267   3.497  15.682 -1.2218  0.9462  0.2821
   96MPD2    N1 1504   3.657   3.525  15.252 -0.3216 -0.1532  0.2552
   96MPD2    H7 1505   3.705   3.462  15.188  0.9001  1.5936 -0.5373
   97TMC2    C1 1506   0.751   1.566  17.590  0.4612  0.6327 -0.1176
   97TMC2    C2 1507   0.735   1.509  17.467 -0.0410 -0.0193 -0.4850
   97TMC2    C3 1508   0.773   1.574  17.354  0.8856 -0.5871 -0.7522
   97TMC2    C4 1509   0.809   1.691  17.607  0.2503  0.8514 -0.7728
   97TMC2    C5 1510   0.856   1.750  17.488 -0.3306 -0.4101 -1.1191
   97TMC2    C6 1511   0.822   1.700  17.362  0.1234  0.5326 -0.4711
   97TMC2     C 1512   0.710   1.485  17.704  0.2743 -0.6393 -0.5729
   97TMC2     O 1513   0.676   1.372  17.683  0.3664 -0.2375 -0.1858
   97TMC2     H 1514   0.690   1.411  17.453 -0.1257  0.3916 -3.2031
   97TMC2    H1 1515   0.834   1.725  17.707 -1.2914  0.9954 -0.4419
   97TMC2    H2 1516   0.860   1.737  17.267  0.8650 -0.3007 -0.5019
   97TMC2    C7 1517   0.907   1.891  17.501 -0.2965 -0.0063  0.0123
   97TMC2    C8 1518   0.724   1.519  17.227 -0.1401  0.5171  0.3244
   97TMC2    O1 1519   0.919   1.934  17.618  0.6851 -0.2281  0.0317
   97TMC2    O2 1520   0.632   1.439  17.221 -0.6597 -0.2833 -0.4890
   97TMC2    O5 1521   0.817   1.548  17.135  0.2192  0.3670 -0.4078
   97TMC2    H5 1522   0.900   1.595  17.157  0.4579  0.2170 -0.9945
   98MPD2     C 1523   0.696   1.411   0.468 -0.3875  0.0625 -0.3618
   98MPD2    C1 1524   0.667   1.325   0.368  0.1993  0.3701  0.1269
   98MPD2    C2 1525   0.665   1.372   0.239 -0.0657  0.6771  0.4845
   98MPD2    C3 1526   0.705   1.498   0.212 -0.0422  0.1839 -0.5498
   98MPD2    C4 1527   0.738   1.584   0.314 -1.3000  0.6119 -0.0109
   98MPD2    C5 1528   0.728   1.543   0.444 -0.0606  0.5501  0.1722
   98MPD2     H 1529   0.638   1.301   0.161 -0.6766 -0.1260  1.4259
   98MPD2    H1 1530   0.782   1.680   0.291 -1.3350  1.0371  1.6692
   98MPD2    H2 1531   0.694   1.383   0.572  1.0414  0.6708 -0.1785
   98MPD2    H3 1532   0.753   1.609   0.526 -0.4687 -2.2825  2.5813
   98MPD2     N 1533   0.727   1.555   0.082  0.5006  0.2140  0.7116
   98MPD2    H5 1534   0.757   1.652   0.083  0.0272  0.3833 -1.2311
   98MPD2    N1 1535   0.639   1.191   0.398  0.2280  0.3651 -0.5590
   98MPD2    H7 1536   0.630   1.179   0.499 -1.3645 -1.9601 -0.9765
   99TMC2    C1 1537   4.048   3.693   1.547  0.0267 -0.1831  0.3992
   99TMC2    C2 1538   4.085   3.730   1.672  0.0460  0.3057 -0.1230
   99TMC2    C3 1539   4.026   3.851   1.720 -0.1169 -0.2041  0.2358
   99TMC2    C4 1540   3.960   3.763   1.474 -0.7219  0.0582  0.1537
   99TMC2    C5 1541   3.919   3.888   1.530  0.2538 -0.0532 -0.5800
   99TMC2    C6 1542   3.951   3.938   1.652  0.2064 -0.0884 -0.8187
   99TMC2     C 1543   4.116   3.587   1.481  0.3035 -0.7845 -0.2854
   99TMC2     O 1544   4.234   3.574   1.515  0.4423 -0.1251 -0.6007
   99TMC2     H 1545   4.166   3.683   1.726  1.3713  1.0980 -1.4192
   99TMC2    H1 1546   3.930   3.730   1.375  2.2451 -1.2593 -0.2983
   99TMC2    H2 1547   3.930   4.040   1.680 -0.2867 -0.8610  1.6149
   99TMC2    C7 1548   3.791   3.940   1.494  0.4005 -0.4112 -0.0446
   99TMC2    C8 1549   4.064   3.898   1.853 -0.3599  0.4312  0.4397
   99TMC2    O1 1550   3.767   4.052   1.536 -0.5938  0.1348 -0.1446
   99TMC2    O2 1551   4.089   4.017   1.876  0.1342  0.1970  0.0430
   99TMC2    O5 1552   4.039   3.793   1.939 -0.1077  0.7491  0.2217
   99TMC2    H5 1553   3.993   3.720   1.893 -1.8809  2.5817 -0.9283
  100MPD2     C 1554   4.202   3.353   1.305  0.1034 -0.3693 -0.3226
  100MPD2    C1 1555   4.078   3.413   1.300 -0.6107  0.2205 -0.1253
  100MPD2    C2 1556   3.999   3.375   1.199 -0.1437  0.1224 -0.7578
  100MPD2    C3 1557   4.034   3.267   1.116  0.5572 -0.5025 -0.6559
  100MPD2    C4 1558   4.163   3.219   1.120 -0.1056 -1.0829 -0.7636
  100MPD2    C5 1559   4.241   3.264   1.213  0.5208 -0.2711 -0.2089
  100MPD2     H 1560   3.904   3.426   1.188 -0.3837 -0.3553 -0.9015
  100MPD2    H1 1561   4.205   3.142   1.057  0.8055 -0.2788 -1.1510
  100MPD2    H2 1562   4.276   3.384   1.377 -0.4912 -1.0325  0.5729
  100MPD2    H3 1563   4.343   3.229   1.217  0.4603 -0.6107 -1.5929
  100MPD2     N 1564   3.929   3.208   1.038 -0.5546 -0.8424 -0.6595
  100MPD2    H5 1565   3.839   3.255   1.033  0.0606  0.5222  0.9219
  100MPD2    N1 1566   4.035   3.517   1.383 -0.5315 -0.6789 -0.3020
  100MPD2    H7 1567   3.937   3.538   1.366 -0.5076  0.3367  0.7815
  101TMC2    C1 1568   0.957   4.293  13.219  0.3685 -0.1840  0.2595
  101TMC2    C2 1569   1.013   4.224  13.323 -0.4101  0.3387 -0.2247
  101TMC2    C3 1570   1.147   4.192  13.315 -0.5891 -0.7625  0.0962
  101TMC2    C4 1571   1.026   4.341  13.114  0.2989 -0.2553 -0.1216
  101TMC2    C5 1572   1.158   4.319  13.117  0.6643 -0.6354 -0.2159
  101TMC2    C6 1573   1.220   4.252  13.219 -0.3721  0.1393  0.0384
  101TMC2     C 1574   0.817   4.286  13.211  0.0149 -0.4624  0.3688
  101TMC2     O 1575   0.764   4.198  13.279 -0.0391  0.2373  0.3453
  101TMC2     H 1576   0.951   4.181  13.401  1.0698 -0.7173  0.3671
  101TMC2    H1 1577   0.987   4.405  13.036  1.2779 -0.7503 -1.0129
  101TMC2    H2 1578   1.326   4.233  13.221 -0.0258  2.1166 -0.1669
  101TMC2    C7 1579   1.225   4.334  12.986  0.3780  0.4671 -0.6147
  101TMC2    C8 1580   1.197   4.108  13.408 -0.6366 -0.3107  0.7868
  101TMC2    O1 1581   1.156   4.382  12.892 -0.5581  0.3595 -0.3115
  101TMC2    O2 1582   1.159   4.118  13.523  0.5015 -0.1230 -0.0330
  101TMC2    O5 1583   1.313   4.051  13.367  0.4136 -0.2233 -0.2837
  101TMC2    H5 1584   1.326   4.042  13.271  2.0836  0.3865 -0.1215
  102MPD2     C 1585   0.613   4.410  12.934 -0.2631 -0.2623 -0.6034
  102MPD2    C1 1586   0.634   4.338  13.044 -0.3150  0.2295 -0.1285
  102MPD2    C2 1587   0.531   4.255  13.086  0.6757  0.5342  0.7907
  102MPD2    C3 1588   0.411   4.247  13.026 -0.1392  0.1309 -0.3451
  102MPD2    C4 1589   0.393   4.319  12.910  0.9174  0.2877 -0.7338
  102MPD2    C5 1590   0.495   4.396  12.860 -0.4186 -0.0400  0.9010
  102MPD2     H 1591   0.540   4.199  13.179  0.7023 -0.0308  0.4451
  102MPD2    H1 1592   0.305   4.317  12.847  1.7102 -0.9167 -1.8073
  102MPD2    H2 1593   0.692   4.479  12.906  1.0805 -2.0247 -1.1711
  102MPD2    H3 1594   0.484   4.454  12.769  3.6947 -2.1559 -0.9470
  102MPD2     N 1595   0.308   4.170  13.086  0.1294 -0.6829 -0.8874
  102MPD2    H5 1596   0.336   4.116  13.168 -3.3941 -0.4388  0.4834
  102MPD2    N1 1597   0.763   4.354  13.099  0.1287 -0.1357  0.1689
  102MPD2    H7 1598   0.812   4.425  13.046 -1.8575 -1.1478 -3.0289
  103TMC2    C1 1599   3.273   3.861  13.014 -0.4830  0.4962  0.6377
  103TMC2    C2 1600   3.409   3.849  12.985  0.0232  0.9475  0.2330
  103TMC2    C3 1601   3.489   3.913  13.079  0.2360 -0.5151 -0.1640
  103TMC2    C4 1602   3.217   3.931  13.117 -0.6547  0.3370 -0.0000
  103TMC2    C5 1603   3.303   3.993  13.209  0.5377  0.6530  1.0219
  103TMC2    C6 1604   3.442   3.980  13.187 -0.0400  0.0937 -0.0070
  103TMC2     C 1605   3.180   3.810  12.921  1.4303  0.1433  0.0937
  103TMC2     O 1606   3.069   3.792  12.962  0.0670 -0.4962 -0.4938
  103TMC2     H 1607   3.447   3.804  12.894  1.3643  1.4432  0.5543
  103TMC2    H1 1608   3.110   3.930  13.133 -0.9284  0.2421 -1.9099
  103TMC2    H2 1609   3.510   4.031  13.254  0.5346 -0.2011 -0.3658
  103TMC2    C7 1610   3.246   4.046  13.335 -0.2220 -0.5957 -0.0469
  103TMC2    C8 1611   3.637   3.900  13.066  0.1940 -0.9553  0.4254
  103TMC2    O1 1612   3.125   4.081  13.324  0.8164  0.3783 -0.1346
  103TMC2    O2 1613   3.679   3.796  13.023  0.6585  0.2448 -0.1191
  103TMC2    O5 1614   3.692   3.992  13.138 -0.0482 -0.0856 -0.0446
  103TMC2    H5 1615   3.652   4.081  13.136 -2.0051 -0.9375  1.2651
  104MPD2     C 1616   3.215   3.796  12.563 -0.2521 -0.3453  0.5914
  104MPD2    C1 1617   3.146   3.781  12.680  0.5359  0.1282  0.3732
  104MPD2    C2 1618   3.013   3.739  12.683  0.3416 -0.0506 -0.0804
  104MPD2    C3 1619   2.946   3.713  12.563  0.2482  0.4886 -0.2714
  104MPD2    C4 1620   3.014   3.734  12.448  0.6761 -0.7150 -0.5086
  104MPD2    C5 1621   3.149   3.766  12.449  0.2089  0.7475  0.1688
  104MPD2     H 1622   2.961   3.725  12.777  0.4884  1.5476  0.2420
  104MPD2    H1 1623   2.964   3.734  12.352  0.0150  1.3731 -0.1718
  104MPD2    H2 1624   3.314   3.839  12.556 -1.4066  1.9070 -2.0106
  104MPD2    H3 1625   3.199   3.789  12.355 -0.1629 -0.6238 -0.3647
  104MPD2     N 1626   2.815   3.666  12.556 -0.0681 -0.1579  0.0234
  104MPD2    H5 1627   2.771   3.654  12.465 -2.3121  0.4106  1.0391
  104MPD2    N1 1628   3.220   3.819  12.789 -0.3052 -0.0287  0.1923
  104MPD2    H7 1629   3.312   3.857  12.767 -0.3982  0.9300  1.4822
  105TMC2    C1 1630   3.555   3.069   0.021  0.0827  0.2216  0.1768
  105TMC2    C2 1631   3.478   3.186   0.032  0.5996  0.4068  0.1462
  105TMC2    C3 1632   3.466   3.246   0.154  0.9189 -1.5122  0.5056
  105TMC2    C4 1633   3.623   3.024   0.133 -0.5591 -0.2559 -0.6818
  105TMC2    C5 1634   3.612   3.088   0.251  0.1169  0.3740 -0.1419
  105TMC2    C6 1635   3.537   3.202   0.262 -0.4994 -0.2818  0.9968
  105TMC2     C 1636   3.577   3.001  17.638  0.2029  0.4359 -0.3933
  105TMC2     O 1637   3.566   2.883  17.653  0.5676  0.0872  0.2918
  105TMC2     H 1638   3.437   3.229  17.678  2.4302 -0.1476 -0.9466
  105TMC2    H1 1639   3.672   2.928   0.137  0.1927  0.2455  2.0377
  105TMC2    H2 1640   3.540   3.248   0.360  0.6919  0.1092  0.7769
  105TMC2    C7 1641   3.717   3.056   0.350  0.5470 -0.0834 -0.1255
  105TMC2    C8 1642   3.397   3.382   0.152  0.4334 -0.6027  0.4797
  105TMC2    O1 1643   3.760   2.945   0.339 -0.2303  0.1792 -0.7052
  105TMC2    O2 1644   3.439   3.487   0.193 -0.4504  0.2951 -0.6410
  105TMC2    O5 1645   3.285   3.359   0.072  0.7399 -0.0099 -0.3689
  105TMC2    H5 1646   3.252   3.268   0.084 -0.0534  0.4927  1.2663
  106MPD2     C 1647   3.784   2.997  17.166 -0.3657 -0.2317 -0.3539
  106MPD2    C1 1648   3.804   3.122  17.225 -0.7826  0.7316 -0.0833
  106MPD2    C2 1649   3.752   3.151  17.352 -0.5577 -0.7474  0.8517
  106MPD2    C3 1650   3.691   3.050  17.427 -0.2240 -0.4409 -0.3025
  106MPD2    C4 1651   3.677   2.926  17.369  0.0052 -0.0450 -0.0743
  106MPD2    C5 1652   3.722   2.898  17.246 -0.6568 -0.0944 -0.3216
  106MPD2     H 1653   3.767   3.251  17.392 -0.4285 -0.0169 -1.0036
  106MPD2    H1 1654   3.606   2.853  17.405 -0.2887  0.3923  0.2411
  106MPD2    H2 1655   3.827   2.957  17.075 -0.6057  0.5719 -0.8251
  106MPD2    H3 1656   3.688   2.807  17.196 -3.0315  2.0623 -2.6180
  106MPD2     N 1657   3.635   3.087  17.548 -0.5334 -0.2236 -0.2059
  106MPD2    H5 1658   3.643   3.180  17.589 -1.3079  0.3715 -1.4130
  106MPD2    N1 1659   3.888   3.225  17.174 -0.3499 -0.4588 -0.2676
  106MPD2    H7 1660   3.890   3.319  17.214  0.0031 -1.2187  1.5170
  107TMC2    C1 1661   0.799   2.774  11.374  0.1561 -0.1534 -0.4517
  107TMC2    C2 1662   0.891   2.832  11.291 -0.3627  0.8126 -1.5153
  107TMC2    C3 1663   1.019   2.778  11.290 -0.5501 -0.7451 -0.6634
  107TMC2    C4 1664   0.830   2.671  11.457 -0.1947 -0.1231  0.3403
  107TMC2    C5 1665   0.953   2.607  11.438  0.4284  0.0556  0.2797
  107TMC2    C6 1666   1.054   2.664  11.362 -0.4369 -0.3739 -0.4519
  107TMC2     C 1667   0.699   2.868  11.434  0.6676  0.3759  1.1914
  107TMC2     O 1668   0.685   2.855  11.554 -0.5055 -0.7782  0.4488
  107TMC2     H 1669   0.867   2.914  11.225  1.8595  1.8995 -0.9764
  107TMC2    H1 1670   0.757   2.644  11.532 -0.5338 -1.9253 -0.6198
  107TMC2    H2 1671   1.151   2.617  11.351 -0.1024  0.7705 -2.2914
  107TMC2    C7 1672   0.978   2.494  11.524  0.2348  0.1069 -0.1555
  107TMC2    C8 1673   1.093   2.821  11.173 -0.1413  0.1921  0.4190
  107TMC2    O1 1674   0.899   2.474  11.617 -0.5598 -0.4087 -0.2315
  107TMC2    O2 1675   1.088   2.927  11.113 -0.5560  0.2097 -0.2281
  107TMC2    O5 1676   1.121   2.709  11.107  0.1271 -0.0901  0.1215
  107TMC2    H5 1677   1.131   2.627  11.160  0.4138  0.1289  0.4068
  108MPD2     C 1678   0.452   3.074  11.259  0.0698 -0.2566 -0.5638
  108MPD2    C1 1679   0.535   3.032  11.361 -0.8890 -0.1819 -0.6173
  108MPD2    C2 1680   0.511   3.079  11.490  0.2556 -0.2115 -1.0863
  108MPD2    C3 1681   0.384   3.148  11.508  0.4384 -0.0903  0.3281
  108MPD2    C4 1682   0.300   3.182  11.401  0.0337  0.4475  1.0535
  108MPD2    C5 1683   0.338   3.151  11.273 -0.2023  0.7756  0.1277
  108MPD2     H 1684   0.569   3.052  11.577 -0.3985  0.8907 -0.3118
  108MPD2    H1 1685   0.204   3.232  11.412  0.3521  1.0332  1.1635
  108MPD2    H2 1686   0.480   3.039  11.161  1.8260 -0.1403 -0.0982
  108MPD2    H3 1687   0.276   3.178  11.188  0.1773  2.6352  0.4413
  108MPD2     N 1688   0.329   3.162  11.636  0.5788 -0.2638 -0.3560
  108MPD2    H5 1689   0.233   3.195  11.639  0.3286 -1.0820  0.5291
  108MPD2    N1 1690   0.636   2.943  11.333  0.5537  0.0090  0.0040
  108MPD2    H7 1691   0.661   2.913  11.240  0.1629  1.1562 -0.4700
  109TMC2    C1 1692   4.341   0.659   0.077  0.2429 -0.3887  0.1608
  109TMC2    C2 1693   4.274   0.546   0.025  0.4693  0.1077 -0.4314
  109TMC2    C3 1694   4.342   0.437  17.709 -0.0958 -0.0266  0.7869
  109TMC2    C4 1695   4.472   0.639   0.098  0.5277 -0.8117 -0.3238
  109TMC2    C5 1696   4.538   0.535   0.045 -0.1146  0.5963 -0.1463
  109TMC2    C6 1697   4.478   0.436  17.719 -0.2803 -0.1699 -0.3610
  109TMC2     C 1698   4.266   0.730   0.172 -0.3925  0.4473  0.1677
  109TMC2     O 1699   4.158   0.778   0.148  0.1643 -0.4227 -0.4055
  109TMC2     H 1700   4.169   0.557  17.737  0.5144 -0.1163 -0.7123
  109TMC2    H1 1701   4.523   0.713   0.159 -1.4785 -1.1063  1.7218
  109TMC2    H2 1702   4.533   0.348  17.687  2.1407  1.3594 -0.3760
  109TMC2    C7 1703   4.688   0.539   0.059  0.4773  0.4703  0.1110
  109TMC2    C8 1704   4.271   0.320  17.687 -0.3910  0.4606  1.5094
  109TMC2    O1 1705   4.722   0.619   0.146  0.3894 -0.1568  0.7472
  109TMC2    O2 1706   4.298   0.211  17.732 -0.2916 -0.2991 -0.5512
  109TMC2    O5 1707   4.160   0.354  17.630  0.6110  0.0678 -0.3572
  109TMC2    H5 1708   4.164   0.438  17.579 -1.0561  1.6208  2.0828
  110MPD2     C 1709   4.123   0.836   0.652 -1.0054  0.1432 -0.2548
  110MPD2    C1 1710   4.224   0.744   0.655  0.3194  0.3964 -0.4028
  110MPD2    C2 1711   4.291   0.705   0.541  0.3756  0.5316  0.8562
  110MPD2    C3 1712   4.258   0.759   0.418  0.2107 -0.3173 -0.2818
  110MPD2    C4 1713   4.167   0.861   0.418  0.1553  0.2670 -0.5313
  110MPD2    C5 1714   4.107   0.898   0.530  0.0368  0.6472 -0.1409
  110MPD2     H 1715   4.351   0.615   0.533 -1.5398 -0.6539 -0.1434
  110MPD2    H1 1716   4.136   0.921   0.333  0.8958  2.8930  1.0361
  110MPD2    H2 1717   4.060   0.863   0.736  0.2286  3.4198 -0.3580
  110MPD2    H3 1718   4.042   0.984   0.519 -0.0947  0.2932 -2.2156
  110MPD2     N 1719   4.324   0.716   0.301 -0.3828 -0.5939 -0.1240
  110MPD2    H5 1720   4.400   0.651   0.318  0.3997 -0.5509 -3.3599
  110MPD2    N1 1721   4.225   0.661   0.769 -0.6496  0.2203 -0.0817
  110MPD2    H7 1722   4.167   0.690   0.847  0.5211  1.7157  0.2463
  111TMC2    C1 1723   0.383   4.399  11.633  0.1810  0.5143 -0.3897
  111TMC2    C2 1724   0.318   4.287  11.671 -0.1225 -0.1024  0.0722
  111TMC2    C3 1725   0.399   4.186  11.710 -0.1826 -0.3731  0.3189
  111TMC2    C4 1726   0.520   4.417  11.631  0.6450  0.1650 -0.5386
  111TMC2    C5 1727   0.598   4.314  11.679 -0.0900  0.1628  0.2572
  111TMC2    C6 1728   0.542   4.193  11.719 -0.7172  0.5645  0.3017
  111TMC2     C 1729   0.307   4.509  11.575  0.4610 -0.7613 -0.0122
  111TMC2     O 1730   0.371   4.598  11.519 -0.4407 -0.9230  0.1046
  111TMC2     H 1731   0.210   4.285  11.675 -0.2166  1.0338 -1.9778
  111TMC2    H1 1732   0.570   4.507  11.596  0.0892 -0.0707 -1.9234
  111TMC2    H2 1733   0.597   4.110  11.763  0.7416  2.0099  1.2038
  111TMC2    C7 1734   0.741   4.322  11.686 -0.5747  0.5449 -0.1487
  111TMC2    C8 1735   0.330   4.076  11.782 -0.4650  0.2404  0.0889
  111TMC2    O1 1736   0.794   4.227  11.737 -0.1078  0.2820 -0.3458
  111TMC2    O2 1737   0.372   3.997  11.865  0.3209  0.2295  0.4479
  111TMC2    O5 1738   0.226   4.050  11.693 -0.1195  0.2996  0.6636
  111TMC2    H5 1739   0.243   4.100  11.610 -0.7746 -0.7427 -0.1014
  112MPD2     C 1740   4.609   4.726  11.411 -0.6753  0.5629  0.0435
  112MPD2    C1 1741   0.004   0.032  11.400 -0.0489  0.4970 -0.0416
  112MPD2    C2 1742   0.097   4.692  11.462  0.5801  0.6415  0.1543
  112MPD2    C3 1743   0.071   4.575  11.528  0.1570 -0.4596 -0.4615
  112MPD2    C4 1744   4.676   4.545  11.538  0.5215 -0.4011  0.1688
  112MPD2    C5 1745   4.576   4.617  11.479 -0.0670  0.1087 -0.1696
  112MPD2     H 1746   0.198   4.729  11.444  0.8267  0.3147  0.8534
  112MPD2    H1 1747   4.641   4.454  11.586 -0.7258 -0.3926 -0.7117
  112MPD2    H2 1748   4.535   0.039  11.348 -0.3223  2.2268  0.8809
  112MPD2    H3 1749   4.471   4.589  11.480  0.1922 -0.9215 -2.1281
  112MPD2     N 1750   0.173   4.481  11.574 -0.6591  0.3443  0.2301
  112MPD2    H5 1751   0.144   4.412  11.643  1.2089 -0.5536  0.1344
  112MPD2    N1 1752   0.049   0.141  11.325 -0.2362 -0.5723  0.1019
  112MPD2    H7 1753   0.144   0.171  11.346 -0.6561  0.9243 -0.1878
  113TMC2    C1 1754   2.829   3.653   0.534 -0.3675  0.3537  0.5186
  113TMC2    C2 1755   2.780   3.780   0.514  0.5553 -0.0800 -0.0134
  113TMC2    C3 1756   2.649   3.792   0.480  0.1774 -0.0120  0.2248
  113TMC2    C4 1757   2.745   3.549   0.540  0.3786 -0.3389  0.1975
  113TMC2    C5 1758   2.611   3.563   0.506  0.1597 -0.1942  0.5849
  113TMC2    C6 1759   2.561   3.684   0.473  0.4239  0.0974 -0.7686
  113TMC2     C 1760   2.955   3.649   0.599  0.4069 -0.1806 -0.1102
  113TMC2     O 1761   3.010   3.758   0.621  0.1036 -0.0522  0.0048
  113TMC2     H 1762   2.841   3.868   0.501 -0.5421  0.6647 -0.0992
  113TMC2    H1 1763   2.784   3.449   0.540  1.4786  0.0930 -0.2168
  113TMC2    H2 1764   2.454   3.701   0.465  0.2547 -0.0630  1.1168
  113TMC2    C7 1765   2.532   3.448   0.465  0.1613 -0.4255  0.4087
  113TMC2    C8 1766   2.605   3.923   0.439  0.1250  0.0169  0.4760
  113TMC2    O1 1767   2.448   3.466   0.379  0.1332  0.0186  0.0935
  113TMC2    O2 1768   2.670   4.027   0.466 -0.2251 -0.1137  0.3537
  113TMC2    O5 1769   2.471   3.919   0.417 -0.1486 -0.1809 -0.9290
  113TMC2    H5 1770   2.444   3.844   0.360 -1.7555 -0.6517  0.4790
  114MPD2     C 1771   3.319   3.437   0.864 -0.0194  0.5207 -0.0913
  114MPD2    C1 1772   3.284   3.565   0.851 -0.1500 -0.1057 -0.1373
  114MPD2    C2 1773   3.166   3.589   0.784  0.4771 -0.3685 -0.2884
  114MPD2    C3 1774   3.098   3.489   0.718  0.8518  0.4906  0.0747
  114MPD2    C4 1775   3.134   3.357   0.740  0.2799 -0.4860 -0.5700
  114MPD2    C5 1776   3.244   3.339   0.813  0.0768 -0.4271 -0.3213
  114MPD2     H 1777   3.131   3.691   0.780  2.9904  0.4695 -1.2642
  114MPD2    H1 1778   3.067   3.276   0.717 -0.2623  0.0312 -0.8302
  114MPD2    H2 1779   3.401   3.397   0.923 -0.1274 -1.3115 -1.1689
  114MPD2    H3 1780   3.264   3.239   0.849  0.2430 -0.5412 -0.7325
  114MPD2     N 1781   2.985   3.519   0.639  0.2977 -0.7853  0.2354
  114MPD2    H5 1782   2.930   3.441   0.604 -2.8434  0.8490  1.4564
  114MPD2    N1 1783   3.363   3.668   0.907 -0.3628 -0.3062 -0.1123
  114MPD2    H7 1784   3.332   3.759   0.872 -1.8985 -1.9252 -2.9304
  115TMC2    C1 1785   4.078   1.066  17.629  0.6068 -0.7926  0.2020
  115TMC2    C2 1786   4.205   1.014  17.611  0.5192 -0.2960  0.4799
  115TMC2    C3 1787   4.318   1.089  17.578 -0.2731  0.3099 -0.7139
  115TMC2    C4 1788   4.070   1.199  17.628 -0.3703 -0.2092 -0.0343
  115TMC2    C5 1789   4.182   1.274  17.597  0.0908 -0.3711 -0.3152
  115TMC2    C6 1790   4.302   1.225  17.568 -0.3881  0.1361  0.4742
  115TMC2     C 1791   3.969   0.974  17.588 -0.1346  0.2786 -0.7158
  115TMC2     O 1792   4.011   0.864  17.553 -0.6349 -0.0126  0.1985
  115TMC2     H 1793   4.227   0.909  17.604 -1.4214 -0.6231 -0.6550
  115TMC2    H1 1794   3.978   1.250  17.651 -1.1533 -1.3989 -0.5232
  115TMC2    H2 1795   4.384   1.292  17.545 -0.6070 -0.7244 -2.7179
  115TMC2    C7 1796   4.158   1.414  17.586  0.2968 -0.0054  0.2177
  115TMC2    C8 1797   4.432   1.022  17.523  0.0992  0.5043  0.3781
  115TMC2    O1 1798   4.062   1.456  17.652  0.4977 -0.2298  0.3780
  115TMC2    O2 1799   4.440   0.905  17.547  0.4761  0.6732  0.3841
  115TMC2    O5 1800   4.497   1.081  17.424  0.3558  0.4966 -0.0560
  115TMC2    H5 1801   4.478   1.174  17.400 -1.0018  0.1269 -0.3974
  116MPD2     C 1802   3.493   0.828  17.482  1.1978 -0.4306  0.0189
  116MPD2    C1 1803   3.612   0.778  17.447 -0.0587  0.8131  0.0675
  116MPD2    C2 1804   3.729   0.844  17.478 -0.6426 -0.3772  0.1650
  116MPD2    C3 1805   3.726   0.963  17.546  0.3785 -0.3767 -0.0153
  116MPD2    C4 1806   3.603   1.006  17.582 -0.1832  0.5070  0.3227
  116MPD2    C5 1807   3.483   0.942  17.557 -0.5629 -0.0954 -0.5620
  116MPD2     H 1808   3.819   0.807  17.431 -1.3460  0.8974 -2.1746
  116MPD2    H1 1809   3.592   1.093  17.645  0.2229 -0.7031  2.0934
  116MPD2    H2 1810   3.401   0.788  17.442  0.2865  0.5976  1.0486
  116MPD2    H3 1811   3.390   0.976  17.600 -0.3721 -0.6263  0.2701
  116MPD2     N 1812   3.842   1.034  17.594  0.0397 -0.5903  0.2070
  116MPD2    H5 1813   3.823   1.127  17.629  1.3538 -0.7836  1.4453
  116MPD2    N1 1814   3.610   0.672  17.350 -0.3967 -0.4584 -0.3105
  116MPD2    H7 1815   3.517   0.656  17.314 -0.6572  0.0966  0.1156
  117TMC2    C1 1816   3.250   1.755  14.325 -0.0396 -0.7996 -0.4656
  117TMC2    C2 1817   3.377   1.724  14.356 -0.4387 -0.3898 -0.2146
  117TMC2    C3 1818   3.476   1.819  14.332 -0.2136  0.2132  0.2798
  117TMC2    C4 1819   3.212   1.879  14.288 -0.1881 -0.3161  0.4387
  117TMC2    C5 1820   3.313   1.967  14.269 -0.3179  0.5732  0.5606
  117TMC2    C6 1821   3.445   1.942  14.301 -0.1362  0.5805 -0.0011
  117TMC2     C 1822   3.146   1.666  14.357 -0.4228 -0.1902 -0.0416
  117TMC2     O 1823   3.166   1.614  14.466  0.6932 -0.1555 -0.0832
  117TMC2     H 1824   3.407   1.633  14.406  0.0352 -0.8530 -1.3482
  117TMC2    H1 1825   3.107   1.903  14.276 -0.5027 -0.8421  2.1207
  117TMC2    H2 1826   3.524   2.016  14.292 -2.0789  2.7180  0.3068
  117TMC2    C7 1827   3.286   2.095  14.208 -1.0065  0.4493  0.4376
  117TMC2    C8 1828   3.620   1.796  14.306 -0.9453 -0.9286 -0.1419
  117TMC2    O1 1829   3.370   2.183  14.226 -0.2893  0.6985  0.5447
  117TMC2    O2 1830   3.704   1.884  14.320 -0.1427  0.3413  0.2239
  117TMC2    O5 1831   3.640   1.678  14.253  0.0353  0.2936 -0.0138
  117TMC2    H5 1832   3.559   1.629  14.230  0.5870 -0.8141  0.4300
  118MPD2     C 1833   3.000   2.180  13.992 -0.7622 -0.4875  0.3542
  118MPD2    C1 1834   3.123   2.204  14.057 -0.0675  0.7704 -0.0368
  118MPD2    C2 1835   3.191   2.326  14.031  0.2004 -0.1134 -0.3198
  118MPD2    C3 1836   3.126   2.420  13.949 -0.5875  0.7247  0.2841
  118MPD2    C4 1837   3.007   2.394  13.895 -0.2261 -0.5815  0.0912
  118MPD2    C5 1838   2.943   2.272  13.903  0.1893  0.3784 -0.6578
  118MPD2     H 1839   3.294   2.340  14.063 -0.4885 -1.0605  2.2812
  118MPD2    H1 1840   2.961   2.470  13.833 -0.7437 -1.8250 -1.0496
  118MPD2    H2 1841   2.950   2.083  13.992  3.0327 -2.4636  1.7504
  118MPD2    H3 1842   2.852   2.247  13.850 -1.7801  0.2979  2.8291
  118MPD2     N 1843   3.174   2.552  13.922  0.6163 -1.0049 -0.2597
  118MPD2    H5 1844   3.105   2.615  13.883  0.1706 -0.4637  1.3909
  118MPD2    N1 1845   3.172   2.094  14.128  0.0154  0.7644  0.4839
  118MPD2    H7 1846   3.114   2.011  14.123 -0.2840  0.9167  1.3087
  119TMC2    C1 1847   1.363   2.713  13.396 -0.3588 -0.2923  0.1283
  119TMC2    C2 1848   1.461   2.620  13.370  0.2559 -0.0126 -0.0848
  119TMC2    C3 1849   1.427   2.487  13.374 -0.5730  0.3167  0.3345
  119TMC2    C4 1850   1.234   2.675  13.418  0.4070 -0.4947 -0.4464
  119TMC2    C5 1851   1.210   2.543  13.443  0.0814  0.7978 -0.4210
  119TMC2    C6 1852   1.303   2.449  13.403 -0.6457 -0.8510  0.3098
  119TMC2     C 1853   1.411   2.826  13.472 -1.4715 -0.3039  0.0702
  119TMC2     O 1854   1.338   2.866  13.562 -0.4665  0.2363 -0.3840
  119TMC2     H 1855   1.565   2.641  13.347  0.8312 -2.1330  0.6074
  119TMC2    H1 1856   1.177   2.752  13.470  1.4076 -0.2277  0.2621
  119TMC2    H2 1857   1.283   2.345  13.428  0.1602 -1.2345 -0.6524
  119TMC2    C7 1858   1.143   2.498  13.569 -0.0002  0.6238  0.2954
  119TMC2    C8 1859   1.543   2.404  13.405 -0.1948 -0.2186 -0.3130
  119TMC2    O1 1860   1.186   2.399  13.633 -0.3789  0.8713 -0.0886
  119TMC2    O2 1861   1.651   2.447  13.450  0.9699  0.5355  0.1330
  119TMC2    O5 1862   1.492   2.285  13.445 -0.0715 -0.4316 -0.0055
  119TMC2    H5 1863   1.420   2.253  13.387  0.1666 -1.3937  0.2309
  120MPD2     C 1864   1.834   3.062  13.665 -0.6557 -0.5938 -0.5150
  120MPD2    C1 1865   1.704   3.072  13.714  0.1885  0.5908 -0.2286
  120MPD2    C2 1866   1.605   2.996  13.646  0.4367 -0.1286  0.1876
  120MPD2    C3 1867   1.634   2.934  13.518  0.0400 -0.1467 -0.4368
  120MPD2    C4 1868   1.766   2.924  13.476  0.4791 -0.0704  0.1258
  120MPD2    C5 1869   1.867   2.989  13.547 -0.4930 -0.4598  0.1881
  120MPD2     H 1870   1.503   3.003  13.681  0.2747  0.5937 -0.4399
  120MPD2    H1 1871   1.797   2.876  13.384 -0.6270  0.6516 -0.6277
  120MPD2    H2 1872   1.917   3.102  13.723 -0.7594 -0.1068 -0.6974
  120MPD2    H3 1873   1.965   2.976  13.502  0.3849  0.3109  1.9011
  120MPD2     N 1874   1.541   2.862  13.438  0.2670  0.3906 -0.4516
  120MPD2    H5 1875   1.575   2.824  13.351  1.8422 -0.5046  0.5552
  120MPD2    N1 1876   1.692   3.147  13.834 -0.2795  0.1030 -0.1472
  120MPD2    H7 1877   1.778   3.170  13.883 -0.7948 -0.4138  0.9921
  121TMC2    C1 1878   2.820   0.500  14.310 -0.0496 -0.4271  0.1737
  121TMC2    C2 1879   2.829   0.518  14.446  0.1339 -0.1367  0.1029
  121TMC2    C3 1880   2.725   0.467  14.526  0.1838  0.2199 -0.5559
  121TMC2    C4 1881   2.715   0.436  14.250  0.5852  0.2303  0.2446
  121TMC2    C5 1882   2.617   0.388  14.333 -0.5086 -0.3684  0.0873
  121TMC2    C6 1883   2.622   0.400  14.466  0.3760 -0.9818 -0.5618
  121TMC2     C 1884   2.941   0.522  14.235 -0.7982  0.6784  0.3448
  121TMC2     O 1885   3.049   0.536  14.293  0.0411 -0.1857  0.6212
  121TMC2     H 1886   2.918   0.562  14.490 -1.8723  1.7584  2.2679
  121TMC2    H1 1887   2.698   0.416  14.145  0.5479  4.0376 -0.4815
  121TMC2    H2 1888   2.545   0.358  14.530 -1.3349 -0.2407 -2.1143
  121TMC2    C7 1889   2.503   0.328  14.271  0.3992 -0.1205 -0.4383
  121TMC2    C8 1890   2.749   0.477  14.675 -0.4250  0.9787 -0.4611
  121TMC2    O1 1891   2.437   0.392  14.191 -0.0675 -0.1330 -0.1210
  121TMC2    O2 1892   2.670   0.455  14.766  0.3507  0.5799  0.3204
  121TMC2    O5 1893   2.880   0.465  14.695 -0.3459  0.2766 -0.3793
  121TMC2    H5 1894   2.926   0.435  14.614 -0.3173 -1.2050  0.1729
  122MPD2     C 1895   3.142   0.552  14.020 -0.0730  0.9797  0.4136
  122MPD2    C1 1896   3.007   0.577  14.000 -0.2502 -0.2013 -0.1654
  122MPD2    C2 1897   2.967   0.612  13.871  0.0963 -0.0823 -0.8879
  122MPD2    C3 1898   3.056   0.627  13.769 -0.0311 -0.3077  0.3923
  122MPD2    C4 1899   3.186   0.586  13.794 -0.6901  0.5958  0.1192
  122MPD2    C5 1900   3.224   0.547  13.918  0.4021 -0.2538  0.7005
  122MPD2     H 1901   2.859   0.613  13.864  0.0159  1.6086  0.7084
  122MPD2    H1 1902   3.262   0.588  13.717  0.1137 -0.6854  0.8689
  122MPD2    H2 1903   3.183   0.527  14.118 -0.5023 -1.0906  0.0687
  122MPD2    H3 1904   3.322   0.507  13.942  1.1295  2.3431  2.1019
  122MPD2     N 1905   3.030   0.677  13.640 -0.2977  0.8552  0.4161
  122MPD2    H5 1906   3.116   0.695  13.590 -0.1387 -2.8440 -0.6508
  122MPD2    N1 1907   2.911   0.555  14.104  0.0533 -0.8468 -0.0814
  122MPD2    H7 1908   2.813   0.560  14.078  0.0983 -1.6831 -0.4063
  123TMC2    C1 1909   0.698   3.937  10.528 -0.5335 -1.3440  0.4121
  123TMC2    C2 1910   0.717   4.070  10.562  0.0511  0.2319  0.0866
  123TMC2    C3 1911   0.837   4.126  10.526  0.2040 -0.2915 -0.1714
  123TMC2    C4 1912   0.789   3.867  10.457 -0.0336  0.5675 -0.1329
  123TMC2    C5 1913   0.901   3.936  10.408  0.4615 -0.1981 -0.0930
  123TMC2    C6 1914   0.926   4.063  10.447 -0.1357 -0.0895  0.1556
  123TMC2     C 1915   0.555   3.902  10.516  0.0548  1.4776 -0.1305
  123TMC2     O 1916   0.480   3.991  10.483  0.6401  0.2853 -0.1833
  123TMC2     H 1917   0.642   4.123  10.619 -0.0570  1.1378 -0.9196
  123TMC2    H1 1918   0.770   3.769  10.414 -1.6912  0.5340  0.6803
  123TMC2    H2 1919   1.009   4.124  10.412 -0.5721 -0.7043 -1.9819
  123TMC2    C7 1920   0.988   3.870  10.326  0.4078 -0.0326 -0.0622
  123TMC2    C8 1921   0.851   4.269  10.547 -0.3646  0.5523  0.0790
  123TMC2    O1 1922   0.972   3.749  10.316  0.3180  0.0525 -0.3874
  123TMC2    O2 1923   0.946   4.316  10.610 -0.1984  0.0779  0.5453
  123TMC2    O5 1924   0.831   4.290  10.417 -0.1377 -0.1799 -0.3075
  123TMC2    H5 1925   0.751   4.246  10.381 -0.8925  1.7320 -0.9668
  124MPD2     C 1926   0.205   3.548  10.391  0.0643 -0.8418 -0.1621
  124MPD2    C1 1927   0.287   3.497  10.492  0.7317  0.9375  0.4694
  124MPD2    C2 1928   0.395   3.570  10.536  0.0321  0.3887 -0.2982
  124MPD2    C3 1929   0.413   3.703  10.483 -0.2334  0.3789 -0.0649
  124MPD2    C4 1930   0.327   3.754  10.390  0.0002  0.4222 -0.3217
  124MPD2    C5 1931   0.226   3.678  10.345 -0.6557  0.1834  0.4473
  124MPD2     H 1932   0.458   3.523  10.611  1.3339  2.1289 -0.2899
  124MPD2    H1 1933   0.345   3.851  10.344  3.8519  0.8448  2.0863
  124MPD2    H2 1934   0.116   3.499  10.353 -0.6267  0.7712 -0.6576
  124MPD2    H3 1935   0.172   3.719  10.261  1.8656  1.0554 -0.7712
  124MPD2     N 1936   0.528   3.767  10.523  0.1371 -0.1176  0.0724
  124MPD2    H5 1937   0.605   3.704  10.546 -1.4899 -2.5847 -1.2394
  124MPD2    N1 1938   0.267   3.362  10.528  0.5118 -0.0288  0.2627
  124MPD2    H7 1939   0.198   3.317  10.469 -1.0264  1.5527  0.8677
  125TMC2    C1 1940   2.235   4.270   9.412  0.1697 -0.2965  0.9512
  125TMC2    C2 1941   2.119   4.336   9.430 -0.3363 -1.0977  0.6201
  125TMC2    C3 1942   2.119   4.460   9.494  0.3705 -0.4920 -0.6320
  125TMC2    C4 1943   2.353   4.325   9.457  0.2244 -0.3137  0.1501
  125TMC2    C5 1944   2.353   4.450   9.518 -0.3703 -0.9407  0.1473
  125TMC2    C6 1945   2.232   4.512   9.544  1.0727  0.1850 -0.6808
  125TMC2     C 1946   2.211   4.126   9.401 -0.4700 -0.7773  0.0779
  125TMC2     O 1947   2.105   4.091   9.356 -0.2389 -0.1288  0.0895
  125TMC2     H 1948   2.032   4.304   9.375 -0.4627  1.9156 -0.9123
  125TMC2    H1 1949   2.446   4.276   9.429  1.1453  0.9944  0.9111
  125TMC2    H2 1950   2.232   4.604   9.602 -2.3211 -1.4201  1.8554
  125TMC2    C7 1951   2.478   4.522   9.547 -0.5326  0.4748 -0.2622
  125TMC2    C8 1952   2.013   4.556   9.471  0.3457  0.5348 -0.2424
  125TMC2    O1 1953   2.469   4.639   9.586  0.6817  0.5245  0.0923
  125TMC2    O2 1954   2.033   4.674   9.502  0.7026  0.6712  0.0205
  125TMC2    O5 1955   1.902   4.480   9.493  0.3867 -0.1469  0.4200
  125TMC2    H5 1956   1.908   4.383   9.486 -0.2736 -0.1886  0.4338
  126MPD1     C 1957   2.400   3.645   9.404 -0.8299  0.0033  0.2957
  126MPD1    C1 1958   2.476   3.724   9.491  0.2225 -1.2825  0.4339
  126MPD1    C2 1959   2.450   3.863   9.489 -0.4654  0.0246 -0.3853
  126MPD1    C3 1960   2.339   3.914   9.426 -0.2977 -0.4352  1.0380
  126MPD1    C4 1961   2.263   3.833   9.346  0.0738 -0.7328 -0.4341
  126MPD1    C5 1962   2.292   3.703   9.342 -0.2327 -0.0454  0.4054
  126MPD1     H 1963   2.514   3.933   9.540 -1.7695  0.3208  0.8491
  126MPD1    H1 1964   2.170   3.864   9.298  1.4811  1.8822 -1.4899
  126MPD1    H2 1965   2.420   3.539   9.390 -0.2457 -0.0930  1.8246
  126MPD1    H3 1966   2.235   3.631   9.286  1.8465 -1.3188 -0.0570
  126MPD1     N 1967   2.319   4.050   9.440  0.1350 -0.3181 -0.5788
  126MPD1    H5 1968   2.387   4.108   9.487  1.2946 -2.3761  0.2877
  126MPD1    N1 1969   2.594   3.676   9.548  0.3370 -0.0554 -0.1530
  126MPD1    H6 1970   2.623   3.721   9.634  2.4670 -0.7986 -0.4902
  126MPD1    H7 1971   2.596   3.575   9.562  2.2446  0.2482  1.6975
  127TMC2    C1 1972   2.821   4.021  10.127 -0.4499 -0.5119  0.3420
  127TMC2    C2 1973   2.878   3.904  10.082  0.9169 -0.3816 -0.6221
  127TMC2    C3 1974   2.806   3.794  10.088  0.1203 -0.1361  0.1871
  127TMC2    C4 1975   2.695   4.024  10.184  0.1115  0.1396 -0.3357
  127TMC2    C5 1976   2.630   3.906  10.198 -0.1472  0.0314 -0.6744
  127TMC2    C6 1977   2.679   3.783  10.154  0.1455  0.1084 -0.0741
  127TMC2     C 1978   2.896   4.138  10.138  0.3753  0.7282 -0.3279
  127TMC2     O 1979   3.016   4.126  10.116  0.9129  0.5002  0.0029
  127TMC2     H 1980   2.975   3.893  10.035  1.2605  0.6028 -0.1563
  127TMC2    H1 1981   2.652   4.110  10.234 -0.5632  1.3392 -2.9958
  127TMC2    H2 1982   2.631   3.686  10.158  0.5204 -0.1848 -2.5280
  127TMC2    C7 1983   2.502   3.914  10.262  0.2473 -0.3366 -0.0823
  127TMC2    C8 1984   2.850   3.687  10.001  0.5801  0.7848 -0.0224
  127TMC2    O1 1985   2.454   4.024  10.294  0.1719 -0.2824 -0.0916
  127TMC2    O2 1986   2.885   3.701   9.886 -0.0613 -0.2384 -0.3521
  127TMC2    O5 1987   2.830   3.574  10.065 -0.5268 -0.1784 -0.1928
  127TMC2    H5 1988   2.795   3.573  10.156 -0.0210 -0.1489  0.0038
  128MPD2     C 1989   2.772   4.469  10.229 -0.0622  0.2086  0.0157
  128MPD2    C1 1990   2.868   4.378  10.200  0.2903  0.7788  0.0737
  128MPD2    C2 1991   3.000   4.415  10.190 -0.3103 -0.2153  0.6351
  128MPD2    C3 1992   3.043   4.545  10.216  0.0182  0.6346  0.5499
  128MPD2    C4 1993   2.948   4.640  10.241 -0.1000  0.1584  0.1362
  128MPD2    C5 1994   2.815   4.599  10.252 -0.4826  0.2368  0.0771
  128MPD2     H 1995   3.079   4.352  10.151 -0.4568 -0.8924  1.4194
  128MPD2    H1 1996   2.969   0.012  10.237  1.8181 -0.2722 -1.3455
  128MPD2    H2 1997   2.669   4.437  10.234  0.9717 -3.0642  0.7549
  128MPD2    H3 1998   2.752   4.685  10.270 -0.6852  0.4108 -1.5046
  128MPD2     N 1999   3.181   4.569  10.216  0.4790  0.4839  0.3511
  128MPD2    H5 2000   3.244   4.492  10.195  1.2042  1.3030 -0.4888
  128MPD2    N1 2001   2.824   4.247  10.176  0.1373 -0.0297  0.5347
  128MPD2    H7 2002   2.725   4.226  10.179  0.4355 -1.3060  1.4750
  129TMC2    C1 2003   1.700   4.484   1.553 -0.3434 -0.4561 -0.3436
  129TMC2    C2 2004   1.643   4.612   1.538  0.3546 -0.2214 -0.4212
  129TMC2    C3 2005   1.503   4.614   1.535 -0.2382 -0.2834  0.0663
  129TMC2    C4 2006   1.629   4.374   1.568  0.0313 -0.6880  0.1957
  129TMC2    C5 2007   1.492   4.385   1.564  0.6208 -0.1322 -0.2688
  129TMC2    C6 2008   1.429   4.502   1.558 -0.0064  0.6431  0.1479
  129TMC2     C 2009   1.843   4.471   1.533 -0.4914  0.3033  0.1705
  129TMC2     O 2010   1.882   4.352   1.523  0.1601  0.1888  0.0664
  129TMC2     H 2011   1.691   4.701   1.499 -2.1255  1.7345  0.9680
  129TMC2    H1 2012   1.681   4.279   1.568 -0.3336 -0.8865  1.0302
  129TMC2    H2 2013   1.321   4.508   1.556  0.1548  1.9809 -3.7862
  129TMC2    C7 2014   1.410   4.273   1.540  0.7246  0.2596  0.0336
  129TMC2    C8 2015   1.433   4.733   1.496  0.1092 -0.5138  0.1522
  129TMC2    O1 2016   1.308   4.289   1.472 -0.1692 -0.6502  0.1471
  129TMC2    O2 2017   1.484   0.080   1.426 -0.2495  0.4272 -0.0061
  129TMC2    O5 2018   1.324   0.019   1.575 -0.6241  0.2566 -0.3684
  129TMC2    H5 2019   1.321   4.688   1.647  1.1648 -0.1043 -0.6174
  130MPD2     C 2020   2.140   4.505   1.493  0.3241  0.3870 -0.4986
  130MPD2    C1 2021   2.049   4.612   1.496 -0.6191  0.5438 -0.4290
  130MPD2    C2 2022   2.103   0.004   1.487  0.1338 -0.4035 -0.0181
  130MPD2    C3 2023   2.236   0.022   1.479 -0.3796 -0.1715 -0.0253
  130MPD2    C4 2024   2.317   4.652   1.475 -0.7009  0.3110 -0.5554
  130MPD2    C5 2025   2.272   4.525   1.475 -0.2603 -0.0118  0.0425
  130MPD2     H 2026   2.037   0.090   1.490  0.5952 -0.0230 -0.4594
  130MPD2    H1 2027   2.425   4.663   1.474 -0.5791 -0.6901  2.7414
  130MPD2    H2 2028   2.110   4.401   1.488  1.0552  0.0600  1.6805
  130MPD2    H3 2029   2.341   4.444   1.458  0.0942  0.2961  0.0059
  130MPD2     N 2030   2.283   0.155   1.491  0.0246 -0.0964 -0.1619
  130MPD2    H5 2031   2.213   0.229   1.488  0.9024  0.8131  1.8408
  130MPD2    N1 2032   1.911   4.594   1.518 -0.5373  0.3008  0.5532
  130MPD2    H7 2033   1.854   4.666   1.560 -1.0085  0.7663 -0.9092
  131TMC2    C1 2034   4.501   3.229   9.805  0.2549  0.1193  0.7621
  131TMC2    C2 2035   4.416   3.162   9.719  0.9650  0.1729  0.4711
  131TMC2    C3 2036   4.340   3.231   9.627 -0.5630  0.3654  0.6362
  131TMC2    C4 2037   4.523   3.364   9.793  0.1045  0.3179 -0.5057
  131TMC2    C5 2038   4.452   3.436   9.695  0.2068 -0.4581 -0.5146
  131TMC2    C6 2039   4.357   3.368   9.620  0.3445 -0.2318  0.7936
  131TMC2     C 2040   4.567   3.167   9.923 -0.2097  0.1937  0.1367
  131TMC2     O 2041   4.586   3.240  10.018 -0.7123 -0.0375  0.1427
  131TMC2     H 2042   4.401   3.055   9.734 -0.4170  0.4312  0.9484
  131TMC2    H1 2043   4.604   3.407   9.851 -0.1069 -0.2322  0.1938
  131TMC2    H2 2044   4.302   3.419   9.542 -1.2057 -0.1697  1.9285
  131TMC2    C7 2045   4.505   3.564   9.649  0.4581  0.2432 -0.2000
  131TMC2    C8 2046   4.237   3.167   9.541 -0.1898 -0.3651  0.2668
  131TMC2    O1 2047   4.445   3.617   9.557  0.5627  0.7384 -0.4314
  131TMC2    O2 2048   4.192   3.218   9.442  0.0494 -0.2166  0.5262
  131TMC2    O5 2049   4.182   3.067   9.614  0.0482  0.2412 -0.2115
  131TMC2    H5 2050   4.208   3.082   9.707 -1.7206  0.3300  0.2765
  132MPD2     C 2051   4.621   2.815   9.998  0.2365 -0.0302  0.2612
  132MPD2    C1 2052   4.622   2.950  10.021  0.0569  0.4539 -0.6667
  132MPD2    C2 2053   4.698   3.004  10.127 -0.7983 -0.3897  0.3823
  132MPD2    C3 2054   0.020   2.920  10.218 -0.2995 -0.0675  0.7518
  132MPD2    C4 2055   0.025   2.786  10.192 -0.3562  0.1314  0.6426
  132MPD2    C5 2056   4.699   2.733  10.079  0.3064  0.3827 -1.0062
  132MPD2     H 2057   4.696   3.109  10.156  0.4286  0.3948 -2.3347
  132MPD2    H1 2058   0.066   2.713  10.261 -1.0663  0.4013  1.3476
  132MPD2    H2 2059   4.564   2.764   9.922 -0.0579 -0.6740  0.9130
  132MPD2    H3 2060   4.697   2.628  10.053  1.3126 -0.1700  1.0984
  132MPD2     N 2061   0.077   2.974  10.340  0.0146 -0.0348 -0.1127
  132MPD2    H5 2062   0.058   3.072  10.359  2.2775 -0.0580  2.2348
  132MPD2    N1 2063   4.560   3.029   9.927  0.1875 -0.4382 -0.7509
  132MPD2    H7 2064   4.513   2.982   9.849 -2.7186  0.4159  0.5074
  133TMC2    C1 2065   0.199   0.835   9.436 -0.3050  0.3402  0.8130
  133TMC2    C2 2066   0.326   0.879   9.400  0.0753  0.0525  0.4057
  133TMC2    C3 2067   0.356   1.012   9.426  0.2320 -0.4149 -1.0029
  133TMC2    C4 2068   0.116   0.906   9.517 -0.6365 -0.1397 -0.5593
  133TMC2    C5 2069   0.146   1.035   9.544 -0.5007 -0.1048  1.3685
  133TMC2    C6 2070   0.261   1.095   9.487  1.0923  0.3762  0.4315
  133TMC2     C 2071   0.162   0.696   9.411 -0.4877  0.6169  0.0894
  133TMC2     O 2072   0.057   0.661   9.464 -0.0660 -0.0882 -0.0578
  133TMC2     H 2073   0.401   0.811   9.361 -0.4350  0.4666 -1.2972
  133TMC2    H1 2074   0.027   0.863   9.561 -0.5274  0.5427  0.3140
  133TMC2    H2 2075   0.264   1.203   9.473  1.6649  0.1351 -1.3963
  133TMC2    C7 2076   0.070   1.107   9.651  0.0718 -0.5070 -0.8834
  133TMC2    C8 2077   0.482   1.057   9.383  0.1451 -0.3300  0.2180
  133TMC2    O1 2078   4.701   1.065   9.703  0.4632  0.5330  0.6407
  133TMC2    O2 2079   0.537   1.160   9.427  0.1509 -0.6922  0.6080
  133TMC2    O5 2080   0.523   0.996   9.269  1.1496 -0.2503 -0.3714
  133TMC2    H5 2081   0.460   0.927   9.239 -1.0340  0.9759  1.4430
  134MPD2     C 2082   0.305   0.440   9.185 -0.3677  0.1807 -0.0431
  134MPD2    C1 2083   0.227   0.485   9.286  0.6120  0.4549  0.3000
  134MPD2    C2 2084   0.147   0.401   9.353  0.8208 -0.9443 -0.4224
  134MPD2    C3 2085   0.159   0.263   9.322 -0.2486  0.1827 -0.2030
  134MPD2    C4 2086   0.242   0.224   9.220  0.1756 -0.1927  0.8480
  134MPD2    C5 2087   0.312   0.312   9.145  0.3449  0.0924 -0.6849
  134MPD2     H 2088   0.109   0.439   9.448  0.0024 -2.4008 -0.1800
  134MPD2    H1 2089   0.239   0.119   9.193 -0.7194  0.4733 -1.6045
  134MPD2    H2 2090   0.371   0.505   9.128  0.4449  1.2245  2.0722
  134MPD2    H3 2091   0.374   0.288   9.059  1.9353  1.4393  0.0862
  134MPD2     N 2092   0.094   0.154   9.385  0.2943 -0.7490 -0.2679
  134MPD2    H5 2093   0.106   0.064   9.339  0.0506 -2.0665  2.2609
  134MPD2    N1 2094   0.244   0.623   9.319  0.3387 -0.3644 -0.1068
  134MPD2    H7 2095   0.316   0.679   9.273 -0.8319  0.2693 -1.1507
  135TMC2    C1 2096   1.751   0.226   9.594 -0.2067 -1.0421 -0.4651
  135TMC2    C2 2097   1.743   0.094   9.601  0.0477  0.4863  0.3500
  135TMC2    C3 2098   1.665   0.040   9.692  0.3856  0.3117  0.0674
  135TMC2    C4 2099   1.672   0.308   9.673  0.3232 -0.0000 -0.4045
  135TMC2    C5 2100   1.587   0.248   9.759  0.5395 -0.5695 -0.3250
  135TMC2    C6 2101   1.582   0.113   9.767 -0.0014  0.3937  0.7478
  135TMC2     C 2102   1.859   0.298   9.521  0.0477  0.0914  0.3741
  135TMC2     O 2103   1.847   0.421   9.524  0.5662 -0.3931  0.1458
  135TMC2     H 2104   1.804   0.035   9.535  1.2375 -0.0962  1.9944
  135TMC2    H1 2105   1.674   0.414   9.650  2.6732 -0.1300 -0.8693
  135TMC2    H2 2106   1.522   0.064   9.843 -2.4290  1.3929 -0.5236
  135TMC2    C7 2107   1.477   0.325   9.796 -0.0187 -0.0435  0.0563
  135TMC2    C8 2108   1.664   4.636   9.703 -0.4775 -0.2456  0.1339
  135TMC2    O1 2109   1.443   0.417   9.721  0.6471  0.0115 -1.0588
  135TMC2    O2 2110   1.622   4.580   9.806 -0.2602  0.3722 -0.2591
  135TMC2    O5 2111   1.619   4.603   9.584 -0.1769  0.4401 -0.0530
  135TMC2    H5 2112   1.649   4.668   9.517  0.9174  0.0740  0.0681
  136MPD2     C 2113   2.063   0.393   9.322 -0.8732  0.2163 -0.0309
  136MPD2    C1 2114   2.072   0.276   9.393 -0.3360 -0.5306 -0.9740
  136MPD2    C2 2115   2.174   0.188   9.353  0.1760 -0.3425 -0.0864
  136MPD2    C3 2116   2.266   0.214   9.249 -0.1271 -1.2717  0.9869
  136MPD2    C4 2117   2.252   0.335   9.181 -0.1347 -0.2729 -0.1419
  136MPD2    C5 2118   2.156   0.418   9.223 -0.4174  0.5089 -0.2990
  136MPD2     H 2119   2.182   0.094   9.407  0.5064 -0.4365 -0.3003
  136MPD2    H1 2120   2.323   0.370   9.108  0.6080  0.8634  1.1349
  136MPD2    H2 2121   1.987   0.469   9.328 -0.8592  0.3769 -1.6622
  136MPD2    H3 2122   2.153   0.516   9.178  1.2639  0.6846 -0.0259
  136MPD2     N 2123   2.365   0.121   9.199 -0.1834 -0.2614 -0.2545
  136MPD2    H5 2124   2.438   0.162   9.142 -1.8153  2.0730 -0.6603
  136MPD2    N1 2125   1.970   0.225   9.484 -0.0452  0.1384 -0.1023
  136MPD2    H7 2126   1.976   0.129   9.516  0.9375 -0.1525 -1.1757
  137TMC2    C1 2127   1.451   3.595   9.528  0.6849 -0.2508 -0.7054
  137TMC2    C2 2128   1.483   3.555   9.404  0.3968 -0.4924 -0.1459
  137TMC2    C3 2129   1.387   3.491   9.328  0.5250 -0.0583  0.5762
  137TMC2    C4 2130   1.328   3.570   9.583  0.2150 -0.2498  0.6464
  137TMC2    C5 2131   1.238   3.493   9.511  0.6072  0.1155  0.4255
  137TMC2    C6 2132   1.267   3.459   9.382  0.4859  0.1209 -0.2310
  137TMC2     C 2133   1.543   3.675   9.607  0.0370  0.6228  0.1368
  137TMC2     O 2134   1.492   3.729   9.705 -0.8258  0.1515  0.7526
  137TMC2     H 2135   1.588   3.564   9.378  1.1729 -2.2777  2.4768
  137TMC2    H1 2136   1.316   3.605   9.685 -1.8950  1.2019 -0.0976
  137TMC2    H2 2137   1.189   3.416   9.321 -1.2714  0.5656  1.6914
  137TMC2    C7 2138   1.119   3.435   9.572  0.1983  0.0158 -0.6385
  137TMC2    C8 2139   1.411   3.448   9.193 -0.3407  0.4325 -0.0656
  137TMC2    O1 2140   1.078   3.332   9.513  0.1448  0.0449  0.2780
  137TMC2    O2 2141   1.336   3.359   9.154 -0.0491 -0.1310  0.3905
  137TMC2    O5 2142   1.503   3.523   9.128  0.2263  0.1663  0.2133
  137TMC2    H5 2143   1.545   3.593   9.183  1.2672 -0.3244  0.0315
  138MPD2     C 2144   1.912   3.710   9.552 -0.2369  0.2421 -0.8803
  138MPD2    C1 2145   1.786   3.745   9.591 -0.3056  0.1563  0.1751
  138MPD2    C2 2146   1.768   3.846   9.687 -0.3063  0.2779 -0.4115
  138MPD2    C3 2147   1.872   3.921   9.727  0.0976  0.0267 -0.3452
  138MPD2    C4 2148   1.995   3.900   9.671 -0.2367 -1.2167 -0.1112
  138MPD2    C5 2149   2.012   3.795   9.578  0.1790 -0.3044  0.2563
  138MPD2     H 2150   1.665   3.862   9.717  0.1665  0.6018  1.0145
  138MPD2    H1 2151   2.085   3.958   9.690  0.3096 -2.2593  0.5107
  138MPD2    H2 2152   1.942   3.626   9.491 -0.1276  0.8653 -1.6787
  138MPD2    H3 2153   2.112   3.785   9.537 -0.5117  0.0750 -1.5112
  138MPD2     N 2154   1.857   4.028   9.820 -0.1248  0.1043  0.1706
  138MPD2    H5 2155   1.770   4.044   9.870 -0.2878 -1.7251  0.4519
  138MPD2    N1 2156   1.678   3.667   9.559 -0.0701 -0.2911 -0.5651
  138MPD2    H7 2157   1.696   3.588   9.498 -1.9106 -1.1296 -0.0405
  139TMC2    C1 2158   2.778   2.400  13.411 -0.3839 -0.4310  0.3856
  139TMC2    C2 2159   2.833   2.464  13.304  0.9639  0.2027  0.2668
  139TMC2    C3 2160   2.781   2.582  13.257  0.4314  0.3222  0.2471
  139TMC2    C4 2161   2.672   2.450  13.479 -0.1376 -0.3197  0.0048
  139TMC2    C5 2162   2.627   2.571  13.436  0.0908 -0.4455  0.1163
  139TMC2    C6 2163   2.678   2.641  13.329  0.5106  0.0617  0.6562
  139TMC2     C 2164   2.835   2.275  13.428  0.9663  0.0317  0.1975
  139TMC2     O 2165   2.926   2.253  13.354  0.2795 -0.5379  0.1537
  139TMC2     H 2166   2.927   2.439  13.258  0.3717 -1.5606  0.0134
  139TMC2    H1 2167   2.640   2.404  13.572 -0.3170  0.4330  0.3118
  139TMC2    H2 2168   2.634   2.733  13.293 -2.3205 -1.0655  1.2918
  139TMC2    C7 2169   2.530   2.636  13.523  0.7294 -0.0139 -0.1466
  139TMC2    C8 2170   2.844   2.639  13.142 -0.6416  0.1705 -0.0945
  139TMC2    O1 2171   2.527   2.762  13.533 -0.0705 -0.0673 -0.4036
  139TMC2    O2 2172   2.853   2.577  13.033  0.3140 -0.7937 -0.3130
  139TMC2    O5 2173   2.825   2.773  13.152 -0.0813  0.1801  0.5609
  139TMC2    H5 2174   2.829   2.812  13.242  1.2485  1.1250  0.0856
  140MPD2     C 2175   2.803   2.008  13.668  0.4490 -0.1025  0.2322
  140MPD2    C1 2176   2.860   2.096  13.586  0.4116 -1.0572 -0.1216
  140MPD2    C2 2177   2.997   2.090  13.557  0.1475  0.6050 -0.5070
  140MPD2    C3 2178   3.079   2.000  13.630  0.4704  0.5241  0.2475
  140MPD2    C4 2179   3.019   1.904  13.708  0.2062  0.9385 -0.2897
  140MPD2    C5 2180   2.880   1.909  13.726  0.9371  0.1782  0.1504
  140MPD2     H 2181   3.056   2.151  13.490  1.2651 -0.6796 -0.7014
  140MPD2    H1 2182   3.068   1.833  13.774 -0.6359 -0.7292 -1.4372
  140MPD2    H2 2183   2.705   2.025  13.710  0.2785 -0.6055  0.0358
  140MPD2    H3 2184   2.830   1.832  13.783  0.0844  1.1963  0.7701
  140MPD2     N 2185   3.216   2.003  13.598  0.0383  0.5766  0.0703
  140MPD2    H5 2186   3.249   2.072  13.532  0.4946 -1.1860 -1.5317
  140MPD2    N1 2187   2.779   2.193  13.528 -0.1693  0.6404  0.6780
  140MPD2    H7 2188   2.682   2.209  13.551  0.3936  1.3502  2.5805
  141TMC2    C1 2189   2.755   4.730  14.701 -0.5431  0.6058  0.8792
  141TMC2    C2 2190   2.804   4.662  14.806 -0.4487 -0.0576  0.2965
  141TMC2    C3 2191   2.923   4.706  14.862 -0.9277  0.5372 -0.0004
  141TMC2    C4 2192   2.827   0.101  14.650 -0.2114  0.4714 -0.0614
  141TMC2    C5 2193   2.943   0.143  14.712 -0.8035  0.4728 -0.3441
  141TMC2    C6 2194   2.999   0.069  14.813 -0.2738  0.7973 -0.2569
  141TMC2     C 2195   2.690   4.655  14.595  0.6713  0.3532  0.1384
  141TMC2     O 2196   2.681   4.713  14.488 -0.1100  0.6683 -0.1566
  141TMC2     H 2197   2.752   4.584  14.860 -0.6657 -0.5412 -0.6314
  141TMC2    H1 2198   2.796   0.150  14.559  1.6561  0.8581 -0.4892
  141TMC2    H2 2199   3.091   0.096  14.863 -1.4103  1.9385  1.2404
  141TMC2    C7 2200   3.039   0.185  14.618  0.5968 -0.4054  0.0789
  141TMC2    C8 2201   2.992   4.617  14.959 -0.9992 -0.5905  0.0372
  141TMC2    O1 2202   2.988   0.261  14.535 -0.0586  0.1895  0.0948
  141TMC2    O2 2203   2.956   4.502  14.968  0.0074  0.2131  0.4032
  141TMC2    O5 2204   3.041   4.686  15.058  0.3577  0.2934 -0.0167
  141TMC2    H5 2205   3.076   0.037  15.026  0.1504  0.0196 -0.9697
  142TMC2    C1 2206   1.278   3.150   9.889  0.0059 -0.6526  0.0214
  142TMC2    C2 2207   1.390   3.156   9.808  0.1796 -0.3200 -0.4184
  142TMC2    C3 2208   1.452   3.274   9.811  0.6060  0.3828  0.4160
  142TMC2    C4 2209   1.232   3.257   9.965  0.0202  0.1380  0.1355
  142TMC2    C5 2210   1.318   3.367   9.973 -0.1421 -0.7949 -0.3701
  142TMC2    C6 2211   1.425   3.381   9.885  0.3273  0.5118 -0.1000
  142TMC2     C 2212   1.219   3.019   9.893 -0.0546  0.2271  0.1589
  142TMC2     O 2213   1.276   2.922   9.844  0.2666 -0.0551  0.4199
  142TMC2     H 2214   1.441   3.068   9.771 -1.4930 -1.1547 -0.7372
  142TMC2    H1 2215   1.134   3.260  10.010 -0.6445 -0.8708 -1.2527
  142TMC2    H2 2216   1.485   3.471   9.879  4.0039 -1.8685  1.4750
  142TMC2    C7 2217   1.253   3.489  10.037  0.1713  0.1764  0.6152
  142TMC2    C8 2218   1.558   3.290   9.714 -0.2399  0.2283  0.1560
  142TMC2    O1 2219   1.156   3.477  10.111 -0.1715 -0.0003  0.1389
  142TMC2    O2 2220   1.641   3.382   9.721  0.2735  0.1279  0.2056
  142TMC2    O5 2221   1.534   3.217   9.605  0.2718  0.0381  0.1595
  142TMC2    H5 2222   1.447   3.172   9.616  0.9170 -0.8635  1.5474
  143MPD2     C 2223   0.930   2.678  10.161 -0.1022 -0.5890 -0.0137
  143MPD2    C1 2224   1.015   2.655  10.054  0.6913 -0.2267 -0.1308
  143MPD2    C2 2225   1.076   2.769   9.987  0.6649  0.0668 -1.1518
  143MPD2    C3 2226   1.065   2.897  10.042  0.2649 -0.1731 -0.0422
  143MPD2    C4 2227   0.982   2.913  10.149 -0.4535 -0.2812  0.9069
  143MPD2    C5 2228   0.920   2.803  10.213 -0.5310 -0.7192  0.9701
  143MPD2     H 2229   1.127   2.764   9.891  1.3985 -0.7561 -0.7223
  143MPD2    H1 2230   0.958   3.007  10.196  2.1220  0.7035  0.2430
  143MPD2    H2 2231   0.866   2.600  10.200 -0.6526  0.0369  0.3283
  143MPD2    H3 2232   0.854   2.829  10.295 -1.1317 -0.1314  0.3110
  143MPD2     N 2233   1.128   3.013   9.999  0.3072  0.2446  0.5319
  143MPD2    H5 2234   1.105   3.099  10.047  1.0855  1.1536 -0.7039
  143MPD2    N1 2235   1.025   2.528  10.000 -0.2412 -0.3006  0.2348
  143MPD2    H7 2236   0.972   2.451  10.039  1.2630 -1.1076  0.6886
  144TMC2    C1 2237   3.102   2.363   0.899  0.2072  0.3462  0.4728
  144TMC2    C2 2238   3.124   2.233   0.942  0.3126 -0.1618  0.1690
  144TMC2    C3 2239   3.249   2.196   0.979  0.2413 -0.1361 -0.3541
  144TMC2    C4 2240   3.209   2.454   0.896 -0.3659 -0.2623  0.9046
  144TMC2    C5 2241   3.337   2.407   0.926 -0.4972  0.0914 -0.6564
  144TMC2    C6 2242   3.355   2.281   0.969 -0.2696  0.6955 -0.0051
  144TMC2     C 2243   2.984   2.375   0.812 -0.7344 -0.0048 -0.0438
  144TMC2     O 2244   2.943   2.268   0.768  1.1972  0.3345 -0.1509
  144TMC2     H 2245   3.036   2.171   0.957 -0.2309  1.1469  2.3164
  144TMC2    H1 2246   3.199   2.544   0.837  1.1793 -1.1499 -0.6898
  144TMC2    H2 2247   3.455   2.243   0.982 -0.8833 -0.1979  1.9930
  144TMC2    C7 2248   3.447   2.493   0.953  0.1395  0.3363  0.2851
  144TMC2    C8 2249   3.263   2.064   1.038  0.3573 -0.0156  0.3960
  144TMC2    O1 2250   3.551   2.443   0.995 -0.9107 -0.0077  0.0117
  144TMC2    O2 2251   3.163   1.999   1.075  0.5791 -0.9185 -0.0928
  144TMC2    O5 2252   3.389   2.042   1.082 -0.0572 -0.2801  0.0976
  144TMC2    H5 2253   3.456   2.104   1.046 -1.9609  1.1525 -0.9426
  145MPD2     C 2254   2.756   2.664   0.455 -0.0781  0.3533 -0.4463
  145MPD2    C1 2255   2.745   2.528   0.494  0.8996 -0.0552  0.3125
  145MPD2    C2 2256   2.812   2.466   0.597 -0.1501 -0.7222  0.3658
  145MPD2    C3 2257   2.895   2.551   0.667 -0.3100  0.2984  0.1104
  145MPD2    C4 2258   2.912   2.683   0.634  0.0912  0.4173  0.8588
  145MPD2    C5 2259   2.847   2.739   0.528  0.1658 -0.0671 -0.8168
  145MPD2     H 2260   2.806   2.358   0.594 -0.2761 -0.6431 -2.4795
  145MPD2    H1 2261   2.980   2.752   0.683  0.9473  1.1112 -1.2999
  145MPD2    H2 2262   2.705   2.705   0.368  1.6227  1.2262 -1.0356
  145MPD2    H3 2263   2.863   2.842   0.499  3.0165 -0.1611  0.4060
  145MPD2     N 2264   2.965   2.504   0.782  0.3193 -0.3181  0.2188
  145MPD2    H5 2265   3.007   2.571   0.846 -0.2250  0.3280 -0.1116
  145MPD2    N1 2266   2.664   2.442   0.414 -0.1973  0.2989  0.3026
  145MPD2    H7 2267   2.682   2.342   0.415  0.6015  0.4380  0.1649
  146TMC2    C1 2268   0.362   1.073  12.953  0.2397  0.1300 -0.2255
  146TMC2    C2 2269   0.367   1.202  12.911 -0.4582 -0.0895 -0.8568
  146TMC2    C3 2270   0.377   1.227  12.776 -0.2299  0.1047 -0.0661
  146TMC2    C4 2271   0.391   0.974  12.862 -0.4284  0.3907 -0.5461
  146TMC2    C5 2272   0.424   1.014  12.730  0.0200 -0.1947  1.0219
  146TMC2    C6 2273   0.420   1.137  12.686 -0.7794  0.3674 -1.0097
  146TMC2     C 2274   0.294   1.036  13.076  0.2778 -0.2058  0.1322
  146TMC2     O 2275   0.240   1.126  13.134 -0.0140  0.0954  0.7248
  146TMC2     H 2276   0.342   1.289  12.972 -1.1737  0.1854 -1.5531
  146TMC2    H1 2277   0.355   0.875  12.886 -1.0204  0.4141 -1.3496
  146TMC2    H2 2278   0.447   1.166  12.585 -1.1279  0.7108 -1.0042
  146TMC2    C7 2279   0.493   0.913  12.653  0.1685  0.2688 -0.3965
  146TMC2    C8 2280   0.391   1.370  12.745  0.6368 -0.1069 -0.0850
  146TMC2    O1 2281   0.512   0.946  12.536 -0.2950  0.4562  0.1940
  146TMC2    O2 2282   0.457   1.427  12.659 -0.2290  0.3330  0.3511
  146TMC2    O5 2283   0.281   1.422  12.797 -0.7245  0.2125  0.6147
  146TMC2    H5 2284   0.213   1.361  12.835 -1.5336 -0.1391 -1.3891
  147MPD2     C 2285   0.824   0.524  12.581 -0.0387  0.3373  0.5203
  147MPD2    C1 2286   0.802   0.536  12.713  0.7592  0.5392 -0.0010
  147MPD2    C2 2287   0.708   0.628  12.759 -0.1822 -0.6257 -0.6034
  147MPD2    C3 2288   0.636   0.712  12.680 -0.0460 -0.3422 -0.2572
  147MPD2    C4 2289   0.655   0.693  12.544 -0.3127  0.3563 -0.6164
  147MPD2    C5 2290   0.750   0.600  12.495 -0.2537 -0.7768  0.0971
  147MPD2     H 2291   0.698   0.639  12.866  0.7756 -0.3915 -0.5391
  147MPD2    H1 2292   0.598   0.745  12.468 -0.1227  1.1093 -0.2444
  147MPD2    H2 2293   0.905   0.464  12.541  0.9899  1.1110  1.4888
  147MPD2    H3 2294   0.775   0.602  12.390  2.5864  2.5927  0.8180
  147MPD2     N 2295   0.543   0.805  12.730 -0.1077  0.3514  0.4598
  147MPD2    H5 2296   0.538   0.802  12.832 -0.8955  0.2718  0.4251
  147MPD2    N1 2297   0.877   0.452  12.802  0.4739  0.0354  0.6081
  147MPD2    H7 2298   0.968   0.415  12.776 -0.2931 -1.0201 -0.5572
  148TMC2    C1 2299   0.463   0.027  10.778  0.3012  0.2623 -0.1329
  148TMC2    C2 2300   0.532   0.120  10.855 -0.4736 -0.3002 -0.4089
  148TMC2    C3 2301   0.623   0.071  10.943 -0.3195  0.4378  0.1998
  148TMC2    C4 2302   0.487   4.627  10.773 -0.1959 -0.5167  0.1777
  148TMC2    C5 2303   0.602   4.591  10.840  0.6838  1.0465  0.2327
  148TMC2    C6 2304   0.657   4.672  10.940  0.1929 -0.0149 -0.2258
  148TMC2     C 2305   0.366   0.085  10.694 -0.7054  0.6153 -0.0416
  148TMC2     O 2306   0.357   0.207  10.690  0.0764  0.0921  0.3401
  148TMC2     H 2307   0.512   0.227  10.861  0.2122 -0.1956  0.1050
  148TMC2    H1 2308   0.441   4.549  10.714 -0.2731 -1.1732  1.1122
  148TMC2    H2 2309   0.740   4.637  10.999 -0.2042 -0.4888  0.0437
  148TMC2    C7 2310   0.580   4.459  10.886  0.1050 -0.6055  0.2163
  148TMC2    C8 2311   0.708   0.157  11.031 -0.3274  0.4601  0.7551
  148TMC2    O1 2312   0.458   4.423  10.899  0.3120  0.7962 -0.5550
  148TMC2    O2 2313   0.773   0.121  11.130 -0.1184 -0.3633 -0.3729
  148TMC2    O5 2314   0.762   0.257  10.962 -0.4638 -0.2406  0.1756
  148TMC2    H5 2315   0.745   0.257  10.865 -0.9343 -2.5570  0.2555
  149MPD2     C 2316   0.112   0.158  10.522  0.8044  0.0006 -0.1621
  149MPD2    C1 2317   0.151   0.031  10.566  0.5368  0.4358 -1.0956
  149MPD2    C2 2318   0.069   4.661  10.532 -0.6417 -0.1144 -0.2845
  149MPD2    C3 2319   4.697   4.676  10.443  0.1933  0.3003 -0.0195
  149MPD2    C4 2320   4.661   0.068  10.402  0.1305  0.0480 -0.3093
  149MPD2    C5 2321   0.004   0.180  10.443  0.4589 -0.3397 -0.9810
  149MPD2     H 2322   0.089   4.572  10.590  0.3030  0.2956  0.0297
  149MPD2    H1 2323   4.569   0.085  10.347 -1.8617  0.6743  3.2275
  149MPD2    H2 2324   0.175   0.245  10.536  1.2955 -0.3914  0.1231
  149MPD2    H3 2325   4.711   0.281  10.414 -2.9174 -1.1906 -0.7945
  149MPD2     N 2326   4.621   4.567  10.392  0.3955  0.0239 -0.8226
  149MPD2    H5 2327   4.541   4.589  10.333 -0.1059  2.2492  0.6429
  149MPD2    N1 2328   0.264   4.734  10.653  0.2992 -0.4865 -0.0069
  149MPD2    H7 2329   0.271   4.635  10.674 -0.3157 -0.2770  1.1517
  150TMC2    C1 2330   2.166   3.374  12.358  1.2645 -0.3832 -0.9180
  150TMC2    C2 2331   2.095   3.455  12.276 -0.4931 -0.0454  0.7656
  150TMC2    C3 2332   2.165   3.557  12.224  0.1478 -0.7548 -0.2814
  150TMC2    C4 2333   2.304   3.379  12.368  0.1543  0.4779  0.4186
  150TMC2    C5 2334   2.369   3.469  12.295 -0.4882  0.4044  0.1443
  150TMC2    C6 2335   2.300   3.570  12.240 -0.4211 -0.1170 -0.8199
  150TMC2     C 2336   2.097   3.256  12.415  0.2889 -0.1742  0.0431
  150TMC2     O 2337   2.151   3.217  12.518 -0.1461  0.1133  0.6463
  150TMC2     H 2338   1.988   3.458  12.266 -0.4567 -0.3060  0.3021
  150TMC2    H1 2339   2.351   3.302  12.427 -0.4652 -1.4148 -1.5372
  150TMC2    H2 2340   2.347   3.653  12.189  1.2608 -1.3453 -1.2826
  150TMC2    C7 2341   2.514   3.476  12.299 -0.5451  0.4960  0.1335
  150TMC2    C8 2342   2.107   3.629  12.117 -0.5546  0.3475 -0.5609
  150TMC2    O1 2343   2.563   3.577  12.251 -0.5152 -0.3026 -0.3119
  150TMC2    O2 2344   2.154   3.736  12.081  0.0148 -0.1249 -0.0829
  150TMC2    O5 2345   2.036   3.545  12.038 -0.4810  0.2969 -0.5948
  150TMC2    H5 2346   2.025   3.452  12.069  2.0653  0.3042  0.3064
  151MPD2     C 2347   1.776   2.864  12.432  0.2983  0.0235  0.6812
  151MPD2    C1 2348   1.761   2.928  12.309  0.3153  0.0695  0.0452
  151MPD2    C2 2349   1.837   3.036  12.284 -0.4775  0.0191  0.1633
  151MPD2    C3 2350   1.917   3.097  12.382  0.2393  0.5982 -0.2709
  151MPD2    C4 2351   1.930   3.035  12.506  0.4586 -0.0846  0.0876
  151MPD2    C5 2352   1.848   2.924  12.532 -0.3309  0.0681 -0.3443
  151MPD2     H 2353   1.845   3.083  12.187 -0.3991 -0.5776 -0.1203
  151MPD2    H1 2354   1.984   3.077  12.590  0.9556  1.5603 -1.0530
  151MPD2    H2 2355   1.710   2.784  12.463 -0.6955  0.5260 -0.1526
  151MPD2    H3 2356   1.858   2.891  12.635 -1.1156  1.0512  0.0510
  151MPD2     N 2357   1.987   3.217  12.351  0.1407 -0.1169 -0.0277
  151MPD2    H5 2358   1.963   3.253  12.259  0.2678 -0.3805 -0.1640
  151MPD2    N1 2359   1.682   2.869  12.211 -0.2958  0.3780  0.4090
  151MPD2    H7 2360   1.653   2.774  12.229  1.0261 -0.5014 -2.0840
  152TMC2    C1 2361   2.048   2.691  12.950 -0.9072 -0.4346 -0.4832
  152TMC2    C2 2362   2.122   2.637  12.850 -0.5684 -0.3170  0.3390
  152TMC2    C3 2363   2.221   2.723  12.808  0.0738  0.0918  0.2928
  152TMC2    C4 2364   2.062   2.818  12.995 -0.1047 -0.0420 -0.0442
  152TMC2    C5 2365   2.171   2.890  12.952 -0.5100  0.6005 -0.2131
  152TMC2    C6 2366   2.254   2.849  12.853  0.7586 -0.7820  0.0686
  152TMC2     C 2367   1.913   2.639  12.979 -0.0991  0.3127  0.4345
  152TMC2     O 2368   1.826   2.725  12.995 -0.7828 -0.3933  0.2414
  152TMC2     H 2369   2.107   2.535  12.819 -0.9311  0.8615 -3.3428
  152TMC2    H1 2370   1.990   2.854  13.067  0.6615  0.8208  0.2937
  152TMC2    H2 2371   2.340   2.906  12.818  1.3637 -1.3133  0.6955
  152TMC2    C7 2372   2.183   3.025  13.010 -0.3550 -0.2422 -0.2867
  152TMC2    C8 2373   2.328   2.655  12.741 -0.1151 -0.1634  0.5747
  152TMC2    O1 2374   2.081   3.068  13.059 -0.1408 -0.1310  0.7598
  152TMC2    O2 2375   2.336   2.534  12.742 -0.0038  0.5047 -0.0178
  152TMC2    O5 2376   2.369   2.738  12.635  0.1916 -0.3438  0.0211
  152TMC2    H5 2377   2.341   2.832  12.631  1.1164 -0.0472  0.3572
  153MPD2     C 2378   1.799   2.304  13.085  0.4914 -0.8289  0.9473
  153MPD2    C1 2379   1.786   2.437  13.037  1.1622  0.4397 -0.0555
  153MPD2    C2 2380   1.665   2.486  13.003  0.5873 -0.3181  0.4459
  153MPD2    C3 2381   1.549   2.420  13.038  0.0152 -1.2217  0.2981
  153MPD2    C4 2382   1.560   2.297  13.101 -0.3474  0.2262  0.2567
  153MPD2    C5 2383   1.683   2.241  13.118  0.6069  0.1420  0.2478
  153MPD2     H 2384   1.653   2.578  12.947  1.0608 -1.9762 -2.3455
  153MPD2    H1 2385   1.476   2.234  13.127 -1.6339  1.6001 -0.6425
  153MPD2    H2 2386   1.896   2.257  13.091  0.9991 -0.2466 -2.4090
  153MPD2    H3 2387   1.689   2.139  13.155  1.6055  0.1307  0.0504
  153MPD2     N 2388   1.431   2.467  12.986 -0.3308 -0.4311 -0.6467
  153MPD2    H5 2389   1.436   2.550  12.928  0.2840 -0.8020 -1.1221
  153MPD2    N1 2390   1.906   2.510  13.006 -0.4434 -0.0390 -0.8586
  153MPD2    H7 2391   1.996   2.464  13.012 -0.6726 -0.6880 -2.2795
  154TMC2    C1 2392   2.779   3.760  17.706 -0.1383 -0.8549  0.1147
  154TMC2    C2 2393   2.695   3.734  17.603  0.4890  0.2949 -0.6109
  154TMC2    C3 2394   2.655   3.610  17.580  0.2253  0.0130 -0.5127
  154TMC2    C4 2395   2.809   3.660   0.058 -0.2791  0.1161  0.3263
  154TMC2    C5 2396   2.773   3.535   0.028 -0.2758 -0.5867 -0.5165
  154TMC2    C6 2397   2.699   3.506  17.657 -0.5459 -0.1842  0.1051
  154TMC2     C 2398   2.759   3.884   0.045  0.0596  0.0189  0.6516
  154TMC2     O 2399   2.798   3.887   0.160  0.1299  0.3594 -0.2016
  154TMC2     H 2400   2.694   3.814  17.531  1.5835  1.2228  0.4052
  154TMC2    H1 2401   2.860   3.684   0.150  1.2287 -1.3934 -0.1201
  154TMC2    H2 2402   2.674   3.403  17.635 -0.4487 -0.5521  1.7216
  154TMC2    C7 2403   2.807   3.436   0.123  0.4902  0.5110 -0.8425
  154TMC2    C8 2404   2.638   3.575  17.445 -0.1097  0.2262  0.2124
  154TMC2    O1 2405   2.735   3.339   0.120  0.2626  0.9075 -0.3318
  154TMC2    O2 2406   2.658   3.462  17.405  0.3796 -0.0000  0.4150
  154TMC2    O5 2407   2.606   3.681  17.363 -0.0474 -0.2488 -0.2719
  154TMC2    H5 2408   2.568   3.750  17.421 -2.2118 -1.3108 -0.4299
  155MPD2     C 2409   2.657   4.220  17.664 -0.4565 -0.1805 -0.0347
  155MPD2    C1 2410   2.699   4.123   0.017 -0.7812 -0.9590 -0.7734
  155MPD2    C2 2411   2.690   4.144   0.152 -0.0350 -0.1429 -0.4373
  155MPD2    C3 2412   2.685   4.276   0.193  0.3058 -0.0656 -0.2969
  155MPD2    C4 2413   2.661   4.380   0.105  0.0587 -0.0661 -0.3522
  155MPD2    C5 2414   2.633   4.348  17.713 -0.1639 -0.0315 -0.1370
  155MPD2     H 2415   2.711   4.069   0.228 -0.0797  1.2733  0.9629
  155MPD2    H1 2416   2.649   4.484   0.133  0.8784 -0.6056  1.9651
  155MPD2    H2 2417   2.641   4.206  17.558  1.4863 -0.1637 -0.3437
  155MPD2    H3 2418   2.600   4.426  17.645 -0.0202 -0.0379 -0.2153
  155MPD2     N 2419   2.703   4.305   0.328  0.9185  0.1306 -0.0809
  155MPD2    H5 2420   2.718   4.229   0.394  0.6413  0.7736  0.7321
  155MPD2    N1 2421   2.723   3.987  17.703 -0.4864 -0.4543 -0.6102
  155MPD2    H7 2422   2.697   3.969  17.607 -2.0990 -0.3356 -0.2038
  156TMC2    C1 2423   2.560   0.580  11.678  0.1421  0.1299 -0.0582
  156TMC2    C2 2424   2.589   0.445  11.646  0.4028 -0.5665 -0.0243
  156TMC2    C3 2425   2.563   0.411  11.517 -0.3966  0.2667 -0.1256
  156TMC2    C4 2426   2.512   0.670  11.583  0.4943 -0.1453  0.1557
  156TMC2    C5 2427   2.479   0.625  11.460 -0.4970 -1.5056 -0.1022
  156TMC2    C6 2428   2.507   0.495  11.417  0.2986  0.3661  0.1389
  156TMC2     C 2429   2.587   0.632  11.808 -0.3886  0.4949  0.4563
  156TMC2     O 2430   2.521   0.729  11.846 -0.6098 -0.3902  0.0842
  156TMC2     H 2431   2.618   0.379  11.727  0.6128  0.3844  0.6824
  156TMC2    H1 2432   2.489   0.773  11.608 -0.6156 -0.2299 -0.5353
  156TMC2    H2 2433   2.479   0.453  11.321  0.0791 -0.5821  0.6127
  156TMC2    C7 2434   2.452   0.719  11.362  0.0074  0.0777  0.5899
  156TMC2    C8 2435   2.607   0.280  11.466 -0.0735  0.0702 -0.0748
  156TMC2    O1 2436   2.511   0.823  11.362 -0.4441  0.1085 -0.0647
  156TMC2    O2 2437   2.574   0.246  11.353  0.2544  0.1110 -0.1998
  156TMC2    O5 2438   2.727   0.244  11.521  0.8702 -0.1633  0.4406
  156TMC2    H5 2439   2.749   0.285  11.607  1.7108  0.6348 -0.1539
  157MPD2     C 2440   2.848   0.536  12.059  0.2808 -0.2008 -0.1124
  157MPD2    C1 2441   2.758   0.619  11.988 -0.5612  0.4613  0.2240
  157MPD2    C2 2442   2.749   0.749  12.029 -0.5405  0.6822 -0.6091
  157MPD2    C3 2443   2.811   0.800  12.138  0.9754 -0.8110  0.1555
  157MPD2    C4 2444   2.893   0.717  12.220 -0.2700  0.0780  0.7831
  157MPD2    C5 2445   2.910   0.586  12.176  0.2056 -0.4376 -0.1433
  157MPD2     H 2446   2.686   0.820  11.977 -1.1968  0.3912 -0.2121
  157MPD2    H1 2447   2.966   0.758  12.289  0.0929  0.8585 -0.0508
  157MPD2    H2 2448   2.872   0.440  12.012 -0.2145  0.4035 -1.5998
  157MPD2    H3 2449   2.990   0.521  12.210  0.5861  0.3704  0.4932
  157MPD2     N 2450   2.786   0.936  12.167  0.6292  0.0004 -0.0627
  157MPD2    H5 2451   2.720   0.986  12.108 -2.6472 -1.7253  2.1697
  157MPD2    N1 2452   2.696   0.568  11.871  0.3132 -0.2938  0.1298
  157MPD2    H7 2453   2.730   0.477  11.843  1.3998  0.5450 -1.2373
  158TMC2    C1 2454   2.387   4.033  13.466 -0.5994 -0.0510  0.0944
  158TMC2    C2 2455   2.347   4.131  13.378  0.1727 -0.2850  1.0054
  158TMC2    C3 2456   2.218   4.167  13.385  0.2024  0.0738  0.2783
  158TMC2    C4 2457   2.303   3.971  13.552 -0.2272  0.3079  0.3092
  158TMC2    C5 2458   2.172   4.005  13.549  0.3828 -0.8579 -0.2896
  158TMC2    C6 2459   2.128   4.107  13.468  0.4943 -0.0564  0.6433
  158TMC2     C 2460   2.529   4.016  13.479 -0.0974  0.1961 -1.1118
  158TMC2     O 2461   2.603   4.044  13.380  0.7015  0.1274 -0.8591
  158TMC2     H 2462   2.422   4.177  13.315 -0.1365  2.5459  2.6752
  158TMC2    H1 2463   2.343   3.886  13.607  2.5772  0.5104 -1.4047
  158TMC2    H2 2464   2.024   4.138  13.458  0.9105  1.4405  0.9404
  158TMC2    C7 2465   2.070   3.901  13.579  0.1263 -0.6455  0.0374
  158TMC2    C8 2466   2.157   4.244  13.274  0.0520  0.4720  0.2773
  158TMC2    O1 2467   1.954   3.931  13.554 -0.0550  0.0218  0.1318
  158TMC2    O2 2468   2.037   4.246  13.248 -0.1215 -0.1325  0.2287
  158TMC2    O5 2469   2.243   4.328  13.208  0.4001 -0.5430 -0.0657
  158TMC2    H5 2470   2.335   4.328  13.239 -0.5965  1.4271  2.8177
  159MPD2     C 2471   2.953   3.837  13.656 -0.2392 -0.1303 -0.0105
  159MPD2    C1 2472   2.882   3.872  13.762  0.8899  0.7880 -0.4945
  159MPD2    C2 2473   2.757   3.930  13.742  0.0618 -0.2613 -0.8193
  159MPD2    C3 2474   2.703   3.933  13.616  0.2849  0.1722  0.0903
  159MPD2    C4 2475   2.767   3.867  13.516  0.3530 -0.0253  0.1347
  159MPD2    C5 2476   2.896   3.829  13.532  0.2452 -0.0338 -0.3647
  159MPD2     H 2477   2.700   3.972  13.824  0.3532 -2.9295  0.7656
  159MPD2    H1 2478   2.732   3.866  13.414  1.0288 -1.7304 -0.0748
  159MPD2    H2 2479   3.045   3.783  13.673 -0.8216 -0.8959  0.6825
  159MPD2    H3 2480   2.950   3.780  13.452  1.6285  0.7749  0.0716
  159MPD2     N 2481   2.572   3.978  13.602 -0.1407 -0.3075  0.1176
  159MPD2    H5 2482   2.513   3.980  13.684 -0.8702 -3.7318 -0.3566
  159MPD2    N1 2483   2.945   3.870  13.887  0.0702 -0.1104 -0.2887
  159MPD2    H7 2484   3.033   3.819  13.888  0.1499  0.0477  0.5753
  160TMC2    C1 2485   1.945   2.491   1.379  0.3555 -0.5364  0.7912
  160TMC2    C2 2486   1.986   2.370   1.420 -0.4402 -0.0482  0.0195
  160TMC2    C3 2487   2.084   2.313   1.344 -0.1752  0.1234 -0.7411
  160TMC2    C4 2488   1.983   2.563   1.264  0.2229  0.1272  0.0388
  160TMC2    C5 2489   2.079   2.498   1.191  0.2258  0.4116 -0.4787
  160TMC2    C6 2490   2.132   2.373   1.223 -0.3600  0.2317 -0.1319
  160TMC2     C 2491   1.840   2.553   1.462  0.3612  0.8064 -0.5202
  160TMC2     O 2492   1.834   2.518   1.577 -0.2820  0.6668  0.1533
  160TMC2     H 2493   1.951   2.332   1.515  1.6059  1.9204  1.5538
  160TMC2    H1 2494   1.934   2.656   1.238  2.3283  1.5160  1.0341
  160TMC2    H2 2495   2.215   2.335   1.166 -0.0973 -2.2896  1.9717
  160TMC2    C7 2496   2.126   2.554   1.064  0.8077  0.4626  0.1006
  160TMC2    C8 2497   2.085   2.166   1.351  0.5742  0.4101 -0.0791
  160TMC2    O1 2498   2.180   2.475   0.992  0.0995 -0.0044  0.6697
  160TMC2    O2 2499   1.992   2.107   1.402  0.0995 -0.4572  0.2103
  160TMC2    O5 2500   2.210   2.114   1.364  0.1297 -0.1236 -0.4262
  160TMC2    H5 2501   2.290   2.168   1.344 -0.0196  0.3970  0.4023
  161MPD2     C 2502   1.619   2.744   1.564 -0.5013  0.2715  0.2269
  161MPD2    C1 2503   1.655   2.723   1.431 -0.0236  0.3241 -0.7213
  161MPD2    C2 2504   1.587   2.789   1.332  0.4118  0.3575  0.3136
  161MPD2    C3 2505   1.500   2.888   1.366  0.5444 -0.0275 -0.0649
  161MPD2    C4 2506   1.480   2.921   1.495 -0.6799 -0.5692  0.0845
  161MPD2    C5 2507   1.536   2.844   1.596 -0.1591 -0.1780  0.0168
  161MPD2     H 2508   1.598   2.761   1.228  0.3522 -4.6475  1.6253
  161MPD2    H1 2509   1.419   3.006   1.523  0.0870  0.1037 -0.2727
  161MPD2    H2 2510   1.662   2.690   1.647  2.3051 -0.4065 -1.6736
  161MPD2    H3 2511   1.520   2.869   1.700 -0.3759 -1.3160  0.2501
  161MPD2     N 2512   1.449   2.982   1.274 -0.3346 -0.2889  0.1659
  161MPD2    H5 2513   1.436   3.075   1.312 -3.7181 -0.9402  0.5355
  161MPD2    N1 2514   1.754   2.637   1.388  0.2708  0.1419 -1.0056
  161MPD2    H7 2515   1.780   2.629   1.290  0.7880  1.9837 -1.0054
  162TMC2    C1 2516   0.212   0.062   0.965  0.3939 -0.6766 -0.1026
  162TMC2    C2 2517   0.131   4.681   0.952 -0.5437  0.0316  0.5166
  162TMC2    C3 2518   0.139   4.594   1.054 -0.0864  0.2854 -0.0187
  162TMC2    C4 2519   0.308   0.076   1.055 -0.0641  0.1164  0.4913
  162TMC2    C5 2520   0.324   4.705   1.137  0.2743  0.3829  0.3820
  162TMC2    C6 2521   0.230   4.611   1.156  0.4693 -0.6408 -0.5100
  162TMC2     C 2522   0.211   0.154   0.854  0.1257 -0.0837 -0.2483
  162TMC2     O 2523   0.251   0.270   0.877  0.2070 -0.4151  0.0479
  162TMC2     H 2524   0.041   4.668   0.892 -1.1108 -0.9345  1.5781
  162TMC2    H1 2525   0.378   0.158   1.046 -2.0353  1.3749 -3.0342
  162TMC2    H2 2526   0.233   4.545   1.242  1.1254 -0.5131 -0.4329
  162TMC2    C7 2527   0.442   4.695   1.220 -0.4927 -0.5857 -0.1329
  162TMC2    C8 2528   0.048   4.481   1.072 -0.8000  0.2226 -0.4579
  162TMC2    O1 2529   0.482   0.070   1.263 -0.2518  0.3723 -0.0609
  162TMC2    O2 2530   0.037   4.425   1.180  0.2149 -0.1326  0.2110
  162TMC2    O5 2531   0.061   4.413   0.957  0.1251 -0.3329  0.0338
  162TMC2    H5 2532   0.114   4.455   0.886  1.3891 -0.2012  1.0734
  163MPD2     C 2533   0.229   0.191   0.355  0.4952 -0.4140  0.6065
  163MPD2    C1 2534   0.177   0.067   0.374 -0.7890 -0.8843 -0.4491
  163MPD2    C2 2535   0.167   0.035   0.511  0.1869  0.2208  0.0234
  163MPD2    C3 2536   0.197   0.121   0.607 -0.1631  0.4920  0.6280
  163MPD2    C4 2537   0.241   0.243   0.581  0.9146  0.0253  0.0191
  163MPD2    C5 2538   0.258   0.280   0.447 -0.3072  1.1115  0.4463
  163MPD2     H 2539   0.118   4.678   0.542 -0.4218  1.2585  2.1236
  163MPD2    H1 2540   0.262   0.317   0.657  1.2057  0.3252 -0.3535
  163MPD2    H2 2541   0.246   0.222   0.253  3.5568 -1.2576  0.8740
  163MPD2    H3 2542   0.313   0.371   0.429  2.4033 -0.4035  1.0148
  163MPD2     N 2543   0.184   0.086   0.743  0.3175  0.0401 -0.7456
  163MPD2    H5 2544   0.147   4.726   0.749  1.9217 -0.5822 -0.7978
  163MPD2    N1 2545   0.155   4.715   0.263  0.1469 -0.1642 -0.6163
  163MPD2    H7 2546   0.155   0.035   0.177 -1.3395  0.1185 -0.4420
  164TMC2    C1 2547   0.882   3.656  11.610 -0.3875  1.6790 -0.1591
  164TMC2    C2 2548   0.852   3.612  11.739 -0.4499 -0.4883 -0.1679
  164TMC2    C3 2549   0.735   3.664  11.794  0.2056  0.3152  0.1864
  164TMC2    C4 2550   0.806   3.751  11.535 -0.3286 -0.3671 -0.2462
  164TMC2    C5 2551   0.703   3.804  11.606  0.1714  0.2761  0.5077
  164TMC2    C6 2552   0.663   3.764  11.732 -0.4793 -0.3081 -0.4874
  164TMC2     C 2553   0.971   3.571  11.532  0.3595  0.6366  0.0832
  164TMC2     O 2554   1.036   3.494  11.603 -0.8238  0.2776 -0.4799
  164TMC2     H 2555   0.920   3.545  11.791  0.7910  2.1350  1.5889
  164TMC2    H1 2556   0.819   3.794  11.436  0.5288  2.6866  1.1924
  164TMC2    H2 2557   0.575   3.810  11.776  1.1390  0.5732  1.8199
  164TMC2    C7 2558   0.619   3.902  11.537  0.2273 -0.1067  0.3716
  164TMC2    C8 2559   0.690   3.624  11.923 -0.2171  0.3206 -0.3616
  164TMC2    O1 2560   0.509   3.924  11.588 -0.9099  1.1911  0.3077
  164TMC2    O2 2561   0.765   3.629  12.016  0.1027  0.4000  0.2704
  164TMC2    O5 2562   0.555   3.609  11.925 -0.1652 -0.2558  0.2931
  164TMC2    H5 2563   0.524   3.590  11.834  1.0421 -2.5042  0.3435
  165TMC2    C1 2564   1.775   1.787   1.265  0.9017  0.0393  0.8593
  165TMC2    C2 2565   1.647   1.780   1.225 -0.4280  0.4243  1.0915
  165TMC2    C3 2566   1.619   1.850   1.112 -0.9141 -0.7237  0.6179
  165TMC2    C4 2567   1.874   1.862   1.201 -0.3268 -0.3355  0.6936
  165TMC2    C5 2568   1.830   1.942   1.098  0.1672  0.2080  0.1368
  165TMC2    C6 2569   1.702   1.938   1.050 -0.2190  0.0427 -0.1677
  165TMC2     C 2570   1.816   1.693   1.367 -0.3289  0.8836  0.1244
  165TMC2     O 2571   1.906   1.725   1.441 -0.0294  0.4368  0.7322
  165TMC2     H 2572   1.572   1.719   1.275 -0.1637 -1.9343 -1.3993
  165TMC2    H1 2573   1.974   1.871   1.241 -0.5279  0.8036  0.9555
  165TMC2    H2 2574   1.665   1.999   0.968 -1.3634 -1.1760 -0.5560
  165TMC2    C7 2575   1.921   2.021   1.026 -0.3888 -0.4624  0.7237
  165TMC2    C8 2576   1.477   1.864   1.077  0.3181  0.3894 -0.2726
  165TMC2    O1 2577   2.028   2.049   1.078  0.0958 -0.2100  0.4844
  165TMC2    O2 2578   1.435   1.875   0.966 -0.1960 -0.4556 -0.1171
  165TMC2    O5 2579   1.420   1.896   1.199  0.1751  0.1328 -0.1167
  165TMC2    H5 2580   1.477   1.908   1.278 -1.1916 -0.4541  0.9601
  166MPD2     C 2581   1.761   1.264   1.660 -0.3746  0.4200  0.1066
  166MPD2    C1 2582   1.830   1.384   1.681  0.1489 -0.0673 -0.1267
  166MPD2    C2 2583   1.829   1.482   1.585 -0.1108 -0.2605  0.3792
  166MPD2    C3 2584   1.754   1.475   1.469 -0.3773 -0.3146  0.2022
  166MPD2    C4 2585   1.694   1.357   1.444 -1.0059  0.5612  0.1200
  166MPD2    C5 2586   1.693   1.255   1.537 -0.4246  0.1867  0.0609
  166MPD2     H 2587   1.860   1.581   1.618 -1.5153  0.3737 -0.2068
  166MPD2    H1 2588   1.640   1.344   1.351 -0.9702  0.4541  0.1141
  166MPD2    H2 2589   1.750   1.178   1.724 -0.5199 -1.2062 -2.1121
  166MPD2    H3 2590   1.651   1.156   1.522 -4.0368  1.5082  1.4051
  166MPD2     N 2591   1.745   1.574   1.367  0.1124  0.1953  0.0373
  166MPD2    H5 2592   1.676   1.561   1.294 -1.1394  0.4802  1.1590
  166MPD2    N1 2593   1.912   1.379   1.793 -0.4709 -0.3530  0.3314
  166MPD2    H7 2594   1.910   1.293   1.848  1.3050 -0.8858 -0.4012
  167TMC2    C1 2595   1.072   3.853  12.505 -0.2361 -0.3387 -0.1054
  167TMC2    C2 2596   1.169   3.900  12.587  0.2688  0.0891 -0.3113
  167TMC2    C3 2597   1.215   3.815  12.692 -0.0567 -0.5907  0.3898
  167TMC2    C4 2598   1.037   3.714  12.513  0.0657 -0.1976  0.0122
  167TMC2    C5 2599   1.091   3.640  12.609 -0.2305 -0.2536  0.1132
  167TMC2    C6 2600   1.176   3.686  12.698 -0.2324 -0.0123  0.4834
  167TMC2     C 2601   1.031   3.941  12.395 -0.5142 -0.6316  0.8926
  167TMC2     O 2602   1.100   4.039  12.365  0.5963  0.1833 -0.2007
  167TMC2     H 2603   1.205   4.001  12.575  0.0755  0.3212  1.0781
  167TMC2    H1 2604   0.961   3.675  12.446  1.0718 -1.8727 -0.1506
  167TMC2    H2 2605   1.214   3.619  12.775 -1.0343 -1.9740 -0.8250
  167TMC2    C7 2606   1.044   3.498  12.618 -1.0256  0.2502  0.6269
  167TMC2    C8 2607   1.280   3.867  12.806 -0.3678  0.8574 -0.4061
  167TMC2    O1 2608   1.060   3.447  12.724  0.6489  0.2796  0.5992
  167TMC2    O2 2609   1.316   3.800  12.903 -0.4166 -0.9092  0.7486
  167TMC2    O5 2610   1.245   4.004  12.814 -0.0448 -0.3196  0.0516
  167TMC2    H5 2611   1.187   4.044  12.746 -1.5981  0.3798  1.7964
  168MPD2     C 2612   0.880   4.076  12.164 -0.1543 -0.0686  0.7565
  168MPD2    C1 2613   0.837   3.972  12.237 -1.0439 -0.1858  0.3662
  168MPD2    C2 2614   0.718   3.909  12.212  0.1366  0.4643  0.4533
  168MPD2    C3 2615   0.629   3.964  12.123  0.5715 -0.3926 -0.5825
  168MPD2    C4 2616   0.675   4.074  12.052 -0.4726  0.3357 -0.8217
  168MPD2    C5 2617   0.802   4.125  12.065  0.2239 -1.0834  0.1378
  168MPD2     H 2618   0.692   3.813  12.255 -0.3393  1.0266  1.4220
  168MPD2    H1 2619   0.618   4.107  11.966  0.3400 -2.6819 -2.5033
  168MPD2    H2 2620   0.976   4.122  12.186  0.8757 -0.8823 -1.9572
  168MPD2    H3 2621   0.834   4.200  11.994 -2.7055  0.1102  0.0635
  168MPD2     N 2622   0.496   3.908  12.098  0.4867  0.1015 -0.0921
  168MPD2    H5 2623   0.447   3.946  12.018  1.0231  0.1567 -0.3964
  168MPD2    N1 2624   0.913   3.900  12.330 -0.0321 -0.0118 -0.8938
  168MPD2    H7 2625   0.873   3.815  12.368  2.2747 -1.2711 -1.3176
  169MPD1     C 2626   2.104   4.381  10.342  0.1586  0.6674  0.1123
  169MPD1    C1 2627   2.029   4.298  10.419  0.5494 -0.4086 -0.3665
  169MPD1    C2 2628   2.006   4.169  10.378 -0.3798 -0.2797 -0.2770
  169MPD1    C3 2629   2.061   4.120  10.268  0.4511  0.3732 -0.5274
  169MPD1    C4 2630   2.133   4.205  10.188  0.3122 -0.2865  0.0249
  169MPD1    C5 2631   2.150   4.333  10.226 -0.1387 -0.3389 -0.0565
  169MPD1     H 2632   1.955   4.104  10.449 -1.0095 -0.2678 -0.7193
  169MPD1    H1 2633   2.174   4.196  10.088  2.1144  0.7718  0.6759
  169MPD1    H2 2634   2.119   4.484  10.371 -1.0027  1.4473 -2.0789
  169MPD1    H3 2635   2.202   4.392  10.150 -1.3527 -0.2841 -0.8495
  169MPD1     N 2636   2.023   3.987  10.231  0.4432  0.4853 -0.7867
  169MPD1    H5 2637   1.974   3.933  10.302 -0.8833  3.2077  0.3767
  169MPD1    N1 2638   1.993   4.342  10.553  0.8778  0.3313 -0.4864
  169MPD1    H6 2639   1.915   4.288  10.589  0.2927  2.5171  1.5327
  169MPD1    H7 2640   1.987   4.443  10.559 -1.8828  0.1521 -0.5533
  170MPD1     C 2641   1.864   0.963  13.272 -0.3196  0.1018 -0.3422
  170MPD1    C1 2642   1.880   1.015  13.396  0.4392  0.2571  0.4851
  170MPD1    C2 2643   1.783   1.112  13.434 -0.6475  0.5612  0.5136
  170MPD1    C3 2644   1.685   1.150  13.354 -0.2546 -0.0341 -0.2382
  170MPD1    C4 2645   1.670   1.097  13.225  0.6876 -0.2751  0.3403
  170MPD1    C5 2646   1.766   1.007  13.185  0.1834  0.1819 -0.1126
  170MPD1     H 2647   1.784   1.155  13.534  1.4683  1.5540  0.0692
  170MPD1    H1 2648   1.580   1.116  13.168  0.4834  2.1789  1.5136
  170MPD1    H2 2649   1.937   0.891  13.237  1.0303  2.4823 -2.3766
  170MPD1    H3 2650   1.766   0.967  13.084  0.3627  0.8222 -0.3692
  170MPD1     N 2651   1.601   1.252  13.403 -0.1329 -0.6611  0.3981
  170MPD1    H5 2652   1.608   1.284  13.499  0.6701 -0.3180  0.2248
  170MPD1    N1 2653   1.984   0.979  13.482 -0.3983  0.0689  0.2797
  170MPD1    H6 2654   1.975   0.878  13.494  1.0000  0.0172  0.9263
  170MPD1    H7 2655   1.982   1.028  13.571 -1.0074  0.3037  0.1313
  171MPD1     C 2656   3.842   2.315  15.279  0.1574 -0.6593  0.4245
  171MPD1    C1 2657   3.942   2.251  15.209 -0.4279  0.4247 -0.5864
  171MPD1    C2 2658   4.074   2.246  15.256  0.6386  0.0179 -0.6224
  171MPD1    C3 2659   4.118   2.304  15.372 -0.4491  0.4848 -0.0800
  171MPD1    C4 2660   4.019   2.369  15.440  0.1537  0.1221 -0.0831
  171MPD1    C5 2661   3.891   2.375  15.400 -0.1919  0.4608  0.3084
  171MPD1     H 2662   4.134   2.188  15.187  0.5824 -0.4100 -0.3114
  171MPD1    H1 2663   4.034   2.416  15.537  1.4093  0.4110 -0.4203
  171MPD1    H2 2664   3.736   2.319  15.256  0.6260  0.4389 -1.5734
  171MPD1    H3 2665   3.815   2.430  15.454  0.8754  2.7383 -0.5189
  171MPD1     N 2666   4.249   2.301  15.424  0.2069 -0.9945 -0.0905
  171MPD1    H5 2667   4.271   2.347  15.511 -0.8374  0.9897 -0.8672
  171MPD1    N1 2668   3.906   2.171  15.100  0.2882  1.0434  0.0420
  171MPD1    H6 2669   3.978   2.165  15.028  1.6624  1.7974  1.3481
  171MPD1    H7 2670   3.820   2.204  15.057 -0.4016 -0.3736  0.3021
  172MPD1     C 2671   2.591   1.715   0.193 -0.5448 -0.5083  0.2189
  172MPD1    C1 2672   2.559   1.848   0.234  0.1499  0.4513  0.2223
  172MPD1    C2 2673   2.670   1.919   0.285 -0.0899  0.4575  0.0051
  172MPD1    C3 2674   2.799   1.865   0.294  0.4609 -1.2099  0.8999
  172MPD1    C4 2675   2.821   1.738   0.265  0.2295  0.2579 -0.0414
  172MPD1    C5 2676   2.716   1.664   0.220  0.0571 -0.6696  0.6932
  172MPD1     H 2677   2.644   2.018   0.321  0.6325  0.3139  0.9413
  172MPD1    H1 2678   2.917   1.689   0.279  0.4520  0.7736  0.2363
  172MPD1    H2 2679   2.516   1.651   0.149 -0.5452 -0.6902  0.4856
  172MPD1    H3 2680   2.720   1.557   0.207  1.2187 -0.5106 -0.2214
  172MPD1     N 2681   2.902   1.941   0.347  1.3033  0.4183  0.2055
  172MPD1    H5 2682   2.992   1.898   0.365  0.3037 -1.7836 -0.0723
  172MPD1    N1 2683   2.435   1.904   0.205 -0.2485 -0.3407  0.2352
  172MPD1    H6 2684   2.415   1.983   0.266  0.2311 -1.4303  1.8149
  172MPD1    H7 2685   2.365   1.832   0.220  0.1121 -0.3769  1.7568
  173MPD1     C 2686   0.713   2.000  13.411 -0.2889 -0.3686  0.4246
  173MPD1    C1 2687   0.601   2.040  13.489  0.2017  0.2965  0.7170
  173MPD1    C2 2688   0.594   2.000  13.621  0.4860 -0.8638  0.1079
  173MPD1    C3 2689   0.686   1.918  13.684  0.1258  0.4288  0.6474
  173MPD1    C4 2690   0.791   1.871  13.607 -0.1743  1.1871 -0.1104
  173MPD1    C5 2691   0.801   1.916  13.472 -0.4864  0.4544 -0.1263
  173MPD1     H 2692   0.511   2.029  13.684 -0.5017 -2.4757 -0.4341
  173MPD1    H1 2693   0.871   1.809  13.647 -1.0181 -1.2310 -2.1891
  173MPD1    H2 2694   0.711   2.017  13.304 -0.0452  2.2354  0.8374
  173MPD1    H3 2695   0.878   1.882  13.404 -0.7581 -0.2589 -0.0680
  173MPD1     N 2696   0.661   1.873  13.821  0.0830  0.4695  0.0264
  173MPD1    H5 2697   0.570   1.889  13.864  0.0440 -1.5508  0.6881
  173MPD1    N1 2698   0.525   2.146  13.438 -0.8355 -0.1019  1.0524
  173MPD1    H6 2699   0.507   2.155  13.338 -1.6356 -0.9981  1.1131
  173MPD1    H7 2700   0.433   2.144  13.482 -0.7445 -2.4129  1.1606
  174MPD1     C 2701   1.181   1.455  14.577  0.3105 -0.0327 -0.7083
  174MPD1    C1 2702   1.058   1.394  14.579 -0.7765  0.8545 -0.0394
  174MPD1    C2 2703   0.966   1.407  14.477 -0.0500 -0.3203  0.3773
  174MPD1    C3 2704   1.011   1.463  14.357  0.7015 -0.3379  0.0526
  174MPD1    C4 2705   1.141   1.500  14.346 -0.5228 -0.4535 -0.2613
  174MPD1    C5 2706   1.220   1.512  14.461  0.2219 -0.2981 -0.0205
  174MPD1     H 2707   0.872   1.355  14.492  0.4318 -1.0482  0.8258
  174MPD1    H1 2708   1.180   1.543  14.254  0.9744 -0.5716  0.3239
  174MPD1    H2 2709   1.246   1.452  14.663 -0.5474 -1.2590 -0.1021
  174MPD1    H3 2710   1.321   1.550  14.446  0.2733 -0.5521 -0.3101
  174MPD1     N 2711   0.922   1.494  14.253  0.3561  0.8063 -0.1495
  174MPD1    H5 2712   0.966   1.528  14.168  0.9071  1.3586  0.3618
  174MPD1    N1 2713   1.024   1.320  14.690 -0.4054  0.2090  0.0079
  174MPD1    H6 2714   1.095   1.251  14.715  0.4655  1.7861  1.9457
  174MPD1    H7 2715   0.934   1.273  14.684 -1.0911  1.7893 -1.9645
  175MPD1     C 2716   2.902   3.777  15.440 -0.1617 -0.6975 -0.7479
  175MPD1    C1 2717   2.994   3.678  15.423  0.1533  0.5217 -0.0809
  175MPD1    C2 2718   2.980   3.548  15.471 -0.4014  0.3378 -0.9552
  175MPD1    C3 2719   2.875   3.523  15.558 -0.2925 -0.1111 -0.5024
  175MPD1    C4 2720   2.791   3.627  15.582 -0.4657 -0.2412  0.4595
  175MPD1    C5 2721   2.799   3.751  15.524 -0.3203 -0.4049  0.4327
  175MPD1     H 2722   3.054   3.474  15.442 -0.3505 -0.4796  1.1933
  175MPD1    H1 2723   2.720   3.618  15.664 -0.7662  0.7319  0.3108
  175MPD1    H2 2724   2.899   3.875  15.393  2.3159  0.0307  0.6053
  175MPD1    H3 2725   2.733   3.832  15.553  0.0138 -1.0081  2.8419
  175MPD1     N 2726   2.855   3.400  15.622 -0.4807  0.5108  0.3312
  175MPD1    H5 2727   2.766   3.394  15.671 -0.9214  1.2874 -0.3803
  175MPD1    N1 2728   3.096   3.710  15.339  0.1451 -0.3576 -0.6364
  175MPD1    H6 2729   3.172   3.650  15.369 -0.7847 -1.2422 -0.0541
  175MPD1    H7 2730   3.125   3.807  15.342  0.5638 -0.4442 -1.8869
  176MPD1     C 2731   4.169   0.458  17.339 -0.4807 -0.7563 -0.9322
  176MPD1    C1 2732   4.173   0.571  17.422 -0.0613  0.2640  0.0352
  176MPD1    C2 2733   4.298   0.626  17.445  0.1764  0.0549 -0.1196
  176MPD1    C3 2734   4.418   0.590  17.385 -0.3925 -0.6686 -0.6818
  176MPD1    C4 2735   4.411   0.474  17.308 -0.2116 -0.3576 -0.1823
  176MPD1    C5 2736   4.287   0.415  17.282  0.3966 -0.2373 -0.1237
  176MPD1     H 2737   4.308   0.704  17.519  2.3748  0.1133 -0.4731
  176MPD1    H1 2738   4.502   0.444  17.258 -0.6254  0.9631 -1.7367
  176MPD1    H2 2739   4.081   0.397  17.328 -1.1605 -0.2664  1.8044
  176MPD1    H3 2740   4.290   0.323  17.225 -1.4300 -0.4159  0.0692
  176MPD1     N 2741   4.535   0.655  17.422 -0.1494  0.4428 -0.9055
  176MPD1    H5 2742   4.524   0.738  17.479  2.8455  0.3228 -0.1624
  176MPD1    N1 2743   4.066   0.588  17.508 -0.3733 -0.2050  0.3038
  176MPD1    H6 2744   3.975   0.570  17.465  0.0931 -1.0834 -0.3178
  176MPD1    H7 2745   4.058   0.687  17.529  4.2769  0.0023  1.0620
  177MPD1     C 2746   4.028   0.256  10.748  0.2661 -0.1156  0.3348
  177MPD1    C1 2747   4.044   0.118  10.743  0.5037  0.2611  0.3281
  177MPD1    C2 2748   3.940   0.044  10.694  0.2393  0.0344 -0.0011
  177MPD1    C3 2749   3.836   0.097  10.617  0.2570 -0.8050 -0.1515
  177MPD1    C4 2750   3.835   0.234  10.606 -0.1674  0.3610  0.1172
  177MPD1    C5 2751   3.922   0.315  10.686  0.6438 -0.4655  0.3061
  177MPD1     H 2752   3.942   4.670  10.689  3.0792  0.0702  0.0766
  177MPD1    H1 2753   3.773   0.303  10.550 -0.5006 -1.0809 -1.2942
  177MPD1    H2 2754   4.100   0.317  10.801 -1.7801  1.6702  1.0878
  177MPD1    H3 2755   3.926   0.422  10.671 -1.1392 -0.1269  2.2542
  177MPD1     N 2756   3.749   0.015  10.544  0.1600 -0.1193 -0.1962
  177MPD1    H5 2757   3.765   4.649  10.537  1.9344 -0.0961  3.3568
  177MPD1    N1 2758   4.141   0.058  10.824 -0.3483 -0.5279  0.9485
  177MPD1    H6 2759   4.207   0.117  10.874 -1.3574  1.7764 -0.4499
  177MPD1    H7 2760   4.183   4.713  10.777 -0.1649 -0.2815  0.6976
  178MPD1     C 2761   0.978   0.339   0.163 -0.2701  0.0564 -0.2423
  178MPD1    C1 2762   0.929   0.288   0.052  0.0830  0.4105 -0.1606
  178MPD1    C2 2763   0.962   0.351  17.665 -0.0709  0.0615  0.0688
  178MPD1    C3 2764   1.047   0.459  17.662 -0.4223  0.3543 -0.4775
  178MPD1    C4 2765   1.104   0.501   0.044  0.6107  0.2497 -0.5311
  178MPD1    C5 2766   1.077   0.429   0.158 -0.1464  0.1625 -0.0036
  178MPD1     H 2767   0.921   0.310  17.573  0.8509  0.1643 -0.3990
  178MPD1    H1 2768   1.180   0.579   0.046 -0.7487  1.5128  1.3628
  178MPD1    H2 2769   0.948   0.309   0.263  0.5188  0.3008  0.0738
  178MPD1    H3 2770   1.113   0.468   0.252  0.4245 -0.5265  0.0656
  178MPD1     N 2771   1.078   0.534  17.548 -0.2270 -0.0492 -0.1468
  178MPD1    H5 2772   1.157   0.598  17.562 -0.0279  0.2708 -2.7438
  178MPD1    N1 2773   0.840   0.180   0.055 -0.5882  0.2334 -0.0437
  178MPD1    H6 2774   0.824   0.156  17.694  2.6494 -0.4458 -0.4108
  178MPD1    H7 2775   0.867   0.096   0.107  0.6501 -0.7276 -2.2154
  179MPD1     C 2776   4.606   3.962  16.438 -0.0776 -0.7228 -0.4212
  179MPD1    C1 2777   0.003   3.924  16.445  0.7168 -0.3154  0.8610
  179MPD1    C2 2778   0.057   3.846  16.345  0.5202 -0.6701 -0.4132
  179MPD1    C3 2779   4.708   3.789  16.255  0.3980  0.4035 -0.5377
  179MPD1    C4 2780   4.575   3.819  16.262 -0.0211 -0.1876  0.0417
  179MPD1    C5 2781   4.526   3.897  16.357  0.1963 -0.2235 -0.1976
  179MPD1     H 2782   0.165   3.848  16.340  0.4568  0.9009 -1.1524
  179MPD1    H1 2783   4.508   3.757  16.203  0.9281 -1.0751 -0.1183
  179MPD1    H2 2784   4.566   4.045  16.495  0.3269 -1.2287  0.6184
  179MPD1    H3 2785   4.421   3.919  16.345  0.3937  0.6022 -0.3966
  179MPD1     N 2786   0.013   3.705  16.147  0.3066  0.4819 -0.0108
  179MPD1    H5 2787   4.678   3.668  16.083  0.2932 -0.0598  0.3132
  179MPD1    N1 2788   0.098   3.990  16.526 -0.1391  0.9066 -0.0591
  179MPD1    H6 2789   0.058   4.020  16.614 -1.0572  1.2922 -0.6052
  179MPD1    H7 2790   0.187   3.945  16.544 -0.3004  0.8990  0.7042
  180MPD1     C 2791   0.099   0.308  15.183 -0.4500 -0.4248  0.4088
  180MPD1    C1 2792   0.019   0.262  15.082 -0.2022 -0.2362 -0.5989
  180MPD1    C2 2793   0.083   0.232  14.962  1.0521  0.0593  0.4689
  180MPD1    C3 2794   0.217   0.245  14.946  0.0776  0.6487 -0.0666
  180MPD1    C4 2795   0.296   0.283  15.056 -0.0617 -0.3515 -0.4163
  180MPD1    C5 2796   0.238   0.320  15.172 -0.6292 -0.6138  0.2132
  180MPD1     H 2797   0.033   0.189  14.876  0.0292  1.6693  0.2726
  180MPD1    H1 2798   0.399   0.316  15.046 -0.1762  0.4732  1.0993
  180MPD1    H2 2799   0.058   0.323  15.282 -1.4009  1.3758 -0.2681
  180MPD1    H3 2800   0.294   0.340  15.263 -0.0472  0.9283 -0.4951
  180MPD1     N 2801   0.268   0.216  14.816 -0.1283  0.5854 -0.3476
  180MPD1    H5 2802   0.197   0.202  14.745  0.2622 -0.3580 -0.5563
  180MPD1    N1 2803   4.615   0.256  15.098 -1.0371  0.1859  0.2049
  180MPD1    H6 2804   4.574   0.349  15.099 -2.2090 -0.3128 -1.0076
  180MPD1    H7 2805   4.571   0.210  15.019  1.1716 -0.4526 -0.6476
  181MPD1     C 2806   2.631   2.381   9.879  0.7521 -0.2679 -0.1748
  181MPD1    C1 2807   2.716   2.321   9.798  0.0502 -0.1340  0.5643
  181MPD1    C2 2808   2.847   2.298   9.852 -0.3796 -0.2568  0.6131
  181MPD1    C3 2809   2.884   2.336   9.987  0.6624  0.3985  0.0022
  181MPD1    C4 2810   2.791   2.405  10.060 -0.0807  0.5995 -0.3168
  181MPD1    C5 2811   2.669   2.432  10.003 -0.1608 -0.4569 -0.6337
  181MPD1     H 2812   2.914   2.241   9.788 -0.9117 -2.2756  1.8571
  181MPD1    H1 2813   2.814   2.419  10.165 -1.4812 -2.4456  0.3914
  181MPD1    H2 2814   2.533   2.408   9.842  1.7334  4.7669  0.9097
  181MPD1    H3 2815   2.597   2.492  10.056  2.3165  0.7167  1.3733
  181MPD1     N 2816   2.999   2.300  10.053  0.4615  0.0627  0.6927
  181MPD1    H5 2817   3.018   2.344  10.143 -0.4339 -0.2410  1.0322
  181MPD1    N1 2818   2.666   2.261   9.682 -0.5935 -0.1074 -0.0836
  181MPD1    H6 2819   2.578   2.302   9.652  0.0216  1.2823  0.0233
  181MPD1    H7 2820   2.737   2.265   9.609 -1.8645  1.8102 -1.2168
  182MPD1     C 2821   2.786   1.517   1.636 -0.1822 -0.4095 -0.0230
  182MPD1    C1 2822   2.808   1.414   1.547 -0.0296  0.1961 -0.4601
  182MPD1    C2 2823   2.770   1.439   1.418 -0.1913 -0.2421 -0.2162
  182MPD1    C3 2824   2.697   1.553   1.378 -0.2972 -0.0215 -0.7950
  182MPD1    C4 2825   2.675   1.649   1.471 -0.5542 -0.0336 -0.1441
  182MPD1    C5 2826   2.711   1.623   1.600  0.1552 -0.8085  0.3673
  182MPD1     H 2827   2.809   1.370   1.344  1.5085  1.0868 -0.5655
  182MPD1    H1 2828   2.593   1.717   1.452  0.4829  1.8502  2.0684
  182MPD1    H2 2829   2.808   1.503   1.741  0.7927  2.6478  0.1895
  182MPD1    H3 2830   2.671   1.688   1.677 -0.8071 -0.4428 -0.4474
  182MPD1     N 2831   2.632   1.562   1.251  0.1676 -0.1773 -0.1580
  182MPD1    H5 2832   2.579   1.647   1.238 -0.3882 -0.6106 -0.6947
  182MPD1    N1 2833   2.869   1.294   1.581 -0.1464 -0.5656 -0.4831
  182MPD1    H6 2834   2.858   1.216   1.517 -1.1950  0.0159 -1.0014
  182MPD1    H7 2835   2.834   1.259   1.671 -0.4100  1.0907  0.0614
  183MPD1     C 2836   0.304   1.113   9.069 -0.5745 -0.7358  0.4787
  183MPD1    C1 2837   0.357   1.233   9.099 -0.2955 -0.1052  0.5027
  183MPD1    C2 2838   0.271   1.326   9.161 -0.7616 -0.2905 -0.5412
  183MPD1    C3 2839   0.152   1.284   9.222  0.4745  0.4919 -0.1691
  183MPD1    C4 2840   0.106   1.158   9.197  0.2583 -0.2816  0.0430
  183MPD1    C5 2841   0.189   1.075   9.125 -1.3016 -0.3626 -0.4089
  183MPD1     H 2842   0.311   1.426   9.174  1.2940 -0.9502 -1.7734
  183MPD1    H1 2843   0.020   1.124   9.254 -1.3127  1.7576 -1.0980
  183MPD1    H2 2844   0.365   1.051   9.004 -2.0694 -1.4944 -0.1911
  183MPD1    H3 2845   0.153   0.975   9.102 -1.1953 -0.6204  0.5153
  183MPD1     N 2846   0.091   1.375   9.314 -0.5348  0.2539 -0.1222
  183MPD1    H5 2847   0.125   1.470   9.308 -1.5894  0.6818  0.7285
  183MPD1    N1 2848   0.470   1.269   9.022  0.4027 -0.4989  0.3971
  183MPD1    H6 2849   0.518   1.356   9.046 -1.6335 -0.0702  2.9213
  183MPD1    H7 2850   0.541   1.195   9.022  1.9644  0.9867  0.8128
  184MPD1     C 2851   2.334   0.121  10.089  0.1453 -0.4760  0.0306
  184MPD1    C1 2852   2.349   4.727  10.131  0.5496  0.0078  0.1926
  184MPD1    C2 2853   2.467   4.654  10.087 -0.0502  0.5829  0.2486
  184MPD1    C3 2854   2.560   4.719  10.006 -0.3014 -0.0953  0.0463
  184MPD1    C4 2855   2.536   0.118   9.978  0.4964 -0.5866 -0.1503
  184MPD1    C5 2856   2.426   0.182  10.018  0.9147  0.8491 -0.1878
  184MPD1     H 2857   2.484   4.551  10.115  0.5011  0.4749 -0.4803
  184MPD1    H1 2858   2.602   0.175   9.914  0.3105  3.6007  3.3489
  184MPD1    H2 2859   2.251   0.188  10.110 -0.0219 -1.2057  1.6962
  184MPD1    H3 2860   2.407   0.285   9.988  1.2009  0.4171 -1.8162
  184MPD1     N 2861   2.670   4.653   9.945 -0.3988 -0.1515  0.1550
  184MPD1    H5 2862   2.743   4.716   9.912  0.8027 -0.1091  2.9088
  184MPD1    N1 2863   2.261   4.677  10.218 -0.0879 -0.0118  0.4719
  184MPD1    H6 2864   2.248   4.576  10.218 -1.6068  0.1849  0.3576
  184MPD1    H7 2865   2.178   4.733  10.230  1.8001  3.1612 -1.4248
  185MPD1     C 2866   3.208   3.760   9.529  0.1084  0.0793 -0.0562
  185MPD1    C1 2867   3.079   3.805   9.502 -0.2350 -0.6093  0.6485
  185MPD1    C2 2868   3.027   3.918   9.559  0.1418 -0.4770  0.0593
  185MPD1    C3 2869   3.102   3.979   9.658  0.0723 -0.1168 -0.1451
  185MPD1    C4 2870   3.229   3.927   9.691 -0.1202  0.4830  0.1337
  185MPD1    C5 2871   3.272   3.808   9.636 -0.0338  0.2352  0.4030
  185MPD1     H 2872   2.923   3.945   9.543 -0.5057 -2.6077  0.5902
  185MPD1    H1 2873   3.289   3.971   9.769  0.1431  3.3570 -1.7006
  185MPD1    H2 2874   3.249   3.674   9.477  0.1335 -1.5025  2.5711
  185MPD1    H3 2875   3.363   3.757   9.665 -0.0016 -0.4744 -0.9156
  185MPD1     N 2876   3.056   4.090   9.735 -0.1535 -0.0364 -0.2981
  185MPD1    H5 2877   3.121   4.131   9.801  0.5971 -3.8117  1.2980
  185MPD1    N1 2878   3.009   3.742   9.399 -0.0478 -0.4300 -0.0171
  185MPD1    H6 2879   3.037   3.645   9.384  0.4048 -0.4643  1.0103
  185MPD1    H7 2880   2.908   3.754   9.401  0.0464  0.7457 -2.1064
  186MPD1     C 2881   1.029   3.409  15.554 -0.0231 -0.1131 -0.2184
  186MPD1    C1 2882   1.114   3.395  15.662 -0.3035  0.3302  0.2053
  186MPD1    C2 2883   1.118   3.489  15.765  0.3995  0.3078 -0.5600
  186MPD1    C3 2884   1.029   3.592  15.760 -0.3555 -0.2355 -0.0584
  186MPD1    C4 2885   0.940   3.605  15.658 -0.4770 -0.3564 -0.0325
  186MPD1    C5 2886   0.945   3.517  15.545  0.2300  0.2669  0.1952
  186MPD1     H 2887   1.189   3.478  15.847  1.2251  1.6481 -1.0970
  186MPD1    H1 2888   0.877   3.693  15.649  0.4977  0.2384 -1.0493
  186MPD1    H2 2889   1.030   3.337  15.473  1.4544 -1.7513  1.2512
  186MPD1    H3 2890   0.872   3.523  15.466  1.4510 -0.0470 -0.9582
  186MPD1     N 2891   1.033   3.693  15.860  0.4418 -0.0085  0.3761
  186MPD1    H5 2892   0.964   3.766  15.849  0.6707  0.0902 -0.3953
  186MPD1    N1 2893   1.219   3.299  15.658  0.2204  0.2027 -0.7939
  186MPD1    H6 2894   1.229   3.258  15.751  1.2986 -0.7480 -1.3247
  186MPD1    H7 2895   1.200   3.221  15.595 -0.8441 -1.3115  1.3969
  187MPD1     C 2896   0.262   1.082   0.267 -0.7762  0.4612  0.1015
  187MPD1    C1 2897   0.259   1.217   0.272  0.6763 -0.7202  0.4709
  187MPD1    C2 2898   0.277   1.288   0.155 -0.6884  0.3119 -0.9911
  187MPD1    C3 2899   0.328   1.218   0.041  0.0500 -0.1440 -0.6847
  187MPD1    C4 2900   0.343   1.083   0.038 -0.2316 -0.0272  0.6239
  187MPD1    C5 2901   0.305   1.015   0.152 -0.8845  0.6351  0.1320
  187MPD1     H 2902   0.255   1.394   0.157 -0.4268  0.3296  1.7496
  187MPD1    H1 2903   0.393   1.030  17.695  0.0424  1.9475 -0.5016
  187MPD1    H2 2904   0.242   1.020   0.354  2.5973 -1.7264 -0.7097
  187MPD1    H3 2905   0.313   0.907   0.165  1.1571  0.8910  1.0052
  187MPD1     N 2906   0.349   1.278  17.650  0.2501  0.1044  0.0859
  187MPD1    H5 2907   0.388   1.212  17.583  0.2348 -0.2541  0.4270
  187MPD1    N1 2908   0.198   1.278   0.382  0.0770  0.3037 -0.2804
  187MPD1    H6 2909   0.224   1.225   0.466 -4.1755  0.9205  1.3964
  187MPD1    H7 2910   0.226   1.374   0.402  1.4061  0.2802 -2.0588
  188MPD1     C 2911   0.778   1.403   9.946  0.2169  0.1344 -0.5306
  188MPD1    C1 2912   0.787   1.306   9.851  0.5653 -0.3409  0.0247
  188MPD1    C2 2913   0.697   1.195   9.860  0.3035 -0.0643  0.3816
  188MPD1    C3 2914   0.607   1.179   9.964 -0.2149  0.4355  0.4658
  188MPD1    C4 2915   0.611   1.281  10.064  0.1487  0.9365 -0.0229
  188MPD1    C5 2916   0.685   1.401  10.045  0.1724 -0.2687 -0.1737
  188MPD1     H 2917   0.689   1.122   9.781  0.5431  0.4688 -0.1333
  188MPD1    H1 2918   0.542   1.281  10.148  1.4826 -1.8847  1.0608
  188MPD1    H2 2919   0.846   1.487   9.939 -0.3221  0.5644 -0.6137
  188MPD1    H3 2920   0.678   1.477  10.121 -2.5374 -0.9263  0.2261
  188MPD1     N 2921   0.514   1.069   9.982 -0.1652  0.3584  0.5673
  188MPD1    H5 2922   0.467   1.063  10.071  3.1033  0.4266  2.2890
  188MPD1    N1 2923   0.884   1.319   9.747 -0.5880  0.0540 -0.1326
  188MPD1    H6 2924   0.958   1.366   9.797  2.4712 -3.3033 -1.5090
  188MPD1    H7 2925   0.932   1.231   9.728  1.8367  1.5085 -0.7958
  189MPD1     C 2926   1.557   2.129   0.668  0.3463  0.0195 -0.0071
  189MPD1    C1 2927   1.439   2.077   0.618 -0.1798  0.0178 -0.1353
  189MPD1    C2 2928   1.383   2.142   0.509 -0.4781  0.2471  0.4724
  189MPD1    C3 2929   1.421   2.272   0.477 -0.2000 -0.3637  0.8735
  189MPD1    C4 2930   1.530   2.324   0.535  0.2785  0.0552  0.3325
  189MPD1    C5 2931   1.607   2.243   0.614  0.2953  1.1506  0.6362
  189MPD1     H 2932   1.299   2.094   0.461 -0.6270  0.6927  0.2899
  189MPD1    H1 2933   1.579   2.418   0.512 -0.1963  0.5987  1.5677
  189MPD1    H2 2934   1.623   2.085   0.741 -1.1764 -1.9663  0.1603
  189MPD1    H3 2935   1.699   2.281   0.657 -2.0193  5.5332  1.6897
  189MPD1     N 2936   1.342   2.343   0.389  0.7835  1.2953  0.9120
  189MPD1    H5 2937   1.267   2.300   0.336 -0.8099  2.4777  2.2306
  189MPD1    N1 2938   1.406   1.944   0.659 -0.2910  0.3554 -0.4886
  189MPD1    H6 2939   1.307   1.928   0.641 -0.2459  0.8157 -1.1359
  189MPD1    H7 2940   1.429   1.933   0.758 -3.3029  1.1441  0.3109
  190MPD1     C 2941   0.508   4.439  15.270  0.5223 -0.1223 -0.2746
  190MPD1    C1 2942   0.604   4.493  15.180 -0.2626  0.3541 -0.4915
  190MPD1    C2 2943   0.703   4.575  15.231 -0.0240  0.2924  0.1423
  190MPD1    C3 2944   0.725   4.594  15.367  0.7372 -0.4690  0.0733
  190MPD1    C4 2945   0.632   4.539  15.453 -0.3860 -0.4872 -0.8850
  190MPD1    C5 2946   0.526   4.461  15.400 -0.3182  0.5531 -0.2938
  190MPD1     H 2947   0.769   4.627  15.162 -0.8529  0.8473 -0.2364
  190MPD1    H1 2948   0.630   4.555  15.560 -0.8270 -1.5154 -0.7342
  190MPD1    H2 2949   0.422   4.384  15.233 -0.2233  0.6721  0.2737
  190MPD1    H3 2950   0.447   4.430  15.469 -0.8410  0.4611 -0.9336
  190MPD1     N 2951   0.834   4.682  15.408 -0.7522  0.1672 -0.0318
  190MPD1    H5 2952   0.899   4.721  15.340 -0.1850  0.9695  0.9669
  190MPD1    N1 2953   0.585   4.501  15.039  0.2581  0.6556  0.3130
  190MPD1    H6 2954   0.666   4.505  14.978 -1.9030 -0.1427 -2.6432
  190MPD1    H7 2955   0.537   4.416  15.009  2.0122 -0.2712  0.1289
  191MPD1     C 2956   4.665   2.249  12.652 -0.2805 -0.4997  0.1689
  191MPD1    C1 2957   4.629   2.354  12.572 -0.3780  0.7560  0.2498
  191MPD1    C2 2958   4.720   2.415  12.489  0.7893  0.1962  0.0566
  191MPD1    C3 2959   0.119   2.384  12.492 -0.2994  0.6467  0.8687
  191MPD1    C4 2960   0.155   2.284  12.580 -0.3341  0.3008  0.4044
  191MPD1    C5 2961   0.062   2.211  12.651  0.1574 -0.0684  0.5625
  191MPD1     H 2962   4.682   2.496  12.427  1.0365 -0.0408 -0.4023
  191MPD1    H1 2963   0.256   2.251  12.598 -0.3004  0.3562  0.3212
  191MPD1    H2 2964   4.593   2.203  12.718 -0.4886 -1.4665 -0.7184
  191MPD1    H3 2965   0.094   2.122  12.703 -0.1473 -0.6147 -0.1877
  191MPD1     N 2966   0.204   2.453  12.410 -0.2746 -0.0190  0.2606
  191MPD1    H5 2967   0.154   2.516  12.349 -0.0608  0.3834  0.5055
  191MPD1    N1 2968   4.502   2.406  12.599  0.1539  0.2980 -0.5604
  191MPD1    H6 2969   4.432   2.335  12.616  1.6788 -0.3574  2.9727
  191MPD1    H7 2970   4.471   2.456  12.516 -0.0973  0.2475 -0.4962
  192MPD1     C 2971   0.172   2.880  11.524  1.0366  0.0471  0.2668
  192MPD1    C1 2972   0.093   2.859  11.633 -0.1477  0.4613  0.5575
  192MPD1    C2 2973   0.150   2.805  11.745 -0.1373 -0.5560 -0.1029
  192MPD1    C3 2974   0.283   2.772  11.755 -0.4512  0.9697  0.0006
  192MPD1    C4 2975   0.362   2.789  11.642 -1.0504  0.1692 -0.2880
  192MPD1    C5 2976   0.303   2.834  11.528 -0.4821 -0.5958  0.0617
  192MPD1     H 2977   0.094   2.811  11.838 -0.2582  1.4570 -0.3135
  192MPD1    H1 2978   0.467   2.763  11.645 -1.0222  0.5570  2.0064
  192MPD1    H2 2979   0.143   2.925  11.430 -1.0200 -0.3146  0.7097
  192MPD1    H3 2980   0.356   2.838  11.434 -1.7898  1.6499 -0.5885
  192MPD1     N 2981   0.350   2.732  11.881  0.4065  0.0177  0.1921
  192MPD1    H5 2982   0.447   2.703  11.872  0.3092  0.7077 -2.9717
  192MPD1    N1 2983   4.700   2.911  11.640 -0.6657  0.4293 -0.1955
  192MPD1    H6 2984   4.663   2.950  11.726 -1.8294  0.9526 -0.9319
  192MPD1    H7 2985   4.659   2.951  11.556 -2.4924 -1.7915 -0.3701
  193MPD1     C 2986   4.304   2.128  15.789 -0.5741 -0.0272 -0.2469
  193MPD1    C1 2987   4.180   2.178  15.821 -0.9407 -0.1195 -0.1934
  193MPD1    C2 2988   4.169   2.261  15.934  0.3533  0.1948  0.3724
  193MPD1    C3 2989   4.283   2.309  15.996 -0.3892  0.4965  0.7131
  193MPD1    C4 2990   4.406   2.258  15.954  0.0685 -0.1087 -0.4397
  193MPD1    C5 2991   4.412   2.162  15.862 -0.0365  0.2889 -0.3375
  193MPD1     H 2992   4.071   2.274  15.980 -2.6133 -3.7550 -4.7991
  193MPD1    H1 2993   4.503   2.276  15.998 -0.8123  1.8968  0.6754
  193MPD1    H2 2994   4.314   2.052  15.712  0.8448  0.3797 -0.4684
  193MPD1    H3 2995   4.508   2.111  15.858 -0.6235 -0.6744 -1.9448
  193MPD1     N 2996   4.280   2.393  16.112 -0.4823  0.3656 -0.5572
  193MPD1    H5 2997   4.370   2.423  16.149 -1.1784  1.3438  0.3532
  193MPD1    N1 2998   4.070   2.121  15.760 -0.2548  0.0518 -0.0708
  193MPD1    H6 2999   3.999   2.194  15.757  2.0882  2.3295 -0.5840
  193MPD1    H7 3000   4.081   2.091  15.664  0.3932 -0.1557  0.0662
  194MPD1     C 3001   2.142   0.196  17.250 -0.2516  0.4840 -0.0816
  194MPD1    C1 3002   2.091   0.112  17.156  0.1941  1.1605 -0.4741
  194MPD1    C2 3003   2.102   4.717  17.163  0.2922 -0.3529 -0.3336
  194MPD1    C3 3004   2.176   4.658  17.270  0.1609  0.0829  0.3162
  194MPD1    C4 3005   2.221   0.009  17.365 -0.3608  0.0772 -0.3871
  194MPD1    C5 3006   2.198   0.144  17.364  0.6961 -0.0759 -0.3540
  194MPD1     H 3007   2.050   4.652  17.094 -0.3869 -2.1584  1.8638
  194MPD1    H1 3008   2.284   4.701  17.442  0.2983  1.6855 -0.0379
  194MPD1    H2 3009   2.128   0.303  17.241 -0.1041  0.5654  0.6904
  194MPD1    H3 3010   2.241   0.213  17.435 -0.9686  0.4025  0.1761
  194MPD1     N 3011   2.192   4.520  17.280 -0.1348 -0.4059 -0.6174
  194MPD1    H5 3012   2.247   4.492  17.360 -0.7164  0.7883  0.1859
  194MPD1    N1 3013   1.995   0.164  17.071 -0.2256 -0.4327 -0.8434
  194MPD1    H6 3014   2.010   0.261  17.045 -1.8870  0.1067  0.2399
  194MPD1    H7 3015   1.973   0.110  16.988 -1.6460 -2.6967  1.0152
  195MPD1     C 3016   4.056   2.297  17.652 -0.5907 -0.1680 -0.7610
  195MPD1    C1 3017   3.990   2.240   0.028  0.3274  0.1374 -0.0277
  195MPD1    C2 3018   4.029   2.117   0.081  0.3435  0.5334 -0.5565
  195MPD1    C3 3019   4.126   2.048   0.009  0.1705  0.6008 -0.4011
  195MPD1    C4 3020   4.183   2.108  17.632  0.5807  0.0897 -0.2657
  195MPD1    C5 3021   4.149   2.229  17.586  0.5734  0.2373  0.1257
  195MPD1     H 3022   3.990   2.071   0.171 -2.3672  1.6065 -1.2094
  195MPD1    H1 3023   4.250   2.053  17.567 -1.8645 -2.0552 -0.9829
  195MPD1    H2 3024   4.044   2.402  17.626 -2.3227  0.1241  1.2725
  195MPD1    H3 3025   4.198   2.267  17.496  0.6051 -3.0763 -1.2521
  195MPD1     N 3026   4.176   1.921   0.047 -0.0488  0.2548 -0.4787
  195MPD1    H5 3027   4.262   1.882   0.010  0.5691  0.0782  1.1531
  195MPD1    N1 3028   3.898   2.324   0.099  0.4989 -0.0214 -0.3407
  195MPD1    H6 3029   3.838   2.286   0.172 -2.0217  1.6072 -1.5698
  195MPD1    H7 3030   3.838   2.380   0.039  2.7561  2.8747  0.1288
  196MPD1     C 3031   2.971   1.168  17.412  0.0013  0.9982 -0.3330
  196MPD1    C1 3032   3.033   1.279  17.457 -1.0322 -0.0511 -0.1665
  196MPD1    C2 3033   3.116   1.264  17.577 -0.1325 -0.2401 -1.0769
  196MPD1    C3 3034   3.120   1.140  17.642 -0.2818 -0.0138 -0.0899
  196MPD1    C4 3035   3.064   1.025  17.592 -0.7886  0.6522  0.5207
  196MPD1    C5 3036   2.987   1.050  17.475  0.3595  0.0913  0.7228
  196MPD1     H 3037   3.161   1.355  17.615 -0.4002 -0.1637 -0.9443
  196MPD1    H1 3038   3.076   0.924  17.631 -1.0733  1.3473  2.4231
  196MPD1    H2 3039   2.899   1.163  17.331 -1.4009  0.5969  0.9474
  196MPD1    H3 3040   2.943   0.963  17.427 -3.6827  1.0320  2.7278
  196MPD1     N 3041   3.193   1.121   0.025 -0.0766  0.3493 -0.0252
  196MPD1    H5 3042   3.207   1.030   0.069  1.8471  0.3259 -0.6792
  196MPD1    N1 3043   3.002   1.401  17.396  0.4903  0.2252 -0.1967
  196MPD1    H6 3044   3.051   1.486  17.423 -3.0035  2.1215  0.1790
  196MPD1    H7 3045   2.988   1.403  17.295 -0.2759  0.0510 -0.0927
  197MPD1     C 3046   2.649   2.860  17.111  0.5150  0.1990  0.2370
  197MPD1    C1 3047   2.631   2.871  16.973  0.7415 -0.2120  0.4930
  197MPD1    C2 3048   2.740   2.873  16.892 -0.3402 -0.1583  0.1149
  197MPD1    C3 3049   2.866   2.867  16.952  0.3627 -0.0100  0.2477
  197MPD1    C4 3050   2.882   2.885  17.083  0.5253  0.1979  1.0003
  197MPD1    C5 3051   2.771   2.879  17.165  0.4056  0.3151  0.3756
  197MPD1     H 3052   2.724   2.876  16.785  0.0017  0.8278  0.0884
  197MPD1    H1 3053   2.982   2.886  17.126 -0.2354 -2.1610  2.8037
  197MPD1    H2 3054   2.569   2.847  17.183 -0.0760 -0.2518 -0.5008
  197MPD1    H3 3055   2.786   2.889  17.272 -0.5599 -2.5137  0.7824
  197MPD1     N 3056   2.990   2.861  16.881  0.2656  0.1667 -0.0114
  197MPD1    H5 3057   3.075   2.893  16.927 -0.2823  0.1438  1.0165
  197MPD1    N1 3058   2.504   2.847  16.913  0.3838 -0.4444 -0.8630
  197MPD1    H6 3059   2.429   2.894  16.963  0.4233 -2.6189  1.1925
  197MPD1    H7 3060   2.506   2.881  16.817 -1.3055  0.0337 -0.7283
  198MPD1     C 3061   1.666   2.169  16.856 -0.1873  0.2359 -0.0588
  198MPD1    C1 3062   1.702   2.070  16.761  0.2203 -0.2675  0.7733
  198MPD1    C2 3063   1.614   2.041  16.655  0.1786  0.4061 -0.5167
  198MPD1    C3 3064   1.499   2.108  16.646 -0.2913 -0.3699  0.3923
  198MPD1    C4 3065   1.475   2.216  16.726 -0.6542  0.2169  0.5962
  198MPD1    C5 3066   1.551   2.241  16.831 -0.0037 -0.2729  0.0239
  198MPD1     H 3067   1.643   1.965  16.582 -0.7562  0.5639 -1.0416
  198MPD1    H1 3068   1.392   2.285  16.713 -0.9183 -0.4827 -1.3916
  198MPD1    H2 3069   1.734   2.196  16.935 -0.4645 -1.1984  0.6781
  198MPD1    H3 3070   1.533   2.330  16.889  1.0430  1.0767 -1.7274
  198MPD1     N 3071   1.407   2.082  16.543 -1.1132  0.0472  0.5575
  198MPD1    H5 3072   1.438   2.010  16.479  1.3712 -0.4909  2.3530
  198MPD1    N1 3073   1.829   2.008  16.760  0.3145  0.0833 -0.0901
  198MPD1    H6 3074   1.863   1.976  16.669  0.0874 -0.1774 -0.0819
  198MPD1    H7 3075   1.902   2.069  16.796  0.7142 -0.7988  0.5879
  199MPD1     C 3076   1.599   2.400   9.229 -0.4574 -1.0607 -0.8692
  199MPD1    C1 3077   1.598   2.540   9.240 -0.4733 -0.3884 -0.7932
  199MPD1    C2 3078   1.607   2.591   9.367 -0.3465  0.1864  0.0396
  199MPD1    C3 3079   1.579   2.511   9.480 -0.0006  0.3236 -0.0429
  199MPD1    C4 3080   1.561   2.378   9.464 -0.1210  0.4252 -0.1117
  199MPD1    C5 3081   1.575   2.327   9.338 -0.2783 -0.3381  0.0245
  199MPD1     H 3082   1.622   2.697   9.384 -2.5833  0.4356  0.5608
  199MPD1    H1 3083   1.546   2.312   9.549  2.3221  0.2953  0.2247
  199MPD1    H2 3084   1.599   2.342   9.137 -0.0259 -1.8635 -0.3692
  199MPD1    H3 3085   1.553   2.221   9.327 -1.6483  0.0169 -0.6684
  199MPD1     N 3086   1.580   2.563   9.619  0.3379  0.3806  0.5071
  199MPD1    H5 3087   1.572   2.492   9.691  1.5981  0.6537  0.9081
  199MPD1    N1 3088   1.635   2.621   9.130  0.4395  0.1344 -0.5840
  199MPD1    H6 3089   1.592   2.595   9.041  0.8920  0.2559 -0.8375
  199MPD1    H7 3090   1.610   2.717   9.152  1.2647  0.1544  0.2718
  200MPD1     C 3091   0.753   2.844  14.566 -0.4141  0.2005  0.1633
  200MPD1    C1 3092   0.851   2.901  14.643 -0.1178 -0.2356 -0.7502
  200MPD1    C2 3093   0.956   2.818  14.679 -0.2015  0.1967  0.3913
  200MPD1    C3 3094   0.982   2.708  14.613 -0.0974  0.4101  0.5207
  200MPD1    C4 3095   0.886   2.653  14.529  0.3234 -0.3547  0.3074
  200MPD1    C5 3096   0.775   2.721  14.512 -0.1183 -0.3412 -0.1384
  200MPD1     H 3097   1.033   2.863  14.740 -0.6606 -1.2209  2.0073
  200MPD1    H1 3098   0.896   2.554  14.485  0.6577 -0.4777  0.6656
  200MPD1    H2 3099   0.663   2.899  14.538  0.8126  0.8104 -2.5216
  200MPD1    H3 3100   0.696   2.684  14.447 -1.7630 -0.1521  1.7216
  200MPD1     N 3101   1.100   2.634  14.654  0.5652  0.0935  0.2960
  200MPD1    H5 3102   1.169   2.695  14.696  0.4502 -0.1703  0.8631
  200MPD1    N1 3103   0.824   3.017  14.714  0.3833  0.7735 -0.0961
  200MPD1    H6 3104   0.906   3.075  14.729 -0.0861  1.2964  0.4470
  200MPD1    H7 3105   0.763   3.071  14.653 -0.7635 -0.4693 -0.0464
  201MPD1     C 3106   3.653   1.813  13.053  0.6496 -0.0311 -0.6249
  201MPD1    C1 3107   3.615   1.710  12.972 -0.1394  0.2285 -0.2337
  201MPD1    C2 3108   3.682   1.593  12.964 -0.0460 -0.0712 -0.3846
  201MPD1    C3 3109   3.803   1.586  13.034 -0.6177  0.2557  0.1341
  201MPD1    C4 3110   3.861   1.704  13.093 -0.3333 -0.0509  0.0828
  201MPD1    C5 3111   3.777   1.808  13.111  0.5882 -0.3094 -0.3973
  201MPD1     H 3112   3.635   1.507  12.919 -0.1353 -0.2073 -0.0341
  201MPD1    H1 3113   3.965   1.716  13.122 -0.5372  0.5857  0.5465
  201MPD1    H2 3114   3.591   1.900  13.069 -0.5625 -0.9255 -0.4728
  201MPD1    H3 3115   3.815   1.894  13.165 -1.3986  0.9595 -0.9766
  201MPD1     N 3116   3.854   1.462  13.049 -0.7604  0.3307 -0.6148
  201MPD1    H5 3117   3.815   1.387  12.992 -1.0356 -0.9916  1.3296
  201MPD1    N1 3118   3.479   1.717  12.918 -0.0126 -0.0283  0.4867
  201MPD1    H6 3119   3.454   1.648  12.848 -0.4074  2.4834 -1.8469
  201MPD1    H7 3120   3.455   1.814  12.897 -1.9245 -0.6911 -0.3834
  202MPD1     C 3121   3.945   0.448   9.218  0.3491 -0.0833 -0.4391
  202MPD1    C1 3122   3.864   0.558   9.199  0.1304 -0.8912  0.5175
  202MPD1    C2 3123   3.824   0.615   9.327 -0.2625 -0.1758  0.0988
  202MPD1    C3 3124   3.900   0.599   9.445  0.4446  0.0684 -0.1457
  202MPD1    C4 3125   3.997   0.506   9.449  0.3649  0.4882 -0.6415
  202MPD1    C5 3126   4.018   0.428   9.334 -0.1672  0.7109 -0.1255
  202MPD1     H 3127   3.746   0.690   9.323 -1.0814 -0.9655  1.4827
  202MPD1    H1 3128   4.068   0.492   9.530  0.9255 -2.6147 -1.6468
  202MPD1    H2 3129   3.964   0.383   9.133 -1.1481 -0.9531 -0.1071
  202MPD1    H3 3130   4.091   0.349   9.343  1.5441  2.5090  1.7449
  202MPD1     N 3131   3.874   0.669   9.568 -0.2566  0.2206 -0.1870
  202MPD1    H5 3132   3.936   0.648   9.645 -1.4253  1.7475  1.1585
  202MPD1    N1 3133   3.760   0.549   9.103 -0.3277  0.1233 -0.2982
  202MPD1    H6 3134   3.794   0.502   9.019 -1.1475  1.0718 -1.1626
  202MPD1    H7 3135   3.708   0.634   9.082  3.9576  2.3759 -1.7629
  203MPD1     C 3136   3.262   2.091  12.154 -0.2293  0.5641 -0.0921
  203MPD1    C1 3137   3.353   1.986  12.119  0.3466  0.4064 -0.2738
  203MPD1    C2 3138   3.323   1.864  12.170  0.6982 -0.9043 -0.4620
  203MPD1    C3 3139   3.223   1.839  12.259  0.7971 -0.0491  0.4303
  203MPD1    C4 3140   3.136   1.943  12.290 -0.3038  0.2092 -0.3555
  203MPD1    C5 3141   3.152   2.066  12.232 -0.0287  0.2665  0.1345
  203MPD1     H 3142   3.385   1.779  12.147  0.7281 -0.7327 -1.0369
  203MPD1    H1 3143   3.054   1.929  12.359  1.2921  0.0740  1.5104
  203MPD1    H2 3144   3.270   2.195  12.124 -1.0685  0.6170 -0.1368
  203MPD1    H3 3145   3.087   2.147  12.260 -0.4735 -0.0756  0.0842
  203MPD1     N 3146   3.200   1.706  12.314 -0.2105 -0.0379  0.3976
  203MPD1    H5 3147   3.252   1.630  12.273  1.5594  1.5505 -0.2783
  203MPD1    N1 3148   3.465   2.011  12.033 -0.5814  0.5956  0.5478
  203MPD1    H6 3149   3.552   1.960  12.047 -0.9118 -0.4470 -1.2214
  203MPD1    H7 3150   3.486   2.110  12.031 -0.6394  0.6362  1.8194
  204MPD1     C 3151   1.860   3.609  17.550 -0.3669  0.0692  0.1369
  204MPD1    C1 3152   1.968   3.578  17.468  0.5526 -0.6120 -0.5230
  204MPD1    C2 3153   2.005   3.444  17.463 -0.0845  0.5491 -0.6974
  204MPD1    C3 3154   1.937   3.348  17.545  0.0020  0.2471 -0.5593
  204MPD1    C4 3155   1.845   3.384  17.637  0.1678  0.1442 -0.0318
  204MPD1    C5 3156   1.805   3.518  17.631 -0.2539 -0.2245  0.0469
  204MPD1     H 3157   2.078   3.401  17.395 -0.0637 -0.8053  0.1895
  204MPD1    H1 3158   1.813   3.312  17.712  2.7765 -0.8032  0.1754
  204MPD1    H2 3159   1.822   3.710  17.560 -0.6411  0.1064 -1.3790
  204MPD1    H3 3160   1.732   3.539  17.709 -0.3916 -0.4464 -0.0214
  204MPD1     N 3161   1.962   3.213  17.520  0.3343  0.3739  0.1556
  204MPD1    H5 3162   2.017   3.185  17.439 -1.6069  0.9850 -1.3622
  204MPD1    N1 3163   2.023   3.676  17.381 -0.1870 -0.1467 -0.1150
  204MPD1    H6 3164   2.120   3.656  17.361 -0.2370 -1.4565  0.8880
  204MPD1    H7 3165   1.981   3.669  17.289 -2.9080  0.8774  1.0438
  205MPD1     C 3166   2.773   1.680  17.437 -0.4905  0.0095 -0.7381
  205MPD1    C1 3167   2.666   1.609  17.389  0.4257 -0.3483  0.1719
  205MPD1    C2 3168   2.547   1.635  17.454 -0.2463 -0.6119 -0.3882
  205MPD1    C3 3169   2.537   1.732  17.557 -0.2483 -0.0272  0.3438
  205MPD1    C4 3170   2.646   1.798  17.594  0.4913 -0.5242 -0.1373
  205MPD1    C5 3171   2.767   1.773  17.534 -0.1238 -0.3133 -0.3385
  205MPD1     H 3172   2.461   1.573  17.430 -0.4736  0.3402 -2.0734
  205MPD1    H1 3173   2.646   1.879  17.665  0.8874  1.4413 -2.3966
  205MPD1    H2 3174   2.871   1.662  17.393 -0.6846 -3.6886  0.3464
  205MPD1    H3 3175   2.851   1.832  17.569 -1.0972  0.7791  0.1681
  205MPD1     N 3176   2.422   1.762  17.640  0.4154 -0.2081 -0.1255
  205MPD1    H5 3177   2.433   1.847  17.693  2.0011 -2.5961  3.3946
  205MPD1    N1 3178   2.678   1.494  17.304 -0.1453 -0.4450  0.1657
  205MPD1    H6 3179   2.764   1.500  17.249 -0.1532  0.8785  0.3062
  205MPD1    H7 3180   2.605   1.480  17.234  1.0732 -1.0224 -0.9850
  206MPD1     C 3181   2.703   4.684  17.379 -0.3488 -0.9978  0.2944
  206MPD1    C1 3182   2.675   4.571  17.310  0.5602 -0.2010 -0.4668
  206MPD1    C2 3183   2.583   4.598  17.207 -0.1050 -0.8196  0.0816
  206MPD1    C3 3184   2.528   4.714  17.172 -0.6851  0.3891 -0.6137
  206MPD1    C4 3185   2.546   0.083  17.253 -0.2959  0.7497 -0.2241
  206MPD1    C5 3186   2.645   0.074  17.351 -0.4792  0.3548  0.1653
  206MPD1     H 3187   2.551   4.508  17.155  1.4030 -0.6327 -1.1804
  206MPD1    H1 3188   2.493   0.177  17.242 -1.9292 -0.2237 -0.6940
  206MPD1    H2 3189   2.754   4.660  17.471 -0.1879 -0.3402  0.3750
  206MPD1    H3 3190   2.655   0.161  17.415  0.4782  1.1935 -1.1319
  206MPD1     N 3191   2.447   4.723  17.054 -0.0496 -0.2704  0.2635
  206MPD1    H5 3192   2.380   0.064  17.047 -0.9088 -0.9680  1.0206
  206MPD1    N1 3193   2.721   4.442  17.345 -0.0612  0.1698  0.3031
  206MPD1    H6 3194   2.746   4.388  17.262 -2.7362  0.3680 -0.6317
  206MPD1    H7 3195   2.799   4.442  17.410 -1.0192 -0.6359  1.4510
  207MPD1     C 3196   1.591   1.704   9.584 -0.2721 -0.1388 -0.6247
  207MPD1    C1 3197   1.625   1.830   9.610 -0.0947 -0.3266  0.0591
  207MPD1    C2 3198   1.518   1.915   9.639 -0.0021  0.0986  0.8757
  207MPD1    C3 3199   1.386   1.882   9.630 -0.5865 -0.3491  0.0820
  207MPD1    C4 3200   1.359   1.748   9.603  0.3343 -0.4633 -0.7774
  207MPD1    C5 3201   1.462   1.666   9.566 -0.7716 -0.1743 -0.1509
  207MPD1     H 3202   1.547   2.007   9.687  0.0176  0.3639  0.3554
  207MPD1    H1 3203   1.258   1.709   9.607  0.7753 -1.5752 -0.5425
  207MPD1    H2 3204   1.673   1.640   9.554 -1.4062 -2.0465  0.3739
  207MPD1    H3 3205   1.435   1.573   9.516  1.3899 -0.4251 -0.8695
  207MPD1     N 3206   1.285   1.978   9.655  0.7004  0.1786 -0.4836
  207MPD1    H5 3207   1.192   1.938   9.648  0.9473 -0.2641 -1.1946
  207MPD1    N1 3208   1.765   1.871   9.631 -0.4942 -0.0784  0.3135
  207MPD1    H6 3209   1.786   1.959   9.584  1.0680 -0.4580  0.2985
  207MPD1    H7 3210   1.837   1.814   9.587 -1.1195 -1.8836  1.6253
  208MPD1     C 3211   1.871   0.135   0.258 -0.7670 -0.6872 -0.2999
  208MPD1    C1 3212   1.938   0.177   0.367 -0.3612  0.4413  1.0254
  208MPD1    C2 3213   1.926   0.310   0.413 -0.0619  0.2865  0.1966
  208MPD1    C3 3214   1.857   0.405   0.338  0.2103  0.1427 -0.4337
  208MPD1    C4 3215   1.791   0.363   0.228 -0.0297  0.3445 -0.2803
  208MPD1    C5 3216   1.801   0.227   0.183 -0.0122  0.3221 -0.5293
  208MPD1     H 3217   1.980   0.330   0.505  1.4436  0.3756 -0.7116
  208MPD1    H1 3218   1.753   0.429   0.151  2.0666  3.0081  0.9940
  208MPD1    H2 3219   1.882   0.037   0.214 -3.4926 -0.1829 -2.1028
  208MPD1    H3 3220   1.749   0.213   0.089  1.8191 -2.7836 -1.0520
  208MPD1     N 3221   1.845   0.537   0.380  0.1258  0.0599 -0.4688
  208MPD1    H5 3222   1.896   0.566   0.463 -1.6952 -2.7742  1.6252
  208MPD1    N1 3223   2.009   0.081   0.431  0.2516  0.5169 -0.1051
  208MPD1    H6 3224   1.996   4.720   0.398 -3.2422 -0.2031  3.2782
  208MPD1    H7 3225   2.004   0.089   0.533 -2.8281 -0.9695 -0.1383
  209MPD1     C 3226   0.232   0.981  10.285  0.2447 -0.2786 -0.7434
  209MPD1    C1 3227   0.196   1.095  10.212  0.1806 -0.0261 -0.9694
  209MPD1    C2 3228   0.236   1.213  10.263 -0.8363 -0.4439 -0.1228
  209MPD1    C3 3229   0.286   1.233  10.392 -0.3535  0.0889  0.0971
  209MPD1    C4 3230   0.310   1.125  10.470 -0.0123  0.3645 -0.5706
  209MPD1    C5 3231   0.284   0.998  10.416  0.0063  0.4375  0.1596
  209MPD1     H 3232   0.222   1.304  10.206  1.0122  0.3982  0.7672
  209MPD1    H1 3233   0.340   1.133  10.574  1.3680 -2.9184 -0.7242
  209MPD1    H2 3234   0.218   0.877  10.256  2.9558 -0.9226  0.2236
  209MPD1    H3 3235   0.318   0.911  10.471 -0.9290  0.3374  0.5674
  209MPD1     N 3236   0.329   1.359  10.427 -0.3756  0.2149  0.5754
  209MPD1    H5 3237   0.303   1.428  10.357 -0.3341 -0.0640  0.2876
  209MPD1    N1 3238   0.154   1.086  10.080  0.1692 -0.5694  0.3968
  209MPD1    H6 3239   0.126   1.163  10.020  0.2508 -2.3715 -1.9725
  209MPD1    H7 3240   0.076   1.023  10.061  0.3122 -0.3776 -0.8664
  210MPD1     C 3241   0.738   1.907  11.223  0.1965 -0.2857  0.0943
  210MPD1    C1 3242   0.745   1.972  11.106  0.1377 -0.1665  0.2340
  210MPD1    C2 3243   0.703   1.904  10.997 -0.2425 -0.2568  0.4797
  210MPD1    C3 3244   0.650   1.772  10.990  0.5055 -0.3725  0.5415
  210MPD1    C4 3245   0.651   1.709  11.113  0.3071 -0.4732  0.0949
  210MPD1    C5 3246   0.691   1.776  11.224 -0.3615  0.2900  0.2096
  210MPD1     H 3247   0.717   1.964  10.908  1.6739  0.6502  1.3702
  210MPD1    H1 3248   0.608   1.610  11.121 -0.0402 -0.2341  1.2244
  210MPD1    H2 3249   0.781   1.941  11.317 -1.0911 -0.3598  0.7176
  210MPD1    H3 3250   0.687   1.732  11.323 -0.9786 -0.9911 -0.3873
  210MPD1     N 3251   0.607   1.711  10.866 -0.3000  0.4296 -0.4393
  210MPD1    H5 3252   0.572   1.616  10.876 -0.4773  0.5009 -0.4007
  210MPD1    N1 3253   0.819   2.094  11.090 -0.0131 -0.0171 -0.6759
  210MPD1    H6 3254   0.792   2.139  11.003  0.0826  3.0342  0.8595
  210MPD1    H7 3255   0.805   2.154  11.171 -3.8754 -0.6339 -0.8879
  211MPD1     C 3256   3.389   2.244  16.799  0.5214 -0.1057 -0.6321
  211MPD1    C1 3257   3.331   2.240  16.674 -0.2593  0.1521 -0.6625
  211MPD1    C2 3258   3.213   2.175  16.657 -0.1449  0.5512 -0.3209
  211MPD1    C3 3259   3.174   2.086  16.755 -0.0038 -0.5656 -0.1257
  211MPD1    C4 3260   3.242   2.081  16.872 -0.6501 -0.3728 -0.3575
  211MPD1    C5 3261   3.340   2.166  16.899  0.1052 -0.1503 -0.2162
  211MPD1     H 3262   3.154   2.179  16.566 -0.6198  1.2570  0.0147
  211MPD1    H1 3263   3.201   2.028  16.958  0.3450 -0.0685  0.3031
  211MPD1    H2 3264   3.477   2.301  16.825  0.4448 -0.6968  0.9302
  211MPD1    H3 3265   3.385   2.172  16.998 -0.0865  1.2449 -0.2168
  211MPD1     N 3266   3.053   2.015  16.735  0.6904  0.8508  0.3927
  211MPD1    H5 3267   3.004   2.042  16.650 -0.3217 -1.0430  0.3809
  211MPD1    N1 3268   3.372   2.333  16.583 -0.5736 -0.3348  0.6973
  211MPD1    H6 3269   3.351   2.320  16.484  0.6854 -0.4035  0.4351
  211MPD1    H7 3270   3.472   2.352  16.590 -0.8260  0.4560  2.1295
  212MPD1     C 3271   1.832   4.694  16.486  0.4893 -0.4735 -0.7726
  212MPD1    C1 3272   1.729   0.043  16.533  1.2070  0.3746  0.5723
  212MPD1    C2 3273   1.620   4.730  16.606 -0.4752  0.3969  0.4618
  212MPD1    C3 3274   1.616   4.597  16.646  0.0081  0.3437 -0.5307
  212MPD1    C4 3275   1.716   4.511  16.598 -0.1414 -0.2509 -0.2337
  212MPD1    C5 3276   1.822   4.567  16.528  0.2796  0.4679  0.1452
  212MPD1     H 3277   1.541   0.068  16.624 -1.8714 -0.5621 -1.8946
  212MPD1    H1 3278   1.717   4.403  16.609 -1.5113 -0.4715 -2.4354
  212MPD1    H2 3279   1.908   4.716  16.412 -0.0586  0.1649 -1.1454
  212MPD1    H3 3280   1.891   4.493  16.489 -2.7135 -2.0985 -0.3246
  212MPD1     N 3281   1.513   4.536  16.717 -0.0400 -0.3467 -0.4483
  212MPD1    H5 3282   1.517   4.436  16.738 -0.8154 -0.9786 -3.3056
  212MPD1    N1 3283   1.723   0.172  16.481  0.3173  0.2689 -0.5711
  212MPD1    H6 3284   1.813   0.215  16.458 -0.1658  0.7400 -1.5716
  212MPD1    H7 3285   1.677   0.234  16.547 -0.4206 -1.3053  0.3955
  213MPD1     C 3286   4.645   0.413  15.696  0.2759  0.1521  0.5115
  213MPD1    C1 3287   4.620   0.305  15.608  0.1394  0.6293 -0.1705
  213MPD1    C2 3288   4.550   0.335  15.494 -0.0091  0.2084 -0.1370
  213MPD1    C3 3289   4.539   0.469  15.456 -0.2503 -0.0349  0.4623
  213MPD1    C4 3290   4.589   0.570  15.536  0.3171  0.3750 -0.1970
  213MPD1    C5 3291   4.649   0.534  15.652 -0.8651  0.5580  0.5912
  213MPD1     H 3292   4.518   0.259  15.424 -2.2996  0.5085  0.5590
  213MPD1    H1 3293   4.575   0.675  15.512  0.6669  0.0176 -2.0233
  213MPD1    H2 3294   4.676   0.393  15.797 -4.1843 -3.0998  1.2381
  213MPD1    H3 3295   4.672   0.612  15.724  0.7262 -0.8396  1.5977
  213MPD1     N 3296   4.473   0.490  15.335  0.0662 -0.4452  0.1482
  213MPD1    H5 3297   4.429   0.411  15.290  1.2731 -0.5025 -0.9178
  213MPD1    N1 3298   4.612   0.171  15.664  0.2932  0.0830  0.1055
  213MPD1    H6 3299   4.688   0.152  15.730  0.9994  0.3335 -0.6284
  213MPD1    H7 3300   4.627   0.095  15.597  0.6948 -0.5178  0.8753
  214MPD1     C 3301   3.663   0.275  14.810 -1.0003  0.2963  0.4016
  214MPD1    C1 3302   3.759   0.195  14.866 -0.0171 -0.5929 -1.4014
  214MPD1    C2 3303   3.886   0.250  14.886 -0.7434 -0.2742  0.0110
  214MPD1    C3 3304   3.922   0.380  14.857  0.5344 -0.7800 -0.4874
  214MPD1    C4 3305   3.825   0.454  14.790  0.1826  0.3323 -0.0939
  214MPD1    C5 3306   3.699   0.402  14.774 -0.5420  1.0120 -0.2128
  214MPD1     H 3307   3.957   0.181  14.930 -1.7428  0.5173  2.9062
  214MPD1    H1 3308   3.839   0.556  14.754  0.3128  0.5369  0.5252
  214MPD1    H2 3309   3.563   0.248  14.777 -0.5647 -0.4089 -0.3292
  214MPD1    H3 3310   3.624   0.473  14.741 -1.6223  0.2347  0.5739
  214MPD1     N 3311   4.044   0.447  14.875 -0.3433 -0.4818  0.3700
  214MPD1    H5 3312   4.068   0.539  14.840 -1.2787 -0.7226 -0.8969
  214MPD1    N1 3313   3.722   0.061  14.893 -0.4404 -0.0847 -0.0208
  214MPD1    H6 3314   3.797   0.001  14.927 -1.2319  0.5250  2.7895
  214MPD1    H7 3315   3.680   0.006  14.819  1.4830 -0.1069 -1.0965
  215MPD1     C 3316   0.745   2.648  11.012  0.7574 -0.0310  0.2635
  215MPD1    C1 3317   0.622   2.665  11.069 -0.4715  0.0340  0.4673
  215MPD1    C2 3318   0.587   2.585  11.178  0.3818 -0.5211  0.5003
  215MPD1    C3 3319   0.676   2.479  11.207  0.1604 -0.2714 -0.3198
  215MPD1    C4 3320   0.788   2.451  11.132  0.0533 -0.3265  0.3960
  215MPD1    C5 3321   0.825   2.539  11.029  0.2899  0.1134 -0.7604
  215MPD1     H 3322   0.497   2.608  11.233  0.5967 -0.6218  0.8900
  215MPD1    H1 3323   0.845   2.359  11.132 -0.4806 -0.6572  2.9071
  215MPD1    H2 3324   0.773   2.714  10.930 -0.1138  0.2994  0.2321
  215MPD1    H3 3325   0.919   2.526  10.975  0.1670 -0.1114 -0.9198
  215MPD1     N 3326   0.627   2.393  11.306 -0.1574  0.1649  0.3664
  215MPD1    H5 3327   0.543   2.424  11.354  0.8603  1.8931  0.9879
  215MPD1    N1 3328   0.562   2.792  11.065 -0.1065 -0.2299 -0.3297
  215MPD1    H6 3329   0.463   2.795  11.090 -0.2709 -1.5765 -0.8336
  215MPD1    H7 3330   0.591   2.844  10.983  3.1979  0.5197  1.2831
  216MPD1     C 3331   1.257   0.181  17.245  0.2745  0.3098  0.5127
  216MPD1    C1 3332   1.158   0.109  17.312  0.0138 -0.3361  0.3964
  216MPD1    C2 3333   1.184   4.710  17.338 -0.1188  1.0446  0.7592
  216MPD1    C3 3334   1.283   4.641  17.273  0.3371  0.2761 -0.2613
  216MPD1    C4 3335   1.374   4.710  17.200  0.2281  0.0461  0.1864
  216MPD1    C5 3336   1.358   0.114  17.181  0.1604 -0.4804 -0.0387
  216MPD1     H 3337   1.120   4.655  17.406 -1.2083  0.5773 -0.6694
  216MPD1    H1 3338   1.458   4.658  17.156  1.5898  1.5946  0.9632
  216MPD1    H2 3339   1.252   0.289  17.234 -0.2563  0.0994 -1.3265
  216MPD1    H3 3340   1.427   0.172  17.121  0.0665  0.3185  0.6276
  216MPD1     N 3341   1.294   4.504  17.285  0.4601 -0.1921  1.0866
  216MPD1    H5 3342   1.230   4.458  17.349 -0.0624  1.0364  1.4555
  216MPD1    N1 3343   1.067   0.169  17.389  0.4774 -0.5733  0.1155
  216MPD1    H6 3344   0.989   0.112  17.421  1.1354 -1.0761  0.8349
  216MPD1    H7 3345   1.037   0.262  17.363  0.4119  0.0874  2.5617
  217MPD1     C 3346   2.699   3.823   9.008  0.3045  0.1858  0.2633
  217MPD1    C1 3347   2.581   3.887   9.048  0.2388 -0.1826 -0.2251
  217MPD1    C2 3348   2.578   4.026   9.054 -0.4747 -0.7173  0.1555
  217MPD1    C3 3349   2.690   4.100   9.059 -0.0424  0.0441  0.6646
  217MPD1    C4 3350   2.811   4.037   9.027 -0.7321  0.0803  0.2046
  217MPD1    C5 3351   2.810   3.903   9.005  0.0967 -0.5152 -0.0339
  217MPD1     H 3352   2.484   4.080   9.065 -1.3804 -2.3772  0.5571
  217MPD1    H1 3353   2.909   4.085   9.029 -0.3913 -0.5305 -1.6745
  217MPD1    H2 3354   2.711   3.718   8.983  1.5173  0.7807 -1.6303
  217MPD1    H3 3355   2.903   3.850   8.985 -0.0640 -0.8453  0.0887
  217MPD1     N 3356   2.684   4.237   9.094 -0.3813 -0.1374 -0.5417
  217MPD1    H5 3357   2.773   4.280   9.073  0.7886 -1.2368  2.3298
  217MPD1    N1 3358   2.461   3.817   9.047 -0.0131 -0.1882  0.1227
  217MPD1    H6 3359   2.474   3.718   9.070  1.7278  0.0950  0.3777
  217MPD1    H7 3360   2.381   3.863   9.090  1.9226  1.1042  2.3585
  218MPD1     C 3361   4.181   1.876  13.110  0.8544 -0.9042  0.7070
  218MPD1    C1 3362   4.265   1.766  13.110  0.1774  0.0377  0.5577
  218MPD1    C2 3363   4.363   1.760  13.011  0.3064 -0.5435 -0.1048
  218MPD1    C3 3364   4.373   1.850  12.906 -0.0962 -0.6161 -0.0354
  218MPD1    C4 3365   4.281   1.950  12.902  0.2858 -0.8778  0.6493
  218MPD1    C5 3366   4.187   1.962  13.001 -0.3370 -0.0776  0.2524
  218MPD1     H 3367   4.446   1.693  13.032 -1.3010 -2.7222 -0.6940
  218MPD1    H1 3368   4.280   2.024  12.823  1.7253 -3.1260 -1.4759
  218MPD1    H2 3369   4.103   1.891  13.185  0.1505 -2.0506  0.2038
  218MPD1    H3 3370   4.120   2.046  12.986  0.7820  0.4260 -1.9634
  218MPD1     N 3371   4.487   1.833  12.829 -0.0236 -0.0372 -0.7881
  218MPD1    H5 3372   4.549   1.755  12.849  0.7814  1.1027  1.0941
  218MPD1    N1 3373   4.262   1.677  13.215 -0.3711  0.3693 -0.0201
  218MPD1    H6 3374   4.290   1.588  13.173  0.4292  0.8579 -0.5076
  218MPD1    H7 3375   4.176   1.660  13.266  0.4674  0.3821  1.3905
  219MPD1     C 3376   0.110   2.206  11.920 -0.3821 -0.1836  0.0257
  219MPD1    C1 3377   0.117   2.071  11.927 -0.3296 -0.4189  0.4803
  219MPD1    C2 3378   0.102   2.007  12.047 -0.0902  0.3205 -0.2141
  219MPD1    C3 3379   0.045   2.078  12.152  0.4109 -0.3674  0.0815
  219MPD1    C4 3380   0.010   2.211  12.136  0.1071 -0.7705  0.4480
  219MPD1    C5 3381   0.047   2.278  12.021 -0.5457  0.3249 -0.7112
  219MPD1     H 3382   0.136   1.905  12.063  2.3163  0.7858 -2.3234
  219MPD1    H1 3383   4.705   2.259  12.225  0.4331  0.3794 -0.0290
  219MPD1    H2 3384   0.136   2.258  11.829 -0.2125  0.4707  0.4478
  219MPD1    H3 3385   0.041   2.387  12.020  3.8469  0.5538 -0.4847
  219MPD1     N 3386   0.024   2.024  12.284 -0.2849  0.0379  0.6067
  219MPD1    H5 3387   4.696   2.071  12.349  0.4546  0.7645  0.7900
  219MPD1    N1 3388   0.193   2.007  11.828  0.4835  0.6285  0.1350
  219MPD1    H6 3389   0.166   1.909  11.826  0.7877  0.5744 -1.0482
  219MPD1    H7 3390   0.170   2.054  11.741 -0.7085  0.8511  0.5759
  220MPD1     C 3391   0.176   2.459  10.113  0.0359 -0.4148 -0.3476
  220MPD1    C1 3392   0.093   2.360  10.062 -0.9670 -0.2583 -0.1981
  220MPD1    C2 3393   0.042   2.258  10.142 -0.0059 -0.8373  0.6153
  220MPD1    C3 3394   0.043   2.279  10.275  0.1397 -0.0439  0.3106
  220MPD1    C4 3395   0.099   2.397  10.326  0.2682  0.3894 -0.0415
  220MPD1    C5 3396   0.178   2.470  10.251 -0.4847  1.2554  0.5761
  220MPD1     H 3397   4.717   2.179  10.099 -1.4007  1.8806 -2.3899
  220MPD1    H1 3398   0.100   2.414  10.433  0.1252  1.1003 -0.1536
  220MPD1    H2 3399   0.226   2.527  10.045 -0.6065 -0.0187 -0.4330
  220MPD1    H3 3400   0.225   2.555  10.300  5.0307 -1.3252 -0.2500
  220MPD1     N 3401   4.716   2.186  10.361  0.2813  0.1284  0.7413
  220MPD1    H5 3402   4.660   2.108  10.329 -0.7436  1.1032  0.1242
  220MPD1    N1 3403   0.090   2.341   9.919 -0.7095 -0.1722  0.7820
  220MPD1    H6 3404   0.106   2.430   9.873 -0.5650 -0.3296  0.5221
  220MPD1    H7 3405   0.001   2.301   9.891 -1.3796  1.9859 -0.1728
  221MPD1     C 3406   1.954   1.015  16.939  0.8796 -0.0407 -0.0485
  221MPD1    C1 3407   1.844   0.948  16.889  0.0927  0.2886 -0.1528
  221MPD1    C2 3408   1.843   0.917  16.752  0.5428 -0.2698 -1.3490
  221MPD1    C3 3409   1.956   0.954  16.683  0.5215 -0.1639 -0.1121
  221MPD1    C4 3410   2.061   1.018  16.738 -0.0970  0.0253  0.0014
  221MPD1    C5 3411   2.060   1.053  16.871 -0.3664  0.3377  0.1052
  221MPD1     H 3412   1.758   0.876  16.698 -0.8488  0.7415  0.0745
  221MPD1    H1 3413   2.143   1.054  16.677  1.2633 -2.3479  0.4060
  221MPD1    H2 3414   1.963   1.041  17.044 -0.3565  1.8527 -0.4274
  221MPD1    H3 3415   2.146   1.105  16.910  1.9162 -4.5255  1.5235
  221MPD1     N 3416   1.963   0.934  16.545  0.1906  0.2302  0.0075
  221MPD1    H5 3417   2.051   0.966  16.506  0.6049 -1.3071 -0.3334
  221MPD1    N1 3418   1.729   0.908  16.961 -0.0113  0.3908 -0.1404
  221MPD1    H6 3419   1.723   0.961  17.047  2.8363 -0.3090  0.4787
  221MPD1    H7 3420   1.642   0.921  16.908 -0.0489 -0.8819 -0.3777
  222MPD1     C 3421   0.873   4.521   0.286 -0.4358  0.3720  0.6169
  222MPD1    C1 3422   0.987   4.578   0.240  0.4308 -0.6567  0.1025
  222MPD1    C2 3423   1.040   4.696   0.298  0.7168  0.3668 -0.0017
  222MPD1    C3 3424   0.971   0.023   0.400  0.4967  0.1533 -0.3851
  222MPD1    C4 3425   0.849   4.711   0.440 -0.5430  0.5722 -0.3809
  222MPD1    C5 3426   0.806   4.589   0.384 -0.3264  0.1420  0.1433
  222MPD1     H 3427   1.138   4.733   0.267 -0.0300  3.1438  0.9372
  222MPD1    H1 3428   0.793   0.013   0.525  0.9300 -0.5664  1.0605
  222MPD1    H2 3429   0.825   4.432   0.249 -0.6057 -0.2386  2.3143
  222MPD1    H3 3430   0.715   4.543   0.420 -0.6901  0.3434 -0.5168
  222MPD1     N 3431   1.018   0.130   0.473  0.8204  0.3858 -0.3598
  222MPD1    H5 3432   0.967   0.179   0.546 -0.3085  2.5136 -2.5770
  222MPD1    N1 3433   1.050   4.517   0.134  0.0626 -0.1256  0.1098
  222MPD1    H6 3434   1.146   4.533   0.104  0.4398 -2.1424  0.2537
  222MPD1    H7 3435   1.030   4.418   0.133  1.7635 -0.4568 -0.9994
  223MPD1     C 3436   0.636   0.962   0.862  0.0484  0.6448  0.5399
  223MPD1    C1 3437   0.727   1.010   0.766 -0.0126 -0.2087 -0.2432
  223MPD1    C2 3438   0.797   0.913   0.700  0.5038  0.2003 -0.7335
  223MPD1    C3 3439   0.806   0.781   0.742 -0.7000 -0.2214 -0.0005
  223MPD1    C4 3440   0.726   0.740   0.850  0.2925  0.1300  0.3496
  223MPD1    C5 3441   0.638   0.833   0.901 -0.4810  0.2463  0.3252
  223MPD1     H 3442   0.852   0.940   0.610  1.4881  0.7930  0.0535
  223MPD1    H1 3443   0.726   0.641   0.894  0.9934 -0.3469 -0.7239
  223MPD1    H2 3444   0.561   1.026   0.908  0.4272  0.6930  1.0885
  223MPD1    H3 3445   0.574   0.805   0.984  0.6002 -1.0799  0.7188
  223MPD1     N 3446   0.901   0.696   0.677 -0.5312 -0.0674  0.3424
  223MPD1    H5 3447   0.970   0.733   0.613 -0.1322 -0.7288  0.3896
  223MPD1    N1 3448   0.715   1.136   0.722  0.4878 -0.9001  0.7231
  223MPD1    H6 3449   0.803   1.176   0.690  0.6426 -3.1145 -1.6690
  223MPD1    H7 3450   0.684   1.196   0.797 -1.0280  0.8173 -1.2661
  224MPD1     C 3451   4.524   1.488   9.093 -0.3893 -0.9149 -0.0196
  224MPD1    C1 3452   4.474   1.610   9.134  0.1589  0.0239 -0.2273
  224MPD1    C2 3453   4.374   1.608   9.227 -1.2091 -1.5287  0.1782
  224MPD1    C3 3454   4.309   1.491   9.264 -0.9329  0.4358 -0.4206
  224MPD1    C4 3455   4.355   1.374   9.204  0.2275 -0.0122  0.0021
  224MPD1    C5 3456   4.460   1.371   9.123  0.1545  0.8267  0.5766
  224MPD1     H 3457   4.335   1.703   9.261 -0.4172 -1.4736  0.9249
  224MPD1    H1 3458   4.308   1.280   9.229 -0.4800 -0.4218 -2.9182
  224MPD1    H2 3459   4.601   1.473   9.017 -0.1065  0.4885  0.0001
  224MPD1    H3 3460   4.499   1.275   9.091  1.7466  1.8406 -0.5202
  224MPD1     N 3461   4.186   1.476   9.337 -0.3458  0.1678 -0.3987
  224MPD1    H5 3462   4.142   1.386   9.352  1.5771 -0.7442 -0.1083
  224MPD1    N1 3463   4.537   1.728   9.092 -0.5442 -0.7994  0.2329
  224MPD1    H6 3464   4.552   1.730   8.992 -1.5035 -1.6858  0.0764
  224MPD1    H7 3465   4.471   1.802   9.113  1.3124  0.9360  0.0213
  225MPD1     C 3466   4.716   2.800  12.338 -0.2628 -0.3526  0.7245
  225MPD1    C1 3467   4.625   2.714  12.266 -0.8097  0.5609 -0.9377
  225MPD1    C2 3468   4.509   2.673  12.326  0.1102  0.2548 -0.7078
  225MPD1    C3 3469   4.465   2.742  12.443  0.2757  0.7840  0.0192
  225MPD1    C4 3470   4.546   2.834  12.511  0.2786  0.4446 -1.3145
  225MPD1    C5 3471   4.669   2.859  12.456  0.3254  0.5145  0.0908
  225MPD1     H 3472   4.463   2.584  12.284 -1.1618  0.9257 -0.7398
  225MPD1    H1 3473   4.519   2.882  12.604 -2.2839 -2.6779 -0.4629
  225MPD1    H2 3474   0.085   2.815  12.312  0.1179 -1.2722  1.6917
  225MPD1    H3 3475   4.731   2.926  12.514 -0.7527  1.0795  0.5879
  225MPD1     N 3476   4.345   2.708  12.516 -0.3209 -0.6512 -0.5376
  225MPD1    H5 3477   4.336   2.756  12.605  0.8496 -1.6534  0.1209
  225MPD1    N1 3478   4.683   2.645  12.158  0.6498  0.1518 -0.4586
  225MPD1    H6 3479   4.616   2.633  12.083  1.0727 -0.5378 -0.7273
  225MPD1    H7 3480   0.029   2.687  12.112  0.8574  0.0608 -0.1806
  226MPD1     C 3481   0.145   1.780  10.467 -0.2193  0.3599  0.3511
  226MPD1    C1 3482   0.104   1.805  10.339  0.5101 -0.0494 -0.0301
  226MPD1    C2 3483   0.179   1.897  10.268  0.1820  0.0037 -0.0448
  226MPD1    C3 3484   0.288   1.961  10.323 -0.5757 -0.2190  0.5181
  226MPD1    C4 3485   0.312   1.950  10.460 -0.2033 -0.0914 -0.3318
  226MPD1    C5 3486   0.235   1.862  10.530 -0.0187 -0.2357  0.2875
  226MPD1     H 3487   0.155   1.913  10.163 -0.3994 -0.9869 -0.0546
  226MPD1    H1 3488   0.392   2.004  10.508  0.8867 -0.0317 -2.2355
  226MPD1    H2 3489   0.106   1.693  10.519  0.0925  0.3864  0.6258
  226MPD1    H3 3490   0.265   1.838  10.631 -2.7108 -2.4200  0.5638
  226MPD1     N 3491   0.363   2.055  10.244 -0.7467  0.2621 -0.3991
  226MPD1    H5 3492   0.356   2.040  10.143 -0.3969 -0.5868 -0.3027
  226MPD1    N1 3493   0.007   1.721  10.281  0.7283  0.3058 -0.1667
  226MPD1    H6 3494   4.700   1.768  10.201 -0.5168 -1.6351 -0.6356
  226MPD1    H7 3495   4.670   1.686  10.344  1.6287 -0.9587  0.1480
  227MPD1     C 3496   0.484   3.047  10.276 -0.5954  0.2719  0.0474
  227MPD1    C1 3497   0.573   2.982  10.357  0.0021 -0.1831  0.1466
  227MPD1    C2 3498   0.591   2.847  10.346 -0.2592 -0.9389  0.5388
  227MPD1    C3 3499   0.514   2.779  10.248  1.2035 -0.4160  0.0202
  227MPD1    C4 3500   0.419   2.844  10.169 -0.6398  0.0296 -0.4915
  227MPD1    C5 3501   0.399   2.976  10.192  0.0558 -0.4280 -0.3651
  227MPD1     H 3502   0.669   2.797  10.403  0.2339 -1.6803 -0.7964
  227MPD1    H1 3503   0.368   2.794  10.087 -0.3279 -1.7089  0.3650
  227MPD1    H2 3504   0.476   3.155  10.280 -2.0282  0.1209  1.3208
  227MPD1    H3 3505   0.335   3.024  10.119 -0.4591  0.0825  0.4236
  227MPD1     N 3506   0.542   2.640  10.224 -0.9513  0.1407  0.7923
  227MPD1    H5 3507   0.594   2.584  10.290 -0.2648  2.3566  2.1454
  227MPD1    N1 3508   0.660   3.057  10.444 -0.6990 -0.5826 -0.5008
  227MPD1    H6 3509   0.675   3.002  10.529 -0.2337  0.6215  0.1912
  227MPD1    H7 3510   0.628   3.152  10.460 -0.4460 -0.5019 -0.4835
  228MPD1     C 3511   1.715   0.383  12.778  0.2333  0.4601 -0.1472
  228MPD1    C1 3512   1.600   0.412  12.698  0.1603 -0.4077 -0.0258
  228MPD1    C2 3513   1.472   0.388  12.737  0.0752 -0.2816  0.3618
  228MPD1    C3 3514   1.452   0.337  12.866 -0.3830 -0.3096 -0.1234
  228MPD1    C4 3515   1.562   0.321  12.951  0.5089 -0.5813 -0.2478
  228MPD1    C5 3516   1.692   0.343  12.904 -0.1065 -0.0715  0.3994
  228MPD1     H 3517   1.388   0.400  12.670 -0.4882 -1.1389  0.9069
  228MPD1    H1 3518   1.554   0.308  13.058  1.2457  0.0323 -0.1219
  228MPD1    H2 3519   1.813   0.402  12.738 -0.3393  2.2465 -0.7004
  228MPD1    H3 3520   1.777   0.342  12.972  0.6753  0.7621 -0.5614
  228MPD1     N 3521   1.317   0.318  12.912  0.3043  0.1153 -0.2853
  228MPD1    H5 3522   1.244   0.348  12.849 -1.7158 -2.0468  1.0468
  228MPD1    N1 3523   1.623   0.464  12.571 -0.2110 -0.2042 -0.4011
  228MPD1    H6 3524   1.555   0.537  12.551  0.7484  1.0034  0.7594
  228MPD1    H7 3525   1.718   0.499  12.558 -0.1431 -0.1021  0.3258
  229MPD1     C 3526   0.813   4.132  14.607 -0.5103  0.2290  0.5077
  229MPD1    C1 3527   0.739   4.078  14.710 -0.5442  0.4573 -0.2796
  229MPD1    C2 3528   0.794   3.996  14.804  0.8987 -0.1674  0.0204
  229MPD1    C3 3529   0.925   3.951  14.784  0.4851  0.1036 -0.0067
  229MPD1    C4 3530   0.989   3.981  14.667  0.0759 -0.0100  0.4626
  229MPD1    C5 3531   0.945   4.091  14.591  0.3140  0.4799  0.8198
  229MPD1     H 3532   0.731   3.965  14.887  1.6055 -0.7811  0.3319
  229MPD1    H1 3533   1.087   3.945  14.639 -0.6246 -0.0872 -1.8701
  229MPD1    H2 3534   0.765   4.203  14.541 -1.9950 -0.6399  0.6490
  229MPD1    H3 3535   1.004   4.140  14.514  1.0198  0.2760  1.2294
  229MPD1     N 3536   0.985   3.849  14.855 -0.6831  0.7108 -0.0423
  229MPD1    H5 3537   1.080   3.825  14.829 -1.7452 -2.9024 -0.6495
  229MPD1    N1 3538   0.611   4.147  14.734  0.2510 -0.2401 -0.3813
  229MPD1    H6 3539   0.550   4.095  14.797  0.7621 -1.2398 -0.7129
  229MPD1    H7 3540   0.554   4.175  14.654 -1.5323  0.8210  1.2694
  230MPD1     C 3541   1.138   4.030  15.782  0.1787 -0.0978  0.5676
  230MPD1    C1 3542   1.014   4.023  15.724  0.6057 -0.6397 -0.4891
  230MPD1    C2 3543   0.997   3.950  15.609 -0.2711 -0.7911  0.6726
  230MPD1    C3 3544   1.103   3.887  15.555 -0.6021 -0.6965 -0.4444
  230MPD1    C4 3545   1.229   3.896  15.610 -0.7129  0.2251  0.3365
  230MPD1    C5 3546   1.242   3.966  15.721  0.1262  0.4439 -0.4611
  230MPD1     H 3547   0.901   3.944  15.559 -0.1336  0.0637  0.3070
  230MPD1    H1 3548   1.322   3.866  15.562 -1.4246 -0.8677 -0.3601
  230MPD1    H2 3549   1.156   4.077  15.878  3.4134 -0.3268  0.0628
  230MPD1    H3 3550   1.340   3.975  15.768 -0.3167  1.0548  0.3438
  230MPD1     N 3551   1.087   3.810  15.436 -0.7072 -0.4771  0.5604
  230MPD1    H5 3552   0.996   3.815  15.390  0.0469  1.2658 -0.7331
  230MPD1    N1 3553   0.895   4.081  15.777 -0.0943 -0.1226 -1.0134
  230MPD1    H6 3554   0.916   4.154  15.844  0.4531 -0.4666 -0.8175
  230MPD1    H7 3555   0.832   4.105  15.701  0.1379  1.0592 -0.8312
  231MPD1     C 3556   4.221   0.837  15.295  0.0605  0.1999 -0.3881
  231MPD1    C1 3557   4.125   0.826  15.195  0.4586  0.2133  0.0029
  231MPD1    C2 3558   4.156   0.871  15.069 -0.7204 -0.3847 -0.5243
  231MPD1    C3 3559   4.278   0.934  15.047 -0.0733  0.2549  0.5681
  231MPD1    C4 3560   4.372   0.939  15.159 -0.3816  0.0627 -0.8352
  231MPD1    C5 3561   4.343   0.893  15.282 -0.3022 -0.2320  0.7432
  231MPD1     H 3562   4.087   0.858  14.987 -0.9422  0.7418 -0.5103
  231MPD1    H1 3563   4.465   0.994  15.153  1.1248 -2.5995 -1.6903
  231MPD1    H2 3564   4.196   0.803  15.396  0.6904  0.3249 -0.1889
  231MPD1    H3 3565   4.400   0.913  15.372 -0.2724 -1.4591  0.9920
  231MPD1     N 3566   4.294   0.988  14.921 -0.5786  0.2598 -0.0211
  231MPD1    H5 3567   4.216   0.971  14.858  1.0528 -0.6330 -1.8002
  231MPD1    N1 3568   4.011   0.747  15.229 -0.1502 -0.0937 -0.0315
  231MPD1    H6 3569   3.929   0.755  15.169  0.5186 -0.1527 -0.9571
  231MPD1    H7 3570   3.971   0.776  15.318 -1.9771 -0.6911 -0.6667
  232MPD1     C 3571   0.699   3.423  17.719  0.2063 -0.7402  0.4379
  232MPD1    C1 3572   0.589   3.503  17.731  0.2752  0.9325  0.1575
  232MPD1    C2 3573   0.462   3.445  17.708 -0.3349  0.3860  0.0600
  232MPD1    C3 3574   0.453   3.315  17.663 -0.3473  0.4985  0.9108
  232MPD1    C4 3575   0.567   3.238  17.645 -0.1676  0.7935  0.1075
  232MPD1    C5 3576   0.692   3.294  17.674  0.1029  0.3844 -0.2174
  232MPD1     H 3577   0.374   3.505  17.728  1.7769  3.3973  0.4247
  232MPD1    H1 3578   0.574   3.135  17.613  1.2499  0.9288 -0.0060
  232MPD1    H2 3579   0.801   3.455   0.002 -0.3860  1.3280  0.1364
  232MPD1    H3 3580   0.783   3.237  17.660  1.0522  1.8787 -0.1600
  232MPD1     N 3581   0.321   3.270  17.637  0.4201  0.1912  0.1058
  232MPD1    H5 3582   0.248   3.333  17.666  1.5172  1.2577  0.5551
  232MPD1    N1 3583   0.595   3.634   0.047 -0.3390  0.0832  0.2520
  232MPD1    H6 3584   0.686   3.677   0.031 -0.9801  0.9046 -1.0948
  232MPD1    H7 3585   0.514   3.689   0.022 -0.1461  0.6166  0.7958
  233MPD1     C 3586   1.812   0.704   1.137 -0.3071 -0.1386 -0.6170
  233MPD1    C1 3587   1.936   0.699   1.203 -0.3169  0.0558 -0.7569
  233MPD1    C2 3588   1.963   0.806   1.292 -0.6409 -0.2016  0.3690
  233MPD1    C3 3589   1.894   0.926   1.280  0.0874  0.1195 -0.0445
  233MPD1    C4 3590   1.788   0.936   1.193 -0.1797 -0.6829  0.2431
  233MPD1    C5 3591   1.744   0.823   1.128  0.1960  0.3169  0.1700
  233MPD1     H 3592   2.056   0.791   1.345 -0.8793  1.4537  1.2581
  233MPD1    H1 3593   1.734   1.026   1.168  1.0181 -0.0791 -0.1889
  233MPD1    H2 3594   1.775   0.615   1.086  0.4846 -0.3110 -0.9006
  233MPD1    H3 3595   1.653   0.835   1.071  1.1390  1.1581 -1.1631
  233MPD1     N 3596   1.924   1.041   1.348 -0.2471  0.3708  0.1881
  233MPD1    H5 3597   1.885   1.124   1.305 -1.3231 -1.2707 -1.9768
  233MPD1    N1 3598   2.004   0.579   1.214 -0.0391 -0.4044 -0.1964
  233MPD1    H6 3599   2.008   0.522   1.130  1.1431  0.8279 -0.9742
  233MPD1    H7 3600   2.098   0.601   1.248 -0.0657  0.2149 -0.5213
  234MPD1     C 3601   3.974   0.211   9.776 -0.3171  0.3738  0.2841
  234MPD1    C1 3602   3.960   0.154   9.654  0.4247 -0.9679 -0.0273
  234MPD1    C2 3603   3.850   0.200   9.585  0.0473 -0.4496  0.0142
  234MPD1    C3 3604   3.762   0.298   9.628  0.3035  0.1122  0.9303
  234MPD1    C4 3605   3.790   0.349   9.754 -0.1691  0.3163 -0.2580
  234MPD1    C5 3606   3.891   0.303   9.822 -0.8852  0.8756 -0.2757
  234MPD1     H 3607   3.834   0.152   9.488  0.7300 -0.7687  0.0657
  234MPD1    H1 3608   3.724   0.430   9.785  0.0066  1.1646 -2.0960
  234MPD1    H2 3609   4.058   0.190   9.841  0.1967  0.2941 -0.4064
  234MPD1    H3 3610   3.918   0.350   9.916  2.7986 -0.0646 -0.8337
  234MPD1     N 3611   3.662   0.347   9.539 -0.1749  0.1057  0.4401
  234MPD1    H5 3612   3.668   0.307   9.446 -0.0741 -1.7506  1.2572
  234MPD1    N1 3613   4.059   0.070   9.599 -0.0422 -0.0239 -0.2602
  234MPD1    H6 3614   4.095   4.732   9.659  0.8016  2.5404  2.3435
  234MPD1    H7 3615   4.036   0.025   9.510 -0.6333  0.3373 -0.2926
  235MPD1     C 3616   0.214   2.510  11.210  0.5684  0.0752 -0.3063
  235MPD1    C1 3617   0.279   2.484  11.094  0.4626 -0.0875  0.1096
  235MPD1    C2 3618   0.286   2.587  11.000  0.9100 -0.2173 -0.9268
  235MPD1    C3 3619   0.241   2.708  11.024  0.4016 -0.5979  0.1650
  235MPD1    C4 3620   0.184   2.738  11.148  0.2784 -0.2288  0.2018
  235MPD1    C5 3621   0.159   2.632  11.241 -0.1918  0.7684  0.2470
  235MPD1     H 3622   0.328   2.567  10.902 -0.8541 -1.6011 -1.4097
  235MPD1    H1 3623   0.141   2.835  11.170  0.8367  0.4002 -1.4867
  235MPD1    H2 3624   0.195   2.431  11.282  2.8993 -0.6149 -0.4693
  235MPD1    H3 3625   0.105   2.647  11.334  1.2526 -1.2160  1.3815
  235MPD1     N 3626   0.259   2.807  10.922 -0.3784 -0.2985  0.1319
  235MPD1    H5 3627   0.300   2.784  10.832 -1.0824  1.5791 -0.6810
  235MPD1    N1 3628   0.318   2.349  11.064 -0.5148 -1.0585 -0.2193
  235MPD1    H6 3629   0.408   2.348  11.016  1.0352  0.1626  2.6988
  235MPD1    H7 3630   0.319   2.284  11.142  1.5762  0.3717  0.9275
  236MPD1     C 3631   4.046   4.134   9.659  0.0671  0.1716 -0.4909
  236MPD1    C1 3632   4.142   4.239   9.655 -0.2271  0.0422 -0.3643
  236MPD1    C2 3633   4.226   4.262   9.766  0.3058  0.2094  0.3099
  236MPD1    C3 3634   4.202   4.195   9.889  0.2091 -0.0670  1.1134
  236MPD1    C4 3635   4.104   4.095   9.887  0.1249 -0.2029  0.6617
  236MPD1    C5 3636   4.031   4.065   9.774  0.1487 -0.2205  0.4465
  236MPD1     H 3637   4.300   4.341   9.772 -0.1460  0.7999 -1.8305
  236MPD1    H1 3638   4.090   4.042   9.980 -0.7778 -0.5795  0.3095
  236MPD1    H2 3639   3.991   4.094   9.575 -0.1938  1.3643 -0.8920
  236MPD1    H3 3640   3.957   3.986   9.773 -0.0521 -0.0375  0.7155
  236MPD1     N 3641   4.280   4.204  10.008  0.0067 -0.1548  0.2489
  236MPD1    H5 3642   4.247   4.145  10.083 -2.3834  0.7138 -0.1179
  236MPD1    N1 3643   4.176   4.289   9.528 -0.4251 -0.5684  0.1058
  236MPD1    H6 3644   4.212   4.384   9.536 -0.2062 -0.5853 -0.6919
  236MPD1    H7 3645   4.098   4.289   9.462  0.0817 -1.3352 -0.4766
  237MPD1     C 3646   4.711   2.201  14.795 -0.5438  0.3589  0.4635
  237MPD1    C1 3647   4.725   2.078  14.853  0.1309 -0.4902  0.1306
  237MPD1    C2 3648   4.617   2.029  14.924  0.2461 -0.5785 -0.2699
  237MPD1    C3 3649   4.490   2.088  14.908 -0.1818  0.4464  0.1030
  237MPD1    C4 3650   4.480   2.210  14.845 -0.4861  0.2968 -0.1361
  237MPD1    C5 3651   4.590   2.256  14.788 -0.8007  0.1551 -0.1256
  237MPD1     H 3652   4.618   1.928  14.962 -0.4410 -0.5882 -0.2733
  237MPD1    H1 3653   4.383   2.259  14.843 -0.7778 -0.2858 -0.4986
  237MPD1    H2 3654   0.066   2.246  14.753  1.1982 -4.8634 -1.4758
  237MPD1    H3 3655   4.572   2.347  14.733  0.5535  1.4534  1.5898
  237MPD1     N 3656   4.371   2.031  14.959 -0.3225  0.0776 -0.3808
  237MPD1    H5 3657   4.284   2.074  14.932 -1.5608 -0.8973  2.0443
  237MPD1    N1 3658   0.117   2.028  14.883  0.1591  0.5208 -0.6425
  237MPD1    H6 3659   0.173   2.079  14.952 -1.8824  1.1872  0.5007
  237MPD1    H7 3660   0.121   1.931  14.916 -1.4563  0.8854  0.5924
  238MPD1     C 3661   1.485   0.991  15.082 -0.1877 -0.3637  0.1982
  238MPD1    C1 3662   1.534   0.952  14.959  1.1484  0.1496  1.2484
  238MPD1    C2 3663   1.456   0.860  14.894  0.3318 -0.3159  0.5684
  238MPD1    C3 3664   1.330   0.824  14.942  0.3000 -0.6124  0.0649
  238MPD1    C4 3665   1.291   0.858  15.070 -0.3296 -0.3725 -0.0767
  238MPD1    C5 3666   1.364   0.946  15.139  0.8452 -0.3417  0.0073
  238MPD1     H 3667   1.475   0.846  14.788  0.2154  1.9719  0.2364
  238MPD1    H1 3668   1.191   0.828  15.100  0.0498 -1.4598  0.0990
  238MPD1    H2 3669   1.539   1.067  15.137  0.4010  0.0247 -0.9140
  238MPD1    H3 3670   1.328   0.985  15.233 -0.5765 -1.2345 -0.1772
  238MPD1     N 3671   1.247   0.730  14.873  0.4260  0.3571 -0.0346
  238MPD1    H5 3672   1.165   0.697  14.923  0.9883  0.0882  0.7054
  238MPD1    N1 3673   1.650   1.001  14.902  0.2032 -0.5733 -0.0609
  238MPD1    H6 3674   1.662   1.100  14.920 -2.2338 -0.1907 -0.5827
  238MPD1    H7 3675   1.662   0.975  14.804 -1.7978  0.7798 -0.6441
  239MPD1     C 3676   1.116   2.250  15.021 -0.5150  0.5901  0.0270
  239MPD1    C1 3677   1.226   2.162  15.011  0.3510  0.7961  0.8426
  239MPD1    C2 3678   1.251   2.094  14.893  0.3797  0.4900 -0.5833
  239MPD1    C3 3679   1.175   2.121  14.777  0.4179  0.4177  0.4267
  239MPD1    C4 3680   1.061   2.202  14.792 -0.2740  0.2756 -0.1061
  239MPD1    C5 3681   1.037   2.266  14.914  0.1466 -0.1293  0.5320
  239MPD1     H 3682   1.331   2.022  14.880  0.2990 -0.0139  1.7427
  239MPD1    H1 3683   0.981   2.208  14.719  2.2359  0.4745 -2.8333
  239MPD1    H2 3684   1.084   2.293  15.115 -1.3417 -1.6204  0.7445
  239MPD1    H3 3685   0.945   2.320  14.935  0.9353  1.4642 -0.0567
  239MPD1     N 3686   1.183   2.054  14.649 -0.1783  0.1712  0.0158
  239MPD1    H5 3687   1.107   2.063  14.583  1.0567  0.4486 -1.3768
  239MPD1    N1 3688   1.277   2.115  15.131 -0.0165  0.7848  0.1596
  239MPD1    H6 3689   1.286   2.187  15.202 -0.2286  0.7813  0.1897
  239MPD1    H7 3690   1.360   2.060  15.108 -0.0745  1.5006 -1.7639
  240MPD1     C 3691   0.737   1.519  13.700 -0.2282 -0.1830  0.0079
  240MPD1    C1 3692   0.617   1.462  13.725 -1.0269  0.7999 -0.5349
  240MPD1    C2 3693   0.614   1.364  13.826  0.2509  0.2447 -0.1644
  240MPD1    C3 3694   0.722   1.317  13.890  0.3615  0.5315 -0.7397
  240MPD1    C4 3695   0.846   1.374  13.857  0.5771  0.7565 -0.5283
  240MPD1    C5 3696   0.855   1.472  13.761 -0.3490 -0.2552 -0.0407
  240MPD1     H 3697   0.516   1.326  13.854 -0.0200  0.3274 -0.9952
  240MPD1    H1 3698   0.940   1.353  13.906 -1.6112 -3.3803  1.8838
  240MPD1    H2 3699   0.744   1.593  13.621  1.2743 -1.5458 -1.1414
  240MPD1    H3 3700   0.952   1.518  13.746 -0.9954  0.5340 -1.7988
  240MPD1     N 3701   0.717   1.216  13.991 -0.9824 -0.0774  0.1965
  240MPD1    H5 3702   0.624   1.178  14.007 -0.8796 -0.0439  0.8745
  240MPD1    N1 3703   0.500   1.504  13.661  0.3656  0.2603 -0.3119
  240MPD1    H6 3704   0.430   1.433  13.641  1.7993 -0.7527 -1.7768
  240MPD1    H7 3705   0.521   1.565  13.581  0.2705  1.2210  0.3919
  241MPD1     C 3706   1.370   1.123  14.644  0.2372 -0.7323  0.3006
  241MPD1    C1 3707   1.269   1.075  14.722  0.2704 -0.1707  0.7267
  241MPD1    C2 3708   1.164   1.025  14.654  0.5862  0.0921  0.3981
  241MPD1    C3 3709   1.168   1.018  14.512 -0.1889 -0.4969 -0.1370
  241MPD1    C4 3710   1.278   1.061  14.444 -0.0116 -0.6469  0.1836
  241MPD1    C5 3711   1.388   1.102  14.514  0.7032  0.2969 -0.2878
  241MPD1     H 3712   1.074   0.992  14.704  0.5422 -1.3625 -0.6359
  241MPD1    H1 3713   1.282   1.067  14.336 -2.6706 -0.1943  0.1104
  241MPD1    H2 3714   1.453   1.178  14.686 -0.2910  0.3538 -0.0705
  241MPD1    H3 3715   1.473   1.132  14.454  0.4694  0.2858 -0.6224
  241MPD1     N 3716   1.055   0.980  14.432  0.0713 -0.1962  0.3048
  241MPD1    H5 3717   1.075   0.981  14.332  0.8889 -1.7125  0.4446
  241MPD1    N1 3718   1.252   1.125  14.853  0.1772  0.1574 -0.9328
  241MPD1    H6 3719   1.335   1.148  14.907 -0.1937  0.0574 -0.3313
  241MPD1    H7 3720   1.186   1.073  14.910  0.1426  2.1765  0.8424
  242MPD1     C 3721   0.221   3.962  15.936 -0.6427  0.3509 -0.2986
  242MPD1    C1 3722   0.132   4.020  15.848 -0.3041  0.3265  0.1806
  242MPD1    C2 3723   0.181   4.034  15.720  0.0356 -0.1911  0.0404
  242MPD1    C3 3724   0.303   3.987  15.684  0.7324 -1.1601  0.6438
  242MPD1    C4 3725   0.390   3.930  15.777  0.2450 -0.3905  0.3750
  242MPD1    C5 3726   0.340   3.908  15.902 -0.7050 -0.5448  0.0079
  242MPD1     H 3727   0.110   4.079  15.652  0.1277  2.4475  1.6944
  242MPD1    H1 3728   0.488   3.892  15.752 -0.2896 -2.0431  0.7989
  242MPD1    H2 3729   0.187   3.968  16.039 -2.7689 -1.8108 -0.8665
  242MPD1    H3 3730   0.406   3.863  15.975  1.3354  1.2198 -0.7351
  242MPD1     N 3731   0.343   3.999  15.550 -0.0637 -0.7063 -0.2259
  242MPD1    H5 3732   0.434   3.957  15.531 -0.1280 -0.9018 -0.1056
  242MPD1    N1 3733   0.009   4.077  15.894  0.0706  0.5885  0.1619
  242MPD1    H6 3734   4.713   4.035  15.982  1.0258  0.5578  0.4733
  242MPD1    H7 3735   4.667   4.051  15.832 -0.8871  1.1196  1.1168
  243MPD1     C 3736   1.673   4.195  17.414 -0.2773 -0.0100  1.3738
  243MPD1    C1 3737   1.748   4.156  17.301 -0.0725 -0.5033  0.3251
  243MPD1    C2 3738   1.762   4.028  17.267  0.0428 -0.3996 -0.2987
  243MPD1    C3 3739   1.692   3.927  17.342  0.3910  0.1988 -0.5411
  243MPD1    C4 3740   1.618   3.963  17.454  0.0837  0.0819  0.2573
  243MPD1    C5 3741   1.608   4.096  17.490  0.2353  0.1187 -0.1618
  243MPD1     H 3742   1.818   3.999  17.180  0.3084 -1.3854  0.1966
  243MPD1    H1 3743   1.580   3.889  17.523 -1.1034 -1.2672 -1.8263
  243MPD1    H2 3744   1.655   4.300  17.435 -2.2086 -0.6052  2.5998
  243MPD1    H3 3745   1.552   4.127  17.577  1.9971  1.5905  0.4486
  243MPD1     N 3746   1.698   3.796  17.293 -0.9841 -0.2928 -0.5027
  243MPD1    H5 3747   1.765   3.773  17.220  1.1039 -2.8013  2.1938
  243MPD1    N1 3748   1.828   4.256  17.240 -0.7942 -0.0821 -0.0089
  243MPD1    H6 3749   1.798   4.353  17.233 -0.4558  0.2488  3.1580
  243MPD1    H7 3750   1.850   4.220  17.147  2.4481 -0.9003  1.0587
  244MPD1     C 3751   1.492   2.891  17.708 -0.8693  0.6002  0.0118
  244MPD1    C1 3752   1.495   3.021   0.015  0.6290  0.1257 -0.9169
  244MPD1    C2 3753   1.527   3.126  17.665 -0.7076 -0.4077  0.2040
  244MPD1    C3 3754   1.563   3.108  17.534 -0.8157  0.2445 -0.6964
  244MPD1    C4 3755   1.551   2.978  17.490  0.2584  0.0559  0.2488
  244MPD1    C5 3756   1.520   2.871  17.575 -0.0721  0.3581 -0.0586
  244MPD1     H 3757   1.543   3.224  17.710 -1.5903 -0.8995  1.5753
  244MPD1    H1 3758   1.579   2.949  17.390 -2.5565 -1.5966 -0.0491
  244MPD1    H2 3759   1.474   2.810   0.040 -2.2681  0.7333 -0.1830
  244MPD1    H3 3760   1.492   2.774  17.535  2.9798 -0.9654  1.0757
  244MPD1     N 3761   1.609   3.221  17.455 -0.2641 -0.0440  1.0880
  244MPD1    H5 3762   1.617   3.314  17.495  0.7813  0.9840 -1.4859
  244MPD1    N1 3763   1.491   3.050   0.150  0.0106 -0.3815  0.0932
  244MPD1    H6 3764   1.445   3.140   0.161  0.3086 -0.3990  1.4371
  244MPD1    H7 3765   1.434   2.988   0.206 -0.2541  0.6303  0.9348
  245MPD1     C 3766   4.026   3.347  12.813 -0.3833 -0.1049 -0.4720
  245MPD1    C1 3767   3.943   3.447  12.845  0.2235  0.1495 -1.0727
  245MPD1    C2 3768   3.979   3.543  12.942  0.6917 -0.6410 -0.0704
  245MPD1    C3 3769   4.106   3.538  13.000  0.2853 -0.1027 -0.0292
  245MPD1    C4 3770   4.195   3.438  12.955 -0.0858 -0.5097 -0.2006
  245MPD1    C5 3771   4.148   3.339  12.870 -0.4690  0.3355  0.1405
  245MPD1     H 3772   3.905   3.616  12.974 -0.3306 -1.4008 -0.6855
  245MPD1    H1 3773   4.296   3.421  12.989  1.0404  0.0424 -3.3377
  245MPD1    H2 3774   4.005   3.265  12.745 -1.0095 -2.2236  2.2651
  245MPD1    H3 3775   4.208   3.256  12.837 -2.6161 -1.4503  0.7322
  245MPD1     N 3776   4.135   3.610  13.118  0.2386 -0.3298 -0.5078
  245MPD1    H5 3777   4.058   3.667  13.152  0.4925  0.0777 -0.6169
  245MPD1    N1 3778   3.814   3.441  12.790 -0.4842  0.8009 -0.4982
  245MPD1    H6 3779   3.832   3.403  12.697  1.9754  2.3096 -0.6349
  245MPD1    H7 3780   3.766   3.530  12.780 -1.0348  0.4442 -1.0386
  246MPD1     C 3781   0.020   1.512   9.972 -0.6770 -0.2620 -0.5187
  246MPD1    C1 3782   0.125   1.542   9.881 -0.2815  0.3235  0.0795
  246MPD1    C2 3783   0.163   1.441   9.791  0.0101  0.0034  0.1174
  246MPD1    C3 3784   0.088   1.321   9.775  0.3038 -0.6289  0.2752
  246MPD1    C4 3785   4.714   1.305   9.859  0.1064  0.1205 -0.2417
  246MPD1    C5 3786   4.691   1.389   9.962 -0.0633  0.6579  0.0357
  246MPD1     H 3787   0.255   1.456   9.736 -0.8071  2.3562 -0.6176
  246MPD1    H1 3788   4.657   1.213   9.872  1.3818 -0.7955 -1.2343
  246MPD1    H2 3789   4.733   1.573  10.059 -3.4535 -1.5077 -0.3305
  246MPD1    H3 3790   4.606   1.381  10.030 -0.4264  2.8570 -0.1697
  246MPD1     N 3791   0.137   1.222   9.694 -0.1818 -0.1485 -0.2776
  246MPD1    H5 3792   0.226   1.239   9.649  0.1488  3.7814  1.8652
  246MPD1    N1 3793   0.195   1.660   9.899  0.2838 -0.4593 -0.0428
  246MPD1    H6 3794   0.140   1.732   9.946  2.0852  0.6849  0.2830
  246MPD1    H7 3795   0.208   1.700   9.806 -0.8225 -1.9245 -0.8289
  247MPD1     C 3796   3.821   4.299  15.969 -0.0995 -0.6985 -0.4888
  247MPD1    C1 3797   3.690   4.343  15.968  0.3424 -1.0177 -0.1546
  247MPD1    C2 3798   3.590   4.254  15.946 -0.2471  0.5032 -0.5049
  247MPD1    C3 3799   3.623   4.121  15.929  0.0182  0.1663  0.2952
  247MPD1    C4 3800   3.756   4.078  15.925  0.0313  0.4582 -0.2954
  247MPD1    C5 3801   3.855   4.168  15.946 -0.1810  0.3939  0.8852
  247MPD1     H 3802   3.490   4.296  15.950 -1.1962 -1.8238  0.3920
  247MPD1    H1 3803   3.782   3.974  15.907  0.3891  0.4323  0.3597
  247MPD1    H2 3804   3.903   4.368  15.981  0.4848 -1.2256 -1.4140
  247MPD1    H3 3805   3.958   4.137  15.960  0.2262  1.2299 -0.2915
  247MPD1     N 3806   3.520   4.022  15.913  0.1325 -0.4001 -0.1827
  247MPD1    H5 3807   3.547   3.930  15.881  0.5474 -0.5533  0.6092
  247MPD1    N1 3808   3.657   4.483  15.964 -0.0396  0.2959 -0.0012
  247MPD1    H6 3809   3.566   4.512  15.997 -0.4487  1.5830 -2.3245
  247MPD1    H7 3810   3.728   4.540  16.010 -0.4772 -1.1533  2.4394
  248MPD1     C 3811   3.085   3.187   0.450 -0.0007  0.2930  0.4080
  248MPD1    C1 3812   3.158   3.298   0.426  0.3907 -0.2820 -0.5133
  248MPD1    C2 3813   3.099   3.391   0.339 -0.5078  0.1520  0.5314
  248MPD1    C3 3814   2.967   3.370   0.295  0.7551 -0.3086  0.4343
  248MPD1    C4 3815   2.893   3.265   0.344  0.1911  0.0100 -0.7616
  248MPD1    C5 3816   2.958   3.168   0.412  0.1087 -0.4818  0.1987
  248MPD1     H 3817   3.155   3.475   0.300  1.7081 -0.9230  1.4114
  248MPD1    H1 3818   2.795   3.248   0.300 -1.1062  0.4713  1.9730
  248MPD1    H2 3819   3.129   3.108   0.509 -2.2055 -2.3781 -1.5430
  248MPD1    H3 3820   2.914   3.069   0.419  2.2839 -1.3579  1.4912
  248MPD1     N 3821   2.912   3.463   0.203  0.3487  0.4529 -0.4364
  248MPD1    H5 3822   2.972   3.537   0.170  1.1994  0.6242  1.5071
  248MPD1    N1 3823   3.291   3.295   0.458 -0.3039 -0.6577  0.1569
  248MPD1    H6 3824   3.333   3.388   0.465  0.5309 -1.1521  1.9506
  248MPD1    H7 3825   3.315   3.238   0.539  2.2836 -0.1199 -0.2207
  249MPD1     C 3826   1.411   1.610  10.304 -0.7403  0.0005 -0.2395
  249MPD1    C1 3827   1.362   1.700  10.397  0.5556  0.1478 -0.1679
  249MPD1    C2 3828   1.413   1.830  10.394 -0.2415  0.5932  0.5038
  249MPD1    C3 3829   1.521   1.863  10.315 -0.5925  0.3397 -0.7051
  249MPD1    C4 3830   1.584   1.764  10.248 -0.4652  0.9817  0.4523
  249MPD1    C5 3831   1.534   1.635  10.252 -0.2964 -0.2666 -0.4845
  249MPD1     H 3832   1.365   1.914  10.445  1.3375  1.4391  0.5809
  249MPD1    H1 3833   1.676   1.788  10.194  0.5316 -1.6776  0.9725
  249MPD1    H2 3834   1.372   1.510  10.290  0.6507 -0.3519 -1.6358
  249MPD1    H3 3835   1.574   1.555  10.191  0.1192 -0.5128  0.1064
  249MPD1     N 3836   1.568   1.997  10.323 -0.0881 -0.1724  0.1561
  249MPD1    H5 3837   1.514   2.056  10.386 -0.7078 -0.0819 -0.4577
  249MPD1    N1 3838   1.244   1.667  10.465 -0.1827  0.1716 -0.3008
  249MPD1    H6 3839   1.214   1.572  10.485 -3.2453  1.2300  0.2251
  249MPD1    H7 3840   1.237   1.717  10.554  1.2656 -0.0700 -0.0463
  250MPD2     C 3841   2.577   1.599  13.018  0.1124  0.3403  0.6400
  250MPD2    C1 3842   2.537   1.696  12.922 -0.0241  0.1114 -0.3047
  250MPD2    C2 3843   2.450   1.649  12.825 -0.0811 -0.0708  0.4938
  250MPD2    C3 3844   2.387   1.524  12.834 -0.1071 -0.6211 -0.0600
  250MPD2    C4 3845   2.426   1.435  12.937  0.3720 -0.7460  0.2029
  250MPD2    C5 3846   2.526   1.472  13.018  0.4080 -0.7712  0.4493
  250MPD2     H 3847   2.417   1.718  12.747 -0.3452 -0.0382  0.6362
  250MPD2    H1 3848   2.385   1.335  12.944  1.4816 -1.2107 -0.0420
  250MPD2    H2 3849   2.650   1.627  13.094 -0.4435  2.5010  0.3878
  250MPD2    H3 3850   2.553   1.403  13.097  2.1418  0.8579  1.2582
  250MPD2     N 3851   2.286   1.476  12.746  0.3624 -0.3875 -0.1753
  250MPD2    H5 3852   2.246   1.386  12.771  0.4719 -0.0326  1.2640
  250MPD2    N1 3853   2.594   1.827  12.925  0.4580 -0.3263  0.1334
  250MPD2    H7 3854   2.676   1.837  12.984 -0.0246 -1.1389  0.9445
  251TMC3    C1 3855   2.619   2.051  12.872  0.6457  0.1774 -0.0781
  251TMC3    C2 3856   2.539   2.167  12.861 -0.9299 -0.7804 -0.1902
  251TMC3    C3 3857   2.590   2.282  12.916 -0.1325 -0.8093 -0.6445
  251TMC3    C4 3858   2.737   2.042  12.932  0.3196 -0.1290  0.1910
  251TMC3    C5 3859   2.795   2.161  12.973 -0.2716 -0.5035 -0.1595
  251TMC3    C6 3860   2.722   2.280  12.964 -0.1247  0.4360 -0.1708
  251TMC3     C 3861   2.540   1.933  12.856 -0.4431 -0.1711  0.3836
  251TMC3     O 3862   2.440   1.942  12.788  0.3463 -0.0057 -0.1021
  251TMC3     H 3863   2.436   2.160  12.830 -0.5953  0.5672 -1.6077
  251TMC3    H1 3864   2.795   1.951  12.919 -2.2868 -1.8845  0.9292
  251TMC3    H2 3865   2.767   2.367  13.010  2.8243 -1.3075  0.1997
  251TMC3    C7 3866   2.931   2.156  13.018  0.7477 -0.3890 -0.2069
  251TMC3    C8 3867   2.499   2.376  12.965  0.2350  0.5648  0.5128
  251TMC3    O1 3868   2.989   2.045  13.010  0.2234  0.0551  0.1787
  251TMC3    O2 3869   2.387   2.332  12.992 -0.4903  0.1085 -0.1671
  252TMC3    C1 3870   2.022   3.792  10.088 -0.4273  0.5490  0.3114
  252TMC3    C2 3871   2.090   3.720   9.992  1.2102 -0.0762 -0.2374
  252TMC3    C3 3872   2.021   3.623   9.929  0.9526 -0.9232 -0.2299
  252TMC3    C4 3873   1.899   3.759  10.135 -0.2407  0.0981 -0.1671
  252TMC3    C5 3874   1.838   3.653  10.078 -0.7873  0.2842  0.2802
  252TMC3    C6 3875   1.891   3.586   9.967 -0.6973 -0.1323  0.2046
  252TMC3     C 3876   2.074   3.917  10.121  0.1677 -0.0035 -0.4208
  252TMC3     O 3877   2.149   3.958  10.035  0.1068  0.0286  0.0694
  252TMC3     H 3878   2.184   3.754   9.952  1.1524 -0.1008 -0.3925
  252TMC3    H1 3879   1.856   3.813  10.219  1.4446 -1.1427  1.4940
  252TMC3    H2 3880   1.836   3.505   9.921  1.8493  0.1749 -3.3715
  252TMC3    C7 3881   1.734   3.598  10.153 -0.4261 -0.0719 -0.2647
  252TMC3    C8 3882   2.099   3.545   9.834  0.2102  0.2758 -0.0883
  252TMC3    O1 3883   1.666   3.664  10.230  0.5290 -0.2702 -0.3564
  252TMC3    O2 3884   2.056   3.511   9.723  0.0734 -0.5577  0.5939
  253MPD2     C 3885   3.454   2.157  15.342  0.0301 -0.1098 -0.0353
  253MPD2    C1 3886   3.317   2.171  15.362  0.3521 -0.5751 -0.3398
  253MPD2    C2 3887   3.266   2.200  15.485 -0.0558  0.5936  0.2386
  253MPD2    C3 3888   3.353   2.232  15.586 -0.0480 -0.0572 -0.4920
  253MPD2    C4 3889   3.491   2.217  15.570  0.2065  0.1598  0.1779
  253MPD2    C5 3890   3.540   2.171  15.451  0.3291 -0.1887 -0.1553
  253MPD2     H 3891   3.160   2.193  15.503 -0.1514 -2.6814 -1.6420
  253MPD2    H1 3892   3.563   2.226  15.651  1.5775  3.3253 -1.4024
  253MPD2    H2 3893   3.500   2.127  15.249 -0.9056 -0.1024 -0.5088
  253MPD2    H3 3894   3.646   2.148  15.449  0.0476 -1.5023 -0.2107
  253MPD2     N 3895   3.306   2.272  15.713  0.2064 -0.1637 -0.4180
  253MPD2    H5 3896   3.381   2.284  15.780  1.0270 -0.1593 -1.3315
  253MPD2    N1 3897   3.226   2.154  15.253  0.0106  0.6024 -0.0788
  253MPD2    H7 3898   3.126   2.168  15.262  0.1702  0.5591  1.6921
  254TMC3    C1 3899   3.174   2.382  15.870  0.3391  0.0430  0.0852
  254TMC3    C2 3900   3.071   2.466  15.890 -0.9102  0.5899 -0.6913
  254TMC3    C3 3901   3.033   2.492  16.020  0.3468 -0.2070  0.2946
  254TMC3    C4 3902   3.262   2.338  15.973  0.2152  0.0204 -0.5755
  254TMC3    C5 3903   3.217   2.373  16.098  0.1401 -0.3436 -0.3460
  254TMC3    C6 3904   3.101   2.442  16.127 -0.3313  0.6728  0.0051
  254TMC3     C 3905   3.186   2.327  15.741 -0.0317  0.1725 -0.7079
  254TMC3     O 3906   3.091   2.334  15.664  0.2275  0.3888  0.5934
  254TMC3     H 3907   2.992   2.479  15.817 -0.5747  3.1426 -0.6103
  254TMC3    H1 3908   3.334   2.258  15.965  0.8856  0.6961 -1.3143
  254TMC3    H2 3909   3.076   2.455  16.231 -0.4798  0.4884 -0.0077
  254TMC3    C7 3910   3.235   2.265  16.194  0.5771 -0.1100  0.2985
  254TMC3    C8 3911   2.894   2.545  16.049  0.2555 -0.0357 -0.2215
  254TMC3    O1 3912   3.129   2.227  16.244 -0.1013 -0.1217 -0.3602
  254TMC3    O2 3913   2.854   2.532  16.167 -0.5753  0.0856 -0.2338
  255MPD2     C 3914   1.222   4.248  10.492 -0.3576  0.7137 -0.8772
  255MPD2    C1 3915   1.253   4.373  10.458 -0.2272 -0.6882  0.1696
  255MPD2    C2 3916   1.370   4.391  10.374 -0.0018  0.5359 -0.2729
  255MPD2    C3 3917   1.453   4.293  10.340 -0.6456  0.0347  0.3227
  255MPD2    C4 3918   1.425   4.170  10.393 -0.2353 -0.3070 -0.0382
  255MPD2    C5 3919   1.313   4.148  10.467 -0.0306  0.0504 -0.3400
  255MPD2     H 3920   1.389   4.491  10.335 -2.4375  0.7430 -0.8969
  255MPD2    H1 3921   1.484   4.080  10.384  0.2905  0.2192 -1.8858
  255MPD2    H2 3922   1.143   4.212  10.557  0.8032 -0.2197  0.0114
  255MPD2    H3 3923   1.283   4.047  10.490 -1.0242  0.7631  1.4832
  255MPD2     N 3924   1.563   4.318  10.259 -0.0729 -0.4809 -0.1189
  255MPD2    H5 3925   1.593   4.411  10.231  2.3454 -1.1795  0.1170
  255MPD2    N1 3926   1.156   4.480  10.490  0.1770  0.1023 -0.7571
  255MPD2    H7 3927   1.070   4.460  10.539  0.3882 -0.1066 -0.4708
  256TMC3    C1 3928   1.053   4.689  10.477  0.0596  0.5715 -0.3458
  256TMC3    C2 3929   1.063   0.087  10.460  0.3450 -0.1135  0.0251
  256TMC3    C3 3930   0.959   0.159  10.415  0.3483 -0.5603  0.4951
  256TMC3    C4 3931   0.933   4.631  10.457 -0.3944 -0.3302 -0.0834
  256TMC3    C5 3932   0.825   4.700  10.416  0.3805 -0.0329 -0.5263
  256TMC3    C6 3933   0.837   0.103  10.382 -0.0816  0.3410 -0.2267
  256TMC3     C 3934   1.172   4.609  10.451  0.2639  0.0791  1.0064
  256TMC3     O 3935   1.255   4.668  10.383 -0.2223  0.0060 -0.2184
  256TMC3     H 3936   1.150   0.142  10.496 -1.2300  0.7446  2.4961
  256TMC3    H1 3937   0.926   4.524  10.445  0.9817 -0.3498 -0.7883
  256TMC3    H2 3938   0.751   0.162  10.351 -0.5501  0.1917  0.7998
  256TMC3    C7 3939   0.713   4.618  10.380 -0.1823  0.4958  0.3531
  256TMC3    C8 3940   0.991   0.282  10.341  0.0793  0.3415 -0.3804
  256TMC3    O1 3941   0.684   4.519  10.449 -0.3550  0.1833 -0.2618
  256TMC3    O2 3942   0.896   0.352  10.308  0.2124  0.7207 -0.5318
  257MPD2     C 3943   0.925   1.946  13.047  0.2119  0.6248  0.3058
  257MPD2    C1 3944   1.065   1.949  13.042  0.1146 -0.1712 -0.3873
  257MPD2    C2 3945   1.129   1.850  13.105  0.5933  0.3712  0.3104
  257MPD2    C3 3946   1.070   1.762  13.194  0.7812  0.3789  0.0813
  257MPD2    C4 3947   0.934   1.770  13.201 -0.2099 -0.1508 -0.2114
  257MPD2    C5 3948   0.865   1.841  13.112  0.1332  0.5577  0.1355
  257MPD2     H 3949   1.236   1.829  13.100  0.5543  0.4113 -0.7268
  257MPD2    H1 3950   0.875   1.709  13.268 -0.4897  1.1227  0.7180
  257MPD2    H2 3951   0.861   2.017  12.996 -0.6473  0.6628  1.4341
  257MPD2    H3 3952   0.757   1.842  13.124  0.2510  1.0031  1.1445
  257MPD2     N 3953   1.146   1.666  13.265 -0.1068  0.2050  0.6033
  257MPD2    H5 3954   1.246   1.660  13.247 -0.3863 -1.9728 -0.2665
  257MPD2    N1 3955   1.126   2.035  12.943  0.1514 -0.1835  0.1948
  257MPD2    H7 3956   1.057   2.082  12.886 -0.5389 -1.5259 -0.0779
  258TMC3    C1 3957   1.202   1.498  13.427 -0.4880  0.6699  0.5585
  258TMC3    C2 3958   1.315   1.466  13.355 -0.3379  0.5456  0.0658
  258TMC3    C3 3959   1.411   1.392  13.421  0.5115 -0.1651  0.5240
  258TMC3    C4 3960   1.167   1.439  13.546 -0.3278  0.1041 -0.1123
  258TMC3    C5 3961   1.276   1.374  13.606 -0.1248 -0.2548  1.0160
  258TMC3    C6 3962   1.393   1.357  13.548 -0.1548  0.7096 -0.3422
  258TMC3     C 3963   1.102   1.585  13.367  0.1015 -0.3597  0.8073
  258TMC3     O 3964   0.991   1.571  13.414 -0.0881 -0.3587  0.4211
  258TMC3     H 3965   1.324   1.491  13.250 -0.0510 -2.2298 -0.5615
  258TMC3    H1 3966   1.073   1.455  13.596 -0.8520  1.5565 -1.5299
  258TMC3    H2 3967   1.450   1.280  13.598 -1.6111  0.4496  0.9044
  258TMC3    C7 3968   1.263   1.356  13.753  0.5902  0.8502  0.4878
  258TMC3    C8 3969   1.493   1.308  13.334 -0.6476 -0.0288 -0.4137
  258TMC3    O1 3970   1.148   1.349  13.796 -0.5904  0.7470 -0.0829
  258TMC3    O2 3971   1.482   1.322  13.212  0.1816 -0.1755 -0.2939
  259MPD2     C 3972   4.714   3.808   0.505  0.0386 -0.3191  0.1977
  259MPD2    C1 3973   4.638   3.697   0.470 -0.0361  0.1557 -0.5267
  259MPD2    C2 3974   4.554   3.705   0.358  0.4752  0.1571  0.0948
  259MPD2    C3 3975   4.547   3.824   0.282  0.4832 -0.3664 -0.0396
  259MPD2    C4 3976   4.628   3.928   0.315  0.5594 -0.0930  0.0468
  259MPD2    C5 3977   4.715   3.918   0.419  0.3629 -0.2617  0.1357
  259MPD2     H 3978   4.487   3.627   0.324 -1.2818 -0.1447  4.3363
  259MPD2    H1 3979   4.637   4.024   0.264  0.6572 -0.4544 -0.6154
  259MPD2    H2 3980   0.046   3.807   0.590  2.5270 -0.9373 -1.7510
  259MPD2    H3 3981   0.044   4.006   0.431  1.3868 -0.7121 -2.0215
  259MPD2     N 3982   4.454   3.830   0.169  0.2413 -0.3281  0.1075
  259MPD2    H5 3983   4.409   3.741   0.150  0.7631 -0.3726 -0.9138
  259MPD2    N1 3984   4.647   3.574   0.548 -0.3890  0.8086 -0.1767
  259MPD2    H7 3985   4.720   3.581   0.618 -1.8824 -2.9147  1.7069
  260TMC3    C1 3986   4.322   3.912  17.735  0.1394 -0.8469 -0.3102
  260TMC3    C2 3987   4.348   3.972  17.616 -0.0185 -0.6290  0.2547
  260TMC3    C3 3988   4.309   3.911  17.499 -0.4863  0.3576 -0.1658
  260TMC3    C4 3989   4.244   3.796   0.002  0.1475 -0.1437 -0.6904
  260TMC3    C5 3990   4.187   3.751  17.622 -0.3182 -0.7444  0.2192
  260TMC3    C6 3991   4.227   3.805  17.503 -0.1193 -0.5021 -0.3504
  260TMC3     C 3992   4.416   3.939   0.105  0.4573  0.0053 -0.3156
  260TMC3     O 3993   4.438   4.057   0.120 -0.0630 -0.3106 -0.2687
  260TMC3     H 3994   4.430   4.043  17.611  0.3439 -1.0039  0.9217
  260TMC3    H1 3995   4.245   3.733   0.090  1.5886  0.3033 -0.3834
  260TMC3    H2 3996   4.174   3.766  17.417  0.6927  0.1437 -1.1319
  260TMC3    C7 3997   4.155   3.608  17.608 -0.1990  0.6224  0.8689
  260TMC3    C8 3998   4.417   3.897  17.403 -0.2605 -0.0568 -0.0278
  260TMC3    O1 3999   4.159   3.561  17.497 -0.4712  0.0236  0.0393
  260TMC3    O2 4000   4.502   3.983  17.391 -0.1825  0.1438 -0.7400
  261MPD2     C 4001   2.208   1.345  11.940  0.4416  0.1452  0.1465
  261MPD2    C1 4002   2.176   1.456  12.012 -0.6125  0.0258 -0.6419
  261MPD2    C2 4003   2.172   1.576  11.955 -0.3088 -0.0096 -0.3519
  261MPD2    C3 4004   2.187   1.585  11.815 -0.0000 -0.6910 -0.3004
  261MPD2    C4 4005   2.215   1.473  11.743  0.7442  0.0839  0.6350
  261MPD2    C5 4006   2.229   1.361  11.808 -0.6439  0.2886  0.3836
  261MPD2     H 4007   2.154   1.669  12.007  0.9357 -0.8547  1.5964
  261MPD2    H1 4008   2.227   1.456  11.637  1.5384  1.0479  0.5708
  261MPD2    H2 4009   2.212   1.243  11.978  1.2479  0.8049  1.7730
  261MPD2    H3 4010   2.234   1.270  11.749  2.5082 -0.4777  1.8337
  261MPD2     N 4011   2.186   1.708  11.748 -0.1372  0.6112 -0.0325
  261MPD2    H5 4012   2.190   1.798  11.794  1.3691  0.8029 -0.5255
  261MPD2    N1 4013   2.137   1.445  12.149 -0.0394 -0.7106  0.5957
  261MPD2    H7 4014   2.108   1.532  12.194  0.5522 -0.0644 -0.2711
  262TMC3    C1 4015   2.178   1.857  11.560 -0.3299 -0.5230  0.4216
  262TMC3    C2 4016   2.192   1.963  11.652 -0.0945  0.1033 -0.0373
  262TMC3    C3 4017   2.197   2.091  11.596 -0.3777  0.5211  0.2902
  262TMC3    C4 4018   2.155   1.874  11.428  0.6675 -0.0827 -0.2795
  262TMC3    C5 4019   2.151   2.004  11.384 -0.3247 -0.2343  0.2107
  262TMC3    C6 4020   2.164   2.104  11.468  0.1631  0.4691  0.1173
  262TMC3     C 4021   2.182   1.717  11.607 -0.4794  0.9514 -0.3667
  262TMC3     O 4022   2.149   1.629  11.530  0.0972  0.2417 -0.3792
  262TMC3     H 4023   2.196   1.956  11.760 -0.1560  0.6542  0.0001
  262TMC3    H1 4024   2.162   1.788  11.363  1.7940 -0.9358  0.9644
  262TMC3    H2 4025   2.153   2.207  11.435  1.3259  1.0370  1.5128
  262TMC3    C7 4026   2.161   2.024  11.237  0.3389 -0.1548 -0.3408
  262TMC3    C8 4027   2.156   2.198  11.688  0.2464  0.1827 -0.5426
  262TMC3    O1 4028   2.146   1.924  11.168 -0.2939 -0.0530 -0.0931
  262TMC3    O2 4029   2.083   2.278  11.632 -0.2280  0.4548 -0.3390
  263MPD2     C 4030   2.596   1.036  11.048  0.0376  0.1421  0.1036
  263MPD2    C1 4031   2.666   1.113  11.138  0.1563 -1.1119  0.2205
  263MPD2    C2 4032   2.711   1.241  11.102  0.1155  0.6304  0.3083
  263MPD2    C3 4033   2.699   1.285  10.972  0.1098  0.6605 -0.7890
  263MPD2    C4 4034   2.624   1.207  10.883  0.0835  0.3930  0.1399
  263MPD2    C5 4035   2.581   1.086  10.925  0.4538  0.5957  0.0466
  263MPD2     H 4036   2.752   1.309  11.176 -0.4907 -0.0492  1.2700
  263MPD2    H1 4037   2.614   1.228  10.777 -1.0760 -0.9735 -0.0186
  263MPD2    H2 4038   2.558   0.938  11.074 -0.8835  0.7016  0.8846
  263MPD2    H3 4039   2.525   1.024  10.855  0.3205 -0.2840  0.9318
  263MPD2     N 4040   2.751   1.407  10.931 -0.0073 -0.3386  0.4208
  263MPD2    H5 4041   2.822   1.451  10.990  0.2244  2.1493 -1.6978
  263MPD2    N1 4042   2.694   1.058  11.267 -0.3520  0.1778  0.0462
  263MPD2    H7 4043   2.658   0.967  11.293 -0.3026  0.1534  0.0301
  264TMC3    C1 4044   2.791   1.588  10.790 -0.0291  0.4694  0.0684
  264TMC3    C2 4045   2.843   1.654  10.892  0.3548  0.0397  0.1821
  264TMC3    C3 4046   2.934   1.746  10.865 -0.9316 -0.3761  0.4049
  264TMC3    C4 4047   2.837   1.610  10.662 -0.2832  0.0803  0.4745
  264TMC3    C5 4048   2.926   1.707  10.635  0.4903  0.6180  0.7892
  264TMC3    C6 4049   2.979   1.780  10.739  0.1519  0.8730  0.0568
  264TMC3     C 4050   2.726   1.467  10.813 -0.1301  0.2771 -0.4193
  264TMC3     O 4051   2.648   1.435  10.726 -0.9094 -0.3850  0.1610
  264TMC3     H 4052   2.785   1.643  10.983 -2.2668  1.9272 -1.2548
  264TMC3    H1 4053   2.801   1.547  10.582 -1.5533  2.0734 -0.5202
  264TMC3    H2 4054   3.048   1.860  10.716  1.3283 -0.6900 -1.8263
  264TMC3    C7 4055   2.995   1.722  10.509  0.1754 -0.0139 -0.0714
  264TMC3    C8 4056   2.977   1.847  10.966  0.1665  0.9681 -0.2297
  264TMC3    O1 4057   3.072   1.811  10.483  0.0561  0.5519 -0.3049
  264TMC3    O2 4058   3.039   1.941  10.918 -0.0861  0.5373  0.1990
  265MPD2     C 4059   0.036   1.636  15.443  0.0223 -0.1727 -0.2410
  265MPD2    C1 4060   0.021   1.742  15.357  0.0606 -0.4844 -0.2654
  265MPD2    C2 4061   0.043   1.724  15.223 -0.5355 -0.4777  0.6725
  265MPD2    C3 4062   0.097   1.603  15.180 -0.4918 -0.1272 -0.5689
  265MPD2    C4 4063   0.128   1.505  15.278 -0.4295  0.0968  0.1919
  265MPD2    C5 4064   0.094   1.518  15.409  0.0793  0.3353  0.3659
  265MPD2     H 4065   0.032   1.812  15.160  2.5865 -0.2006  0.5182
  265MPD2    H1 4066   0.171   1.408  15.259 -2.0375 -0.9291  1.7117
  265MPD2    H2 4067   4.723   1.637  15.540 -2.6633 -0.2063 -1.5481
  265MPD2    H3 4068   0.107   1.439  15.482  0.0390  0.1711  0.1971
  265MPD2     N 4069   0.106   1.566  15.042 -0.2130 -0.2169  0.4110
  265MPD2    H5 4070   0.133   1.472  15.016  1.5405  0.4886 -0.2810
  265MPD2    N1 4071   4.680   1.857  15.388  0.3033  0.4906 -0.0983
  265MPD2    H7 4072   4.666   1.921  15.310 -0.7532  1.5329  0.9514
  266TMC3    C1 4073   4.633   2.051  15.509 -0.4330  0.3207  1.0146
  266TMC3    C2 4074   4.667   2.137  15.612  0.3746  0.0923 -0.3191
  266TMC3    C3 4075   4.593   2.258  15.625  0.3947  0.2689  0.0256
  266TMC3    C4 4076   4.535   2.082  15.416  0.0688  0.1913  0.6269
  266TMC3    C5 4077   4.469   2.203  15.427 -0.5192  0.0807  0.4794
  266TMC3    C6 4078   4.500   2.291  15.528  0.0041 -0.3192 -0.3028
  266TMC3     C 4079   4.669   1.910  15.511  0.2834 -0.3886  0.2399
  266TMC3     O 4080   4.699   1.867  15.622  0.2587 -0.6988 -0.1681
  266TMC3     H 4081   4.731   2.109  15.694 -0.3963  2.0480  0.9612
  266TMC3    H1 4082   4.498   2.012  15.342 -0.4498  0.2939  0.7884
  266TMC3    H2 4083   4.456   2.390  15.528 -1.1143 -0.8069 -0.5728
  266TMC3    C7 4084   4.337   2.217  15.363  0.4931 -0.2540  0.0842
  266TMC3    C8 4085   4.644   2.354  15.723 -0.7116  0.4552  0.1982
  266TMC3    O1 4086   4.317   2.133  15.276  0.3931 -0.0752  0.1507
  266TMC3    O2 4087   0.012   2.325  15.784  0.2710  0.3678 -0.2040
  267MPD2     C 4088   1.042   4.194   0.232  0.4210  0.2268  0.0824
  267MPD2    C1 4089   1.170   4.188   0.189 -0.2214 -0.5010 -0.2316
  267MPD2    C2 4090   1.197   4.155   0.060 -0.4633  0.7974  0.2095
  267MPD2    C3 4091   1.098   4.143  17.710  0.6122  0.1467 -0.1927
  267MPD2    C4 4092   0.966   4.156   0.013  0.1111 -0.0083  0.7410
  267MPD2    C5 4093   0.935   4.178   0.145  0.8542 -0.4011 -0.2799
  267MPD2     H 4094   1.297   4.136   0.024 -0.8883 -0.9600 -0.0429
  267MPD2    H1 4095   0.886   4.151  17.678 -0.3020  2.1744  1.0347
  267MPD2    H2 4096   1.017   4.209   0.337 -0.2706  0.4087 -0.1098
  267MPD2    H3 4097   0.830   4.181   0.173  0.2736 -3.2931 -2.2227
  267MPD2     N 4098   1.124   4.123  17.572 -0.2748 -0.0916  0.0588
  267MPD2    H5 4099   1.050   4.155  17.511  0.7011  0.4561 -0.8410
  267MPD2    N1 4100   1.271   4.195   0.285 -0.1803 -1.1767 -0.7262
  267MPD2    H7 4101   1.246   4.184   0.382  2.5032 -0.4902  0.0405
  268TMC3    C1 4102   1.487   4.212   0.380  0.3391  0.4137 -0.9725
  268TMC3    C2 4103   1.607   4.263   0.352  0.2512 -0.3218  0.8714
  268TMC3    C3 4104   1.698   4.246   0.449 -0.2258  0.7163 -0.2207
  268TMC3    C4 4105   1.451   4.135   0.487 -0.0233 -0.2691 -0.1259
  268TMC3    C5 4106   1.548   4.123   0.581  0.1935 -0.0319 -0.3460
  268TMC3    C6 4107   1.669   4.173   0.565  0.1254  0.0055  0.3902
  268TMC3     C 4108   1.405   4.213   0.262  0.6883 -0.3851 -0.3153
  268TMC3     O 4109   1.456   4.233   0.156  0.0210 -0.4645 -0.0767
  268TMC3     H 4110   1.632   4.311   0.258 -0.3415  0.9222  1.3591
  268TMC3    H1 4111   1.354   4.087   0.490 -0.0856 -0.3048 -2.7059
  268TMC3    H2 4112   1.747   4.162   0.640 -1.5221  0.6290  2.1897
  268TMC3    C7 4113   1.533   4.012   0.677 -0.7350  0.4870 -0.6616
  268TMC3    C8 4114   1.832   4.227   0.417 -0.0917 -0.9555 -0.5455
  268TMC3    O1 4115   1.482   3.908   0.638  0.1499  0.3921  0.3731
  268TMC3    O2 4116   1.909   4.206   0.507  0.2503  0.4232  0.7647
  269MPD2     C 4117   2.934   2.755  15.388 -0.8916 -0.0885 -0.1442
  269MPD2    C1 4118   2.807   2.752  15.439  0.6899  0.2790 -0.0516
  269MPD2    C2 4119   2.738   2.874  15.440  0.3395 -0.0020  0.6764
  269MPD2    C3 4120   2.777   2.986  15.373 -0.8837  0.4916 -0.3174
  269MPD2    C4 4121   2.904   2.982  15.318  0.4550 -0.1065 -0.0039
  269MPD2    C5 4122   2.984   2.865  15.326 -0.1114  0.1641 -0.0479
  269MPD2     H 4123   2.643   2.883  15.492  0.6819 -1.7344  1.6294
  269MPD2    H1 4124   2.955   3.061  15.266 -1.8772  2.0979  1.0474
  269MPD2    H2 4125   2.998   2.667  15.383  0.6858  1.0133  0.4656
  269MPD2    H3 4126   3.085   2.866  15.286  0.5326 -1.0677  1.5550
  269MPD2     N 4127   2.702   3.105  15.370  0.1599 -0.0727 -0.0559
  269MPD2    H5 4128   2.616   3.102  15.424  0.4391  2.9649  0.5750
  269MPD2    N1 4129   2.752   2.633  15.481 -0.0342 -0.2830  0.0411
  269MPD2    H7 4130   2.809   2.549  15.479  0.1631 -0.1385 -0.3188
  270TMC3    C1 4131   2.614   2.484  15.595 -0.0749 -0.1094  0.4949
  270TMC3    C2 4132   2.500   2.491  15.671  0.0053 -0.2191 -0.0186
  270TMC3    C3 4133   2.490   2.421  15.800 -0.8289  1.1781  0.5257
  270TMC3    C4 4134   2.725   2.416  15.642 -0.3696  0.5333 -0.5817
  270TMC3    C5 4135   2.709   2.339  15.750  0.3836 -0.2646 -0.5009
  270TMC3    C6 4136   2.598   2.343  15.830  0.2501  0.1174 -0.2026
  270TMC3     C 4137   2.629   2.610  15.519  0.8998  0.3874  0.2133
  270TMC3     O 4138   2.530   2.680  15.511  0.1795  0.3315 -0.3170
  270TMC3     H 4139   2.404   2.527  15.638 -0.6528  0.7782  2.9983
  270TMC3    H1 4140   2.819   2.427  15.590  0.4375 -0.1389  0.7372
  270TMC3    H2 4141   2.602   2.295  15.927 -1.6478  0.9708  0.2939
  270TMC3    C7 4142   2.772   2.209  15.763  0.7212 -0.2967 -0.3255
  270TMC3    C8 4143   2.368   2.353  15.828 -0.9297 -0.1878 -0.0563
  270TMC3    O1 4144   2.762   2.135  15.861  0.5911 -0.0763  0.4112
  270TMC3    O2 4145   2.257   2.407  15.814  0.4336  0.0410 -0.1437
  271MPD2     C 4146   1.817   2.108  13.873  0.4760  0.1650 -0.1273
  271MPD2    C1 4147   1.732   2.079  13.981 -0.0000 -0.2551  1.1086
  271MPD2    C2 4148   1.595   2.099  13.964  0.2035 -0.6591  0.3581
  271MPD2    C3 4149   1.537   2.136  13.843  0.5591 -1.1577 -0.1430
  271MPD2    C4 4150   1.621   2.153  13.741 -0.4876  0.2375  0.3540
  271MPD2    C5 4151   1.753   2.148  13.754 -0.2050 -0.0780  0.6145
  271MPD2     H 4152   1.534   2.078  14.051  0.3700  0.5653  0.7726
  271MPD2    H1 4153   1.583   2.182  13.644 -1.7379 -0.6305  0.5887
  271MPD2    H2 4154   1.924   2.100  13.860  0.6537  0.0294  1.4388
  271MPD2    H3 4155   1.798   2.172  13.658  0.0345  1.3696  1.0834
  271MPD2     N 4156   1.405   2.159  13.827  0.0274 -0.4738 -0.2567
  271MPD2    H5 4157   1.372   2.188  13.735 -2.0388 -0.2057  0.5474
  271MPD2    N1 4158   1.780   2.041  14.110  0.1852 -0.3291 -0.3868
  271MPD2    H7 4159   1.720   2.014  14.188  2.0592  1.4615  1.6775
  272TMC3    C1 4160   1.944   1.973  14.276 -0.7263 -0.4380  0.8180
  272TMC3    C2 4161   2.074   1.943  14.308 -0.3317 -1.0688  0.3805
  272TMC3    C3 4162   2.125   1.914  14.431  0.1790 -0.2055 -0.1511
  272TMC3    C4 4163   1.849   1.960  14.378 -0.1827  0.1330 -0.1962
  272TMC3    C5 4164   1.906   1.949  14.505 -0.2886  0.5707 -0.2698
  272TMC3    C6 4165   2.034   1.930  14.532  0.0435  0.1169  0.2441
  272TMC3     C 4166   1.912   2.022  14.138 -0.2630  0.3260 -0.3213
  272TMC3     O 4167   2.009   2.030  14.065  0.2232 -0.1331 -0.3182
  272TMC3     H 4168   2.149   1.925  14.231  1.2806  2.8792  1.0133
  272TMC3    H1 4169   1.743   1.980  14.369 -0.5854 -1.4512  1.1716
  272TMC3    H2 4170   2.063   1.898  14.631 -2.1882 -1.8689  0.2622
  272TMC3    C7 4171   1.814   1.956  14.615 -0.3037 -0.4633 -0.1830
  272TMC3    C8 4172   2.265   1.880  14.457  0.1795  0.6851 -0.1677
  272TMC3    O1 4173   1.726   1.870  14.612 -0.0425 -0.2622 -0.6736
  272TMC3    O2 4174   2.341   1.926  14.369 -0.1655 -0.6433 -0.3078
  273MPD2     C 4175   2.836   4.108  11.872  0.3658  0.0825  0.2265
  273MPD2    C1 4176   2.870   4.241  11.899 -0.4917 -0.1921  0.2987
  273MPD2    C2 4177   2.838   4.339  11.802  0.2931  0.0982 -0.1384
  273MPD2    C3 4178   2.768   4.303  11.687  0.0334 -0.1916 -0.6408
  273MPD2    C4 4179   2.724   4.171  11.680  0.7192  0.2065  0.3571
  273MPD2    C5 4180   2.761   4.076  11.766  0.5855 -0.5744  0.3767
  273MPD2     H 4181   2.864   4.443  11.818 -0.9795 -0.0094  2.5877
  273MPD2    H1 4182   2.672   4.137  11.591  1.2736 -1.9156  0.8456
  273MPD2    H2 4183   2.864   4.031  11.944 -0.2322 -0.8604 -0.5497
  273MPD2    H3 4184   2.735   3.975  11.739 -0.2349 -0.2272 -0.1047
  273MPD2     N 4185   2.748   4.384  11.574 -0.2334 -0.1194 -0.0279
  273MPD2    H5 4186   2.696   4.337  11.501 -2.6753  0.6153  1.2685
  273MPD2    N1 4187   2.938   4.269  12.017  0.8980 -0.1054 -0.2229
  273MPD2    H7 4188   2.951   4.190  12.080  1.1150 -0.4853 -0.7378
  274TMC3    C1 4189   2.754   4.563  11.419 -0.0619 -0.0943  0.2614
  274TMC3    C2 4190   2.661   4.495  11.346 -0.0107  0.2355 -0.0597
  274TMC3    C3 4191   2.634   4.528  11.214  0.1338 -0.1314 -0.3690
  274TMC3    C4 4192   2.815   4.672  11.365 -0.7847 -0.0815 -0.3784
  274TMC3    C5 4193   2.799   4.692  11.236 -0.1646  0.1315 -0.0439
  274TMC3    C6 4194   2.715   4.621  11.153  0.0833  0.2501 -0.7237
  274TMC3     C 4195   2.787   4.514  11.546  0.0462 -0.0926 -0.5284
  274TMC3     O 4196   2.855   4.584  11.620  0.0287 -0.3536  0.2729
  274TMC3     H 4197   2.599   4.418  11.391 -2.0137  2.0426  0.2900
  274TMC3    H1 4198   2.890   4.732  11.414 -0.8117 -0.8160  0.5623
  274TMC3    H2 4199   2.699   4.649  11.049 -0.0237 -1.5194 -1.1968
  274TMC3    C7 4200   2.868   0.067  11.171  0.9617  0.4320  0.0675
  274TMC3    C8 4201   2.513   4.491  11.141  0.9125 -0.7707 -0.4942
  274TMC3    O1 4202   2.921   0.044  11.064  0.8279 -0.1566  0.0397
  274TMC3    O2 4203   2.459   4.385  11.161  0.1665  0.1743  0.3847
  275MPD2     C 4204   3.317   2.523  14.404  0.0712 -0.2314 -1.0362
  275MPD2    C1 4205   3.212   2.614  14.423  0.8130 -0.7908 -0.0678
  275MPD2    C2 4206   3.083   2.569  14.459 -0.0480 -0.1410  0.4310
  275MPD2    C3 4207   3.068   2.430  14.482 -0.2798 -0.2501  0.2294
  275MPD2    C4 4208   3.172   2.344  14.472  0.1159  0.0648 -0.1739
  275MPD2    C5 4209   3.295   2.387  14.435  0.1782 -0.5232 -0.2007
  275MPD2     H 4210   3.000   2.632  14.489 -0.8506 -1.3009  0.6298
  275MPD2    H1 4211   3.164   2.239  14.498  1.1957 -0.2639 -1.2138
  275MPD2    H2 4212   3.421   2.550  14.389  0.7753 -1.7656  1.1161
  275MPD2    H3 4213   3.384   2.325  14.434 -0.8268 -1.9761  0.0495
  275MPD2     N 4214   2.944   2.378  14.531 -0.3050 -1.1046 -0.1320
  275MPD2    H5 4215   2.940   2.277  14.543 -1.8684 -0.9101  0.9183
  275MPD2    N1 4216   3.243   2.753  14.426  0.3246  0.0895 -0.2089
  275MPD2    H7 4217   3.166   2.818  14.420  0.3663  0.0594 -1.1238
  276TMC3    C1 4218   3.349   2.952  14.499  0.0775  0.1590 -0.0062
  276TMC3    C2 4219   3.230   2.997  14.548 -0.2384 -0.5538  0.9967
  276TMC3    C3 4220   3.232   3.111  14.629 -0.4108  0.1557 -0.1354
  276TMC3    C4 4221   3.465   3.027  14.523  0.4707 -0.1635 -1.4812
  276TMC3    C5 4222   3.466   3.152  14.593  0.3498  0.1479  0.3859
  276TMC3    C6 4223   3.344   3.193  14.644  0.9434 -0.1136 -0.2320
  276TMC3     C 4224   3.366   2.817  14.451  0.3809  0.2223  0.4083
  276TMC3     O 4225   3.483   2.777  14.448  0.2319 -0.1197  0.3962
  276TMC3     H 4226   3.140   2.939  14.534  1.2135 -2.6350  0.2585
  276TMC3    H1 4227   3.555   2.991  14.476 -0.5938 -0.8175 -2.9897
  276TMC3    H2 4228   3.330   3.265  14.723 -0.9079 -0.9100  0.1806
  276TMC3    C7 4229   3.589   3.214  14.651  0.1862 -0.5075  0.6892
  276TMC3    C8 4230   3.138   3.107  14.735 -0.4679  0.1266 -0.3958
  276TMC3    O1 4231   3.576   3.261  14.763 -0.6259 -0.2446 -0.1908
  276TMC3    O2 4232   3.095   3.208  14.788 -0.0409 -0.1966 -0.2973
  277MPD2     C 4233   0.495   2.169  12.921  0.5305  0.2257 -0.0077
  277MPD2    C1 4234   0.370   2.216  12.972 -0.5132  0.0629  0.5792
  277MPD2    C2 4235   0.307   2.134  13.068 -0.4503  0.2397 -0.7895
  277MPD2    C3 4236   0.370   2.019  13.124  0.1401  0.4308 -0.2783
  277MPD2    C4 4237   0.487   1.974  13.066 -0.1891  0.0196  0.1185
  277MPD2    C5 4238   0.547   2.048  12.965 -0.1222 -0.1989 -0.7320
  277MPD2     H 4239   0.202   2.144  13.096  0.1038  0.0688  1.3422
  277MPD2    H1 4240   0.536   1.884  13.102 -1.5359 -1.5853 -2.0978
  277MPD2    H2 4241   0.549   2.227  12.847  2.0295  2.0152  2.4727
  277MPD2    H3 4242   0.646   2.008  12.945 -0.8224 -1.7152 -1.1695
  277MPD2     N 4243   0.304   1.954  13.231  0.2357  0.2899  0.2267
  277MPD2    H5 4244   0.216   1.990  13.266  0.3294  0.8426 -0.1044
  277MPD2    N1 4245   0.306   2.327  12.915 -0.8506  0.0047  0.0634
  277MPD2    H7 4246   0.355   2.373  12.840 -0.6901  0.3968  0.4081
  278TMC3    C1 4247   0.244   1.801  13.392  0.1776 -0.6133  0.5739
  278TMC3    C2 4248   0.220   1.667  13.397  0.0709  0.6044 -0.0090
  278TMC3    C3 4249   0.105   1.627  13.453  0.3834 -0.2591 -0.0717
  278TMC3    C4 4250   0.163   1.894  13.445 -0.1330  0.0322 -0.3324
  278TMC3    C5 4251   0.054   1.844  13.507 -0.0470  0.6393  0.4607
  278TMC3    C6 4252   0.023   1.708  13.518 -0.3953  0.0715 -0.0060
  278TMC3     C 4253   0.348   1.847  13.306 -0.2000 -1.2165  0.4593
  278TMC3     O 4254   0.448   1.778  13.294  0.2175  0.8250 -0.0914
  278TMC3     H 4255   0.273   1.597  13.333  0.7801  0.0807  1.1484
  278TMC3    H1 4256   0.187   1.999  13.456 -2.2134  0.5505 -0.6031
  278TMC3    H2 4257   4.668   1.672  13.567 -0.5128  1.2243  0.6288
  278TMC3    C7 4258   4.701   1.938  13.575 -0.5576 -0.3529  0.6343
  278TMC3    C8 4259   0.077   1.488  13.454  0.3161 -0.2974 -0.2640
  278TMC3    O1 4260   0.021   2.041  13.612 -0.0414  0.2549 -0.1589
  278TMC3    O2 4261   0.172   1.407  13.446 -0.0210  0.4750 -0.0678
  279MPD2     C 4262   3.586   1.898   0.608 -0.1789 -0.3490 -0.0331
  279MPD2    C1 4263   3.492   1.899   0.508 -0.0220 -0.0789  0.1239
  279MPD2    C2 4264   3.537   1.868   0.385 -0.6750 -0.2743  0.3228
  279MPD2    C3 4265   3.669   1.839   0.365  0.8792  0.5367  0.1290
  279MPD2    C4 4266   3.760   1.834   0.474 -0.0154 -0.0322 -0.2505
  279MPD2    C5 4267   3.711   1.861   0.595  0.9172  0.5943  0.4076
  279MPD2     H 4268   3.472   1.876   0.299 -0.6056  0.1512  0.3119
  279MPD2    H1 4269   3.863   1.801   0.468  0.4311  1.0090  1.4648
  279MPD2    H2 4270   3.559   1.906   0.712 -1.3013  2.8409 -0.5734
  279MPD2    H3 4271   3.771   1.856   0.685  1.2756  1.6522  0.2351
  279MPD2     N 4272   3.722   1.805   0.243 -0.2903 -0.0999  0.3181
  279MPD2    H5 4273   3.821   1.819   0.228 -0.4760 -0.2190 -1.0818
  279MPD2    N1 4274   3.361   1.944   0.524  0.3402 -0.5385  0.0289
  279MPD2    H7 4275   3.303   1.946   0.440 -1.0445 -1.2847  0.9609
  280TMC3    C1 4276   3.202   2.110   0.580 -0.1851 -0.1911  0.7305
  280TMC3    C2 4277   3.099   2.052   0.515 -0.2155 -0.1223 -0.3982
  280TMC3    C3 4278   3.026   2.135   0.430 -0.3302  0.3325  0.6599
  280TMC3    C4 4279   3.226   2.242   0.585  0.9825 -0.4350 -0.7251
  280TMC3    C5 4280   3.143   2.322   0.515  0.2739 -0.1149 -0.1979
  280TMC3    C6 4281   3.046   2.273   0.426 -0.3481 -0.5227 -1.2382
  280TMC3     C 4282   3.316   2.033   0.627  0.1218  0.8342 -0.1378
  280TMC3     O 4283   3.379   2.077   0.720  0.1014 -0.1553 -0.0716
  280TMC3     H 4284   3.091   1.946   0.532  1.7169 -0.3192 -0.6909
  280TMC3    H1 4285   3.294   2.282   0.660  0.6752 -1.8833  0.3326
  280TMC3    H2 4286   2.966   2.329   0.379  0.1409 -0.1129 -1.5864
  280TMC3    C7 4287   3.192   2.459   0.494  0.1979 -0.6432  0.0748
  280TMC3    C8 4288   2.904   2.081   0.365  0.0793  0.1291 -0.0453
  280TMC3    O1 4289   3.258   2.506   0.585 -0.1758 -0.2529 -0.1034
  280TMC3    O2 4290   2.809   2.151   0.325 -0.2403  0.1845 -0.2874
  281TMC3    C1 4291   3.438   1.921  13.592  0.1183 -0.0832  0.7928
  281TMC3    C2 4292   3.437   2.006  13.485 -0.4856 -0.1721 -0.0060
  281TMC3    C3 4293   3.441   1.948  13.364  1.2737 -0.6827 -0.8091
  281TMC3    C4 4294   3.478   1.788  13.579  0.0127  0.2104  0.0910
  281TMC3    C5 4295   3.482   1.731  13.454 -0.5328  0.4819  0.4601
  281TMC3    C6 4296   3.465   1.815  13.347  0.1025 -0.1082 -0.1568
  281TMC3     C 4297   3.312   1.913  13.660  0.3500  1.2161 -0.3632
  281TMC3     O 4298   3.291   1.824  13.740 -0.1398  0.7157 -0.5829
  281TMC3     H 4299   3.421   2.112  13.499 -0.9200 -0.2550  0.1296
  281TMC3    H1 4300   3.505   1.734  13.669  1.9029  0.1163 -0.5502
  281TMC3    H2 4301   3.475   1.775  13.246 -0.2983 -1.1075  0.2023
  281TMC3    C7 4302   3.402   1.616  13.431  0.6563 -0.7189  0.3262
  281TMC3    C8 4303   3.389   2.020  13.249  0.6634  0.2586 -0.1863
  281TMC3    O1 4304   3.406   1.560  13.322  0.3695 -0.1316  0.9207
  281TMC3    O2 4305   3.334   1.948  13.165  0.6505  0.1430  0.3654
  282MPD2     C 4306   0.163   3.722  14.994  0.6562 -0.4143 -0.0755
  282MPD2    C1 4307   0.024   3.723  14.996 -0.5382  0.2888 -0.1453
  282MPD2    C2 4308   4.680   3.700  14.884  0.1236  0.6267  0.0617
  282MPD2    C3 4309   0.009   3.703  14.765  0.8492  0.2545 -0.0282
  282MPD2    C4 4310   0.151   3.703  14.764 -0.0958 -0.6889 -0.0642
  282MPD2    C5 4311   0.223   3.705  14.874 -0.1404  0.0867  0.8253
  282MPD2     H 4312   4.573   3.684  14.891  0.1255  1.0567  1.0368
  282MPD2    H1 4313   0.202   3.721  14.670 -2.1839  0.3980 -0.9733
  282MPD2    H2 4314   0.224   3.720  15.084 -0.9795  2.7743  1.0978
  282MPD2    H3 4315   0.331   3.702  14.874 -0.2573 -3.5798 -1.5078
  282MPD2     N 4316   4.666   3.692  14.649 -0.0129  0.2369  0.3153
  282MPD2    H5 4317   4.568   3.715  14.660  0.4439  2.8956 -1.0741
  282MPD2    N1 4318   4.687   3.724  15.115 -0.2795 -0.0916  0.1992
  282MPD2    H7 4319   4.585   3.721  15.108 -0.3735 -0.7101  1.8990
  283TMC3    C1 4320   4.638   3.779  15.336  0.1917 -0.0162 -0.2833
  283TMC3    C2 4321   4.656   3.874  15.431 -0.2711 -0.0967 -0.1884
  283TMC3    C3 4322   4.564   3.884  15.519  0.5450 -0.3854  0.1522
  283TMC3    C4 4323   4.525   3.694  15.320  0.0621  0.7438  1.3633
  283TMC3    C5 4324   4.435   3.710  15.423 -0.1286  0.6579 -0.2497
  283TMC3    C6 4325   4.456   3.801  15.517  0.3151 -0.6719 -0.8091
  283TMC3     C 4326   0.000   3.776  15.232  0.5952 -0.0735  0.1475
  283TMC3     O 4327   0.110   3.817  15.256 -0.0181  0.3356 -0.7441
  283TMC3     H 4328   0.017   3.921  15.447 -0.9638  0.9647  0.8343
  283TMC3    H1 4329   4.513   3.610  15.252  0.4732  0.1990  1.9676
  283TMC3    H2 4330   4.370   3.836  15.574  1.2984  0.7914 -0.2337
  283TMC3    C7 4331   4.318   3.629  15.441 -0.0371  0.1589  0.3401
  283TMC3    C8 4332   4.551   4.016  15.585 -0.4577  0.9787 -0.0255
  283TMC3    O1 4333   4.257   3.644  15.545 -0.8845  0.1652 -0.6555
  283TMC3    O2 4334   4.501   4.014  15.697 -0.6441  0.2571 -0.0620
  284MPD2     C 4335   3.060   2.908  12.316  0.5710  0.4111 -0.2580
  284MPD2    C1 4336   3.140   3.004  12.259 -0.4942 -0.0469  0.4476
  284MPD2    C2 4337   3.275   3.022  12.297 -0.7865  0.4384 -0.1777
  284MPD2    C3 4338   3.333   2.940  12.394 -0.7990  0.5110  1.2819
  284MPD2    C4 4339   3.253   2.844  12.452 -0.7864  0.1781  0.3474
  284MPD2    C5 4340   3.115   2.831  12.417 -0.1926  0.0279  0.1773
  284MPD2     H 4341   3.332   3.087  12.232  1.5795 -1.8103 -0.3658
  284MPD2    H1 4342   3.283   2.783  12.537  2.3010 -0.0649 -0.9073
  284MPD2    H2 4343   2.965   2.883  12.269 -0.1515  1.3504  0.6878
  284MPD2    H3 4344   3.063   2.742  12.451  1.4256  0.0101  2.6002
  284MPD2     N 4345   3.476   2.931  12.423 -0.1913  0.1162  0.9704
  284MPD2    H5 4346   3.504   2.874  12.503  3.6838 -0.6886 -0.9450
  284MPD2    N1 4347   3.101   3.080  12.150  0.3928 -0.2599  0.2835
  284MPD2    H7 4348   3.167   3.131  12.092  0.6714  0.1509  0.9587
  285TMC3    C1 4349   2.972   3.152  11.976 -0.1902  0.0012  0.8391
  285TMC3    C2 4350   3.064   3.094  11.890 -0.4544  0.4772  0.3845
  285TMC3    C3 4351   3.096   3.163  11.776 -0.4816  0.2583 -0.0355
  285TMC3    C4 4352   2.911   3.270  11.955  0.3823  0.2367 -0.1758
  285TMC3    C5 4353   2.951   3.341  11.850  0.3252  0.0344 -1.5839
  285TMC3    C6 4354   3.038   3.288  11.760 -0.3522 -0.4768 -0.5675
  285TMC3     C 4355   2.968   3.098  12.105  0.1130  0.6702  0.8153
  285TMC3     O 4356   2.864   3.099  12.169  0.1642  0.9524 -0.8098
  285TMC3     H 4357   3.088   2.989  11.902  1.8443  0.8430 -0.9286
  285TMC3    H1 4358   2.851   3.313  12.034 -0.4776 -0.9388 -0.1968
  285TMC3    H2 4359   3.062   3.349  11.674 -3.7375  4.3011  1.8778
  285TMC3    C7 4360   2.872   3.452  11.804  0.6430  0.9361 -0.1450
  285TMC3    C8 4361   3.177   3.095  11.683  0.2318 -0.3081 -0.6295
  285TMC3    O1 4362   2.930   3.531  11.732 -0.0433  0.3088  0.2073
  285TMC3    O2 4363   3.205   2.977  11.709  0.0907  0.4856 -0.4721
  286MPD2     C 4364   2.780   2.353   1.218  0.2170  0.3919 -0.2882
  286MPD2    C1 4365   2.746   2.301   1.097 -0.1809 -0.5028 -0.3358
  286MPD2    C2 4366   2.784   2.170   1.059 -0.1076  0.1602 -0.5868
  286MPD2    C3 4367   2.852   2.093   1.156  1.1742  0.4928 -0.2109
  286MPD2    C4 4368   2.888   2.144   1.276 -0.1623 -0.5488 -1.0034
  286MPD2    C5 4369   2.855   2.274   1.303 -0.4840  0.2299 -0.1152
  286MPD2     H 4370   2.745   2.124   0.969  1.1223 -0.1476 -0.9665
  286MPD2    H1 4371   2.946   2.091   1.350 -1.2796 -0.1476  0.1652
  286MPD2    H2 4372   2.737   2.446   1.252 -0.7911 -0.0827 -0.2650
  286MPD2    H3 4373   2.888   2.317   1.397 -1.6109 -1.3602  1.0055
  286MPD2     N 4374   2.885   1.958   1.146 -1.1178  0.1488  0.2914
  286MPD2    H5 4375   2.914   1.913   1.232 -1.2985  2.0897  1.3570
  286MPD2    N1 4376   2.682   2.373   0.997  0.0716 -0.1390 -0.1698
  286MPD2    H7 4377   2.661   2.327   0.910 -1.0945  1.1436 -0.5572
  287TMC3    C1 4378   2.905   1.736   1.050  0.2574 -0.4493 -0.0952
  287TMC3    C2 4379   2.863   1.648   0.952  0.0987  0.0999 -0.3047
  287TMC3    C3 4380   2.905   1.520   0.961  0.4438 -0.3533 -0.0076
  287TMC3    C4 4381   2.977   1.704   1.161  0.2510  0.4212 -0.0803
  287TMC3    C5 4382   3.017   1.569   1.163 -0.5252 -0.0592  0.0385
  287TMC3    C6 4383   2.977   1.472   1.068  0.5580  0.7064  0.2706
  287TMC3     C 4384   2.857   1.876   1.037 -0.0159  0.8594 -0.0045
  287TMC3     O 4385   2.815   1.892   0.922  0.0747 -0.4408  0.0324
  287TMC3     H 4386   2.806   1.690   0.870 -0.9867 -0.1643  0.3157
  287TMC3    H1 4387   3.031   1.779   1.218  0.9856  0.2927 -0.6158
  287TMC3    H2 4388   2.999   1.366   1.071 -0.7216  0.4304 -0.2544
  287TMC3    C7 4389   3.110   1.538   1.262  0.4470 -0.1340 -0.3076
  287TMC3    C8 4390   2.850   1.425   0.860 -0.2591  0.3871  0.5731
  287TMC3    O1 4391   3.126   1.617   1.353 -0.3041  0.4861  0.3996
  287TMC3    O2 4392   2.884   1.309   0.881 -0.3398  0.0577  0.2247
  288TMC3    C1 4393   0.706   1.540  14.151 -0.0267  0.2544  0.3275
  288TMC3    C2 4394   0.570   1.538  14.167 -0.3718  0.0336  0.7922
  288TMC3    C3 4395   0.500   1.632  14.103 -0.0606  0.2801  0.1246
  288TMC3    C4 4396   0.770   1.626  14.065  0.7448  0.1603  0.2469
  288TMC3    C5 4397   0.695   1.721  13.995  0.4714 -0.4264  0.6733
  288TMC3    C6 4398   0.560   1.719  14.013 -0.0852 -0.7080 -0.1774
  288TMC3     C 4399   0.782   1.478  14.260 -0.5308 -0.1012 -0.5334
  288TMC3     O 4400   0.713   1.439  14.352 -0.2041 -0.2909  0.1925
  288TMC3     H 4401   0.518   1.466  14.231 -3.0119  0.2739 -1.0618
  288TMC3    H1 4402   0.875   1.651  14.059  0.8645 -0.1975  0.9237
  288TMC3    H2 4403   0.500   1.803  13.982  0.1958  0.5883  2.8217
  288TMC3    C7 4404   0.759   1.799  13.889 -0.2215  0.1121  0.1788
  288TMC3    C8 4405   0.362   1.659  14.143 -0.0342 -0.8336 -1.0027
  288TMC3    O1 4406   0.878   1.786  13.874  0.3776  0.3685  0.0002
  288TMC3    O2 4407   0.299   1.752  14.088 -0.2385 -0.4554 -0.3495
  289MPD2     C 4408   0.389   0.594  14.474 -0.4988  0.5274  0.1479
  289MPD2    C1 4409   0.374   0.687  14.368 -0.8503  0.1699 -0.3888
  289MPD2    C2 4410   0.259   0.691  14.294  0.1227 -0.4236 -0.3640
  289MPD2    C3 4411   0.145   0.615  14.330  0.7655  0.5351 -0.0591
  289MPD2    C4 4412   0.149   0.533  14.438 -0.4423  0.4348 -0.1579
  289MPD2    C5 4413   0.272   0.525  14.508  0.1202  0.0238  0.2366
  289MPD2     H 4414   0.247   0.753  14.206 -1.5612  1.3916  1.1477
  289MPD2    H1 4415   0.068   0.469  14.471  0.6878  0.6732  3.1133
  289MPD2    H2 4416   0.472   0.587  14.543  0.2610 -1.1940 -0.9279
  289MPD2    H3 4417   0.279   0.466  14.600 -1.6866 -2.2103 -1.0664
  289MPD2     N 4418   0.022   0.625  14.264  0.7138  0.1322  0.4368
  289MPD2    H5 4419   4.685   0.569  14.310 -0.4760  0.7562 -0.6484
  289MPD2    N1 4420   0.490   0.764  14.347  0.1860 -0.8178  0.3999
  289MPD2    H7 4421   0.570   0.733  14.403 -0.5907 -0.1065  1.9020
  290TMC3    C1 4422   4.586   0.708  14.140 -0.3516  0.1287 -1.3273
  290TMC3    C2 4423   4.540   0.837  14.107  0.3243  0.6914  1.0255
  290TMC3    C3 4424   4.454   0.853  13.998 -0.1095  0.3190 -0.0583
  290TMC3    C4 4425   4.565   0.600  14.061 -0.6415  0.3570  0.8090
  290TMC3    C5 4426   4.490   0.619  13.947 -0.3180  0.4396 -0.1257
  290TMC3    C6 4427   4.440   0.743  13.920  0.1897 -0.6465 -0.5605
  290TMC3     C 4428   4.719   0.728  14.179  0.5518  0.2385  0.4893
  290TMC3     O 4429   0.048   0.829  14.141 -0.3964  0.2231  0.2117
  290TMC3     H 4430   4.547   0.918  14.178  0.7771  0.8877  0.7564
  290TMC3    H1 4431   4.640   0.522  14.060 -1.1223 -0.0989  0.4355
  290TMC3    H2 4432   4.356   0.742  13.851 -0.4908 -0.7511  0.2674
  290TMC3    C7 4433   4.441   0.505  13.876 -0.5920 -0.4008 -0.7548
  290TMC3    C8 4434   4.446   0.979  13.944 -0.0966 -0.7984  0.2780
  290TMC3    O1 4435   4.412   0.520  13.756  0.0689 -0.3395 -0.5571
  290TMC3    O2 4436   4.438   0.980  13.819 -0.1330  0.6706  0.5211
  291MPD2     C 4437   3.713   1.031   0.248 -0.2271  0.5291  0.0053
  291MPD2    C1 4438   3.842   1.003   0.209 -0.8752 -0.0793  0.1099
  291MPD2    C2 4439   3.932   1.103   0.215 -0.0436  0.0747  0.1479
  291MPD2    C3 4440   3.903   1.235   0.261  1.3449  0.6703 -0.1115
  291MPD2    C4 4441   3.771   1.266   0.279 -0.5589 -0.6341  0.3230
  291MPD2    C5 4442   3.676   1.162   0.277 -0.0386 -0.4357  0.0534
  291MPD2     H 4443   4.035   1.082   0.187 -0.0253 -0.5226  0.6476
  291MPD2    H1 4444   3.748   1.372   0.278 -0.4243 -0.5806  1.7795
  291MPD2    H2 4445   3.633   0.959   0.237  0.7326  0.0273 -3.5385
  291MPD2    H3 4446   3.572   1.184   0.300 -0.3525 -0.4470 -1.3597
  291MPD2     N 4447   3.993   1.344   0.254 -0.4042 -0.1890 -0.0397
  291MPD2    H5 4448   3.964   1.436   0.288 -0.7108 -0.0438 -0.6884
  291MPD2    N1 4449   3.880   0.871   0.177 -0.0463  0.1622 -0.3562
  291MPD2    H7 4450   3.978   0.849   0.166 -0.1475 -0.7224  0.4903
  292TMC3    C1 4451   3.879   0.649   0.141  0.3226  0.6825 -0.2008
  292TMC3    C2 4452   3.951   0.598   0.247  0.5202  0.4383 -0.6459
  292TMC3    C3 4453   4.013   0.477   0.236  0.2083 -0.2598 -0.4316
  292TMC3    C4 4454   3.830   0.560   0.046  0.0114  0.0993 -0.3319
  292TMC3    C5 4455   3.890   0.434   0.048  0.3780  0.4051  0.0342
  292TMC3    C6 4456   3.980   0.393   0.137  0.0848 -0.0323 -0.1453
  292TMC3     C 4457   3.795   0.767   0.158  0.5402  0.9150  0.4414
  292TMC3     O 4458   3.677   0.759   0.127  0.2054 -0.5652  0.1124
  292TMC3     H 4459   3.983   0.672   0.319  0.6425  1.3333 -1.6368
  292TMC3    H1 4460   3.770   0.591  17.697 -0.1397  1.9534  0.4366
  292TMC3    H2 4461   4.025   0.294   0.140 -0.6633 -0.3356  1.0884
  292TMC3    C7 4462   3.835   0.333  17.701  0.8458  0.1849 -0.6371
  292TMC3    C8 4463   4.094   0.436   0.349 -0.9016  0.2868 -0.4150
  292TMC3    O1 4464   3.881   0.226  17.730 -0.1562  0.5926  0.4048
  292TMC3    O2 4465   4.211   0.401   0.318 -0.1094  0.3332 -0.0233
  293MPD2     C 4466   1.228   1.630  12.693 -0.9010 -0.1455  0.8337
  293MPD2    C1 4467   1.312   1.731  12.665 -0.3063  1.0082 -0.5175
  293MPD2    C2 4468   1.405   1.772  12.760  0.1065  0.7118  0.5380
  293MPD2    C3 4469   1.418   1.706  12.883 -0.2813 -0.7033  0.0462
  293MPD2    C4 4470   1.341   1.597  12.904  0.0245 -0.7756 -0.2664
  293MPD2    C5 4471   1.240   1.564  12.816 -0.2184  0.2546  0.0179
  293MPD2     H 4472   1.472   1.855  12.742 -0.2240  0.9266  0.2961
  293MPD2    H1 4473   1.352   1.532  12.990  1.3946  0.6269  0.6127
  293MPD2    H2 4474   1.150   1.602  12.623  1.8112 -0.9498 -1.8514
  293MPD2    H3 4475   1.175   1.479  12.833  2.8633 -2.2064 -0.4765
  293MPD2     N 4476   1.502   1.765  12.978 -0.0926  0.0662 -0.6872
  293MPD2    H5 4477   1.549   1.852  12.953 -2.3861  1.4911 -0.0708
  293MPD2    N1 4478   1.311   1.775  12.531 -0.6271  0.5225 -0.3539
  293MPD2    H7 4479   1.241   1.736  12.469 -0.2956  1.1058 -1.1144
  294TMC3    C1 4480   1.342   1.913  12.337  0.6797 -0.3462 -0.1876
  294TMC3    C2 4481   1.239   1.852  12.269  0.3975 -0.5941 -0.0995
  294TMC3    C3 4482   1.215   1.885  12.138 -0.7386  0.5467  0.1280
  294TMC3    C4 4483   1.433   1.988  12.271  0.1229  0.0419 -0.7832
  294TMC3    C5 4484   1.409   2.011  12.140 -0.1521 -0.0815 -0.1237
  294TMC3    C6 4485   1.304   1.962  12.068 -0.5518 -0.1702 -0.5215
  294TMC3     C 4486   1.387   1.875  12.471  0.2248 -0.2840 -0.3137
  294TMC3     O 4487   1.466   1.955  12.526  0.2625 -0.0553  0.0559
  294TMC3     H 4488   1.158   1.803  12.321 -0.4881 -1.7058 -2.4897
  294TMC3    H1 4489   1.529   2.025  12.305 -0.7458  0.5485  1.1082
  294TMC3    H2 4490   1.301   1.994  11.964 -1.7730 -0.2663 -0.5102
  294TMC3    C7 4491   1.525   2.058  12.060  0.4692 -0.2484 -0.4937
  294TMC3    C8 4492   1.147   1.796  12.051  0.0783 -0.1136  0.4376
  294TMC3    O1 4493   1.579   2.157  12.080  0.5746 -0.2058 -0.0803
  294TMC3    O2 4494   1.153   1.829  11.932  0.1077  0.8966 -0.5852
  295MPD2     C 4495   2.345   1.143   1.218  0.0486  0.5878  0.4928
  295MPD2    C1 4496   2.273   1.036   1.170 -0.0820  0.0652 -0.2258
  295MPD2    C2 4497   2.301   0.910   1.221 -0.2271 -0.0053 -0.0573
  295MPD2    C3 4498   2.395   0.887   1.318  0.0152 -0.1197 -0.6669
  295MPD2    C4 4499   2.471   0.998   1.353  0.5786  0.8708  0.8770
  295MPD2    C5 4500   2.447   1.124   1.308 -0.2267  0.8027  0.0339
  295MPD2     H 4501   2.242   0.828   1.183  2.1346 -1.6114 -0.2715
  295MPD2    H1 4502   2.566   0.997   1.404  0.3856 -0.5947  1.2029
  295MPD2    H2 4503   2.315   1.246   1.200  0.6701  0.5954 -0.4845
  295MPD2    H3 4504   2.509   1.207   1.340 -0.1733  1.3300 -1.4709
  295MPD2     N 4505   2.422   0.766   1.384  0.2237 -0.1114 -0.0693
  295MPD2    H5 4506   2.492   0.773   1.457  0.8659 -1.8055 -0.5333
  295MPD2    N1 4507   2.170   1.048   1.072  0.0030 -0.4509  0.4492
  295MPD2    H7 4508   2.121   0.966   1.038 -0.0466 -0.4149  0.4340
  296TMC3    C1 4509   2.378   0.560   1.480 -0.2611 -0.2043 -0.1134
  296TMC3    C2 4510   2.445   0.604   1.592  0.2917  0.1176  0.7040
  296TMC3    C3 4511   2.509   0.509   1.677 -0.2993 -0.0948  0.7487
  296TMC3    C4 4512   2.365   0.431   1.458  0.5453 -0.1955 -0.4157
  296TMC3    C5 4513   2.421   0.337   1.545  0.6842 -0.4239  0.0882
  296TMC3    C6 4514   2.496   0.375   1.653 -0.2040 -0.2739 -0.1536
  296TMC3     C 4515   2.343   0.655   1.375 -0.4245  0.1878  0.0798
  296TMC3     O 4516   2.253   0.629   1.296 -0.7471 -0.6087  0.5290
  296TMC3     H 4517   2.458   0.709   1.612 -0.3974  0.8630 -2.6549
  296TMC3    H1 4518   2.320   0.399   1.365 -0.8359  0.1179  0.1365
  296TMC3    H2 4519   2.555   0.311   1.717 -1.4093  0.0977  1.3456
  296TMC3    C7 4520   2.412   0.195   1.519 -0.0537 -0.8191  0.3438
  296TMC3    C8 4521   2.546   0.549   1.815 -0.6687  0.0677 -0.0024
  296TMC3    O1 4522   2.506   0.129   1.561  0.0227  0.1767  0.3895
  296TMC3    O2 4523   2.620   0.473   1.882  0.0154  0.1850 -0.2696
  297MPD2     C 4524   3.193   2.666  15.568  0.6994  0.5234 -0.2993
  297MPD2    C1 4525   3.243   2.781  15.628 -0.4031  0.0428 -0.5696
  297MPD2    C2 4526   3.370   2.827  15.604 -0.1492 -0.0803  0.9561
  297MPD2    C3 4527   3.461   2.742  15.556 -0.4534 -0.4853  0.1137
  297MPD2    C4 4528   3.422   2.620  15.510  0.3377 -0.1135 -0.4291
  297MPD2    C5 4529   3.286   2.582  15.512 -0.7786  0.5911  0.1819
  297MPD2     H 4530   3.403   2.924  15.640 -0.6735  0.5968 -0.4049
  297MPD2    H1 4531   3.497   2.551  15.474  0.2112 -1.7421  2.3896
  297MPD2    H2 4532   3.095   2.622  15.578  1.4214 -0.8689  0.6423
  297MPD2    H3 4533   3.266   2.480  15.481  0.8958  0.7988 -1.5625
  297MPD2     N 4534   3.599   2.780  15.561 -0.0700  0.5468  0.2294
  297MPD2    H5 4535   3.619   2.863  15.617 -2.1196  0.6435  0.8168
  297MPD2    N1 4536   3.153   2.874  15.691  0.2531 -0.4251 -0.2397
  297MPD2    H7 4537   3.192   2.963  15.720  0.5216 -0.4375 -0.5543
  298TMC3    C1 4538   2.962   2.962  15.758  0.2511  0.1385  0.8887
  298TMC3    C2 4539   2.975   3.065  15.669 -0.3695  0.2324  0.3779
  298TMC3    C3 4540   2.901   3.178  15.688  0.3563 -0.2581 -0.9527
  298TMC3    C4 4541   2.876   2.974  15.859 -0.0105  0.2079  0.0779
  298TMC3    C5 4542   2.802   3.091  15.874 -0.3635  0.1488 -0.1365
  298TMC3    C6 4543   2.820   3.199  15.793 -0.0352  0.3432  0.1164
  298TMC3     C 4544   3.028   2.839  15.737  0.1848 -0.3076 -0.8458
  298TMC3     O 4545   2.969   2.733  15.744 -0.1105 -0.6253  0.4871
  298TMC3     H 4546   3.030   3.037  15.580  1.5561  1.3694  1.2001
  298TMC3    H1 4547   2.848   2.887  15.918  1.7241 -0.3236  0.1002
  298TMC3    H2 4548   2.762   3.291  15.804 -0.5265  0.2105 -1.3983
  298TMC3    C7 4549   2.705   3.091  15.981  0.1160 -0.3099 -0.2013
  298TMC3    C8 4550   2.932   3.286  15.600 -0.6159  0.3295 -0.2370
  298TMC3    O1 4551   2.731   3.014  16.074 -0.5908  0.3306 -0.7337
  298TMC3    O2 4552   3.031   3.266  15.534 -0.2339 -0.9086 -0.3284
  299MPD2     C 4553   4.623   2.624  10.649 -0.5024  0.8170  0.5546
  299MPD2    C1 4554   4.542   2.553  10.743 -0.4184 -0.2668  0.0808
  299MPD2    C2 4555   4.460   2.451  10.696 -0.5617 -0.0657  0.4296
  299MPD2    C3 4556   4.464   2.422  10.562  0.7926  0.2615  0.5706
  299MPD2    C4 4557   4.550   2.491  10.477 -0.0669 -0.0121  1.0158
  299MPD2    C5 4558   4.630   2.593  10.523 -0.8688 -0.6876 -0.4660
  299MPD2     H 4559   4.389   2.395  10.756  1.7396 -2.0507  1.3013
  299MPD2    H1 4560   4.559   2.461  10.374  0.8450 -0.0918  1.1180
  299MPD2    H2 4561   4.688   2.703  10.685 -1.5486  1.2202  1.5589
  299MPD2    H3 4562   4.701   2.657  10.473 -0.0362 -0.8181  0.5667
  299MPD2     N 4563   4.362   2.349  10.487 -0.1062  0.0750  0.0059
  299MPD2    H5 4564   4.372   2.353  10.386  0.9704 -1.3013  0.0545
  299MPD2    N1 4565   4.532   2.581  10.882  0.3748 -0.4119  0.0765
  299MPD2    H7 4566   4.479   2.524  10.947 -1.6805 -0.3427 -1.5307
  300TMC3    C1 4567   4.170   2.251  10.436  0.3937  0.2977  0.4929
  300TMC3    C2 4568   4.223   2.251  10.314 -0.0760  0.1621 -0.5188
  300TMC3    C3 4569   4.136   2.292  10.218  0.0175  0.0808  0.4563
  300TMC3    C4 4570   4.045   2.281  10.472  0.4220  0.3757  0.2011
  300TMC3    C5 4571   3.954   2.304  10.372 -0.3249 -0.7678  0.2421
  300TMC3    C6 4572   4.000   2.310  10.238 -0.3565 -0.5083  0.1377
  300TMC3     C 4573   4.264   2.280  10.543  0.3706 -0.1483  0.4517
  300TMC3     O 4574   4.225   2.276  10.659 -0.0048  0.6848  0.5484
  300TMC3     H 4575   4.324   2.221  10.290 -0.3343 -0.6843 -0.5410
  300TMC3    H1 4576   4.018   2.284  10.577  1.5684  2.1282  0.4454
  300TMC3    H2 4577   3.928   2.327  10.158 -0.8492  0.4213  0.7830
  300TMC3    C7 4578   3.816   2.264  10.402  0.2228  0.8947 -0.3051
  300TMC3    C8 4579   4.196   2.399  10.148 -0.0478  0.0886  0.1663
  300TMC3    O1 4580   3.761   2.223  10.302 -0.1783 -0.4707 -0.0702
  300TMC3    O2 4581   4.307   2.442  10.184  0.4250  0.0864  0.2372
  301MPD2     C 4582   1.399   3.839   1.241  0.5451 -0.0727  0.2885
  301MPD2    C1 4583   1.287   3.815   1.167  0.1210  0.4455  0.2010
  301MPD2    C2 4584   1.249   3.683   1.153  0.2638  0.3068 -0.5306
  301MPD2    C3 4585   1.320   3.580   1.216 -0.0967 -0.3084  0.3904
  301MPD2    C4 4586   1.425   3.610   1.302 -0.1465 -0.0216  0.2837
  301MPD2    C5 4587   1.469   3.739   1.306 -0.4446  0.6791 -0.1165
  301MPD2     H 4588   1.165   3.655   1.091  1.3934  1.4642 -2.5659
  301MPD2    H1 4589   1.487   3.542   1.358  1.3391  2.0157  1.1014
  301MPD2    H2 4590   1.434   3.940   1.261  1.9552 -0.1718 -1.6965
  301MPD2    H3 4591   1.547   3.776   1.371  0.1604 -1.6558  0.4941
  301MPD2     N 4592   1.304   3.441   1.193 -0.5326 -0.2562  0.0024
  301MPD2    H5 4593   1.359   3.381   1.253 -1.3247 -3.1903 -2.2229
  301MPD2    N1 4594   1.207   3.910   1.095 -0.0791  0.9333  0.3876
  301MPD2    H7 4595   1.120   3.870   1.062 -0.2477  2.0752 -0.5564
  302TMC3    C1 4596   1.232   3.240   1.080 -0.1515  0.8654 -0.0677
  302TMC3    C2 4597   1.351   3.175   1.120  0.6357 -0.8161  0.0278
  302TMC3    C3 4598   1.390   3.064   1.053 -0.3298 -0.1141  0.6737
  302TMC3    C4 4599   1.150   3.196   0.985  0.1713  0.2478  0.3415
  302TMC3    C5 4600   1.202   3.092   0.909 -0.0688 -0.5218 -0.1300
  302TMC3    C6 4601   1.325   3.027   0.938 -0.4903 -0.5571 -0.3132
  302TMC3     C 4602   1.207   3.382   1.110  0.0285  0.5571 -0.0729
  302TMC3     O 4603   1.120   3.431   1.045  0.1480  0.1770 -0.4968
  302TMC3     H 4604   1.408   3.217   1.203 -0.3870  1.3742 -0.3538
  302TMC3    H1 4605   1.045   3.223   0.977  0.5415  1.3886 -0.5755
  302TMC3    H2 4606   1.364   2.949   0.873 -1.2576  0.5368 -2.0868
  302TMC3    C7 4607   1.132   3.045   0.792 -0.2392 -0.0464 -0.6794
  302TMC3    C8 4608   1.447   2.963   1.137  0.2581  0.5802  0.2457
  302TMC3    O1 4609   1.169   2.932   0.746 -0.5305  0.4697 -0.1364
  302TMC3    O2 4610   1.468   2.854   1.081 -0.0012  0.1294  0.6977
  303MPD2     C 4611   2.170   1.683   9.981  0.7537 -0.2343 -0.0463
  303MPD2    C1 4612   2.086   1.590  10.044  0.2028  0.2168 -0.5359
  303MPD2    C2 4613   1.950   1.607  10.025  0.3738 -1.1417 -0.1830
  303MPD2    C3 4614   1.893   1.701   9.943 -0.4141 -0.0500  0.4286
  303MPD2    C4 4615   1.980   1.791   9.885 -0.2556  0.0295  0.2337
  303MPD2    C5 4616   2.117   1.778   9.898 -0.2420  0.3029  0.3740
  303MPD2     H 4617   1.880   1.543  10.078  0.2965 -1.4213 -0.6221
  303MPD2    H1 4618   1.948   1.881   9.832 -0.0868  0.0591  0.1836
  303MPD2    H2 4619   2.277   1.667   9.987  0.8953  0.5750 -0.4254
  303MPD2    H3 4620   2.180   1.848   9.845 -0.1455 -0.6397 -0.7618
  303MPD2     N 4621   1.760   1.686   9.900  0.1454  0.0897 -0.4729
  303MPD2    H5 4622   1.721   1.762   9.845 -0.5610  0.7895  1.0070
  303MPD2    N1 4623   2.149   1.503  10.137 -0.3716  0.4316 -0.4338
  303MPD2    H7 4624   2.247   1.481  10.119 -0.9688 -0.5654 -2.5008
  304TMC3    C1 4625   2.157   1.330  10.296  0.9003  0.1191 -0.0115
  304TMC3    C2 4626   2.095   1.276  10.408 -0.5420  0.1762  0.0304
  304TMC3    C3 4627   2.134   1.155  10.451  0.5191  0.1718 -0.2326
  304TMC3    C4 4628   2.251   1.251  10.232 -0.2804  0.3237  0.7352
  304TMC3    C5 4629   2.286   1.127  10.271  0.1683  0.8717 -0.1611
  304TMC3    C6 4630   2.228   1.080  10.383  0.0788 -0.6390  0.1058
  304TMC3     C 4631   2.076   1.433  10.231 -1.0944  0.0749 -0.4931
  304TMC3     O 4632   1.956   1.448  10.266 -0.9718  0.7020  0.3091
  304TMC3     H 4633   2.014   1.319  10.466 -1.2111 -0.5507 -0.3540
  304TMC3    H1 4634   2.275   1.264  10.127  1.1487 -1.3079  0.8521
  304TMC3    H2 4635   2.259   0.989  10.434 -1.1576 -1.2645 -0.2548
  304TMC3    C7 4636   2.256   1.036  10.163 -0.0809 -0.1180 -0.0701
  304TMC3    C8 4637   2.034   1.061  10.501  0.1072 -0.0005  0.3493
  304TMC3    O1 4638   2.318   1.056  10.060 -0.3045 -0.4197  0.0309
  304TMC3    O2 4639   2.045   0.946  10.458 -0.2369 -0.1720 -0.6035
  305MPD2     C 4640   0.149   3.473  13.759 -0.3421 -0.7876  0.1559
  305MPD2    C1 4641   0.188   3.605  13.772 -0.4465  0.3594 -0.0213
  305MPD2    C2 4642   0.169   3.696  13.671  0.3467  0.0475 -0.3134
  305MPD2    C3 4643   0.098   3.672  13.552 -0.1711  0.1839  0.3597
  305MPD2    C4 4644   0.057   3.539  13.537 -0.6077 -0.1452 -0.0301
  305MPD2    C5 4645   0.084   3.447  13.638 -0.2586 -0.2503 -0.1262
  305MPD2     H 4646   0.200   3.798  13.694 -0.2923  0.4722 -1.3713
  305MPD2    H1 4647   0.014   3.502  13.444 -1.2239  0.0926  0.1585
  305MPD2    H2 4648   0.162   3.396  13.834 -2.3197  0.0747  1.4003
  305MPD2    H3 4649   0.044   3.347  13.631 -1.4224  0.2372 -0.5270
  305MPD2     N 4650   0.055   3.765  13.455  0.0017 -0.2771 -0.7401
  305MPD2    H5 4651   4.730   3.740  13.377 -0.7570 -1.4665  0.2192
  305MPD2    N1 4652   0.251   3.645  13.896 -0.3301  0.8823 -0.7370
  305MPD2    H7 4653   0.248   3.575  13.968 -0.3423  1.3790 -0.2549
  306TMC3    C1 4654   0.302   3.784  14.071  0.2350 -0.8869  0.9998
  306TMC3    C2 4655   0.373   3.686  14.125 -0.0331 -0.3062  0.0198
  306TMC3    C3 4656   0.377   3.674  14.262  0.1230 -0.5188 -0.4746
  306TMC3    C4 4657   0.238   3.886  14.144  0.0558  0.2770  0.1535
  306TMC3    C5 4658   0.234   3.873  14.280  0.1882  0.8851  0.1018
  306TMC3    C6 4659   0.296   3.762  14.336 -0.0408 -0.4267 -0.6650
  306TMC3     C 4660   0.279   3.776  13.927 -0.0634  0.1567 -0.2174
  306TMC3     O 4661   0.259   3.879  13.874  0.4441 -0.0545 -0.2490
  306TMC3     H 4662   0.427   3.610  14.068 -1.9246  1.1250 -3.6479
  306TMC3    H1 4663   0.167   3.953  14.096  0.9860  0.6869 -0.6360
  306TMC3    H2 4664   0.283   3.742  14.442 -1.0997 -1.1524 -0.9359
  306TMC3    C7 4665   0.132   3.945  14.364  0.4042  0.1305 -0.3553
  306TMC3    C8 4666   0.469   3.577  14.324  0.1868 -0.0235  1.0594
  306TMC3    O1 4667   0.029   3.995  14.314 -0.8100  0.6546 -0.1462
  306TMC3    O2 4668   0.492   3.479  14.260  0.3395  0.5889 -0.4191
  307MPD2     C 4669   2.142   2.923   0.165 -0.7304  0.2710  0.2977
  307MPD2    C1 4670   2.086   3.029   0.234  0.6344  0.0293 -0.3255
  307MPD2    C2 4671   2.012   2.990   0.342 -0.4858  0.0267 -0.5974
  307MPD2    C3 4672   2.002   2.862   0.389 -0.2182 -0.4845  0.7042
  307MPD2    C4 4673   2.069   2.762   0.331 -0.5061  0.2222  0.8206
  307MPD2    C5 4674   2.138   2.793   0.214  0.1815 -0.6126  0.1710
  307MPD2     H 4675   1.960   3.064   0.401 -2.1984 -1.2383 -0.4998
  307MPD2    H1 4676   2.060   2.658   0.360 -2.2688  0.0357 -0.3677
  307MPD2    H2 4677   2.192   2.941   0.071 -1.4723  1.2140  0.0829
  307MPD2    H3 4678   2.198   2.714   0.168  0.2371  0.5930 -1.8168
  307MPD2     N 4679   1.924   2.845   0.508 -0.3827 -0.5319  0.3723
  307MPD2    H5 4680   1.874   2.926   0.543  0.6517 -0.5809  1.9468
  307MPD2    N1 4681   2.091   3.167   0.202  0.1618 -0.2709 -0.3024
  307MPD2    H7 4682   2.042   3.230   0.266 -1.6647 -1.5405 -0.4466
  308TMC3    C1 4683   1.789   2.659   0.912  0.4791 -0.2305 -0.0640
  308TMC3    C2 4684   1.770   2.778   0.968  0.2355  0.0136 -0.2310
  308TMC3    C3 4685   1.791   2.882   0.887 -0.0453  0.8475  0.9099
  308TMC3    C4 4686   1.817   2.637   0.785 -0.0364 -0.1697 -0.0036
  308TMC3    C5 4687   1.832   2.752   0.705 -0.9347  1.0757 -0.6959
  308TMC3    C6 4688   1.813   2.882   0.757 -0.0444 -0.4769 -0.1607
  308TMC3     C 4689   1.738   2.550   0.981  0.2482  0.3911  0.7979
  308TMC3     O 4690   1.754   2.545   1.103 -0.0748 -0.0252 -0.8003
  308TMC3     H 4691   1.761   2.799   1.074  0.4163 -1.5510  0.0964
  308TMC3    H1 4692   1.835   2.535   0.752  3.0211  0.1733  0.6080
  308TMC3    H2 4693   1.836   2.973   0.703 -0.6480 -0.5967 -0.6209
  308TMC3    C7 4694   1.891   2.736   0.577  0.4559  0.2983 -0.7557
  308TMC3    C8 4695   1.765   3.006   0.953  0.0464  0.3307 -0.0477
  308TMC3    O1 4696   1.933   2.624   0.544  0.4327 -0.2746  0.0139
  308TMC3    O2 4697   1.796   3.025   1.069 -0.4691 -0.5379  0.7063
  309MPD2     C 4698   1.574   2.680  17.060 -0.3340  0.7128  0.0988
  309MPD2    C1 4699   1.495   2.627  16.961  0.0127  0.5655  0.6330
  309MPD2    C2 4700   1.358   2.612  16.990 -0.4666  0.3401 -0.2532
  309MPD2    C3 4701   1.312   2.644  17.117  0.7261 -0.6557 -0.1811
  309MPD2    C4 4702   1.390   2.716  17.205  0.1602  0.4318 -0.2582
  309MPD2    C5 4703   1.525   2.728  17.181  0.0491  1.4040  0.1094
  309MPD2     H 4704   1.288   2.582  16.912  0.3866 -0.6114 -0.6467
  309MPD2    H1 4705   1.363   2.739  17.307  0.5218  2.3036 -0.5950
  309MPD2    H2 4706   1.681   2.696  17.046 -0.2919  2.5238  2.4261
  309MPD2    H3 4707   1.591   2.777  17.252 -0.6966  2.3178  0.1752
  309MPD2     N 4708   1.175   2.622  17.144 -0.6533 -0.5079 -0.1609
  309MPD2    H5 4709   1.127   2.585  17.063 -0.2008  1.0341 -1.1499
  309MPD2    N1 4710   1.538   2.584  16.830 -0.0148 -0.0717  0.2838
  309MPD2    H7 4711   1.474   2.572  16.752  1.7298 -0.8186 -1.0444
  310TMC3    C1 4712   1.707   2.511  16.667  0.2495  0.4221 -0.0201
  310TMC3    C2 4713   1.607   2.475  16.576  0.0297 -0.6845 -0.2605
  310TMC3    C3 4714   1.629   2.391  16.468 -0.3110 -0.4746 -0.0950
  310TMC3    C4 4715   1.824   2.436  16.657 -0.0062  0.1490 -0.1264
  310TMC3    C5 4716   1.846   2.350  16.551  0.4722  0.6216 -0.4016
  310TMC3    C6 4717   1.753   2.331  16.446 -0.7071 -0.1552 -1.1769
  310TMC3     C 4718   1.673   2.570  16.798  0.3195  0.7239  0.0371
  310TMC3     O 4719   1.773   2.574  16.873 -0.0302 -0.4352 -0.2907
  310TMC3     H 4720   1.514   2.531  16.580 -0.2177 -1.1767  0.7604
  310TMC3    H1 4721   1.913   2.463  16.713 -0.6625  0.9490  0.5274
  310TMC3    H2 4722   1.774   2.255  16.371  2.4641 -0.4942  0.0427
  310TMC3    C7 4723   1.977   2.284  16.559  0.0943  0.2282  0.2279
  310TMC3    C8 4724   1.541   2.392  16.355 -0.0922  0.4435  0.9256
  310TMC3    O1 4725   2.022   2.281  16.673  0.4938 -1.2187  0.5920
  310TMC3    O2 4726   1.583   2.336  16.252 -0.1646  0.3879  0.7689
  311MPD2     C 4727   3.504   3.491  12.371 -0.2458 -0.1228  0.9405
  311MPD2    C1 4728   3.530   3.574  12.483 -0.1998 -0.2387 -0.0032
  311MPD2    C2 4729   3.454   3.549  12.595  0.3374  0.3683 -0.0230
  311MPD2    C3 4730   3.361   3.448  12.600  0.1521  0.3422  0.1989
  311MPD2    C4 4731   3.338   3.368  12.489 -0.0642 -0.0757 -0.6624
  311MPD2    C5 4732   3.411   3.393  12.374  0.2164 -0.1766  0.0001
  311MPD2     H 4733   3.468   3.610  12.684 -3.3488 -0.6645  1.2642
  311MPD2    H1 4734   3.264   3.289  12.484  0.3640 -0.5337  0.1550
  311MPD2    H2 4735   3.560   3.506  12.279  0.2049 -1.2532  1.0390
  311MPD2    H3 4736   3.393   3.336  12.284  0.4894  0.3906 -0.4075
  311MPD2     N 4737   3.276   3.440  12.715  0.3870 -0.0409 -0.0103
  311MPD2    H5 4738   3.285   3.518  12.780  2.2457  0.3862 -0.7761
  311MPD2    N1 4739   3.623   3.678  12.474  0.0661 -0.2806 -0.0284
  311MPD2    H7 4740   3.649   3.720  12.562  1.7832 -0.2846 -0.5157
  312TMC3    C1 4741   3.089   3.387  12.846  0.4509  0.4384  0.0407
  312TMC3    C2 4742   2.966   3.334  12.851  0.1674 -0.0267 -0.7204
  312TMC3    C3 4743   2.872   3.378  12.941  0.0990  0.2007  0.0126
  312TMC3    C4 4744   3.139   3.457  12.951  0.1457 -0.1919  0.3664
  312TMC3    C5 4745   3.052   3.491  13.052  0.3848  0.3113  0.1024
  312TMC3    C6 4746   2.919   3.467  13.040 -0.2057  0.5118  0.4822
  312TMC3     C 4747   3.180   3.346  12.738 -0.1540  0.6276 -0.0006
  312TMC3     O 4748   3.149   3.237  12.681  0.2087 -0.9595  0.4034
  312TMC3     H 4749   2.929   3.277  12.766 -0.5141 -0.5645 -0.0610
  312TMC3    H1 4750   3.242   3.490  12.956 -0.3024  0.8191  2.8360
  312TMC3    H2 4751   2.850   3.511  13.111 -1.4417  0.9168 -0.9594
  312TMC3    C7 4752   3.094   3.556  13.174  0.2287 -0.1440 -0.2515
  312TMC3    C8 4753   2.733   3.339  12.923  0.5639 -0.0727  0.0575
  312TMC3    O1 4754   3.012   3.623  13.233 -1.0556 -0.4421  0.0380
  312TMC3    O2 4755   2.709   3.245  12.848  0.0009  0.6072  0.0639
  313MPD2     C 4756   2.775   3.019  11.657  0.2128  0.1801  0.4108
  313MPD2    C1 4757   2.818   3.065  11.534 -0.5187  0.5751 -0.1503
  313MPD2    C2 4758   2.871   2.974  11.443  0.4861  0.9138  0.0716
  313MPD2    C3 4759   2.868   2.836  11.458  0.5030 -0.2110 -0.2139
  313MPD2    C4 4760   2.811   2.788  11.575  0.5959  0.3568  0.4428
  313MPD2    C5 4761   2.779   2.880  11.677  0.4673 -0.3169 -0.2100
  313MPD2     H 4762   2.902   3.022  11.351  1.1899 -0.7664 -0.5725
  313MPD2    H1 4763   2.812   2.684  11.604  0.7107  0.4346  0.7192
  313MPD2    H2 4764   2.740   3.084  11.736  0.6846  0.1521  0.6460
  313MPD2    H3 4765   2.752   2.845  11.776  1.4588  0.4234  0.3271
  313MPD2     N 4766   2.908   2.751  11.349 -0.3081  0.0277  0.0332
  313MPD2    H5 4767   2.945   2.802  11.269 -1.8414 -0.7578 -1.1644
  313MPD2    N1 4768   2.817   3.198  11.492 -0.2517 -0.6102  0.3031
  313MPD2    H7 4769   2.861   3.219  11.403 -0.8457  0.3976  0.2489
  314TMC3    C1 4770   2.696   3.381  11.414 -0.2082 -0.0942 -1.2370
  314TMC3    C2 4771   2.777   3.486  11.392  0.3146 -0.1560  1.0499
  314TMC3    C3 4772   2.781   3.525  11.261 -0.1428  0.3458 -0.4632
  314TMC3    C4 4773   2.617   3.323  11.318 -0.1315 -0.2546 -0.1811
  314TMC3    C5 4774   2.643   3.356  11.187 -0.1286  0.0197  0.1373
  314TMC3    C6 4775   2.724   3.467  11.157  0.7398 -0.4962 -0.6463
  314TMC3     C 4776   2.726   3.290  11.528 -0.5416  0.8380 -1.0012
  314TMC3     O 4777   2.633   3.272  11.608 -0.0534  0.5716  0.0916
  314TMC3     H 4778   2.839   3.534  11.467 -2.0033  1.1681  2.1005
  314TMC3    H1 4779   2.547   3.246  11.349 -0.7102 -0.9121 -3.1860
  314TMC3    H2 4780   2.741   3.499  11.055  1.7304  1.6036  0.1888
  314TMC3    C7 4781   2.589   3.276  11.076  0.3274  0.6642  0.1133
  314TMC3    C8 4782   2.882   3.633  11.233 -0.6114 -0.4795 -0.1579
  314TMC3    O1 4783   2.480   3.224  11.096 -0.0730 -0.3098  0.6448
  314TMC3    O2 4784   2.972   3.658  11.308 -0.6014 -0.1817 -0.0084
  315MPD2     C 4785   2.284   2.719  17.591  0.9186 -0.0421 -0.7216
  315MPD2    C1 4786   2.381   2.680  17.680  0.1955  0.1783  0.1837
  315MPD2    C2 4787   2.484   2.768  17.718 -0.2017  0.1477  1.0349
  315MPD2    C3 4788   2.499   2.887  17.654  0.4580  0.7261 -0.1091
  315MPD2    C4 4789   2.402   2.928  17.562  0.3956  0.6317 -0.1366
  315MPD2    C5 4790   2.295   2.843  17.533  0.0057  0.6619  0.2007
  315MPD2     H 4791   2.555   2.735   0.056  0.4386 -0.3690  0.2098
  315MPD2    H1 4792   2.396   3.028  17.520 -2.7659  0.5697  0.1239
  315MPD2    H2 4793   2.195   2.663  17.564  0.3586  0.3962  0.2151
  315MPD2    H3 4794   2.211   2.876  17.473  1.5086  1.4874 -1.4538
  315MPD2     N 4795   2.615   2.960  17.687 -0.1526 -0.3743 -0.7024
  315MPD2    H5 4796   2.690   2.909  17.733  0.6578  0.0294 -1.5733
  315MPD2    N1 4797   2.370   2.566   0.026 -0.4253  0.1292  0.2819
  315MPD2    H7 4798   2.431   2.562   0.107  1.8004  0.6094 -1.3699
  316TMC3    C1 4799   2.775   3.123  17.632  0.3558 -0.5246  0.1461
  316TMC3    C2 4800   2.853   3.080   0.000 -0.2896  0.0706  0.1787
  316TMC3    C3 4801   2.984   3.109  17.731  0.0515  0.3068 -0.2322
  316TMC3    C4 4802   2.819   3.212  17.540  0.6746 -0.3581  0.3206
  316TMC3    C5 4803   2.956   3.241  17.544 -0.0673 -0.2133  0.2442
  316TMC3    C6 4804   3.038   3.194  17.636 -0.1724 -0.1341  0.6338
  316TMC3     C 4805   2.643   3.079  17.620 -0.0774  0.0972  0.3521
  316TMC3     O 4806   2.571   3.153  17.551 -0.0526 -0.5656  0.0024
  316TMC3     H 4807   2.810   3.038   0.090 -0.8327 -0.8515 -0.5119
  316TMC3    H1 4808   2.744   3.264  17.481  1.0978  0.1488  0.2208
  316TMC3    H2 4809   3.145   3.214  17.635 -0.4924  1.5304  1.7660
  316TMC3    C7 4810   3.024   3.252  17.415 -0.1078  0.2680  0.2020
  316TMC3    C8 4811   3.085   3.052   0.080  0.4371  0.9821 -0.4589
  316TMC3    O1 4812   3.143   3.278  17.411 -0.4654  0.0328 -0.4695
  316TMC3    O2 4813   3.194   3.109   0.079  0.6142  0.2317 -0.2428
  317MPD2     C 4814   0.190   0.918  13.325  0.5081  1.0497 -0.3057
  317MPD2    C1 4815   0.292   0.864  13.255  0.2720  1.1764  0.0541
  317MPD2    C2 4816   0.353   0.742  13.302  0.4607 -0.2653 -0.0052
  317MPD2    C3 4817   0.314   0.687  13.424 -0.3987 -0.1914 -0.3080
  317MPD2    C4 4818   0.214   0.753  13.494 -0.5131  0.1220  0.3985
  317MPD2    C5 4819   0.153   0.863  13.441  0.4421 -0.3917 -0.3662
  317MPD2     H 4820   0.428   0.691  13.242 -0.7423 -1.6999 -0.2991
  317MPD2    H1 4821   0.172   0.723  13.590  1.1061  1.8169  1.6279
  317MPD2    H2 4822   0.143   1.013  13.300 -2.1001 -0.1751  0.0036
  317MPD2    H3 4823   0.080   0.912  13.504  0.0790 -1.1508 -0.1993
  317MPD2     N 4824   0.380   0.569  13.464 -0.3025 -0.9245  0.4480
  317MPD2    H5 4825   0.454   0.545  13.399 -1.7338 -2.6166 -0.5480
  317MPD2    N1 4826   0.333   0.911  13.128  0.4412 -0.2029 -0.3066
  317MPD2    H7 4827   0.415   0.864  13.092  0.1068 -0.3449 -0.8740
  318TMC3    C1 4828   0.438   0.371  13.561 -0.1200 -0.6180 -0.4340
  318TMC3    C2 4829   0.384   0.246  13.540 -0.2418  0.3165  0.1039
  318TMC3    C3 4830   0.470   0.143  13.516 -0.1388  0.1197 -0.2033
  318TMC3    C4 4831   0.566   0.391  13.581 -1.2124  0.2336 -0.1807
  318TMC3    C5 4832   0.645   0.278  13.571  0.6167  0.0678  0.4157
  318TMC3    C6 4833   0.597   0.148  13.540 -0.0540 -0.2507 -0.0086
  318TMC3     C 4834   0.348   0.485  13.562  0.4023  0.6629 -0.0686
  318TMC3     O 4835   0.247   0.461  13.626  0.4606  0.7065  0.2584
  318TMC3     H 4836   0.276   0.237  13.535 -0.0481 -1.3725 -0.7923
  318TMC3    H1 4837   0.610   0.486  13.612 -0.2444 -0.0580 -0.6731
  318TMC3    H2 4838   0.660   0.071  13.498 -0.9516 -0.5173 -0.8578
  318TMC3    C7 4839   0.783   0.298  13.539 -0.1935  0.4419  0.4200
  318TMC3    C8 4840   0.430   0.041  13.424 -0.2970 -0.2197  0.1038
  318TMC3    O1 4841   0.812   0.387  13.459  0.2124  0.2575  0.3325
  318TMC3    O2 4842   0.493   4.671  13.415  0.3729 -0.0861 -0.3230
  319MPD2     C 4843   0.731   2.178  16.797 -0.3881  0.3142 -0.2660
  319MPD2    C1 4844   0.803   2.070  16.741 -0.0134  0.1901  0.3177
  319MPD2    C2 4845   0.759   1.999  16.638 -0.5358 -0.1713 -0.4959
  319MPD2    C3 4846   0.636   2.038  16.584 -0.5882  0.6430 -0.1790
  319MPD2    C4 4847   0.565   2.144  16.636  0.1723  0.0428 -0.5749
  319MPD2    C5 4848   0.615   2.220  16.741 -0.2681  0.1573  0.0675
  319MPD2     H 4849   0.818   1.911  16.616  1.9841  1.9976 -2.4287
  319MPD2    H1 4850   0.471   2.170  16.589 -0.0436  0.5878  0.1664
  319MPD2    H2 4851   0.756   2.238  16.884  0.8986 -2.5058  1.3034
  319MPD2    H3 4852   0.578   2.316  16.776  0.9007  0.9819 -0.9590
  319MPD2     N 4853   0.577   1.972  16.476 -0.1360  0.5670 -0.3486
  319MPD2    H5 4854   0.500   2.022  16.434 -0.4506  0.2923 -0.0984
  319MPD2    N1 4855   0.932   2.024  16.792 -0.4755 -0.1869  0.2999
  319MPD2    H7 4856   0.972   1.938  16.754  0.0580  0.2140 -0.0413
  320TMC3    C1 4857   0.535   1.802  16.328  0.0234 -1.2989 -0.5288
  320TMC3    C2 4858   0.555   1.878  16.219 -0.1124  0.5480 -0.1834
  320TMC3    C3 4859   0.564   1.812  16.101 -0.3507  0.3245 -0.6794
  320TMC3    C4 4860   0.517   1.668  16.319  0.0419  0.6463  0.2008
  320TMC3    C5 4861   0.518   1.605  16.198 -0.8975  0.3205 -0.5110
  320TMC3    C6 4862   0.547   1.673  16.083 -0.1057 -0.6324  0.1708
  320TMC3     C 4863   0.604   1.841  16.444 -0.1906  0.6859 -0.8196
  320TMC3     O 4864   0.665   1.756  16.506  0.5379 -0.0530 -0.1053
  320TMC3     H 4865   0.564   1.986  16.218 -3.0077  0.7791 -1.7701
  320TMC3    H1 4866   0.488   1.613  16.408 -2.7554  0.0104 -1.1115
  320TMC3    H2 4867   0.540   1.618  15.990 -0.4529 -0.7741  0.2803
  320TMC3    C7 4868   0.497   1.460  16.186  0.0115  0.4698 -0.0588
  320TMC3    C8 4869   0.549   1.900  15.983 -0.3706 -0.1351  0.3398
  320TMC3    O1 4870   0.465   1.406  16.078 -0.0101  0.1163 -0.6724
  320TMC3    O2 4871   0.535   2.015  16.009 -0.6882 -0.0112 -0.0577
  321TMC3    C1 4872   1.130   2.015  16.920  0.5443 -0.5542 -0.9417
  321TMC3    C2 4873   1.103   1.883  16.938 -0.3926 -0.0085  0.3980
  321TMC3    C3 4874   1.200   1.801  16.993 -0.5942 -0.5568  0.3390
  321TMC3    C4 4875   1.243   2.071  16.959  0.5536  0.1629  0.5469
  321TMC3    C5 4876   1.340   1.986  17.012  0.7973 -0.1009  0.1944
  321TMC3    C6 4877   1.329   1.852  17.015 -0.3124 -0.2879  0.6361
  321TMC3     C 4878   1.013   2.100  16.871 -0.2892 -1.1463 -0.0555
  321TMC3     O 4879   1.016   2.221  16.886  0.0304  0.2103  0.0300
  321TMC3     H 4880   1.005   1.839  16.928  0.1247 -1.1330  0.2780
  321TMC3    H1 4881   1.249   2.179  16.948  0.5550  0.0411 -0.7403
  321TMC3    H2 4882   1.407   1.786  17.052 -0.2775 -0.3353  0.4779
  321TMC3    C7 4883   1.417   2.028  17.128  0.1144 -0.6524 -0.2056
  321TMC3    C8 4884   1.152   1.735  17.119 -0.0112 -1.0034  0.0305
  321TMC3    O1 4885   1.452   1.936  17.204 -0.0227  0.0864  0.1252
  321TMC3    O2 4886   1.043   1.683  17.125 -0.8178 -0.5190 -0.0040
  322MPD2     C 4887   0.337   3.289  13.408 -0.3976  0.0423  0.9206
  322MPD2    C1 4888   0.312   3.190  13.506  0.0295  0.4645 -0.1959
  322MPD2    C2 4889   0.275   3.065  13.448 -0.3952  0.1171  0.2271
  322MPD2    C3 4890   0.263   3.045  13.314  0.1977  0.3585  0.4765
  322MPD2    C4 4891   0.274   3.155  13.231  0.2102 -0.4120 -0.5539
  322MPD2    C5 4892   0.301   3.280  13.280  0.2010  0.1952 -0.4370
  322MPD2     H 4893   0.270   2.980  13.515  1.3480 -0.1708 -0.0070
  322MPD2    H1 4894   0.248   3.142  13.127  1.6509 -1.6680 -0.7631
  322MPD2    H2 4895   0.385   3.384  13.428 -0.1579 -0.2016  1.4977
  322MPD2    H3 4896   0.323   3.363  13.213 -0.7603 -0.0564 -1.0708
  322MPD2     N 4897   0.245   2.907  13.279 -0.0316  0.3075 -0.2175
  322MPD2    H5 4898   0.270   2.846  13.356 -2.8970  2.3440  2.3472
  322MPD2    N1 4899   0.344   3.212  13.642  0.5233  0.7417  0.5407
  322MPD2    H7 4900   0.412   3.284  13.664  2.0296 -0.0791 -1.3616
  323TMC3    C1 4901   0.370   3.174  13.866  1.0725  0.2000 -0.1162
  323TMC3    C2 4902   0.503   3.198  13.845  0.1014  0.0633  0.7407
  323TMC3    C3 4903   0.576   3.224  13.957  0.1497  0.6908 -0.2275
  323TMC3    C4 4904   0.310   3.169  13.990 -0.1531  0.2884  0.7799
  323TMC3    C5 4905   0.384   3.196  14.102 -0.1769 -0.3357  0.0759
  323TMC3    C6 4906   0.520   3.226  14.087  0.1681  0.0931  0.2274
  323TMC3     C 4907   0.292   3.136  13.748 -0.3227 -0.2072 -0.1201
  323TMC3     O 4908   0.216   3.040  13.755 -0.3855 -0.7094 -0.0772
  323TMC3     H 4909   0.547   3.188  13.747 -0.9232 -1.5392  0.4365
  323TMC3    H1 4910   0.211   3.126  13.997 -0.2356  0.0287 -1.9420
  323TMC3    H2 4911   0.587   3.217  14.172  0.7352  0.0800 -0.2237
  323TMC3    C7 4912   0.338   3.128  14.220 -0.7978 -0.0069 -0.1582
  323TMC3    C8 4913   0.723   3.222  13.942 -0.9676 -0.3685  0.4987
  323TMC3    O1 4914   0.265   3.031  14.207 -0.4414  0.4184 -0.1556
  323TMC3    O2 4915   0.776   3.284  14.029 -0.4060  0.1065  0.6792
  324MPD2     C 4916   1.853   3.991  14.527  0.3079  0.2710 -0.4581
  324MPD2    C1 4917   1.830   4.123  14.500 -0.2374  0.9063  0.4854
  324MPD2    C2 4918   1.705   4.157  14.455  0.4245  0.8983 -0.4632
  324MPD2    C3 4919   1.599   4.071  14.428  0.5774 -0.3521  0.5617
  324MPD2    C4 4920   1.629   3.936  14.457 -0.0812  0.0622 -0.0665
  324MPD2    C5 4921   1.750   3.898  14.502  0.1227 -0.9019  0.1318
  324MPD2     H 4922   1.699   4.262  14.430  2.1007  1.2898  0.7512
  324MPD2    H1 4923   1.550   3.862  14.452 -0.9992  0.7945  3.1018
  324MPD2    H2 4924   1.947   3.974  14.580 -1.3951 -0.3425  2.3525
  324MPD2    H3 4925   1.768   3.796  14.537  0.7404 -1.5356 -2.0824
  324MPD2     N 4926   1.475   4.108  14.379 -0.3554 -0.5911 -0.2336
  324MPD2    H5 4927   1.400   4.040  14.377 -1.1318  0.3371 -2.0730
  324MPD2    N1 4928   1.910   4.240  14.517 -0.2535 -0.3498  0.1464
  324MPD2    H7 4929   1.875   4.325  14.474  0.3358  0.4288  1.2255
  325TMC3    C1 4930   1.326   4.257  14.257 -0.0480 -0.2522 -0.3823
  325TMC3    C2 4931   1.216   4.176  14.272  0.5894 -0.7702  0.0613
  325TMC3    C3 4932   1.091   4.217  14.225 -0.5728 -0.0766 -0.2692
  325TMC3    C4 4933   1.316   4.384  14.200  0.4073 -0.5790  0.5020
  325TMC3    C5 4934   1.187   4.418  14.162  0.0670 -0.6128  0.2952
  325TMC3    C6 4935   1.076   4.339  14.163  0.5106 -0.3346  0.2476
  325TMC3     C 4936   1.452   4.231  14.322 -0.3614  0.2871  0.1024
  325TMC3     O 4937   1.535   4.321  14.310 -0.4359  0.1502 -0.0147
  325TMC3     H 4938   1.229   4.077  14.316  3.3502  1.0276  3.2219
  325TMC3    H1 4939   1.393   4.461  14.197 -0.3542  0.2130  1.4356
  325TMC3    H2 4940   0.981   4.375  14.126  1.1331 -1.5876 -2.5742
  325TMC3    C7 4941   1.164   4.557  14.128 -0.7017  0.3673 -0.6816
  325TMC3    C8 4942   0.993   4.112  14.216  0.1331 -0.2995 -1.0242
  325TMC3    O1 4943   1.271   4.617  14.106  0.3131  0.3356  0.1599
  325TMC3    O2 4944   1.031   4.007  14.265 -0.4090 -0.4688 -0.1604
  326MPD2     C 4945   2.581   0.552  11.039  0.1215  0.6567 -0.3174
  326MPD2    C1 4946   2.543   0.594  10.908 -0.3167  0.2915  0.1617
  326MPD2    C2 4947   2.611   0.698  10.847 -0.7910 -0.1643  0.7352
  326MPD2    C3 4948   2.719   0.756  10.903  0.0162 -0.3681  0.4842
  326MPD2    C4 4949   2.750   0.722  11.031 -1.3041 -0.7045 -0.6228
  326MPD2    C5 4950   2.681   0.628  11.097 -1.0675  0.0070 -0.2004
  326MPD2     H 4951   2.579   0.719  10.745 -0.1291 -0.6535  0.4247
  326MPD2    H1 4952   2.842   0.758  11.075 -2.2477 -0.1450  0.8860
  326MPD2    H2 4953   2.525   0.478  11.095 -0.0227  1.3047  0.3828
  326MPD2    H3 4954   2.701   0.605  11.201 -4.6833 -0.5983  0.3828
  326MPD2     N 4955   2.806   0.845  10.833 -0.8086  0.3788  0.3651
  326MPD2    H5 4956   2.890   0.856  10.890  0.4373  1.6950 -1.7059
  326MPD2    N1 4957   2.437   0.543  10.841 -0.3832 -1.3490  0.0003
  326MPD2    H7 4958   2.424   0.585  10.750 -0.8968 -0.8191  0.3245
  327TMC3    C1 4959   2.234   0.423  10.793 -0.7154 -0.4284 -0.3261
  327TMC3    C2 4960   2.244   0.439  10.656 -0.2581 -0.0044  0.1241
  327TMC3    C3 4961   2.148   0.394  10.573  0.1982  0.3653 -0.0233
  327TMC3    C4 4962   2.129   0.364  10.849  0.4155  0.2226 -0.0275
  327TMC3    C5 4963   2.035   0.310  10.761  0.0137  0.0688  0.3499
  327TMC3    C6 4964   2.036   0.332  10.627  0.6521 -0.4697 -0.0365
  327TMC3     C 4965   2.351   0.442  10.884 -1.1223 -0.3679 -0.1925
  327TMC3     O 4966   2.359   0.372  10.985  0.2301 -0.3324 -0.6207
  327TMC3     H 4967   2.334   0.468  10.603  0.8896 -0.8321  1.6474
  327TMC3    H1 4968   2.122   0.349  10.956 -2.1775  0.2447 -0.1966
  327TMC3    H2 4969   1.980   0.269  10.559 -0.3200  0.5939 -0.2164
  327TMC3    C7 4970   2.028   0.169  10.784  0.8023 -0.7307  0.6759
  327TMC3    C8 4971   2.159   0.412  10.429  0.6954  0.4550  0.1082
  327TMC3    O1 4972   1.947   0.095  10.715 -0.2636  0.5023 -0.0767
  327TMC3    O2 4973   2.090   0.331  10.367 -0.1685 -0.3211 -0.0150
  328MPD2     C 4974   0.575   1.021  17.347  0.1931  0.6774 -0.0696
  328MPD2    C1 4975   0.507   0.922  17.281 -0.1235  0.2196  0.0297
  328MPD2    C2 4976   0.482   0.929  17.149  0.0165  0.8342 -0.3176
  328MPD2    C3 4977   0.531   1.039  17.081 -0.0662  0.3349  0.4116
  328MPD2    C4 4978   0.620   1.129  17.138 -0.7473 -0.1699  0.3657
  328MPD2    C5 4979   0.630   1.129  17.279 -0.1835  0.0295 -0.1042
  328MPD2     H 4980   0.412   0.852  17.116  2.6441 -1.3586 -0.7473
  328MPD2    H1 4981   0.663   1.207  17.076  1.3379 -0.4480  1.4774
  328MPD2    H2 4982   0.582   1.019  17.455  1.8241  0.8136 -0.1703
  328MPD2    H3 4983   0.682   1.206  17.335 -0.7245  0.1975  0.1682
  328MPD2     N 4984   0.501   1.069  16.945 -0.0960  0.3931  0.1627
  328MPD2    H5 4985   0.530   1.164  16.922  4.0680 -0.4350  1.8821
  328MPD2    N1 4986   0.449   0.821  17.367  0.2170 -0.2126 -0.0162
  328MPD2    H7 4987   0.464   0.836  17.466  0.1836 -0.6056  0.0508
  329TMC3    C1 4988   0.268   0.705  17.440 -0.1681  0.1461  0.2617
  329TMC3    C2 4989   0.263   0.796  17.539  0.4387  0.6308 -0.2460
  329TMC3    C3 4990   0.139   0.838  17.590 -0.2023 -0.2941  0.5286
  329TMC3    C4 4991   0.156   0.652  17.389  0.5553  0.0970  0.3441
  329TMC3    C5 4992   0.033   0.684  17.446  0.5433 -0.6383 -0.2023
  329TMC3    C6 4993   0.027   0.784  17.542 -0.0399  0.6968 -0.0518
  329TMC3     C 4994   0.369   0.720  17.338  0.0462  0.3351 -0.2829
  329TMC3     O 4995   0.360   0.677  17.228 -0.4380  0.5087 -0.3855
  329TMC3     H 4996   0.339   0.857  17.587  1.1966 -1.1478  0.8418
  329TMC3    H1 4997   0.162   0.586  17.302 -2.2085 -0.3041  0.4541
  329TMC3    H2 4998   4.664   0.823  17.569  1.1645  1.7828  2.6716
  329TMC3    C7 4999   4.662   0.623  17.380 -0.3072  0.2654  0.8744
  329TMC3    C8 5000   0.135   0.990  17.587  0.2677  0.5662  0.2337
  329TMC3    O1 5001   4.697   0.532  17.305 -0.6738  0.8197 -0.9214
  329TMC3    O2 5002   0.223   1.036  17.510 -0.5850 -0.3972 -0.2125
  330TMC3    C1 5003   3.575   4.591  10.196  0.0721 -0.1433 -0.2674
  330TMC3    C2 5004   3.443   4.612  10.176  0.5422  0.7344 -0.2017
  330TMC3    C3 5005   3.370   4.685  10.268 -0.3441 -0.0156 -0.2338
  330TMC3    C4 5006   3.643   4.628  10.314 -0.0678 -0.0415  0.2045
  330TMC3    C5 5007   3.562   4.698  10.401  0.1309  0.1793  0.1228
  330TMC3    C6 5008   3.436   4.733  10.375  0.0582 -0.0541 -0.5075
  330TMC3     C 5009   3.649   4.494  10.107 -0.0799 -0.2857 -0.1460
  330TMC3     O 5010   3.753   4.451  10.151  0.8055 -0.2342 -0.0887
  330TMC3     H 5011   3.401   4.589  10.079  3.2327 -0.4828 -1.0919
  330TMC3    H1 5012   3.751   4.618  10.317 -0.0467  0.3695  1.0546
  330TMC3    H2 5013   3.392   0.076  10.436  0.3379 -1.3999  1.3918
  330TMC3    C7 5014   3.639   0.066  10.476 -0.2147  0.6805  0.0127
  330TMC3    C8 5015   3.226   4.688  10.262 -0.1051 -0.0827 -0.2166
  330TMC3    O1 5016   3.589   0.178  10.476  0.0990  0.2895  0.1628
  330TMC3    O2 5017   3.174   0.040  10.331 -0.1544 -0.8579 -0.0505
  331MPD2     C 5018   1.386   3.163  13.332 -0.1092  0.6618  0.1851
  331MPD2    C1 5019   1.438   3.139  13.209 -0.0452  0.5616 -0.4521
  331MPD2    C2 5020   1.375   3.047  13.127  0.1782  0.2850  0.5097
  331MPD2    C3 5021   1.261   2.984  13.172  0.8388 -0.2536  0.4496
  331MPD2    C4 5022   1.207   3.020  13.286 -0.2299 -0.0410 -0.0645
  331MPD2    C5 5023   1.263   3.115  13.366  0.1634 -0.6716 -1.0740
  331MPD2     H 5024   1.409   3.017  13.029 -0.6316  0.9476  0.0230
  331MPD2    H1 5025   1.112   2.984  13.326 -0.1231  1.7657  1.8241
  331MPD2    H2 5026   1.433   3.234  13.399  2.4470 -0.2470 -0.6315
  331MPD2    H3 5027   1.204   3.146  13.451  1.5937 -1.7728  0.3458
  331MPD2     N 5028   1.202   2.878  13.088 -0.1327 -0.4810 -0.6020
  331MPD2    H5 5029   1.257   2.863  13.003  0.0926 -0.3740 -0.4762
  331MPD2    N1 5030   1.557   3.205  13.178 -0.1116 -0.8162  0.3569
  331MPD2    H7 5031   1.605   3.257  13.251  2.1893 -1.0841 -0.9814
  332TMC3    C1 5032   1.087   2.704  12.991  0.3680  0.0654  0.1162
  332TMC3    C2 5033   1.117   2.761  12.876 -0.5979  0.4132  0.1087
  332TMC3    C3 5034   1.194   2.690  12.784 -0.1356 -0.6923  0.1132
  332TMC3    C4 5035   1.130   2.581  13.024  0.8075  0.5760  0.0190
  332TMC3    C5 5036   1.216   2.520  12.939 -0.5912 -1.1819 -0.4701
  332TMC3    C6 5037   1.260   2.576  12.821  0.7496  0.2228  0.1923
  332TMC3     C 5038   1.096   2.797  13.103 -0.0418 -0.1991 -0.4921
  332TMC3     O 5039   1.039   2.779  13.209  0.8654 -0.4299 -0.4302
  332TMC3     H 5040   1.075   2.855  12.844  3.5380  2.3625  0.2972
  332TMC3    H1 5041   1.102   2.531  13.116 -1.9506 -0.4634 -1.3529
  332TMC3    H2 5042   1.329   2.529  12.753 -1.0668 -2.3370  0.1364
  332TMC3    C7 5043   1.302   2.431  13.009 -0.1252  0.7306  0.0795
  332TMC3    C8 5044   1.256   2.767  12.683 -0.6488 -0.2775 -0.6132
  332TMC3    O1 5045   1.263   2.358  13.093  0.4457  0.0889  0.2033
  332TMC3    O2 5046   1.253   2.890  12.694  0.0020  0.4375  0.2150
  333MPD2     C 5047   1.659   3.654  11.163  0.0252  0.1096  0.3549
  333MPD2    C1 5048   1.759   3.614  11.080  0.5511 -0.6394  0.0551
  333MPD2    C2 5049   1.773   3.480  11.057  0.6284  0.8638  0.7623
  333MPD2    C3 5050   1.691   3.390  11.119 -0.0497  0.0440  0.6675
  333MPD2    C4 5051   1.598   3.427  11.208  0.1281  0.4772  0.1887
  333MPD2    C5 5052   1.575   3.563  11.228 -0.7754 -0.7623 -0.4816
  333MPD2     H 5053   1.852   3.438  10.995 -0.5117 -1.0312  0.6126
  333MPD2    H1 5054   1.538   3.363  11.271 -1.1439  0.2998 -1.1945
  333MPD2    H2 5055   1.637   3.759  11.169 -0.1170  0.0190  1.3528
  333MPD2    H3 5056   1.483   3.592  11.276 -0.2495  0.9395 -0.5115
  333MPD2     N 5057   1.706   3.247  11.090  0.2495 -0.1503  0.1563
  333MPD2    H5 5058   1.783   3.218  11.031  2.1639  1.0101  2.1167
  333MPD2    N1 5059   1.856   3.706  11.031  0.3872  0.1083  0.0033
  333MPD2    H7 5060   1.841   3.799  11.068 -0.1656 -0.1990  0.5355
  334TMC3    C1 5061   2.030   3.799  10.921  0.2212  1.3562 -0.6753
  334TMC3    C2 5062   2.162   3.790  10.884  0.1913  0.3697 -0.5955
  334TMC3    C3 5063   2.233   3.901  10.861  0.1305 -0.1670  0.4222
  334TMC3    C4 5064   1.969   3.921  10.939 -0.3011 -0.2308 -0.6128
  334TMC3    C5 5065   2.044   4.033  10.904  0.6363  0.4812  0.5025
  334TMC3    C6 5066   2.175   4.022  10.868 -0.0625  0.6081 -0.3026
  334TMC3     C 5067   1.960   3.677  10.949 -0.0926  0.1985  0.0139
  334TMC3     O 5068   1.994   3.574  10.892  0.2169 -0.1249  0.2597
  334TMC3     H 5069   2.214   3.695  10.877 -1.4369 -0.3813 -2.2225
  334TMC3    H1 5070   1.864   3.938  10.961 -0.2990 -2.2671  0.9443
  334TMC3    H2 5071   2.224   4.115  10.841  1.9480 -1.1001 -2.4364
  334TMC3    C7 5072   1.990   4.167  10.905 -0.2320 -0.0887 -0.0793
  334TMC3    C8 5073   2.367   3.871  10.806  0.2412 -0.3649 -0.4769
  334TMC3    O1 5074   2.062   4.255  10.954 -0.2509  0.0458 -0.2736
  334TMC3    O2 5075   2.397   3.756  10.781 -0.1393 -0.5257  0.3988
  335TMC3    C1 5076   1.079   0.621  17.330  1.4164 -0.1240  0.5744
  335TMC3    C2 5077   1.052   0.601  17.198  0.5476 -0.2432 -0.2448
  335TMC3    C3 5078   1.118   0.675  17.101  1.0630 -0.7177  0.2127
  335TMC3    C4 5079   1.178   0.709  17.363  0.0041  0.5276 -1.1663
  335TMC3    C5 5080   1.242   0.781  17.267 -0.7870 -1.0722  0.0913
  335TMC3    C6 5081   1.213   0.764  17.134  0.0462  0.0211 -0.1310
  335TMC3     C 5082   1.028   0.528  17.423  0.0622 -0.8309 -0.0202
  335TMC3     O 5083   0.936   0.453  17.380 -0.9726  0.1429 -0.2185
  335TMC3     H 5084   0.976   0.525  17.184 -0.4124  0.7944 -0.6837
  335TMC3    H1 5085   1.227   0.713  17.459 -1.3918  0.7554 -0.4675
  335TMC3    H2 5086   1.277   0.817  17.064  0.3365 -2.6254 -1.8501
  335TMC3    C7 5087   1.379   0.825  17.310  0.5907 -0.0113 -0.3297
  335TMC3    C8 5088   1.106   0.636  16.966  0.7027  0.2373 -0.7992
  335TMC3    O1 5089   1.433   0.771  17.402 -0.0191  0.0354 -0.2357
  335TMC3    O2 5090   1.192   0.675  16.888 -0.1841  0.5002  0.5859
  336MPD2     C 5091   0.652   3.252  15.774 -0.5245  0.3060  0.0644
  336MPD2    C1 5092   0.546   3.224  15.856 -0.9289 -0.6096 -0.6698
  336MPD2    C2 5093   0.549   3.105  15.920 -0.7707  0.6565 -0.1044
  336MPD2    C3 5094   0.652   3.009  15.903 -0.6790 -0.2327  0.3787
  336MPD2    C4 5095   0.754   3.031  15.819  0.0279 -0.6140 -0.3877
  336MPD2    C5 5096   0.760   3.161  15.764  0.0638  0.4928  0.1824
  336MPD2     H 5097   0.456   3.090  15.975  0.1465 -0.8653  1.0350
  336MPD2    H1 5098   0.830   2.957  15.798 -0.8000 -1.3086 -0.9555
  336MPD2    H2 5099   0.668   3.352  15.735  0.7030 -0.2973 -0.9690
  336MPD2    H3 5100   0.846   3.185  15.702 -0.0857 -0.3743 -0.3673
  336MPD2     N 5101   0.663   2.889  15.975 -0.2059  0.7069  0.0048
  336MPD2    H5 5102   0.719   2.817  15.929 -1.2074 -0.6927  0.9474
  336MPD2    N1 5103   0.436   3.314  15.877 -0.1932 -0.3016 -0.0033
  336MPD2    H7 5104   0.368   3.283  15.946  1.0290 -0.2385  1.2363
  337TMC3    C1 5105   0.304   3.514  15.843  0.0142  0.1052 -0.0196
  337TMC3    C2 5106   0.222   3.535  15.741 -0.5424 -0.0396 -0.5461
  337TMC3    C3 5107   0.101   3.589  15.767 -0.6614 -0.5952  0.6523
  337TMC3    C4 5108   0.273   3.541  15.976 -0.5242 -0.4977  0.5419
  337TMC3    C5 5109   0.160   3.602  15.996  0.3861 -0.0530  0.4123
  337TMC3    C6 5110   0.067   3.625  15.895  0.3080 -0.4193 -0.3004
  337TMC3     C 5111   0.412   3.427  15.799  0.1055 -0.1216 -0.1895
  337TMC3     O 5112   0.477   3.464  15.702  0.6794  0.2080 -0.5937
  337TMC3     H 5113   0.251   3.505  15.641 -0.8082  2.7524 -1.4608
  337TMC3    H1 5114   0.329   3.501  16.060  0.5112 -0.4323 -0.1162
  337TMC3    H2 5115   4.714   3.688  15.905 -0.2026 -1.4606  1.7333
  337TMC3    C7 5116   0.144   3.656  16.125  0.1737  0.3758  0.6906
  337TMC3    C8 5117   4.722   3.550  15.681 -0.0317  0.0840  0.7442
  337TMC3    O1 5118   0.245   3.675  16.198 -0.1792 -0.2185 -0.4065
  337TMC3    O2 5119   4.610   3.552  15.733  0.9327  0.3171  0.0082
  338MPD2     C 5120   0.462   2.417   0.982 -0.6965 -0.1275 -0.0627
  338MPD2    C1 5121   0.466   2.410   0.843  0.0197  0.2525  0.0968
  338MPD2    C2 5122   0.346   2.421   0.782  0.1818  0.4350 -0.5112
  338MPD2    C3 5123   0.227   2.436   0.839  0.0108  0.1986  0.1707
  338MPD2    C4 5124   0.224   2.447   0.975  0.0676  0.3314  0.9523
  338MPD2    C5 5125   0.342   2.430   1.044 -0.5874 -0.9342  0.0854
  338MPD2     H 5126   0.339   2.409   0.675 -2.9715  0.5064 -0.3165
  338MPD2    H1 5127   0.133   2.457   1.032 -0.3501  1.3034  0.1257
  338MPD2    H2 5128   0.552   2.403   1.041 -1.5978 -1.9330  0.8861
  338MPD2    H3 5129   0.339   2.429   1.153 -0.5555 -0.6658  0.0878
  338MPD2     N 5130   0.109   2.440   0.763  0.2432  0.5969  0.1438
  338MPD2    H5 5131   0.123   2.434   0.662  2.6136  3.0665  0.3393
  338MPD2    N1 5132   0.582   2.367   0.765  0.1911  0.2452 -0.1058
  338MPD2    H7 5133   0.571   2.359   0.664 -0.4130  2.4297 -0.2071
  339TMC3    C1 5134   4.613   2.438   0.721 -0.3056 -0.4502  0.2942
  339TMC3    C2 5135   4.494   2.366   0.746 -0.6016  0.0003 -0.5614
  339TMC3    C3 5136   4.389   2.404   0.664  0.2605 -0.5815  0.0089
  339TMC3    C4 5137   4.626   2.531   0.619 -0.4636  0.0611  0.7838
  339TMC3    C5 5138   4.512   2.558   0.549  0.0478  1.0361 -0.0828
  339TMC3    C6 5139   4.397   2.489   0.559  0.1046  0.5458 -0.5561
  339TMC3     C 5140   4.724   2.407   0.809  0.2701 -0.1648  1.0541
  339TMC3     O 5141   4.695   2.364   0.917 -0.3023  0.0937 -0.3505
  339TMC3     H 5142   4.483   2.293   0.825 -1.6330 -0.7301 -1.3753
  339TMC3    H1 5143   4.702   2.606   0.603 -0.7626 -0.3070 -2.3465
  339TMC3    H2 5144   4.303   2.518   0.514 -1.1964 -0.1435  1.6866
  339TMC3    C7 5145   4.519   2.663   0.445  0.0074  0.1255 -0.3929
  339TMC3    C8 5146   4.262   2.342   0.689 -0.5809 -0.1818  0.2162
  339TMC3    O1 5147   4.627   2.689   0.399  0.3923 -0.0721  0.8414
  339TMC3    O2 5148   4.157   2.395   0.651 -0.0881  0.0851 -0.1375
  340MPD2     C 5149   0.443   4.441   9.984  0.0754 -0.5010  0.0154
  340MPD2    C1 5150   0.510   4.372  10.082 -0.1157  0.3047 -0.9244
  340MPD2    C2 5151   0.583   4.439  10.178  0.2066 -0.0897 -0.4028
  340MPD2    C3 5152   0.587   4.579  10.171  0.4927 -0.2983 -1.2254
  340MPD2    C4 5153   0.529   4.647  10.066  0.0691 -0.0897 -0.2302
  340MPD2    C5 5154   0.441   4.577   9.991 -1.1261  0.3314 -0.3312
  340MPD2     H 5155   0.625   4.382  10.260 -0.1927 -0.4113 -0.4232
  340MPD2    H1 5156   0.537   0.019  10.051 -2.2141  0.3822  1.8332
  340MPD2    H2 5157   0.374   4.398   9.912 -1.3032  1.9974 -0.1594
  340MPD2    H3 5158   0.377   4.633   9.923 -0.7069 -0.8077 -1.6538
  340MPD2     N 5159   0.661   4.654  10.262  0.2552 -0.2346  0.2063
  340MPD2    H5 5160   0.697   0.009  10.229  1.9701 -1.1225 -0.3178
  340MPD2    N1 5161   0.497   4.232  10.091 -0.1106  0.1908  0.6741
  340MPD2    H7 5162   0.446   4.183  10.018 -0.7325 -0.6872  1.7087
  341TMC3    C1 5163   0.528   4.007  10.150  0.2085  0.0124  0.5334
  341TMC3    C2 5164   0.406   3.985  10.092  0.0043  1.1680 -0.5413
  341TMC3    C3 5165   0.387   3.855  10.045 -0.1692 -0.1502  0.7582
  341TMC3    C4 5166   0.634   3.923  10.149  0.5849 -0.3606  0.4800
  341TMC3    C5 5167   0.617   3.807  10.095  0.6540  0.5623  0.4602
  341TMC3    C6 5168   0.486   3.761  10.053  0.2492 -0.0342  0.7453
  341TMC3     C 5169   0.558   4.151  10.181 -0.2124 -0.2837  0.8599
  341TMC3     O 5170   0.643   4.170  10.264  0.2265  0.0099  0.0556
  341TMC3     H 5171   0.329   4.061  10.094 -1.3111 -0.2087  1.3460
  341TMC3    H1 5172   0.731   3.961  10.180  0.6353 -0.3675  0.3324
  341TMC3    H2 5173   0.461   3.659  10.025 -1.7470  0.6004  0.2893
  341TMC3    C7 5174   0.741   3.746  10.033  0.1196  0.0678 -1.1930
  341TMC3    C8 5175   0.263   3.812   9.980 -0.1000  0.4133  0.3670
  341TMC3    O1 5176   0.837   3.813   9.998  0.3217  0.3566 -0.2613
  341TMC3    O2 5177   0.243   3.692   9.983 -0.1167 -0.2760 -0.3292
  342MPD2     C 5178   3.232   3.769  17.134 -0.7125  0.3434  0.0228
  342MPD2    C1 5179   3.368   3.752  17.152 -0.2510 -0.1541  0.4156
  342MPD2    C2 5180   3.440   3.854  17.215 -0.0377 -0.3609 -0.0280
  342MPD2    C3 5181   3.381   3.969  17.264 -0.4978 -0.3426  0.2053
  342MPD2    C4 5182   3.245   3.979  17.238 -0.1901 -0.4322 -0.4477
  342MPD2    C5 5183   3.173   3.885  17.173 -0.8790 -0.8276  0.0434
  342MPD2     H 5184   3.547   3.841  17.222 -0.1512 -1.0283  0.4850
  342MPD2    H1 5185   3.183   4.063  17.268 -1.0286 -1.3939  0.4885
  342MPD2    H2 5186   3.171   3.695  17.083 -0.6227  1.2010 -1.3497
  342MPD2    H3 5187   3.065   3.887  17.159 -1.3062  0.6931  3.5681
  342MPD2     N 5188   3.447   4.079  17.329  0.6128 -0.2512 -0.2239
  342MPD2    H5 5189   3.377   4.141  17.369  0.5212  1.5400 -3.1032
  342MPD2    N1 5190   3.435   3.629  17.129  0.0046  0.4413 -0.0034
  342MPD2    H7 5191   3.531   3.628  17.163 -0.6329 -1.2167  1.7313
  343TMC3    C1 5192   3.485   3.417  17.058  0.1156  0.1424  0.0932
  343TMC3    C2 5193   3.570   3.437  16.953 -0.4995 -0.2851 -0.1452
  343TMC3    C3 5194   3.626   3.326  16.895 -0.0116 -0.6143 -0.4299
  343TMC3    C4 5195   3.452   3.295  17.098  0.0462  0.2435  0.2639
  343TMC3    C5 5196   3.508   3.187  17.034  0.7225  0.5522  0.1031
  343TMC3    C6 5197   3.596   3.195  16.936  0.0083  0.0691 -0.4048
  343TMC3     C 5198   3.378   3.511  17.080  0.2090  0.1712  0.3417
  343TMC3     O 5199   3.263   3.467  17.059  0.0712 -0.2273  0.2730
  343TMC3     H 5200   3.607   3.536  16.928 -0.7396 -0.5041 -1.3340
  343TMC3    H1 5201   3.371   3.283  17.169 -1.4413  3.2253 -0.9501
  343TMC3    H2 5202   3.622   3.105  16.883 -1.7961  0.1302 -1.3870
  343TMC3    C7 5203   3.452   3.060  17.068  0.3454  1.2004 -0.4581
  343TMC3    C8 5204   3.713   3.346  16.779 -0.5447 -0.0756  0.3158
  343TMC3    O1 5205   3.469   2.970  16.986  0.0680 -0.1176 -0.0020
  343TMC3    O2 5206   3.731   3.461  16.748 -0.0828 -0.3605 -0.5797
  344MPD2     C 5207   4.708   3.279  11.354  0.5373  0.7405 -0.3614
  344MPD2    C1 5208   4.718   3.224  11.229 -0.3416 -0.5858  0.1465
  344MPD2    C2 5209   0.041   3.300  11.131 -0.7068 -0.0841  0.4690
  344MPD2    C3 5210   0.066   3.433  11.143 -0.5190 -0.1594 -0.1704
  344MPD2    C4 5211   0.045   3.490  11.270  0.2004  0.2405 -0.2648
  344MPD2    C5 5212   0.010   3.413  11.376 -0.2818 -0.8775 -0.3913
  344MPD2     H 5213   0.057   3.253  11.035  0.6935 -1.3106  1.2974
  344MPD2    H1 5214   0.060   3.596  11.281 -1.4745  0.6694 -2.0926
  344MPD2    H2 5215   4.675   3.227  11.443 -0.8211  2.3523  0.0742
  344MPD2    H3 5216   0.006   3.455  11.475 -2.1887  0.3739 -1.0131
  344MPD2     N 5217   0.132   3.513  11.050  0.9515  0.5404 -0.3280
  344MPD2    H5 5218   0.165   3.602  11.085  1.1102  0.2784  0.1894
  344MPD2    N1 5219   4.684   3.090  11.206 -0.0744  0.1709  0.5925
  344MPD2    H7 5220   4.720   3.054  11.118 -0.2405  1.7577 -0.1131
  345TMC3    C1 5221   0.194   3.600  10.854 -0.4984  0.3893 -0.6251
  345TMC3    C2 5222   0.308   3.653  10.904 -0.0986 -0.4774 -0.2732
  345TMC3    C3 5223   0.346   3.773  10.851 -0.3952 -0.0190  0.1359
  345TMC3    C4 5224   0.114   3.665  10.765 -0.3899  0.3306  0.5093
  345TMC3    C5 5225   0.147   3.787  10.728  0.3556  0.4435 -0.6321
  345TMC3    C6 5226   0.264   3.845  10.760 -0.0928 -0.4377 -0.6667
  345TMC3     C 5227   0.134   3.483  10.916  0.2911  0.9218  0.2079
  345TMC3     O 5228   0.069   3.410  10.846  0.0687 -0.5742 -0.2380
  345TMC3     H 5229   0.377   3.598  10.967 -0.8620 -1.0676  0.0457
  345TMC3    H1 5230   0.020   3.616  10.740  0.8175 -1.8117  0.1442
  345TMC3    H2 5231   0.308   3.921  10.696  1.0394 -0.9794 -0.5280
  345TMC3    C7 5232   0.073   3.865  10.637  0.5370 -0.3982  0.2272
  345TMC3    C8 5233   0.479   3.817  10.889 -0.0724 -0.0455 -0.2719
  345TMC3    O1 5234   0.095   3.987  10.650  0.4366 -0.1992 -0.2257
  345TMC3    O2 5235   0.563   3.746  10.944  0.5052  0.2696  0.6778
  346MPD2     C 5236   0.067   4.601  13.954 -0.6850  0.4740 -0.2838
  346MPD2    C1 5237   0.190   4.561  13.982 -0.1928 -0.0607 -0.0992
  346MPD2    C2 5238   0.263   4.629  14.078  0.1139  0.4990  0.0329
  346MPD2    C3 5239   0.210   0.004  14.143 -0.1885  0.7801 -0.3370
  346MPD2    C4 5240   0.082   0.049  14.111 -0.2576  0.2090 -0.6594
  346MPD2    C5 5241   0.018   4.719  14.008  0.1011  0.0166 -1.0459
  346MPD2     H 5242   0.363   4.594  14.102 -0.6701 -0.3678  1.9833
  346MPD2    H1 5243   0.029   0.134  14.153  0.0220 -0.0530  0.2188
  346MPD2    H2 5244   0.017   4.563  13.867 -0.4043 -0.5383  0.0008
  346MPD2    H3 5245   4.661   0.027  13.967 -0.4725  1.2502  1.5225
  346MPD2     N 5246   0.289   0.062  14.243 -0.0653 -0.5747  0.6320
  346MPD2    H5 5247   0.385   0.037  14.265  0.6745  2.4979  0.9705
  346MPD2    N1 5248   0.252   4.451  13.922  0.2331 -0.2074  0.5190
  346MPD2    H7 5249   0.353   4.447  13.926  0.1923 -1.7689  0.0542
  347TMC3    C1 5250   0.348   0.190  14.428  0.6543 -0.4818 -0.1775
  347TMC3    C2 5251   0.481   0.203  14.382  0.3106  1.1051 -1.0734
  347TMC3    C3 5252   0.584   0.209  14.475  0.6536 -0.6197 -0.3369
  347TMC3    C4 5253   0.319   0.190  14.556  0.0868 -0.4012 -0.1862
  347TMC3    C5 5254   0.426   0.194  14.649  0.2022 -0.4299 -0.5390
  347TMC3    C6 5255   0.561   0.198  14.604  0.4838 -0.0096 -0.0025
  347TMC3     C 5256   0.241   0.159  14.337  0.1406  0.5504 -0.7618
  347TMC3     O 5257   0.124   0.194  14.349 -0.3447  0.2873 -0.0206
  347TMC3     H 5258   0.506   0.215  14.277  0.6609  0.9757 -1.0047
  347TMC3    H1 5259   0.213   0.168  14.568 -0.0031  0.2530  0.2336
  347TMC3    H2 5260   0.640   0.192  14.678  0.0598  1.4296  0.5697
  347TMC3    C7 5261   0.397   0.182  14.787 -0.3034 -0.8045  0.3814
  347TMC3    C8 5262   0.716   0.171  14.431 -0.0073 -0.1321 -0.5746
  347TMC3    O1 5263   0.496   0.174  14.863 -0.1388 -0.1566  0.3098
  347TMC3    O2 5264   0.787   0.101  14.499 -0.0139 -0.6540  0.2716
  348MPD2     C 5265   3.885   4.668  11.715  0.6309  0.8777  0.1035
  348MPD2    C1 5266   3.755   4.644  11.680 -0.1007 -0.3521  0.0042
  348MPD2    C2 5267   3.673   0.021  11.665  0.2474  0.1448  0.3801
  348MPD2    C3 5268   3.721   0.152  11.679  0.3609  0.3833 -0.5779
  348MPD2    C4 5269   3.848   0.173  11.721 -0.2166  0.2520 -0.3768
  348MPD2    C5 5270   3.922   0.064  11.736  0.1980 -0.0946  0.1041
  348MPD2     H 5271   3.573   0.001  11.628  0.0198  0.3917  0.8773
  348MPD2    H1 5272   3.909   0.262  11.724  1.3868 -0.9708  2.5806
  348MPD2    H2 5273   3.961   4.592  11.699  2.2230  3.1920 -3.6118
  348MPD2    H3 5274   4.027   0.081  11.757  0.3481 -1.6124  0.6595
  348MPD2     N 5275   3.636   0.259  11.647 -0.9074  0.0391  0.1511
  348MPD2    H5 5276   3.549   0.229  11.605 -0.3539  2.0181 -2.3746
  348MPD2    N1 5277   3.702   4.510  11.653  0.4354  0.0900  0.0875
  348MPD2    H7 5278   3.610   4.501  11.611  0.2975 -0.1161  0.4341
  349TMC3    C1 5279   3.697   4.270  11.671  0.5246  0.4797 -0.6179
  349TMC3    C2 5280   3.766   4.155  11.703 -0.0368  0.0138  0.3440
  349TMC3    C3 5281   3.705   4.035  11.671 -0.1843 -0.2793 -0.0537
  349TMC3    C4 5282   3.584   4.266  11.595  0.2515 -0.3943 -0.0687
  349TMC3    C5 5283   3.529   4.147  11.565  0.4409  0.2463 -0.7111
  349TMC3    C6 5284   3.590   4.028  11.604  0.4427  0.1854 -0.1237
  349TMC3     C 5285   3.761   4.395  11.705 -0.3579 -0.0670 -0.1931
  349TMC3     O 5286   3.859   4.382  11.771  0.1211 -0.3321  0.2525
  349TMC3     H 5287   3.850   4.151  11.771 -1.0029 -2.3192  1.4320
  349TMC3    H1 5288   3.524   4.356  11.589  2.1279  0.8614 -0.0583
  349TMC3    H2 5289   3.554   3.933  11.567 -1.1479  1.4166 -1.7988
  349TMC3    C7 5290   3.404   4.136  11.491  0.9903 -0.3130  0.3797
  349TMC3    C8 5291   3.769   3.926  11.713 -0.1723  0.1740  0.5683
  349TMC3    O1 5292   3.350   4.028  11.473 -0.1715  0.2485  0.4387
  349TMC3    O2 5293   3.886   3.934  11.738  0.0299 -0.2051 -0.5010
  350MPD2     C 5294   3.428   2.656  10.509  0.0320  1.0996  0.5233
  350MPD2    C1 5295   3.320   2.577  10.477 -0.6361  0.4325 -0.2855
  350MPD2    C2 5296   3.215   2.556  10.567  0.2260 -0.3607  0.7739
  350MPD2    C3 5297   3.220   2.611  10.689  0.1289 -0.2990 -0.4268
  350MPD2    C4 5298   3.315   2.709  10.714  0.2480 -0.3434 -0.0471
  350MPD2    C5 5299   3.419   2.726  10.631  0.2131  0.5161 -0.5727
  350MPD2     H 5300   3.132   2.490  10.542 -0.2808  0.4695  0.2595
  350MPD2    H1 5301   3.316   2.751  10.814  0.6047 -0.0924 -0.1559
  350MPD2    H2 5302   3.504   2.680  10.436 -0.6953  0.0090 -0.5911
  350MPD2    H3 5303   3.505   2.785  10.662  0.6392  0.7021 -2.0885
  350MPD2     N 5304   3.124   2.576  10.789 -0.0412 -0.0377 -0.3033
  350MPD2    H5 5305   3.066   2.494  10.771  1.8371 -1.3071 -0.5219
  350MPD2    N1 5306   3.312   2.517  10.351 -0.1156 -1.0333  0.1677
  350MPD2    H7 5307   3.224   2.469  10.335 -1.0213 -0.0690  2.1718
  351TMC3    C1 5308   3.381   2.372  10.185 -0.3557 -0.0033 -0.6371
  351TMC3    C2 5309   3.479   2.280  10.153 -0.2290 -0.3234  0.0609
  351TMC3    C3 5310   3.443   2.167  10.084 -0.1034 -0.1219  0.3277
  351TMC3    C4 5311   3.253   2.345  10.145 -0.9800 -0.7553 -0.0524
  351TMC3    C5 5312   3.223   2.228  10.083  0.8499  0.2394 -0.0141
  351TMC3    C6 5313   3.316   2.137  10.047  0.4636 -0.0256  0.6845
  351TMC3     C 5314   3.419   2.482  10.273 -0.3229  0.3335  0.1377
  351TMC3     O 5315   3.532   2.517  10.274 -0.1168 -0.6748 -0.0865
  351TMC3     H 5316   3.583   2.301  10.174  0.4451 -1.7210 -1.9345
  351TMC3    H1 5317   3.179   2.424  10.156 -0.7551 -0.7301  1.3237
  351TMC3    H2 5318   3.294   2.049   9.987 -3.6292  2.1986 -0.9995
  351TMC3    C7 5319   3.095   2.212  10.017 -0.0426 -0.3517  0.9796
  351TMC3    C8 5320   3.544   2.067  10.036  0.2065  0.3871  0.0892
  351TMC3    O1 5321   3.095   2.155   9.907 -0.1900  0.2924  0.0582
  351TMC3    O2 5322   3.506   1.977   9.959  0.0942  0.1771  0.2511
  352MPD2     C 5323   0.950   0.059   1.408 -0.2827 -0.0943 -0.0988
  352MPD2    C1 5324   0.895   0.046   1.279 -0.7559  0.3929 -1.0396
  352MPD2    C2 5325   0.914   4.662   1.210  0.4047 -0.0726  0.3003
  352MPD2    C3 5326   0.973   4.554   1.270 -0.1187 -0.4667 -0.1849
  352MPD2    C4 5327   1.036   4.572   1.389  0.1862 -0.2709 -0.7033
  352MPD2    C5 5328   1.024   4.686   1.459 -0.2900  0.4163 -0.3218
  352MPD2     H 5329   0.881   4.655   1.107 -2.7304  0.5478  1.2565
  352MPD2    H1 5330   1.085   4.491   1.442 -0.6552 -0.6747 -0.5416
  352MPD2    H2 5331   0.949   0.150   1.466 -2.0159 -1.6136  2.2459
  352MPD2    H3 5332   1.068   4.689   1.558  0.2210  1.4331 -0.5788
  352MPD2     N 5333   0.977   4.429   1.206 -0.1114  0.0368 -0.1717
  352MPD2    H5 5334   1.029   4.357   1.256  0.4239  0.8934  0.5032
  352MPD2    N1 5335   0.823   0.150   1.224  0.1809 -0.2747 -0.2721
  352MPD2    H7 5336   0.816   0.233   1.281  0.1528 -0.8966  0.6299
  353TMC3    C1 5337   0.952   4.260   1.050  0.8388 -0.3736 -0.2961
  353TMC3    C2 5338   1.084   4.224   1.064 -0.3248  0.2756  0.0820
  353TMC3    C3 5339   1.115   4.098   1.011 -0.2715 -0.0492 -0.2178
  353TMC3    C4 5340   0.858   4.182   0.984 -0.1034 -0.5153  0.0138
  353TMC3    C5 5341   0.892   4.064   0.936  0.5976 -0.1087 -0.2279
  353TMC3    C6 5342   1.026   4.020   0.937 -0.5057 -0.1534 -0.3861
  353TMC3     C 5343   0.902   4.383   1.095  0.0091 -0.6951 -0.1089
  353TMC3     O 5344   0.826   4.441   1.019  0.2137  0.6472 -0.3079
  353TMC3     H 5345   1.156   4.270   1.130 -1.4211  0.7209  0.9819
  353TMC3    H1 5346   0.755   4.215   0.984  1.0691  3.1399 -1.3187
  353TMC3    H2 5347   1.056   3.927   0.890  1.8138  1.2169 -1.6684
  353TMC3    C7 5348   0.792   3.977   0.871  0.0142 -0.1389  0.9585
  353TMC3    C8 5349   1.233   4.041   1.056  0.3817 -0.1090  0.4177
  353TMC3    O1 5350   0.830   3.897   0.788  0.3578  1.2096 -0.0482
  353TMC3    O2 5351   1.323   4.111   1.102 -0.2255  0.0454  0.4526
  354TMC3    C1 5352   2.897   0.786  13.471 -0.2033 -0.4367  0.9496
  354TMC3    C2 5353   3.003   0.856  13.441  0.2176 -0.1768  0.3989
  354TMC3    C3 5354   3.000   0.921  13.315 -0.0726 -0.3490  0.5828
  354TMC3    C4 5355   2.784   0.790  13.391 -0.4071 -0.6902 -0.4898
  354TMC3    C5 5356   2.790   0.843  13.266 -0.2937 -0.1418 -0.1622
  354TMC3    C6 5357   2.900   0.913  13.229 -0.1456  0.2323  0.2943
  354TMC3     C 5358   2.901   0.703  13.595  0.3857 -0.2031  0.4964
  354TMC3     O 5359   2.801   0.659  13.643 -0.0837 -0.1216  0.0265
  354TMC3     H 5360   3.090   0.866  13.505 -0.2689 -0.4434  1.0966
  354TMC3    H1 5361   2.704   0.718  13.405 -2.3572  1.5111 -0.4409
  354TMC3    H2 5362   2.889   0.973  13.139  0.8686  1.7598  1.1906
  354TMC3    C7 5363   2.702   0.795  13.163  0.4328  0.0469  0.3016
  354TMC3    C8 5364   3.110   1.019  13.291  0.6237 -0.5067 -0.0470
  354TMC3    O1 5365   2.583   0.810  13.186  0.5124 -0.4197  0.0068
  354TMC3    O2 5366   3.206   1.016  13.362  0.3535 -0.2218 -0.6870
  355MPD2     C 5367   3.358   1.310  11.824 -0.0824  0.0990 -0.4349
  355MPD2    C1 5368   3.455   1.387  11.757  0.7805 -0.0512  0.7378
  355MPD2    C2 5369   3.574   1.391  11.821 -0.7256  0.4264 -0.4027
  355MPD2    C3 5370   3.592   1.341  11.948 -0.0386  0.0721  0.6820
  355MPD2    C4 5371   3.494   1.267  12.009  0.1559 -0.7467  0.2172
  355MPD2    C5 5372   3.376   1.261  11.944  0.2234 -0.1370  0.3805
  355MPD2     H 5373   3.655   1.450  11.781  1.2804 -3.5710 -2.2596
  355MPD2    H1 5374   3.508   1.215  12.104  0.6273 -1.6477 -0.3490
  355MPD2    H2 5375   3.271   1.291  11.762 -1.6265 -1.9586  2.4046
  355MPD2    H3 5376   3.288   1.209  11.981 -1.6077  1.2275 -2.0355
  355MPD2     N 5377   3.719   1.368  12.010 -0.1845 -0.4872  0.1294
  355MPD2    H5 5378   3.791   1.410  11.951  0.0834 -1.9109 -0.5720
  355MPD2    N1 5379   3.416   1.461  11.637  0.4050  0.3985  0.1124
  355MPD2    H7 5380   3.316   1.469  11.620  0.4528  0.4610 -0.1440
  356TMC3    C1 5381   3.873   1.411  12.186 -0.5776 -0.5715  0.0216
  356TMC3    C2 5382   3.953   1.459  12.085 -0.3862  0.6242 -0.5682
  356TMC3    C3 5383   4.012   1.575  12.101 -0.9550  0.3146  0.2262
  356TMC3    C4 5384   3.862   1.480  12.301  0.7161  0.7006  0.0541
  356TMC3    C5 5385   3.932   1.602  12.314 -0.5972  0.6182  0.3514
  356TMC3    C6 5386   3.997   1.661  12.210  0.2314 -0.3098 -0.1505
  356TMC3     C 5387   3.742   1.351  12.146  0.4183 -0.0678  0.0630
  356TMC3     O 5388   3.679   1.297  12.231  0.3260 -0.4037 -0.1801
  356TMC3     H 5389   3.983   1.395  12.003  0.6118  0.1191  0.2015
  356TMC3    H1 5390   3.814   1.431  12.385 -0.4701  0.5214 -0.7296
  356TMC3    H2 5391   4.057   1.750  12.222 -0.2854  0.0866 -0.4864
  356TMC3    C7 5392   3.923   1.662  12.442 -0.1341  0.3411 -0.0300
  356TMC3    C8 5393   4.098   1.623  11.992 -0.5738  0.4264 -0.1562
  356TMC3    O1 5394   3.846   1.603  12.514  0.2455  0.1644  0.7533
  356TMC3    O2 5395   4.186   1.550  11.950 -0.5229 -0.4573 -0.4215
  357MPD2     C 5396   2.022   1.696   0.830  0.3866  0.6074  0.3480
  357MPD2    C1 5397   2.147   1.699   0.884  0.8930 -0.9109  0.5108
  357MPD2    C2 5398   2.161   1.643   1.008  1.1918  0.3508  0.1071
  357MPD2    C3 5399   2.051   1.571   1.062  0.2353  0.2027  0.0787
  357MPD2    C4 5400   1.936   1.554   0.993  0.1806 -0.3101  0.1067
  357MPD2    C5 5401   1.922   1.625   0.876  0.7664  0.4614  0.0733
  357MPD2     H 5402   2.255   1.652   1.061  1.5835  0.0103 -0.5233
  357MPD2    H1 5403   1.842   1.518   1.033 -0.2948 -0.0721 -0.8004
  357MPD2    H2 5404   2.002   1.743   0.735  1.3945 -0.8847 -0.5983
  357MPD2    H3 5405   1.826   1.618   0.826 -0.2906 -1.7927  2.4533
  357MPD2     N 5406   2.050   1.506   1.195 -0.0430 -0.6956  0.7021
  357MPD2    H5 5407   1.970   1.447   1.217  0.0641 -0.7481  0.9492
  357MPD2    N1 5408   2.247   1.774   0.824  0.0421  0.1462  0.4836
  357MPD2    H7 5409   2.207   1.849   0.769  0.3978  0.6749  0.9437
  358TMC3    C1 5410   2.443   1.630   0.876  0.5815 -0.0924  0.2517
  358TMC3    C2 5411   2.391   1.523   0.807 -1.1603 -0.3663  0.3659
  358TMC3    C3 5412   2.416   1.394   0.855  0.1701 -0.5734  0.6432
  358TMC3    C4 5413   2.515   1.612   0.992  1.0220  0.1466 -0.4953
  358TMC3    C5 5414   2.523   1.486   1.048 -0.1705 -0.2072 -0.1586
  358TMC3    C6 5415   2.480   1.372   0.974 -0.3663 -0.4738  0.5412
  358TMC3     C 5416   2.382   1.765   0.862  0.3678 -0.2235 -0.6564
  358TMC3     O 5417   2.462   1.855   0.853 -0.4235  0.1666  0.3679
  358TMC3     H 5418   2.344   1.536   0.710  2.1113 -0.1535 -1.1755
  358TMC3    H1 5419   2.550   1.706   1.034 -1.3947  0.9320 -0.2367
  358TMC3    H2 5420   2.463   1.276   1.020  1.7882 -0.6770  0.8891
  358TMC3    C7 5421   2.613   1.460   1.165 -0.1912 -0.1750  0.2142
  358TMC3    C8 5422   2.370   1.284   0.781 -0.9678 -0.3580 -0.6474
  358TMC3    O1 5423   2.639   1.343   1.176  0.6698 -0.6223 -0.9574
  358TMC3    O2 5424   2.291   1.312   0.692  0.2918  0.0450  0.0789
  359MPD2     C 5425   3.261   0.104  12.571 -0.1393 -0.2717 -0.3202
  359MPD2    C1 5426   3.158   0.091  12.475 -0.8992  0.2865 -0.3256
  359MPD2    C2 5427   3.061   0.187  12.457 -0.8489 -0.0303  0.3771
  359MPD2    C3 5428   3.052   0.288  12.547 -0.2879 -0.1774  0.2805
  359MPD2    C4 5429   3.151   0.300  12.642  0.1260  0.1509 -0.1482
  359MPD2    C5 5430   3.253   0.213  12.656  0.4878 -0.0630  0.5759
  359MPD2     H 5431   2.979   0.176  12.387  2.4119 -1.3821 -3.2487
  359MPD2    H1 5432   3.151   0.392  12.700  1.1653  1.5351 -2.3262
  359MPD2    H2 5433   3.340   0.033  12.593  1.4625  1.0823 -1.7146
  359MPD2    H3 5434   3.330   0.245  12.725 -2.3958  1.3679  3.0813
  359MPD2     N 5435   2.945   0.385  12.550  0.4963  0.1128 -0.1530
  359MPD2    H5 5436   2.949   0.466  12.610  1.4202  2.0266 -2.8044
  359MPD2    N1 5437   3.162   4.712  12.390  0.2146  0.1456 -0.0338
  359MPD2    H7 5438   3.095   4.719  12.314 -1.4840 -0.1084  1.4503
  360TMC3    C1 5439   3.216   4.492  12.315  0.7209 -0.2836 -0.2003
  360TMC3    C2 5440   3.326   4.410  12.297  0.0002  0.3124 -0.4840
  360TMC3    C3 5441   3.298   4.300  12.217 -0.4192 -0.4790 -0.0896
  360TMC3    C4 5442   3.093   4.473  12.253  0.1023 -0.6047  0.6748
  360TMC3    C5 5443   3.085   4.371  12.164 -0.9565 -1.0255  0.2906
  360TMC3    C6 5444   3.184   4.282  12.150 -0.4485 -0.2415  0.1058
  360TMC3     C 5445   3.234   4.599  12.415  0.4137 -0.0520  0.4751
  360TMC3     O 5446   3.294   4.566  12.510  0.3839  0.5746 -0.2747
  360TMC3     H 5447   3.418   4.405  12.354 -1.0686  0.8385  1.2812
  360TMC3    H1 5448   3.003   4.530  12.269  0.0094 -0.6332  0.2560
  360TMC3    H2 5449   3.178   4.198  12.083  2.2319 -0.1300 -0.2616
  360TMC3    C7 5450   2.987   4.387  12.060  0.2752 -0.3116  0.0781
  360TMC3    C8 5451   3.401   4.206  12.189  0.3879 -0.1238  0.3795
  360TMC3    O1 5452   2.971   4.504  12.029 -0.3202 -0.0251 -0.4892
  360TMC3    O2 5453   3.355   4.093  12.174  0.4595  0.2147 -0.8680
  361MPD2     C 5454   4.423   3.802  16.719 -0.4966 -0.3614  0.6017
  361MPD2    C1 5455   4.480   3.909  16.786 -0.3693  0.8211  0.0071
  361MPD2    C2 5456   4.615   3.902  16.817 -0.1627 -0.4590  0.2727
  361MPD2    C3 5457   4.689   3.783  16.802 -0.3157 -0.1027  0.3758
  361MPD2    C4 5458   4.624   3.677  16.757  0.2700  0.0492  0.5274
  361MPD2    C5 5459   4.497   3.685  16.704 -0.9825  0.1613  0.1214
  361MPD2     H 5460   4.656   3.987  16.871 -2.9132 -0.0563  1.7286
  361MPD2    H1 5461   4.669   3.581  16.736 -2.1170 -1.4142  2.1239
  361MPD2    H2 5462   4.327   3.815  16.670 -0.7395 -2.4636  0.5290
  361MPD2    H3 5463   4.450   3.599  16.658 -1.6441  1.3869 -1.5185
  361MPD2     N 5464   0.090   3.763  16.836  0.1535 -0.6383  0.0257
  361MPD2    H5 5465   0.116   3.665  16.831  0.1567 -0.4839 -3.1444
  361MPD2    N1 5466   4.418   4.032  16.797 -0.8697 -0.0751 -0.2998
  361MPD2    H7 5467   4.471   4.110  16.835 -0.7725 -0.4783  0.3990
  362TMC3    C1 5468   4.240   4.177  16.808 -0.5420 -0.2989  0.8620
  362TMC3    C2 5469   4.124   4.200  16.872 -0.2049  0.4834  0.1873
  362TMC3    C3 5470   4.077   4.329  16.885 -0.1022 -0.0131  0.0512
  362TMC3    C4 5471   4.316   4.272  16.755 -0.0299  0.3466  0.2775
  362TMC3    C5 5472   4.287   4.402  16.792  0.0338  0.2471 -0.3373
  362TMC3    C6 5473   4.162   4.431  16.852  0.8890 -0.5221 -0.4511
  362TMC3     C 5474   4.282   4.043  16.787 -0.2617  0.1247  0.1526
  362TMC3     O 5475   4.191   3.963  16.773 -0.1151  0.3919 -0.6812
  362TMC3     H 5476   4.070   4.114  16.910 -0.7652 -0.0991 -1.9376
  362TMC3    H1 5477   4.411   4.245  16.710 -0.2117 -1.7387  1.1241
  362TMC3    H2 5478   4.143   4.534  16.880 -0.8762 -0.7507 -0.7957
  362TMC3    C7 5479   4.357   4.513  16.735  0.2192  0.4735  0.0916
  362TMC3    C8 5480   3.944   4.346  16.937  0.0878 -0.9851 -0.3761
  362TMC3    O1 5481   4.300   4.622  16.733  0.4953 -0.0189 -0.4330
  362TMC3    O2 5482   3.892   4.240  16.978  0.3719 -0.2314 -0.0716
  363TMC3    C1 5483   4.680   1.460   9.472 -0.5634 -0.0491 -0.3306
  363TMC3    C2 5484   4.551   1.464   9.524  0.1272 -0.7099 -0.8214
  363TMC3    C3 5485   4.514   1.581   9.597  0.0944  0.5319 -0.0781
  363TMC3    C4 5486   0.040   1.561   9.487  0.1059 -0.2980 -0.2850
  363TMC3    C5 5487   4.732   1.670   9.561 -0.4630  0.7485  0.0124
  363TMC3    C6 5488   4.605   1.684   9.617  0.0257 -1.0186 -0.1709
  363TMC3     C 5489   4.705   1.357   9.372  0.2927  0.0320  0.0658
  363TMC3     O 5490   4.639   1.256   9.379  0.1978  0.2667 -0.7505
  363TMC3     H 5491   4.478   1.386   9.504 -0.8974 -0.4210  1.9357
  363TMC3    H1 5492   0.146   1.547   9.469  0.1785  1.5191 -1.1691
  363TMC3    H2 5493   4.589   1.772   9.678  0.4692 -1.2335  0.2574
  363TMC3    C7 5494   0.093   1.772   9.601  0.2177  0.1855  0.2094
  363TMC3    C8 5495   4.395   1.592   9.679 -0.3359 -0.3059  0.5599
  363TMC3    O1 5496   0.064   1.840   9.701 -0.1090  0.0016  0.5890
  363TMC3    O2 5497   4.372   1.708   9.719 -0.2514 -0.7441  0.0500
  364MPD2     C 5498   2.382   0.585   9.999  0.2076  0.6015  0.2518
  364MPD2    C1 5499   2.438   0.654  10.106 -1.0812 -0.2666  0.1051
  364MPD2    C2 5500   2.401   0.617  10.234  0.1030 -0.0671  0.0067
  364MPD2    C3 5501   2.298   0.529  10.256  0.0931  0.1425 -0.6800
  364MPD2    C4 5502   2.232   0.472  10.150 -0.1537  1.0386  0.2832
  364MPD2    C5 5503   2.278   0.496  10.021  0.4290 -0.0450 -0.2941
  364MPD2     H 5504   2.438   0.655  10.329  0.6540 -1.8554  0.4962
  364MPD2    H1 5505   2.146   0.410  10.170 -0.2390  1.1764  0.3472
  364MPD2    H2 5506   2.402   0.604   9.894 -1.5329 -0.8172 -0.3303
  364MPD2    H3 5507   2.251   0.438   9.934  3.2069  0.6099 -1.5738
  364MPD2     N 5508   2.240   0.511  10.387  0.0432  0.7378 -0.6717
  364MPD2    H5 5509   2.274   0.571  10.461  0.3452 -1.1086  0.6968
  364MPD2    N1 5510   2.543   0.744  10.075 -0.2269  0.3177 -0.2756
  364MPD2    H7 5511   2.547   0.766   9.976 -0.2348 -0.0619 -0.3614
  365TMC3    C1 5512   2.705   0.910  10.115  0.4132 -0.4254 -0.2995
  365TMC3    C2 5513   2.793   0.878  10.016 -0.1517  0.5998  0.1022
  365TMC3    C3 5514   2.851   0.973   9.935 -0.6601  0.4932  0.3368
  365TMC3    C4 5515   2.670   1.046  10.125 -0.2573  0.7689  0.3771
  365TMC3    C5 5516   2.728   1.138  10.050 -0.7252  0.1669  0.2290
  365TMC3    C6 5517   2.825   1.108   9.955  0.2016 -0.6627 -0.3649
  365TMC3     C 5518   2.608   0.815  10.168  0.0256 -0.7685  0.8196
  365TMC3     O 5519   2.581   0.825  10.287 -0.4314 -0.3119 -0.2411
  365TMC3     H 5520   2.806   0.771  10.007 -0.0120  0.7538 -1.3940
  365TMC3    H1 5521   2.584   1.061  10.189 -0.5877 -1.2269  0.4031
  365TMC3    H2 5522   2.873   1.178   9.888 -1.4507  0.9873  0.1759
  365TMC3    C7 5523   2.700   1.286  10.072  0.0961  0.5638  0.5085
  365TMC3    C8 5524   2.909   0.927   9.806  0.0077  0.0695 -0.4124
  365TMC3    O1 5525   2.746   1.364   9.989 -0.1217  0.0739 -0.7677
  365TMC3    O2 5526   3.001   0.990   9.758  0.0818  0.0967 -0.0346
  366MPD2     C 5527   0.453   1.895  15.038 -0.2162  0.3097  0.1741
  366MPD2    C1 5528   0.472   1.944  15.165 -0.1956 -0.3272  0.0988
  366MPD2    C2 5529   0.532   1.867  15.257  0.3698 -0.1809 -0.1193
  366MPD2    C3 5530   0.571   1.737  15.222  0.2032 -0.7179 -0.5190
  366MPD2    C4 5531   0.552   1.683  15.102 -0.4233 -0.6283  0.4728
  366MPD2    C5 5532   0.495   1.766  15.006  0.1102 -0.3927 -0.0294
  366MPD2     H 5533   0.549   1.909  15.355  0.0909  3.5564 -1.6269
  366MPD2    H1 5534   0.596   1.589  15.073 -0.6096 -0.6971  0.4167
  366MPD2    H2 5535   0.407   1.956  14.962  0.3174 -0.4666 -0.7819
  366MPD2    H3 5536   0.484   1.728  14.906 -3.4897 -0.7385  0.5022
  366MPD2     N 5537   0.624   1.652  15.322  0.3385  0.0988  0.0224
  366MPD2    H5 5538   0.606   1.555  15.301  1.6649 -0.0107 -0.6502
  366MPD2    N1 5539   0.444   2.083  15.199  0.1642 -0.3539 -0.2948
  366MPD2    H7 5540   0.473   2.106  15.294  0.2614  1.2573 -0.7117
  367TMC3    C1 5541   0.383   2.315  15.177 -0.1100 -0.5916 -0.6644
  367TMC3    C2 5542   0.476   2.354  15.269 -0.4008 -0.0318  0.2024
  367TMC3    C3 5543   0.472   2.481  15.316  0.0070 -0.0859 -0.8112
  367TMC3    C4 5544   0.303   2.402  15.108  0.0480  0.7365  0.1310
  367TMC3    C5 5545   0.328   2.534  15.141 -0.8086 -0.0438  0.0470
  367TMC3    C6 5546   0.408   2.574  15.243 -0.3865  0.4086  0.2332
  367TMC3     C 5547   0.382   2.180  15.122  0.0428  0.0086 -0.1942
  367TMC3     O 5548   0.305   2.160  15.026  0.1039 -0.3631  0.2158
  367TMC3     H 5549   0.539   2.283  15.323  0.8843 -0.6366 -2.0711
  367TMC3    H1 5550   0.249   2.377  15.018  0.0898  2.1647 -0.2932
  367TMC3    H2 5551   0.412   2.681  15.262  1.0726  0.5289 -0.7609
  367TMC3    C7 5552   0.256   2.643  15.071 -0.1378  0.7027  0.3822
  367TMC3    C8 5553   0.591   2.522  15.387 -0.1718  0.1289  0.3289
  367TMC3    O1 5554   0.299   2.757  15.084  0.5107  0.1324 -0.6422
  367TMC3    O2 5555   0.660   2.432  15.433  0.6252  0.1892 -0.8844
  368MPD2     C 5556   2.221   3.751  13.258 -0.3418 -0.2382 -0.0974
  368MPD2    C1 5557   2.153   3.816  13.155 -0.5316 -0.3279 -0.0455
  368MPD2    C2 5558   2.216   3.883  13.055 -0.3484  0.3722 -0.3172
  368MPD2    C3 5559   2.356   3.887  13.060 -0.7495  1.1101  0.0953
  368MPD2    C4 5560   2.428   3.819  13.163 -0.2893  0.2777 -0.4399
  368MPD2    C5 5561   2.357   3.754  13.256 -0.2996 -0.2523  1.3456
  368MPD2     H 5562   2.163   3.926  12.971 -0.2533  1.0120 -0.0530
  368MPD2    H1 5563   2.536   3.829  13.158 -0.2771  0.0742 -0.5735
  368MPD2    H2 5564   2.168   3.701  13.337 -0.4039  0.9111  0.5751
  368MPD2    H3 5565   2.414   3.705  13.334  0.6176  0.1627  0.9364
  368MPD2     N 5566   2.430   3.966  12.973  0.1252 -0.6808  0.1192
  368MPD2    H5 5567   2.527   3.987  12.993 -0.5992  2.8435 -0.1558
  368MPD2    N1 5568   2.013   3.831  13.183 -0.1450  0.1358 -0.0040
  368MPD2    H7 5569   1.970   3.789  13.265 -1.2335  0.8394 -0.2036
  369TMC3    C1 5570   1.826   3.962  13.201  0.5269  0.0462 -0.5037
  369TMC3    C2 5571   1.792   4.091  13.191  0.0655  0.5685  0.6129
  369TMC3    C3 5572   1.700   4.132  13.279  0.5016  1.0014  0.8718
  369TMC3    C4 5573   1.762   3.868  13.275 -0.2189 -0.4089  0.1282
  369TMC3    C5 5574   1.652   3.917  13.344  0.2187  0.0050  0.7839
  369TMC3    C6 5575   1.623   4.050  13.357  0.0037  0.1068  0.0754
  369TMC3     C 5576   1.931   3.916  13.112  0.4384 -0.4311  0.0963
  369TMC3     O 5577   1.951   3.984  13.015  0.5710 -0.7452  0.2393
  369TMC3     H 5578   1.855   4.157  13.132 -1.2588  2.4112  1.2793
  369TMC3    H1 5579   1.785   3.763  13.257 -3.4698 -0.7070 -2.4387
  369TMC3    H2 5580   1.550   4.083  13.430  1.2174  1.1858  0.8031
  369TMC3    C7 5581   1.553   3.822  13.393  0.1323 -0.5384  0.2053
  369TMC3    C8 5582   1.676   4.269  13.283 -0.6431 -0.8639  0.1367
  369TMC3    O1 5583   1.510   3.837  13.509  0.4389  0.3440 -0.1235
  369TMC3    O2 5584   1.556   4.297  13.297  0.3418  0.4491  0.4533
  370TMC3    C1 5585   1.243   0.104  16.170  0.7675  0.1796 -0.0166
  370TMC3    C2 5586   1.178   0.025  16.260  0.5297  1.2945  0.4505
  370TMC3    C3 5587   1.142   4.636  16.226 -0.6604  0.3464 -0.0471
  370TMC3    C4 5588   1.283   0.058  16.049  0.0168 -0.4712 -0.4307
  370TMC3    C5 5589   1.236   4.667  16.012 -0.0455 -0.2191 -0.0456
  370TMC3    C6 5590   1.162   4.596  16.099 -0.2330 -1.0552 -0.0297
  370TMC3     C 5591   1.300   0.217  16.234  0.4162  0.3944  0.1437
  370TMC3     O 5592   1.283   0.227  16.358  0.4237 -0.2912 -0.7683
  370TMC3     H 5593   1.153   0.065  16.357 -0.5540 -1.2205  1.1987
  370TMC3    H1 5594   1.356   0.110  15.988 -1.5555  0.0442 -1.8531
  370TMC3    H2 5595   1.135   4.497  16.065 -0.2798 -0.7454 -0.8975
  370TMC3    C7 5596   1.304   4.610  15.902 -0.1660  0.5248 -0.9189
  370TMC3    C8 5597   1.053   4.555  16.306 -0.3658 -0.4908 -0.0531
  370TMC3    O1 5598   1.335   4.684  15.811  0.1833 -0.1194 -0.1964
  370TMC3    O2 5599   0.993   4.465  16.246 -0.7578 -0.1351  0.2404
  371TMC3    C1 5600   2.630   3.322  15.348  0.5421  0.2446 -0.5095
  371TMC3    C2 5601   2.567   3.309  15.466 -0.3453  0.2332  0.2020
  371TMC3    C3 5602   2.474   3.410  15.493 -0.6075  0.5322 -0.0872
  371TMC3    C4 5603   2.619   3.431  15.265 -0.4843 -0.0590  0.8285
  371TMC3    C5 5604   2.522   3.517  15.290 -0.1254 -0.2956  0.5845
  371TMC3    C6 5605   2.446   3.502  15.398 -0.3224  0.2026  0.5222
  371TMC3     C 5606   2.729   3.220  15.300  0.6302 -0.1603  0.5522
  371TMC3     O 5607   2.820   3.258  15.227 -0.9087 -0.0138  0.3270
  371TMC3     H 5608   2.594   3.235  15.541 -0.9954 -1.3353 -1.1067
  371TMC3    H1 5609   2.683   3.446  15.179  1.2788 -2.3817  1.7633
  371TMC3    H2 5610   2.378   3.583  15.423 -0.9843 -0.4061  0.7254
  371TMC3    C7 5611   2.539   3.656  15.250  0.6349  0.0529  0.3047
  371TMC3    C8 5612   2.470   3.444  15.635  0.8483  0.1547 -0.6946
  371TMC3    O1 5613   2.446   3.735  15.276  0.0894 -0.0419 -0.1027
  371TMC3    O2 5614   2.572   3.415  15.698 -0.3144  0.4206  0.1623
  372MPD2     C 5615   1.914   3.650  13.632  0.0381 -0.3810  0.1302
  372MPD2    C1 5616   2.040   3.669  13.676 -0.0753 -0.1833 -0.5340
  372MPD2    C2 5617   2.100   3.585  13.766 -0.2332  0.8589  0.8569
  372MPD2    C3 5618   2.032   3.477  13.812 -0.0466  0.6302 -0.5629
  372MPD2    C4 5619   1.905   3.449  13.760  0.0881  0.2614 -0.2637
  372MPD2    C5 5620   1.842   3.537  13.672  0.0442 -0.0868  0.0755
  372MPD2     H 5621   2.198   3.605  13.807  0.7531 -0.4245 -0.8502
  372MPD2    H1 5622   1.858   3.357  13.791 -0.3579  0.6989  0.3318
  372MPD2    H2 5623   1.866   3.722  13.567 -0.4969  1.1977  2.2663
  372MPD2    H3 5624   1.740   3.517  13.640  0.7430 -1.0691 -1.5811
  372MPD2     N 5625   2.101   3.392  13.902 -0.0047  0.7805  0.4814
  372MPD2    H5 5626   2.195   3.414  13.931  0.1290  0.8960 -0.0422
  372MPD2    N1 5627   2.112   3.792  13.651  0.2402  0.3981  0.1203
  372MPD2    H7 5628   2.207   3.794  13.687  0.2558  0.7558  0.0595
  373TMC3    C1 5629   2.143   3.196  14.032  0.2211  0.0293  0.4968
  373TMC3    C2 5630   2.231   3.262  14.113  0.1759 -0.2827  0.6125
  373TMC3    C3 5631   2.338   3.189  14.150  0.2697 -0.2727  0.1348
  373TMC3    C4 5632   2.160   3.064  13.991  0.0230  1.1467 -0.4208
  373TMC3    C5 5633   2.280   3.005  14.024 -0.5830  0.4580 -0.3488
  373TMC3    C6 5634   2.370   3.064  14.109  0.0759  0.4041  0.6217
  373TMC3     C 5635   2.053   3.274  13.954  0.0018  0.5074  0.5551
  373TMC3     O 5636   1.943   3.222  13.934  0.0226 -0.7737 -0.0026
  373TMC3     H 5637   2.209   3.364  14.143 -0.4774  0.1679 -1.4051
  373TMC3    H1 5638   2.094   3.018  13.919  2.2765  0.0316 -1.7700
  373TMC3    H2 5639   2.470   3.025  14.097  0.8405  2.7129 -0.6034
  373TMC3    C7 5640   2.319   2.897  13.948 -0.0335 -0.0720 -0.2572
  373TMC3    C8 5641   2.451   3.255  14.206  0.0866 -0.3097  0.9116
  373TMC3    O1 5642   2.439   2.895  13.917 -0.0676 -0.1047 -0.5813
  373TMC3    O2 5643   2.465   3.369  14.167 -0.5394 -0.1370 -0.0802
  374TMC3    C1 5644   2.798   4.475   9.858  0.7599  0.1434  0.4176
  374TMC3    C2 5645   2.907   4.545   9.896 -0.1885 -0.4047  0.1453
  374TMC3    C3 5646   3.035   4.491   9.861 -0.3356  0.6384  0.1235
  374TMC3    C4 5647   2.805   4.346   9.797 -0.3436  0.3389  0.1137
  374TMC3    C5 5648   2.929   4.291   9.788  0.0491  0.2906 -0.0660
  374TMC3    C6 5649   3.046   4.361   9.811  0.5341  0.1077 -0.7616
  374TMC3     C 5650   2.671   4.518   9.909  1.2045  0.4728  0.0515
  374TMC3     O 5651   2.576   4.435   9.910  0.4461  0.3852 -0.1637
  374TMC3     H 5652   2.910   4.634   9.958  2.9920 -0.6417  0.3242
  374TMC3    H1 5653   2.714   4.296   9.769 -0.8867  1.4068 -0.0105
  374TMC3    H2 5654   3.147   4.330   9.785  0.1900 -0.5701 -1.2837
  374TMC3    C7 5655   2.934   4.152   9.730  0.7346 -0.6977  0.0410
  374TMC3    C8 5656   3.153   4.573   9.867  0.1954  0.0701  0.4031
  374TMC3    O1 5657   2.831   4.105   9.679 -0.6101  0.2335  0.4208
  374TMC3    O2 5658   3.259   4.511   9.846  0.4737  0.0151  0.1829
  375MPD2     C 5659   2.643   0.436  17.238 -0.8711  0.1105 -0.2997
  375MPD2    C1 5660   2.551   0.431  17.132  0.1817 -0.0141  0.0204
  375MPD2    C2 5661   2.581   0.354  17.024  0.4526  0.7044 -0.7058
  375MPD2    C3 5662   2.698   0.281  17.017  0.1557 -0.5622 -0.2675
  375MPD2    C4 5663   2.787   0.294  17.120  0.0069 -0.2612  0.3572
  375MPD2    C5 5664   2.758   0.373  17.226 -0.3900  0.1971 -0.1262
  375MPD2     H 5665   2.517   0.356  16.937  1.9742 -2.7810 -1.8906
  375MPD2    H1 5666   2.884   0.247  17.119  0.6819  1.1345 -0.0323
  375MPD2    H2 5667   2.623   0.490  17.330 -1.5741 -1.6872  0.6175
  375MPD2    H3 5668   2.829   0.400  17.303  0.6387  0.9049 -1.3036
  375MPD2     N 5669   2.730   0.206  16.909  0.1359 -0.1548 -0.5189
  375MPD2    H5 5670   2.810   0.145  16.928  0.2360 -0.2810 -1.3719
  375MPD2    N1 5671   2.422   0.488  17.139 -0.2681  0.0365 -0.5959
  375MPD2    H7 5672   2.365   0.484  17.055 -0.0105 -1.9760 -0.6826
  376TMC3    C1 5673   2.725   0.076  16.718 -1.1356 -0.2252  0.3395
  376TMC3    C2 5674   2.856   0.107  16.689  0.4578 -0.6384  0.2027
  376TMC3    C3 5675   2.904   0.039  16.585  0.2379 -0.1265 -0.1377
  376TMC3    C4 5676   2.644   0.008  16.635 -0.1730  0.2375 -0.4793
  376TMC3    C5 5677   2.690   4.707  16.517 -0.1807  0.9066  0.7739
  376TMC3    C6 5678   2.821   4.707  16.496 -0.7149 -0.6159 -0.0551
  376TMC3     C 5679   2.652   0.176  16.794  0.6029  0.5623 -0.1603
  376TMC3     O 5680   2.537   0.203  16.760  0.0746 -0.2709 -0.4546
  376TMC3     H 5681   2.923   0.155  16.760 -0.1223  0.1818  0.2022
  376TMC3    H1 5682   2.538   4.727  16.656 -0.1238 -0.9399 -1.1127
  376TMC3    H2 5683   2.862   4.671  16.402 -0.7545  0.1564 -0.3664
  376TMC3    C7 5684   2.598   0.026  16.412  0.0974 -0.0183 -0.3113
  376TMC3    C8 5685   3.047   0.064  16.554 -0.2131  0.2693 -0.3240
  376TMC3    O1 5686   2.490   0.078  16.439  0.7219 -0.0310  0.3546
  376TMC3    O2 5687   3.101   0.163  16.596  0.0281  0.3097 -0.2847
  377MPD2     C 5688   1.637   4.360  12.684 -0.2966  0.5198 -0.0014
  377MPD2    C1 5689   1.506   4.338  12.649 -0.2999  0.6249  0.8061
  377MPD2    C2 5690   1.411   4.324  12.752 -0.0851  0.7516  0.5446
  377MPD2    C3 5691   1.451   4.326  12.881  0.0187 -0.2666 -0.6074
  377MPD2    C4 5692   1.584   4.344  12.913  0.3788 -0.7101 -0.0824
  377MPD2    C5 5693   1.677   4.365  12.814  0.2303  0.1318  0.2995
  377MPD2     H 5694   1.308   4.305  12.723 -0.6946  0.8834  2.6384
  377MPD2    H1 5695   1.619   4.325  13.013 -1.5227  2.9965  1.2917
  377MPD2    H2 5696   1.710   4.396  12.613 -0.8541  1.2681 -0.1925
  377MPD2    H3 5697   1.780   4.385  12.840 -0.3013  0.5868  2.0681
  377MPD2     N 5698   1.360   4.310  12.991 -0.3705 -0.2082 -0.0918
  377MPD2    H5 5699   1.402   4.305  13.083  0.4964  3.0238 -0.3064
  377MPD2    N1 5700   1.486   4.334  12.510  0.3202  0.8836 -0.4221
  377MPD2    H7 5701   1.561   4.356  12.446  1.2304  1.7829  0.9299
  378TMC3    C1 5702   1.297   4.273  12.088 -0.5356  0.3860 -0.3917
  378TMC3    C2 5703   1.277   4.281  12.222 -0.1723 -0.1011 -0.5651
  378TMC3    C3 5704   1.387   4.294  12.296  0.2618 -0.4226 -0.2177
  378TMC3    C4 5705   1.422   4.265  12.029  0.1780  0.3385 -0.4512
  378TMC3    C5 5706   1.530   4.283  12.110 -0.0717  0.5016  0.5850
  378TMC3    C6 5707   1.515   4.280  12.244  0.4908 -0.1459 -0.2478
  378TMC3     C 5708   1.190   4.331  12.009 -0.2460 -0.0358 -0.1395
  378TMC3     O 5709   1.083   4.341  12.058  0.4230  1.2511  0.3486
  378TMC3     H 5710   1.178   4.284  12.267  0.7981 -0.1117  1.5706
  378TMC3    H1 5711   1.435   4.246  11.923 -3.0554 -0.5398 -0.7171
  378TMC3    H2 5712   1.598   4.263  12.312 -1.0592 -3.3064  0.8583
  378TMC3    C7 5713   1.662   4.240  12.061 -0.5948  0.5528  0.0103
  378TMC3    C8 5714   1.368   4.290  12.444 -0.2173  0.5047  0.4148
  378TMC3    O1 5715   1.744   4.189  12.133 -0.0755 -0.2958  0.1475
  378TMC3    O2 5716   1.253   4.274  12.490 -0.3280 -0.1590  0.1586
  379MPD2     C 5717   1.120   2.494  16.102  0.6294  0.3606 -0.2245
  379MPD2    C1 5718   1.243   2.475  16.058  0.4358 -0.3721  0.4572
  379MPD2    C2 5719   1.343   2.440  16.147  0.5978 -0.1032  0.6798
  379MPD2    C3 5720   1.314   2.441  16.286  0.1182  0.0561  0.0460
  379MPD2    C4 5721   1.175   2.461  16.321  0.0617  1.2114 -0.0731
  379MPD2    C5 5722   1.079   2.483  16.228  0.3074  0.1492 -0.5135
  379MPD2     H 5723   1.446   2.426  16.116  0.2104  0.7938 -1.0026
  379MPD2    H1 5724   1.137   2.450  16.422 -0.9409 -0.8908 -0.6590
  379MPD2    H2 5725   1.043   2.504  16.026  1.2131  2.9709 -0.4691
  379MPD2    H3 5726   0.975   2.488  16.258  0.3319 -2.3847 -0.0044
  379MPD2     N 5727   1.407   2.426  16.382  0.0977  0.8457 -0.2605
  379MPD2    H5 5728   1.379   2.448  16.476  2.4239  2.1369  0.1261
  379MPD2    N1 5729   1.262   2.482  15.921 -0.3425 -0.2742 -0.2239
  379MPD2    H7 5730   1.178   2.485  15.864 -1.2148  0.7516  1.1072
  380TMC3    C1 5731   1.387   2.509  15.715 -0.2431 -0.5935 -0.8924
  380TMC3    C2 5732   1.515   2.530  15.665 -0.4168 -0.8123 -0.1649
  380TMC3    C3 5733   1.529   2.611  15.556  0.8162 -0.1868 -0.0144
  380TMC3    C4 5734   1.276   2.561  15.652  0.0372 -0.3594 -0.1285
  380TMC3    C5 5735   1.292   2.643  15.549 -0.0003 -0.8628 -0.0040
  380TMC3    C6 5736   1.419   2.670  15.499  0.6287 -0.0971  0.4353
  380TMC3     C 5737   1.384   2.492  15.861  0.3163  0.4747 -0.8005
  380TMC3     O 5738   1.493   2.505  15.914  0.1138 -0.1466  0.5024
  380TMC3     H 5739   1.596   2.480  15.718 -0.5717 -1.3916 -0.4780
  380TMC3    H1 5740   1.177   2.546  15.694 -0.6008  1.3824 -1.0136
  380TMC3    H2 5741   1.433   2.733  15.412  1.3482  1.1948  1.4893
  380TMC3    C7 5742   1.189   2.739  15.514 -1.0911 -0.5327  0.3859
  380TMC3    C8 5743   1.659   2.657  15.505 -0.2608 -1.0212  0.0584
  380TMC3    O1 5744   1.221   2.854  15.525 -0.5554  0.8009 -0.2438
  380TMC3    O2 5745   1.659   2.726  15.401  0.0160  0.0315  0.2937
  381TMC3    C1 5746   1.066   3.797  16.070 -0.1216 -0.0225  0.5210
  381TMC3    C2 5747   1.170   3.859  16.132 -0.0545 -0.5441  0.6874
  381TMC3    C3 5748   1.143   3.972  16.199 -0.1170 -0.1916  0.2272
  381TMC3    C4 5749   0.942   3.854  16.060 -0.2438 -0.7380 -0.1680
  381TMC3    C5 5750   0.913   3.972  16.121  0.1080  0.0486  0.0370
  381TMC3    C6 5751   1.015   4.031  16.200 -0.2928  0.0975  0.3140
  381TMC3     C 5752   1.102   3.688  15.977  0.9478  0.0966 -0.2821
  381TMC3     O 5753   1.210   3.636  16.002 -0.2816  0.0026  0.9839
  381TMC3     H 5754   1.271   3.821  16.127  0.3335  0.6654 -0.9056
  381TMC3    H1 5755   0.861   3.808  16.004 -0.6487 -1.7595  1.2619
  381TMC3    H2 5756   1.008   4.127  16.251 -0.4299 -0.1700  0.7982
  381TMC3    C7 5757   0.768   4.000  16.134  0.2464  0.1682  0.0865
  381TMC3    C8 5758   1.253   4.058  16.205  0.5047  0.1620 -0.2212
  381TMC3    O1 5759   0.687   3.921  16.087 -0.2484  0.4846 -0.5106
  381TMC3    O2 5760   1.340   4.034  16.126 -0.8463  0.0309  0.0861
  382MPD2     C 5761   0.301   2.184  17.029 -0.1136  0.0540 -0.2145
  382MPD2    C1 5762   0.325   2.158  17.161  0.8450  0.2773  0.6583
  382MPD2    C2 5763   0.325   2.028  17.206 -0.4208  0.5978 -0.0077
  382MPD2    C3 5764   0.345   1.922  17.115  0.2000 -0.1385  0.1315
  382MPD2    C4 5765   0.330   1.952  16.978  0.2163 -0.2975 -0.2039
  382MPD2    C5 5766   0.305   2.082  16.943 -0.2195  0.5723  0.2613
  382MPD2     H 5767   0.339   2.012  17.312 -1.4876 -0.6189 -0.0574
  382MPD2    H1 5768   0.335   1.868  16.909 -0.9070  1.8267 -2.8855
  382MPD2    H2 5769   0.293   2.283  16.986  1.1947  0.5323  0.6786
  382MPD2    H3 5770   0.278   2.105  16.841 -1.7798 -2.4572 -0.0188
  382MPD2     N 5771   0.366   1.788  17.156 -0.1396 -0.2209  0.2515
  382MPD2    H5 5772   0.378   1.714  17.087 -3.1108  0.4300 -0.9525
  382MPD2    N1 5773   0.324   2.261  17.259 -0.3344 -0.3043  0.7598
  382MPD2    H7 5774   0.332   2.224  17.354 -0.2248  0.9284  1.2394
  383TMC3    C1 5775   0.365   1.608  17.323  0.4418 -0.3526 -0.1603
  383TMC3    C2 5776   0.317   1.524  17.226 -0.5690  0.3234  0.4012
  383TMC3    C3 5777   0.303   1.393  17.263 -0.0622 -0.5613  0.0736
  383TMC3    C4 5778   0.388   1.570  17.453  0.0280 -0.5211 -0.8902
  383TMC3    C5 5779   0.370   1.441  17.482 -0.2035 -0.2890 -0.1302
  383TMC3    C6 5780   0.326   1.354  17.395 -0.8323  0.3211  0.4973
  383TMC3     C 5781   0.394   1.745  17.289  0.3590  0.4051 -0.4873
  383TMC3     O 5782   0.423   1.819  17.386 -0.4203  0.1586 -0.1574
  383TMC3     H 5783   0.294   1.562  17.127 -1.2174  0.2623  0.5274
  383TMC3    H1 5784   0.423   1.639  17.528 -1.6175 -2.4003  1.5885
  383TMC3    H2 5785   0.304   1.252  17.424  1.4079  0.4201  2.6147
  383TMC3    C7 5786   0.339   1.410  17.620  0.2509 -0.2458 -0.0978
  383TMC3    C8 5787   0.204   1.320  17.191  0.6865  0.2369 -0.3174
  383TMC3    O1 5788   0.317   1.502  17.701  0.3461 -0.2985  0.0602
  383TMC3    O2 5789   0.145   1.387  17.106  0.8474  0.1747  0.3354
  384MPD2     C 5790   2.111   2.690  11.758 -0.4619  0.3886 -0.3725
  384MPD2    C1 5791   2.216   2.657  11.840 -0.2903  0.2646  0.9946
  384MPD2    C2 5792   2.322   2.585  11.789  0.4252 -0.2702 -0.1096
  384MPD2    C3 5793   2.328   2.543  11.655  0.9685 -0.1628  0.0204
  384MPD2    C4 5794   2.221   2.578  11.576 -0.1704  0.0628  0.5574
  384MPD2    C5 5795   2.110   2.644  11.628 -0.4928  0.0612 -1.1784
  384MPD2     H 5796   2.401   2.556  11.856  1.1142  1.1610 -0.2928
  384MPD2    H1 5797   2.218   2.535  11.476  2.0096 -1.2434  1.0523
  384MPD2    H2 5798   2.016   2.732  11.790 -0.2222  1.6509 -1.3331
  384MPD2    H3 5799   2.019   2.660  11.571 -0.6516  0.0578 -0.9312
  384MPD2     N 5800   2.430   2.459  11.617 -0.0654  0.3030 -0.1718
  384MPD2    H5 5801   2.504   2.443  11.686 -1.2754 -0.2798  0.9846
  384MPD2    N1 5802   2.224   2.687  11.977 -0.1535  0.3320  0.2088
  384MPD2    H7 5803   2.307   2.663  12.030 -0.9537 -0.8971  0.9133
  385TMC3    C1 5804   2.555   2.301  11.492 -0.3403 -0.4591  1.1162
  385TMC3    C2 5805   2.541   2.164  11.496  0.1419  0.0267 -0.5220
  385TMC3    C3 5806   2.620   2.090  11.576  0.5055  0.1462 -0.0311
  385TMC3    C4 5807   2.645   2.352  11.578  0.0165  0.1570 -0.1935
  385TMC3    C5 5808   2.717   2.276  11.671 -0.1863 -0.6220 -0.2048
  385TMC3    C6 5809   2.710   2.137  11.667 -0.6663  0.9478  0.1206
  385TMC3     C 5810   2.436   2.379  11.503 -0.5868  0.4888  0.4065
  385TMC3     O 5811   2.357   2.368  11.411 -0.1272 -0.4871  0.2100
  385TMC3     H 5812   2.460   2.112  11.447  0.3224 -0.3296 -0.4457
  385TMC3    H1 5813   2.658   2.459  11.587  0.5923 -0.0579  1.5593
  385TMC3    H2 5814   2.754   2.068  11.738 -1.4557 -0.1703 -0.4752
  385TMC3    C7 5815   2.702   2.334  11.806  0.0482 -0.0275  0.2321
  385TMC3    C8 5816   2.587   1.952  11.574  0.2429 -0.0756 -0.2927
  385TMC3    O1 5817   2.626   2.431  11.809  0.1464 -0.4024  0.2416
  385TMC3    O2 5818   2.632   1.896  11.674  0.6936  0.0626 -0.2050
  386TMC3    C1 5819   2.044   4.361  12.067 -0.1907  0.7887 -0.2044
  386TMC3    C2 5820   2.066   4.431  11.951  0.0793  0.2771 -0.4025
  386TMC3    C3 5821   2.001   4.552  11.937  0.2594  0.4667  0.2248
  386TMC3    C4 5822   1.960   4.415  12.165  0.4398  0.0449  0.2133
  386TMC3    C5 5823   1.884   4.519  12.132 -0.4398 -0.3159  0.6572
  386TMC3    C6 5824   1.893   4.583  12.015  0.4502 -0.8774 -0.0411
  386TMC3     C 5825   2.115   4.235  12.104 -0.2929 -0.9647 -0.1827
  386TMC3     O 5826   2.071   4.180  12.204  0.3259  0.6956  0.1770
  386TMC3     H 5827   2.132   4.392  11.875  1.0342 -1.1318  1.1578
  386TMC3    H1 5828   1.939   4.353  12.251 -1.5134  0.5104  0.0575
  386TMC3    H2 5829   1.846   4.679  11.996  0.0106 -0.4806  3.1322
  386TMC3    C7 5830   1.761   4.536  12.204  0.1104  0.0986  0.6301
  386TMC3    C8 5831   2.030   4.631  11.813 -0.4422  1.0812  0.9410
  386TMC3    O1 5832   1.742   4.481  12.312 -0.2887  0.2574 -0.2127
  386TMC3    O2 5833   1.931   4.699  11.790 -0.2504 -0.5878 -0.0264
  387MPD2     C 5834   0.276   0.340   9.656  0.5328  0.0039 -0.3527
  387MPD2    C1 5835   0.193   0.376   9.757  1.0667  0.3760 -0.6759
  387MPD2    C2 5836   0.126   0.281   9.832 -0.6641  0.5882 -0.5864
  387MPD2    C3 5837   0.144   0.146   9.812 -0.4091  0.0342 -0.5917
  387MPD2    C4 5838   0.240   0.116   9.719  0.2454 -0.2599 -0.1688
  387MPD2    C5 5839   0.309   0.209   9.640  0.4536  1.1402 -0.3469
  387MPD2     H 5840   0.055   0.316   9.906  0.3038  3.7518 -1.1593
  387MPD2    H1 5841   0.264   0.013   9.694 -1.7743 -1.6434  3.5299
  387MPD2    H2 5842   0.321   0.404   9.581  1.5275 -2.8950 -2.2039
  387MPD2    H3 5843   0.380   0.175   9.566  0.5393 -0.0651  0.2784
  387MPD2     N 5844   0.070   0.045   9.886  0.3318 -0.1314 -0.2069
  387MPD2    H5 5845   0.008   0.083   9.957 -1.1860  0.5245 -1.8700
  387MPD2    N1 5846   0.175   0.515   9.790 -0.1927  0.2490  0.1313
  387MPD2    H7 5847   0.099   0.538   9.853 -0.9871  0.0196 -0.7465
  388TMC3    C1 5848   0.252   0.715   9.847 -0.7614 -0.3146 -0.3795
  388TMC3    C2 5849   0.342   0.817   9.824  0.6017  0.2329 -0.2627
  388TMC3    C3 5850   0.402   0.870   9.935 -0.2393  0.2124  0.0246
  388TMC3    C4 5851   0.238   0.666   9.974  0.8058 -0.2330 -0.3526
  388TMC3    C5 5852   0.316   0.716  10.075 -0.1925 -0.6106  0.0885
  388TMC3    C6 5853   0.394   0.822  10.061 -0.4327  0.4517  0.2681
  388TMC3     C 5854   0.256   0.618   9.750  0.0209 -0.3567  0.4427
  388TMC3     O 5855   0.333   0.616   9.654 -0.2515  0.7288  0.3049
  388TMC3     H 5856   0.362   0.850   9.723  3.5264 -1.9395 -0.3845
  388TMC3    H1 5857   0.149   0.607   9.992 -0.6542  1.4334 -2.0667
  388TMC3    H2 5858   0.460   0.859  10.138 -2.4181 -0.3060  2.3391
  388TMC3    C7 5859   0.347   0.633  10.183  0.8631  1.2952  0.5528
  388TMC3    C8 5860   0.515   0.952   9.908 -0.6054  0.5705  0.2695
  388TMC3    O1 5861   0.406   0.675  10.281 -0.1783 -0.0619 -0.2220
  388TMC3    O2 5862   0.563   0.932   9.797 -0.4423  0.2699 -0.1508
  389MPD2     C 5863   3.873   2.711  10.405 -0.5683 -0.1315  0.5941
  389MPD2    C1 5864   3.934   2.811  10.477  0.5394  0.3265  0.3897
  389MPD2    C2 5865   3.928   2.813  10.622 -0.0632 -0.7414  0.0211
  389MPD2    C3 5866   3.847   2.722  10.689 -1.1126  0.5632 -0.3815
  389MPD2    C4 5867   3.769   2.638  10.616  0.7297  0.4065  0.6705
  389MPD2    C5 5868   3.788   2.624  10.479 -1.2095  0.2059  0.1145
  389MPD2     H 5869   3.976   2.894  10.676 -1.9924  0.2864  0.2051
  389MPD2    H1 5870   3.714   2.559  10.667  0.0554  0.5354  0.1479
  389MPD2    H2 5871   3.855   2.713  10.298  1.4920 -0.4605  0.2296
  389MPD2    H3 5872   3.719   2.554  10.434 -1.8344  1.4568 -0.8892
  389MPD2     N 5873   3.827   2.732  10.831 -0.2890 -0.5857 -0.8476
  389MPD2    H5 5874   3.749   2.679  10.870  0.9825  0.0903  2.5616
  389MPD2    N1 5875   4.009   2.903  10.400  0.1261  0.8254 -0.6691
  389MPD2    H7 5876   3.995   2.904  10.300  4.0874 -1.4353 -1.2383
  390TMC3    C1 5877   3.865   2.782  11.064  0.1867  0.0252 -0.2873
  390TMC3    C2 5878   3.818   2.659  11.097 -0.0477 -0.5183  0.0589
  390TMC3    C3 5879   3.827   2.631  11.234  0.3824  0.0495  0.1684
  390TMC3    C4 5880   3.934   2.864  11.153 -0.3565 -0.2098  0.2779
  390TMC3    C5 5881   3.917   2.838  11.286 -0.5930  0.0189  0.5806
  390TMC3    C6 5882   3.861   2.725  11.328  0.4037  0.9007  0.4388
  390TMC3     C 5883   3.896   2.810  10.926  0.1704 -0.3805  0.1349
  390TMC3     O 5884   3.961   2.913  10.896  0.2595 -0.3230  0.2750
  390TMC3     H 5885   3.783   2.582  11.031  1.4352 -0.2023 -1.1095
  390TMC3    H1 5886   3.969   2.964  11.129  0.8275 -0.4702  0.9541
  390TMC3    H2 5887   3.876   2.686  11.428 -1.5554 -0.9041  0.0461
  390TMC3    C7 5888   3.970   2.930  11.383 -0.2267 -0.3129  0.9957
  390TMC3    C8 5889   3.749   2.518  11.269 -0.0417  1.0236 -0.6016
  390TMC3    O1 5890   3.991   3.042  11.347  0.3349  0.1892 -0.5943
  390TMC3    O2 5891   3.749   2.418  11.193 -0.0672 -0.2563 -0.3195
  391MPD2     C 5892   3.305   0.171  11.146  0.2129 -0.0521 -0.6978
  391MPD2    C1 5893   3.355   0.297  11.132 -0.2894 -0.4004 -0.2490
  391MPD2    C2 5894   3.364   0.356  11.012  0.1608 -0.2828  0.0212
  391MPD2    C3 5895   3.314   0.291  10.893 -0.3691  0.8540 -0.8679
  391MPD2    C4 5896   3.260   0.164  10.907  0.2917  0.8668  0.0217
  391MPD2    C5 5897   3.265   0.108  11.032  0.5834 -1.3369 -0.5446
  391MPD2     H 5898   3.396   0.459  11.001 -1.0914  0.1082  0.0048
  391MPD2    H1 5899   3.238   0.094  10.827 -0.8427  1.0863  0.1318
  391MPD2    H2 5900   3.310   0.127  11.246  0.0086  0.3663 -0.5058
  391MPD2    H3 5901   3.222   0.009  11.042 -0.1496 -0.7031  2.4249
  391MPD2     N 5902   3.324   0.358  10.772  0.8409  0.1268 -0.0543
  391MPD2    H5 5903   3.353   0.455  10.766  0.0267  0.4189  0.8606
  391MPD2    N1 5904   3.397   0.359  11.247 -0.3333  0.0483 -0.6260
  391MPD2    H7 5905   3.404   0.295  11.326  1.7285  0.9134 -0.0964
  392TMC3    C1 5906   3.330   0.390  10.549 -0.5363  0.4337  0.3251
  392TMC3    C2 5907   3.281   0.355  10.430 -0.4276 -0.3336  0.4907
  392TMC3    C3 5908   3.323   0.419  10.316 -0.4028 -0.1146  0.1157
  392TMC3    C4 5909   3.440   0.462  10.558  0.5904 -0.3414  0.1940
  392TMC3    C5 5910   3.487   0.529  10.446  0.5594 -0.3883 -1.2392
  392TMC3    C6 5911   3.425   0.508  10.320  0.7672 -0.4879 -0.0159
  392TMC3     C 5912   3.308   0.290  10.652 -0.5894 -0.2402  0.3094
  392TMC3     O 5913   3.288   0.173  10.620  0.1728 -0.7388  0.4017
  392TMC3     H 5914   3.197   0.288  10.432 -0.0999 -0.7139  1.6864
  392TMC3    H1 5915   3.497   0.461  10.650 -0.1516  1.5247  0.6641
  392TMC3    H2 5916   3.456   0.564  10.233 -1.0375  0.6535  0.0938
  392TMC3    C7 5917   3.597   0.618  10.469  0.0220  0.2141  0.4101
  392TMC3    C8 5918   3.271   0.366  10.194 -0.5060 -0.1752  0.8687
  392TMC3    O1 5919   3.658   0.590  10.571 -0.0847  0.0417 -0.2504
  392TMC3    O2 5920   3.152   0.335  10.193  0.3634  0.4666 -0.1019
  393TMC3    C1 5921   2.094   2.315  10.456  0.5707  0.2459  0.3154
  393TMC3    C2 5922   1.975   2.263  10.486  0.6279 -0.7869  0.1845
  393TMC3    C3 5923   1.969   2.126  10.508  0.0919  0.4769 -0.0770
  393TMC3    C4 5924   2.210   2.233  10.443  0.4141 -0.7244 -0.1898
  393TMC3    C5 5925   2.202   2.107  10.494  0.0396 -0.8088 -0.6326
  393TMC3    C6 5926   2.076   2.047  10.502 -0.6764  0.1390  0.7970
  393TMC3     C 5927   2.089   2.445  10.387  0.4035 -0.2963  0.3874
  393TMC3     O 5928   1.981   2.501  10.402  0.3745 -0.3580 -0.5404
  393TMC3     H 5929   1.890   2.329  10.501  0.8120  0.0452 -2.4894
  393TMC3    H1 5930   2.308   2.277  10.426  0.5607 -0.8807  0.2502
  393TMC3    H2 5931   2.077   1.939  10.491  0.1000  0.1188  1.0516
  393TMC3    C7 5932   2.316   2.030  10.542 -1.2293  0.6857  0.0012
  393TMC3    C8 5933   1.857   2.092  10.587 -0.7687 -0.2444  0.0637
  393TMC3    O1 5934   2.299   1.905  10.554 -0.3042 -0.1196  0.9644
  393TMC3    O2 5935   1.770   2.177  10.601  0.3656  0.4713  0.1792
  394TMC3    C1 5936   4.151   3.072  10.342  0.2017  0.1456 -0.2005
  394TMC3    C2 5937   4.179   3.001  10.228 -0.1346  0.1619 -0.4115
  394TMC3    C3 5938   4.221   3.079  10.122 -0.4046  0.0027 -0.3283
  394TMC3    C4 5939   4.166   3.207  10.355 -0.0119  0.2538 -0.2122
  394TMC3    C5 5940   4.187   3.275  10.244 -0.5259 -1.2675 -0.4964
  394TMC3    C6 5941   4.218   3.219  10.122 -0.2869 -0.1343  0.0847
  394TMC3     C 5942   4.075   3.011  10.446  0.2130 -0.3335 -0.5795
  394TMC3     O 5943   4.072   3.068  10.553  0.1100  0.5215  0.3722
  394TMC3     H 5944   4.185   2.892  10.226  0.8136  0.2085 -0.3414
  394TMC3    H1 5945   4.170   3.247  10.456 -2.3231 -2.2495  0.8928
  394TMC3    H2 5946   4.232   3.275  10.031  1.8750  0.2876  0.6733
  394TMC3    C7 5947   4.213   3.413  10.255 -0.6551  0.4481 -0.3349
  394TMC3    C8 5948   4.207   3.021   9.992 -0.2512 -0.1874  0.7615
  394TMC3    O1 5949   4.303   3.457  10.186 -0.3220  0.2850 -0.3268
  394TMC3    O2 5950   4.163   3.086   9.897  0.3890  0.0590 -0.4104
  395TMC3    C1 5951   4.013   0.016  14.640 -0.5026  0.3923 -0.6319
  395TMC3    C2 5952   3.890   0.022  14.575  0.6456 -0.5982 -0.0648
  395TMC3    C3 5953   3.862   0.133  14.506 -0.2471 -0.0606 -0.1279
  395TMC3    C4 5954   4.109   0.119  14.633  0.1662 -0.1050 -0.3579
  395TMC3    C5 5955   4.075   0.221  14.551  0.8141 -0.0154  0.1061
  395TMC3    C6 5956   3.958   0.231  14.482  0.1378  0.0829  0.9171
  395TMC3     C 5957   4.026   4.664  14.757  0.0107 -0.3222 -0.7377
  395TMC3     O 5958   4.106   4.710  14.839 -0.4088 -0.0572  0.3374
  395TMC3     H 5959   3.819   4.675  14.580  0.2620 -0.4095 -2.6888
  395TMC3    H1 5960   4.192   0.132  14.701 -1.7853  0.5590  1.9117
  395TMC3    H2 5961   3.950   0.317  14.417 -1.9471 -1.7781 -1.2540
  395TMC3    C7 5962   4.166   0.333  14.526 -0.7412 -0.6098  0.2206
  395TMC3    C8 5963   3.742   0.154  14.423  0.0094  0.2897 -0.0793
  395TMC3    O1 5964   4.238   0.375  14.617 -0.0632 -0.4470 -0.2550
  395TMC3    O2 5965   3.751   0.237  14.332 -0.4709 -0.1721 -0.4553
  396MPD2     C 5966   2.509   1.209  16.841 -0.5417 -0.1166 -0.5487
  396MPD2    C1 5967   2.631   1.163  16.894 -0.3028 -0.0457 -1.3676
  396MPD2    C2 5968   2.751   1.235  16.876 -0.1595  0.0541 -0.7896
  396MPD2    C3 5969   2.743   1.363  16.818 -0.1045 -0.1576  0.5569
  396MPD2    C4 5970   2.617   1.414  16.773 -0.6801 -0.3565  0.8351
  396MPD2    C5 5971   2.500   1.336  16.778  0.3459  0.0087  0.3005
  396MPD2     H 5972   2.847   1.200  16.911  0.4485  1.2844 -1.2424
  396MPD2    H1 5973   2.613   1.514  16.733  0.3066 -1.1744 -1.3262
  396MPD2    H2 5974   2.413   1.161  16.854 -0.2168 -1.0274 -1.5590
  396MPD2    H3 5975   2.414   1.376  16.725  0.5080  0.1373  0.1336
  396MPD2     N 5976   2.868   1.427  16.810 -0.8557 -0.2448  0.2220
  396MPD2    H5 5977   2.950   1.383  16.851 -0.4085 -0.0471 -0.4462
  396MPD2    N1 5978   2.623   1.033  16.960 -0.2066 -0.2713  0.9247
  396MPD2    H7 5979   2.548   0.971  16.929  1.2139 -1.9522  0.8295
  397TMC3    C1 5980   2.705   0.842  17.061  0.2680 -0.0132  0.1960
  397TMC3    C2 5981   2.723   0.778  16.944 -0.1952  0.5246 -0.7916
  397TMC3    C3 5982   2.826   0.693  16.934  0.5612  0.4894  0.0829
  397TMC3    C4 5983   2.774   0.804  17.175  0.0900 -0.7224 -0.0465
  397TMC3    C5 5984   2.869   0.708  17.159  0.4315  0.1187  0.4839
  397TMC3    C6 5985   2.896   0.650  17.040  0.0771  0.2555 -0.0214
  397TMC3     C 5986   2.724   0.978  17.033 -0.0220 -0.7070  0.3597
  397TMC3     O 5987   2.814   1.040  17.098  0.0482 -0.4275  0.3547
  397TMC3     H 5988   2.682   0.833  16.860  0.4010  0.5936 -1.0324
  397TMC3    H1 5989   2.754   0.870  17.259 -0.9396 -1.4112  0.2623
  397TMC3    H2 5990   2.971   0.572  17.030 -0.2095 -0.2143  1.4838
  397TMC3    C7 5991   2.951   0.668  17.268  0.0125  0.8709 -0.2077
  397TMC3    C8 5992   2.908   0.727  16.823 -0.1469  0.0877 -0.8100
  397TMC3    O1 5993   3.049   0.597  17.248 -0.5542  0.8258 -0.0683
  397TMC3    O2 5994   2.850   0.749  16.720  0.0938 -0.5773  0.0284
  398MPD2     C 5995   0.927   2.968   0.112  0.1824  0.4797 -0.1188
  398MPD2    C1 5996   1.055   2.980   0.153  0.1980  0.4214  0.0228
  398MPD2    C2 5997   1.087   3.085   0.237  0.4373 -0.3554  0.2541
  398MPD2    C3 5998   1.012   3.193   0.255  0.1514  0.9746 -0.7288
  398MPD2    C4 5999   0.894   3.195   0.186  0.1265 -0.3137  0.2206
  398MPD2    C5 6000   0.847   3.077   0.134  0.5144  0.3026  0.3247
  398MPD2     H 6001   1.172   3.069   0.303 -0.5099 -0.9074  1.3444
  398MPD2    H1 6002   0.828   3.280   0.177  0.1021 -0.1462  1.8619
  398MPD2    H2 6003   0.876   2.879   0.079  1.2853 -0.2986  0.2821
  398MPD2    H3 6004   0.744   3.070   0.101  0.4748  0.1001  0.4886
  398MPD2     N 6005   1.055   3.291   0.348  0.3248 -0.4312 -0.1106
  398MPD2    H5 6006   1.134   3.261   0.405 -0.2739 -0.5989  0.6261
  398MPD2    N1 6007   1.128   2.859   0.153  0.0403  0.3828 -0.5905
  398MPD2    H7 6008   1.203   2.858   0.222 -1.1163 -2.3811  0.6255
  399TMC3    C1 6009   1.192   2.641   0.088 -0.4615 -0.0667 -0.2277
  399TMC3    C2 6010   1.250   2.621   0.207 -0.1292  0.0648  0.1705
  399TMC3    C3 6011   1.306   2.494   0.226 -1.1596 -1.1387  0.1574
  399TMC3    C4 6012   1.206   2.547  17.723 -0.7169 -0.9881  0.1802
  399TMC3    C5 6013   1.262   2.430   0.006  0.3988 -0.4288 -0.0796
  399TMC3    C6 6014   1.305   2.393   0.133  0.1367  0.0504 -0.9617
  399TMC3     C 6015   1.109   2.758   0.066  0.4862 -0.4833  0.2167
  399TMC3     O 6016   1.037   2.752  17.706  0.4405  0.7049 -0.0436
  399TMC3     H 6017   1.260   2.699   0.282  2.0628 -0.2839  0.2341
  399TMC3    H1 6018   1.173   2.578  17.624  1.0220  0.9093  0.1944
  399TMC3    H2 6019   1.351   2.296   0.148 -1.4559 -0.4487  0.7702
  399TMC3    C7 6020   1.208   2.319  17.667 -0.2995 -0.0529 -0.2402
  399TMC3    C8 6021   1.377   2.470   0.348  0.0892 -0.1774  0.3426
  399TMC3    O1 6022   1.201   2.211  17.723  0.1667  0.2090 -0.1642
  399TMC3    O2 6023   1.447   2.564   0.397 -0.0826 -0.0397 -0.8468
  400TMC3    C1 6024   0.363   1.081  16.763 -0.5019  0.1382  0.2057
  400TMC3    C2 6025   0.253   1.022  16.705 -0.3442  0.1035  0.6258
  400TMC3    C3 6026   0.182   1.104  16.625  0.1482  0.3857  0.4425
  400TMC3    C4 6027   0.413   1.205  16.738 -0.1037 -0.1356  0.8319
  400TMC3    C5 6028   0.334   1.286  16.665  0.1848  0.1087 -0.6338
  400TMC3    C6 6029   0.215   1.237  16.612 -0.2225 -0.5061 -0.6007
  400TMC3     C 6030   0.415   0.999  16.872 -0.3173  0.0249 -0.1998
  400TMC3     O 6031   0.370   0.889  16.892 -0.4191  0.5415 -0.2987
  400TMC3     H 6032   0.220   0.925  16.740  2.5710 -1.2338 -0.2885
  400TMC3    H1 6033   0.504   1.248  16.778 -0.1177 -0.5707  1.3366
  400TMC3    H2 6034   0.152   1.296  16.547  0.1525  1.1880  0.5848
  400TMC3    C7 6035   0.364   1.427  16.676 -0.2048  0.3242 -0.3006
  400TMC3    C8 6036   0.042   1.082  16.610 -0.2485  0.7712 -0.6595
  400TMC3    O1 6037   0.477   1.467  16.709  0.2555  0.4371 -0.2412
  400TMC3    O2 6038   4.700   1.175  16.594 -0.1495  0.0987 -0.0267
  401MPD2     C 6039   3.067   0.133   1.071  0.2374 -0.0194  0.2580
  401MPD2    C1 6040   3.120   0.071   0.962  0.4718 -0.3437  0.5049
  401MPD2    C2 6041   3.043   0.021   0.862 -0.0584  0.5899 -0.2179
  401MPD2    C3 6042   2.906   0.017   0.875 -0.1351 -0.1870 -0.2032
  401MPD2    C4 6043   2.851   0.092   0.979  0.5253 -0.7609 -0.5456
  401MPD2    C5 6044   2.932   0.147   1.075  0.1531  0.2140  0.1349
  401MPD2     H 6045   3.093   4.706   0.779 -0.9107 -0.5194 -0.0636
  401MPD2    H1 6046   2.746   0.117   0.990 -0.2148 -4.5054  0.8498
  401MPD2    H2 6047   3.116   0.175   1.159  2.3285 -2.4465  0.2320
  401MPD2    H3 6048   2.882   0.200   1.156 -2.0326 -1.0916 -0.3342
  401MPD2     N 6049   2.823   4.681   0.782 -0.1398 -0.3139  0.1544
  401MPD2    H5 6050   2.876   4.650   0.701  0.2145  0.0369  0.2539
  401MPD2    N1 6051   3.259   0.064   0.951 -0.5395  0.1806  0.7377
  401MPD2    H7 6052   3.289   4.728   0.884 -1.6198  1.5439 -1.2167
  402TMC3    C1 6053   2.662   4.530   0.731 -0.2322  0.4608 -0.3538
  402TMC3    C2 6054   2.674   4.413   0.794  0.4642  0.6947 -0.3529
  402TMC3    C3 6055   2.732   4.308   0.726  0.0190 -0.8187  0.1189
  402TMC3    C4 6056   2.697   4.533   0.598 -0.3751  0.3519 -0.0959
  402TMC3    C5 6057   2.737   4.423   0.527  0.3325 -0.4233 -0.2000
  402TMC3    C6 6058   2.766   4.311   0.591  0.5286  0.0121  0.6149
  402TMC3     C 6059   2.700   4.637   0.815  0.6575  1.0459 -0.5229
  402TMC3     O 6060   2.634   4.642   0.920  0.5789  0.6143  0.0300
  402TMC3     H 6061   2.654   4.401   0.900  1.3310 -0.0489 -0.2701
  402TMC3    H1 6062   2.677   4.623   0.541 -2.4674 -0.9160 -1.3445
  402TMC3    H2 6063   2.813   4.224   0.546 -1.2406 -0.8624  0.4775
  402TMC3    C7 6064   2.707   4.431   0.387 -0.0411  1.3273  0.7019
  402TMC3    C8 6065   2.841   4.245   0.800 -0.4766  0.0103 -0.4665
  402TMC3    O1 6066   2.701   4.545   0.339  0.2437 -0.0352 -0.2701
  402TMC3    O2 6067   2.888   4.140   0.757  0.2075 -0.9582 -0.3418
  403MPD2     C 6068   1.915   1.464  13.474  0.2267  0.3834 -0.8350
  403MPD2    C1 6069   1.944   1.598  13.454  0.0451 -0.3726  0.2394
  403MPD2    C2 6070   2.010   1.670  13.545  0.3605 -0.8286 -0.5779
  403MPD2    C3 6071   2.064   1.616  13.661  0.3419  0.5038  0.8551
  403MPD2    C4 6072   2.034   1.485  13.682 -0.7217  0.5737  0.0688
  403MPD2    C5 6073   1.965   1.407  13.587 -0.9482 -0.5470 -0.1067
  403MPD2     H 6074   2.029   1.776  13.538 -0.2635 -0.6800  0.0409
  403MPD2    H1 6075   2.068   1.432  13.770 -2.1159  0.4963  0.5582
  403MPD2    H2 6076   1.864   1.404  13.400 -0.2313 -1.7220  1.1715
  403MPD2    H3 6077   1.944   1.303  13.609 -2.2657 -0.8045 -2.5661
  403MPD2     N 6078   2.117   1.701  13.758  0.5554  0.1637  0.2709
  403MPD2    H5 6079   2.148   1.795  13.736 -0.3485  1.1423  3.1689
  403MPD2    N1 6080   1.885   1.656  13.340  0.0633 -0.3100 -0.2388
  403MPD2    H7 6081   1.817   1.593  13.300 -0.9914 -0.1130  1.2365
  404TMC3    C1 6082   1.789   1.864  13.283  0.2451 -0.4948 -0.3964
  404TMC3    C2 6083   1.731   1.895  13.403 -0.2902  0.1192 -0.0140
  404TMC3    C3 6084   1.594   1.875  13.429  0.4433  0.5942 -1.0786
  404TMC3    C4 6085   1.701   1.833  13.175 -0.2111  0.1343 -0.7973
  404TMC3    C5 6086   1.570   1.831  13.195  0.2556 -0.4646 -0.1460
  404TMC3    C6 6087   1.515   1.848  13.320  0.6886 -1.1309  0.9846
  404TMC3     C 6088   1.907   1.790  13.297  0.5536 -0.4056 -0.5204
  404TMC3     O 6089   1.999   1.864  13.332  0.5403  0.4885 -0.6056
  404TMC3     H 6090   1.797   1.896  13.488  3.1348 -1.0405 -2.6826
  404TMC3    H1 6091   1.743   1.783  13.088  0.6946  0.7501 -0.7106
  404TMC3    H2 6092   1.409   1.826  13.332  0.3983 -0.9154 -1.2170
  404TMC3    C7 6093   1.489   1.745  13.114 -0.2512 -0.8686 -0.4774
  404TMC3    C8 6094   1.540   1.820  13.554 -0.2376 -0.2113  0.1588
  404TMC3    O1 6095   1.400   1.673  13.164 -0.1058 -0.1636 -0.5904
  404TMC3    O2 6096   1.418   1.824  13.579  0.3222  0.3550 -0.3502
  405MPD2     C 6097   1.697   2.738  15.032  0.1211 -0.2069  0.5084
  405MPD2    C1 6098   1.704   2.664  14.914  0.8487 -0.0891 -0.6113
  405MPD2    C2 6099   1.804   2.696  14.820  0.1044  0.0173 -0.1043
  405MPD2    C3 6100   1.894   2.796  14.842  0.4048 -0.0025  0.3011
  405MPD2    C4 6101   1.882   2.863  14.958  0.5500 -0.1781 -0.1074
  405MPD2    C5 6102   1.793   2.837  15.055 -0.0567 -0.2379 -0.1439
  405MPD2     H 6103   1.809   2.631  14.734  1.6557 -0.1056  0.0777
  405MPD2    H1 6104   1.960   2.936  14.980  0.1754 -0.6977  2.9804
  405MPD2    H2 6105   1.626   2.719  15.111  2.8311 -1.5446  2.6249
  405MPD2    H3 6106   1.805   2.884  15.152  2.3649 -1.6662  0.2452
  405MPD2     N 6107   1.989   2.822  14.734  0.7426  0.0690  0.0957
  405MPD2    H5 6108   1.987   2.751  14.661 -0.1349  1.4057 -1.1836
  405MPD2    N1 6109   1.604   2.569  14.883 -0.2233  0.6528 -0.0687
  405MPD2    H7 6110   1.612   2.509  14.801  1.5583 -0.0472  0.6281
  406TMC3    C1 6111   2.020   3.062  14.422  0.5759 -0.1102  0.3648
  406TMC3    C2 6112   1.996   2.948  14.346  0.2562 -0.2076 -0.8033
  406TMC3    C3 6113   2.040   2.829  14.397 -0.1011 -0.3157  0.1250
  406TMC3    C4 6114   2.091   3.065  14.540  1.1565  0.6100  0.2994
  406TMC3    C5 6115   2.134   2.942  14.588 -0.0883 -0.6112 -0.2040
  406TMC3    C6 6116   2.125   2.832  14.513 -0.2113  0.2184 -0.3634
  406TMC3     C 6117   1.945   3.183  14.400  0.0729 -0.4053 -0.2155
  406TMC3     O 6118   1.994   3.292  14.376  1.0931  0.3179 -0.3851
  406TMC3     H 6119   1.941   2.957  14.253  1.2386 -0.1678 -1.3907
  406TMC3    H1 6120   2.099   3.157  14.598  2.1695  0.4926  0.3459
  406TMC3    H2 6121   2.148   2.735  14.556  3.1774  0.6904 -1.1251
  406TMC3    C7 6122   2.080   2.924  14.721 -0.5422 -0.0861 -1.1470
  406TMC3    C8 6123   1.950   2.717  14.397  0.0489  0.1074 -0.6278
  406TMC3    O1 6124   2.106   3.014  14.800 -0.7069 -0.3694 -0.2232
  406TMC3    O2 6125   1.932   2.666  14.508 -0.3548 -0.1754  0.4554
  407MPD2     C 6126   4.141   4.562   9.780  0.0123  0.5446  0.2409
  407MPD2    C1 6127   4.257   4.622   9.822  0.2033 -0.2858 -0.3845
  407MPD2    C2 6128   4.262   4.654   9.952 -0.1965  0.0754 -0.1929
  407MPD2    C3 6129   4.159   4.640  10.041 -0.3258 -0.5048  0.2039
  407MPD2    C4 6130   4.044   4.581   9.998 -0.2270 -0.0340  0.1360
  407MPD2    C5 6131   4.038   4.538   9.868 -0.7887  0.0648  0.0056
  407MPD2     H 6132   4.348   4.708   9.990 -0.2096  0.2725 -0.4459
  407MPD2    H1 6133   3.954   4.571  10.058 -1.4058  0.8682 -1.4473
  407MPD2    H2 6134   4.109   4.539   9.679  0.0191  0.4072  0.2701
  407MPD2    H3 6135   3.945   4.500   9.827 -0.2279 -0.1763 -1.0496
  407MPD2     N 6136   4.159   4.694  10.173 -0.1030 -0.1561 -0.4381
  407MPD2    H5 6137   4.067   4.714  10.210 -0.2097 -2.3427  0.5004
  407MPD2    N1 6138   4.366   4.645   9.737 -0.2831  0.2951 -0.2407
  407MPD2    H7 6139   4.443   4.696   9.778 -1.3187  1.8682 -0.2663
  408TMC3    C1 6140   4.515   4.615   9.554 -0.4522 -0.3892  0.0496
  408TMC3    C2 6141   4.573   4.506   9.492  0.0216  0.0030  0.3853
  408TMC3    C3 6142   4.708   4.528   9.460 -0.5091  0.6050  0.2572
  408TMC3    C4 6143   4.568   0.010   9.569  1.1278 -0.3822  0.1953
  408TMC3    C5 6144   4.698   0.019   9.523 -0.1674  0.2190 -0.5422
  408TMC3    C6 6145   0.034   4.643   9.467 -0.0539  0.0258 -0.4227
  408TMC3     C 6146   4.377   4.606   9.605 -0.6542 -0.4686  0.4449
  408TMC3     O 6147   4.297   4.545   9.536 -0.3531 -0.3666  0.1317
  408TMC3     H 6148   4.536   4.405   9.505  0.1923 -0.1113 -0.0246
  408TMC3    H1 6149   4.510   0.093   9.609 -0.7816 -1.5786 -0.0659
  408TMC3    H2 6150   0.142   4.650   9.458 -0.1034  1.0082 -0.2894
  408TMC3    C7 6151   0.002   0.156   9.480  0.1826  0.3258  0.1679
  408TMC3    C8 6152   0.055   4.408   9.477 -0.3572 -0.9296 -0.6216
  408TMC3    O1 6153   4.683   0.256   9.519  0.0153 -0.1883 -0.7793
  408TMC3    O2 6154   0.034   4.321   9.393 -0.2831 -0.3055 -0.2867
  409MPD2     C 6155   3.660   0.785  16.624  0.8844  0.4889  0.3380
  409MPD2    C1 6156   3.722   0.787  16.753 -0.2322  0.1521 -0.0342
  409MPD2    C2 6157   3.835   0.867  16.763 -0.0164 -0.3796 -0.2563
  409MPD2    C3 6158   3.877   0.951  16.653 -0.0250 -0.2244  0.4862
  409MPD2    C4 6159   3.811   0.949  16.538  0.5947  0.2730 -0.1125
  409MPD2    C5 6160   3.706   0.866  16.523  0.1836  0.8737  0.1016
  409MPD2     H 6161   3.878   0.864  16.863  2.6091 -1.2914 -1.4033
  409MPD2    H1 6162   3.840   0.997  16.445  0.1659 -3.1063 -2.0131
  409MPD2    H2 6163   3.579   0.722  16.590  0.4554  1.0283  0.3569
  409MPD2    H3 6164   3.673   0.849  16.421 -1.2796 -1.3207  0.9711
  409MPD2     N 6165   3.998   1.026  16.654 -0.2129 -0.3354 -0.3074
  409MPD2    H5 6166   4.029   1.071  16.569 -1.5001 -0.3698 -0.7913
  409MPD2    N1 6167   3.690   0.698  16.855  0.0953  0.5047 -0.0483
  409MPD2    H7 6168   3.736   0.716  16.944 -1.7695  0.6570  0.8859
  410TMC3    C1 6169   4.193   1.110  16.738  0.1455  0.4683 -0.2555
  410TMC3    C2 6170   4.292   1.100  16.828  0.6032 -0.4318  1.3653
  410TMC3    C3 6171   4.390   1.185  16.817  0.9046  0.0632 -0.2169
  410TMC3    C4 6172   4.191   1.212  16.643  0.5560  0.3970 -0.7314
  410TMC3    C5 6173   4.300   1.295  16.641 -0.5328  0.3111  0.0973
  410TMC3    C6 6174   4.403   1.289  16.728 -0.2508 -0.2254 -0.1545
  410TMC3     C 6175   4.075   1.043  16.769 -0.6349 -0.2272 -0.3523
  410TMC3     O 6176   4.055   0.990  16.877  0.4401 -0.5215  0.2670
  410TMC3     H 6177   4.290   1.028  16.908  0.3871  0.3445  2.0585
  410TMC3    H1 6178   4.109   1.223  16.573 -1.0185 -0.4119  0.9666
  410TMC3    H2 6179   4.494   1.347  16.717  0.8526 -2.6364 -3.8702
  410TMC3    C7 6180   4.320   1.377  16.523 -0.9098  0.3612 -0.9904
  410TMC3    C8 6181   4.503   1.178  16.912 -0.0257 -0.5254 -0.1034
  410TMC3    O1 6182   4.432   1.415  16.496  0.0692 -0.0835  1.1897
  410TMC3    O2 6183   4.570   1.280  16.923 -0.6078 -0.3159  0.2033
  411MPD2     C 6184   4.117   1.158  14.189 -0.4458  0.2502 -0.1544
  411MPD2    C1 6185   4.088   1.152  14.324  0.5317  0.5884  0.5417
  411MPD2    C2 6186   4.023   1.038  14.377  0.3143  0.0092  0.3379
  411MPD2    C3 6187   3.970   0.944  14.288 -0.3864 -0.1270 -0.2927
  411MPD2    C4 6188   3.988   0.959  14.155 -0.2767  0.6648 -0.2372
  411MPD2    C5 6189   4.061   1.063  14.100 -0.8237 -0.4234 -1.1964
  411MPD2     H 6190   4.007   1.026  14.483  1.2930  0.7447  0.5588
  411MPD2    H1 6191   3.962   0.884  14.081 -0.0833  1.3053 -0.9527
  411MPD2    H2 6192   4.176   1.238  14.147 -0.6616  0.0340 -0.8675
  411MPD2    H3 6193   4.063   1.069  13.992 -1.4547  0.6052 -1.1449
  411MPD2     N 6194   3.896   0.831  14.342 -0.0452  0.9311  0.3381
  411MPD2    H5 6195   3.855   0.763  14.279 -0.2835  1.8946 -0.5562
  411MPD2    N1 6196   4.135   1.257  14.408  0.2874  0.7738  0.6448
  411MPD2    H7 6197   4.195   1.325  14.361 -1.3670  1.2939 -0.6886
  412TMC3    C1 6198   3.801   0.682  14.481  0.1767  0.2244  0.0623
  412TMC3    C2 6199   3.673   0.694  14.521 -0.3580  0.1915  0.1221
  412TMC3    C3 6200   3.576   0.623  14.459  0.0804  0.4849  0.6819
  412TMC3    C4 6201   3.827   0.597  14.381  0.5203 -0.2782 -0.7831
  412TMC3    C5 6202   3.735   0.513  14.327  0.0981 -0.1769 -0.6018
  412TMC3    C6 6203   3.609   0.525  14.367 -0.1651  0.3394 -0.4379
  412TMC3     C 6204   3.863   0.815  14.474 -0.7558 -0.3028  0.0007
  412TMC3     O 6205   3.854   0.881  14.575  0.6827  0.6780 -0.0187
  412TMC3     H 6206   3.646   0.782  14.578 -3.5560  0.3945 -1.7405
  412TMC3    H1 6207   3.932   0.584  14.358  1.3730  1.6289  2.0672
  412TMC3    H2 6208   3.533   0.476  14.308 -1.2266  0.6512  0.6590
  412TMC3    C7 6209   3.747   0.540  14.184 -0.0547 -0.5015 -0.4122
  412TMC3    C8 6210   3.464   0.714  14.424 -0.2478 -0.2706 -0.1376
  412TMC3    O1 6211   3.736   0.656  14.160 -0.0522  0.2216  0.0117
  412TMC3    O2 6212   3.383   0.762  14.502  0.2421 -0.5765 -0.0890
  413MPD2     C 6213   0.930   4.289  15.485  0.0684 -0.7776 -0.2874
  413MPD2    C1 6214   0.895   4.210  15.382 -0.6303  0.1736  0.5387
  413MPD2    C2 6215   0.997   4.154  15.309  0.3446  0.3703  0.2822
  413MPD2    C3 6216   1.123   4.183  15.343 -0.1882 -0.2350  0.1186
  413MPD2    C4 6217   1.151   4.256  15.451  0.9452  0.3369 -0.2548
  413MPD2    C5 6218   1.057   4.309  15.533  0.0457 -0.4333 -0.0527
  413MPD2     H 6219   0.981   4.085  15.227  1.6891  0.4479 -0.0346
  413MPD2    H1 6220   1.256   4.271  15.477  0.6147 -1.2556  2.0179
  413MPD2    H2 6221   0.851   4.336  15.543 -0.7940 -2.5769 -0.0138
  413MPD2    H3 6222   1.084   4.366  15.620  0.5574  0.1219 -0.5749
  413MPD2     N 6223   1.232   4.127  15.275 -0.3288 -0.1522 -0.1903
  413MPD2    H5 6224   1.319   4.136  15.326 -0.0001 -1.5947 -0.5152
  413MPD2    N1 6225   0.760   4.199  15.342  0.3196  0.2312 -0.5128
  413MPD2    H7 6226   0.692   4.240  15.405  0.2810  0.5859 -0.7842
  414TMC3    C1 6227   1.357   4.018  15.112  1.2590 -0.7590 -0.0200
  414TMC3    C2 6228   1.429   3.943  15.204  0.0092  0.2324 -0.0377
  414TMC3    C3 6229   1.480   3.828  15.161 -0.0929 -0.6932  0.1442
  414TMC3    C4 6230   1.361   3.987  14.978 -0.5776 -0.6241  0.9617
  414TMC3    C5 6231   1.430   3.875  14.930  0.6160  0.4230 -0.0120
  414TMC3    C6 6232   1.477   3.788  15.028 -0.2144 -0.4391 -0.0731
  414TMC3     C 6233   1.229   4.064  15.151 -0.1844 -0.3366 -0.0926
  414TMC3     O 6234   1.137   4.057  15.067  0.1989  0.2387 -0.0839
  414TMC3     H 6235   1.411   3.965  15.309  0.4211  0.1585  0.0491
  414TMC3    H1 6236   1.317   4.051  14.902  1.1016 -1.7772 -0.9870
  414TMC3    H2 6237   1.531   3.696  15.009  1.4945  0.2473  1.4150
  414TMC3    C7 6238   1.375   3.813  14.819  0.5592  0.2651 -0.6070
  414TMC3    C8 6239   1.554   3.740  15.246 -0.4650 -0.3766  0.0343
  414TMC3    O1 6240   1.264   3.846  14.783  0.7584 -0.3209  0.6741
  414TMC3    O2 6241   1.567   3.622  15.212  0.1869  0.1956 -0.2887
  415TMC3    C1 6242   1.535   1.607   9.912 -0.1817 -0.1526  0.7156
  415TMC3    C2 6243   1.482   1.725   9.945 -0.2469 -0.2068  0.5249
  415TMC3    C3 6244   1.347   1.736   9.941  0.2297 -0.1085  0.0097
  415TMC3    C4 6245   1.461   1.497   9.904 -0.1321 -0.5643 -0.6217
  415TMC3    C5 6246   1.319   1.512   9.898  0.2130  0.5937 -1.0810
  415TMC3    C6 6247   1.260   1.634   9.916  0.1798  0.6200  0.3900
  415TMC3     C 6248   1.679   1.581   9.925 -0.3834  0.5562  0.1460
  415TMC3     O 6249   1.711   1.461   9.932 -0.0535  0.1267  0.3255
  415TMC3     H 6250   1.549   1.799   9.989  0.7163  0.1582 -1.5520
  415TMC3    H1 6251   1.503   1.402   9.876  0.3939 -0.2897 -0.7650
  415TMC3    H2 6252   1.153   1.650   9.911  0.0864 -0.2648 -0.3112
  415TMC3    C7 6253   1.230   1.399   9.912 -0.1298 -0.2618 -0.4605
  415TMC3    C8 6254   1.284   1.852  10.004  0.4756  0.0484  0.3082
  415TMC3    O1 6255   1.113   1.429   9.898 -0.2820 -1.2133 -0.3527
  415TMC3    O2 6256   1.168   1.838  10.044  0.0935  0.2746  0.1911
  416MPD2     C 6257   3.045   0.558  11.150  0.2579  0.2140  0.3898
  416MPD2    C1 6258   2.976   0.535  11.264  0.3138 -0.9171  0.1952
  416MPD2    C2 6259   2.924   0.408  11.295 -0.4335 -0.4353 -0.0106
  416MPD2    C3 6260   2.926   0.302  11.207  0.0738 -0.3038 -0.2891
  416MPD2    C4 6261   2.991   0.331  11.087 -0.0056  0.0002 -0.0363
  416MPD2    C5 6262   3.057   0.452  11.063 -0.4630  0.1958  1.0599
  416MPD2     H 6263   2.878   0.388  11.391 -0.6670  1.5097  0.2861
  416MPD2    H1 6264   3.004   0.259  11.007  0.8448 -1.1095  1.1041
  416MPD2    H2 6265   3.077   0.659  11.126  1.7738 -0.0038  1.5053
  416MPD2    H3 6266   3.104   0.468  10.966 -1.3719 -0.3734  0.5272
  416MPD2     N 6267   2.877   0.178  11.246  0.2953  0.4387 -0.1838
  416MPD2    H5 6268   2.831   0.172  11.336  0.0056 -0.9624 -0.4424
  416MPD2    N1 6269   2.949   0.648  11.348  0.2107  0.2193  0.1748
  416MPD2    H7 6270   2.964   0.737  11.301  0.5862  0.0953  0.0681
  417TMC3    C1 6271   2.857   0.780  11.518 -0.0160  0.4700  0.6561
  417TMC3    C2 6272   2.896   0.806  11.647  0.3699  0.2412 -0.4465
  417TMC3    C3 6273   2.887   0.940  11.686 -0.0368  0.2623 -0.4658
  417TMC3    C4 6274   2.813   0.876  11.423  0.7585  0.3113 -0.3441
  417TMC3    C5 6275   2.808   1.010  11.469 -0.2019  0.0822  0.2973
  417TMC3    C6 6276   2.836   1.039  11.600  0.4076 -0.2633 -0.3204
  417TMC3     C 6277   2.887   0.645  11.474 -0.0443 -0.1743  0.4480
  417TMC3     O 6278   2.858   0.551  11.547 -0.2507  0.2899 -0.1956
  417TMC3     H 6279   2.919   0.723  11.713 -0.2919  0.4001 -0.0228
  417TMC3    H1 6280   2.794   0.839  11.323  2.5922  2.0210 -1.3272
  417TMC3    H2 6281   2.839   1.144  11.628  0.4016 -0.4950  0.5458
  417TMC3    C7 6282   2.775   1.112  11.370  0.1301 -0.3527 -0.2407
  417TMC3    C8 6283   2.928   0.976  11.822 -0.1335 -0.0459 -0.3009
  417TMC3    O1 6284   2.816   1.224  11.381 -0.5107 -0.1143  0.4562
  417TMC3    O2 6285   2.899   1.080  11.873 -0.0663 -0.5136  0.0576
  418TMC3    C1 6286   1.218   3.678   0.445  0.2598  0.0049  0.1611
  418TMC3    C2 6287   1.095   3.625   0.408 -0.6380  0.3082  0.1502
  418TMC3    C3 6288   1.058   3.501   0.458 -0.5222  0.1035 -0.6841
  418TMC3    C4 6289   1.301   3.616   0.539  0.0731  1.1798  0.4454
  418TMC3    C5 6290   1.258   3.492   0.586 -0.0976 -0.0079 -0.8861
  418TMC3    C6 6291   1.142   3.436   0.546  0.0254 -0.5302  0.4197
  418TMC3     C 6292   1.277   3.763   0.339 -0.0461  0.6564 -0.2089
  418TMC3     O 6293   1.203   3.830   0.269  0.1830  0.3367  0.5625
  418TMC3     H 6294   1.054   3.667   0.317  0.0638  1.5222  0.3964
  418TMC3    H1 6295   1.397   3.651   0.578  0.4462  2.2537 -1.4475
  418TMC3    H2 6296   1.109   3.345   0.595 -1.3025  0.1598  0.7904
  418TMC3    C7 6297   1.318   3.412   0.682  0.2207 -0.1364  0.2031
  418TMC3    C8 6298   0.993   3.419   0.355  0.1675  0.3240 -0.4274
  418TMC3    O1 6299   1.311   3.289   0.665 -0.4763 -0.2823 -0.3652
  418TMC3    O2 6300   0.908   3.467   0.282 -0.3201 -0.2990 -0.1631
  419MPD2     C 6301   1.018   0.783  12.828 -0.3972  0.3210 -0.2023
  419MPD2    C1 6302   0.941   0.874  12.754 -0.6420  0.2906  0.4234
  419MPD2    C2 6303   0.860   0.961  12.821 -0.4259  0.0360  0.4228
  419MPD2    C3 6304   0.850   0.964  12.960 -0.1545 -0.2663  0.2859
  419MPD2    C4 6305   0.944   0.882  13.028  0.4933  0.8046  0.2859
  419MPD2    C5 6306   1.016   0.784  12.968  0.0171  0.1310  0.5152
  419MPD2     H 6307   0.797   1.033  12.770  0.0989  0.2009  0.0125
  419MPD2    H1 6308   0.958   0.891  13.135 -1.0880 -1.8638  0.7360
  419MPD2    H2 6309   1.080   0.706  12.785 -1.0822 -0.0646 -0.5095
  419MPD2    H3 6310   1.075   0.718  13.031  2.8385  2.1243 -0.0055
  419MPD2     N 6311   0.752   1.053  13.030  0.7683 -0.3298  0.4527
  419MPD2    H5 6312   0.695   1.117  12.977  0.4062  1.1937  2.6780
  419MPD2    N1 6313   0.956   0.876  12.620  0.6299  0.3765 -0.0780
  419MPD2    H7 6314   0.900   0.946  12.573  0.8292  0.1911 -0.5844
  420TMC3    C1 6315   0.629   1.131  13.219 -0.2054 -0.1940 -0.2139
  420TMC3    C2 6316   0.596   1.244  13.147 -0.4157 -0.2145  0.0536
  420TMC3    C3 6317   0.517   1.329  13.214 -0.2308  0.6962  0.4385
  420TMC3    C4 6318   0.566   1.101  13.334 -0.2285  0.0528 -0.1687
  420TMC3    C5 6319   0.481   1.188  13.394 -0.2019  0.3047  0.3814
  420TMC3    C6 6320   0.454   1.304  13.332 -0.6699 -0.1833 -0.0114
  420TMC3     C 6321   0.737   1.041  13.172  0.2530  0.0582  0.4387
  420TMC3     O 6322   0.790   0.969  13.257  0.4044 -0.5413  0.2973
  420TMC3     H 6323   0.643   1.270  13.053  0.1516 -0.9444  0.1356
  420TMC3    H1 6324   0.598   1.009  13.382  1.1492  0.4636 -0.2983
  420TMC3    H2 6325   0.404   1.385  13.384  0.6691  0.6255  0.0165
  420TMC3    C7 6326   0.454   1.170  13.539 -0.3509  0.2235 -0.0011
  420TMC3    C8 6327   0.475   1.456  13.149 -0.0852 -0.0834  0.5930
  420TMC3    O1 6328   0.535   1.103  13.598 -0.1205  0.4199  0.5068
  420TMC3    O2 6329   0.356   1.488  13.157  0.8538  0.2171 -0.4527
  421TMC3    C1 6330   2.234   1.761  13.949 -0.5634 -0.2183 -0.3793
  421TMC3    C2 6331   2.235   1.889  13.893 -0.6300  0.5863  0.3825
  421TMC3    C3 6332   2.351   1.965  13.907 -0.3927  0.2366 -0.4273
  421TMC3    C4 6333   2.346   1.701  13.999  0.4004  0.6962  0.3581
  421TMC3    C5 6334   2.457   1.777  13.999 -0.7132 -0.5192  0.5892
  421TMC3    C6 6335   2.463   1.902  13.950 -0.1441  0.4564  0.4481
  421TMC3     C 6336   2.150   1.665  13.888 -0.9744 -0.1842  0.3943
  421TMC3     O 6337   2.132   1.554  13.942 -0.0811 -0.2322  0.7883
  421TMC3     H 6338   2.139   1.936  13.879  0.4057  2.2705 -1.1022
  421TMC3    H1 6339   2.339   1.600  14.039 -1.4931  1.0086  0.8142
  421TMC3    H2 6340   2.556   1.958  13.963  1.0096 -1.5980  0.9559
  421TMC3    C7 6341   2.590   1.729  14.058 -0.2865  0.2926  0.5893
  421TMC3    C8 6342   2.347   2.107  13.929  0.2609  0.9960 -0.1991
  421TMC3    O1 6343   2.695   1.763  14.000  0.3049 -0.4940 -0.0055
  421TMC3    O2 6344   2.451   2.163  13.892 -0.1764  0.4089  0.0571
  422TMC3    C1 6345   3.960   3.970  12.341  0.2940  0.0365 -0.0627
  422TMC3    C2 6346   3.938   4.062  12.434  0.4111 -0.1664  0.6130
  422TMC3    C3 6347   3.822   4.047  12.506  0.7614  0.5931  0.6303
  422TMC3    C4 6348   3.884   3.858  12.320 -0.2245 -0.7218  0.1234
  422TMC3    C5 6349   3.768   3.841  12.387  0.4011 -0.6371  0.1353
  422TMC3    C6 6350   3.738   3.942  12.476  0.4447  0.2216 -0.2517
  422TMC3     C 6351   4.087   3.977  12.270 -0.2370  0.7810  0.1209
  422TMC3     O 6352   4.124   3.876  12.212 -0.0649  0.6029 -0.7677
  422TMC3     H 6353   4.021   4.122  12.470 -1.1137  1.8368  0.7707
  422TMC3    H1 6354   3.903   3.789  12.238 -1.3947  0.8020 -1.4188
  422TMC3    H2 6355   3.641   3.924  12.522  0.4937 -0.7947 -0.5423
  422TMC3    C7 6356   3.672   3.737  12.354 -0.5603 -0.8499 -0.5427
  422TMC3    C8 6357   3.788   4.139  12.615  0.4087  0.1323  0.4170
  422TMC3    O1 6358   3.656   3.705  12.235 -0.0287 -0.0381 -0.0008
  422TMC3    O2 6359   3.671   4.126  12.649  0.0452 -0.0143 -0.1043
  423MPD2     C 6360   0.629   0.473   0.502 -0.6537  0.2436 -0.1763
  423MPD2    C1 6361   0.576   0.351   0.539  0.0304 -0.0001 -0.5263
  423MPD2    C2 6362   0.566   0.244   0.452  0.6247  0.7376  0.4074
  423MPD2    C3 6363   0.613   0.249   0.322 -0.0497 -0.1986  0.5067
  423MPD2    C4 6364   0.679   0.368   0.283  0.0249 -0.0176 -0.1273
  423MPD2    C5 6365   0.691   0.471   0.377  0.4951 -0.4762 -0.1407
  423MPD2     H 6366   0.534   0.152   0.499  0.8271  0.1911 -0.5142
  423MPD2    H1 6367   0.716   0.367   0.181  2.3562 -0.2083  0.7294
  423MPD2    H2 6368   0.645   0.560   0.565 -0.4863 -0.4307  0.7218
  423MPD2    H3 6369   0.752   0.556   0.347  3.5691 -2.4231  0.5143
  423MPD2     N 6370   0.587   0.148   0.232 -0.0803 -0.1155  0.4234
  423MPD2    H5 6371   0.630   0.165   0.142 -1.0857 -1.5952 -0.3325
  423MPD2    N1 6372   0.555   0.326   0.676 -0.2650 -0.1028  0.0696
  423MPD2    H7 6373   0.537   0.230   0.702  0.3955 -0.1533  0.3534
  424TMC3    C1 6374   0.545   0.362   0.898 -0.4273  0.1487 -0.4841
  424TMC3    C2 6375   0.652   0.280   0.927  0.5841 -0.2774  0.2406
  424TMC3    C3 6376   0.688   0.271   1.060 -1.0121  0.4355  0.0947
  424TMC3    C4 6377   0.474   0.427   0.992  0.1683  0.6689 -0.1461
  424TMC3    C5 6378   0.503   0.407   1.122 -0.1026  0.2557  0.5317
  424TMC3    C6 6379   0.609   0.329   1.154  0.8586  0.6042 -0.1748
  424TMC3     C 6380   0.544   0.416   0.770 -0.4671 -0.1624 -0.1043
  424TMC3     O 6381   0.514   0.534   0.758 -0.1990  0.5625 -0.1395
  424TMC3     H 6382   0.721   0.238   0.855  0.4926 -0.6594  0.3752
  424TMC3    H1 6383   0.400   0.501   0.963  0.6910  1.2768  0.0950
  424TMC3    H2 6384   0.627   0.312   1.259 -2.1807 -0.5358  0.1679
  424TMC3    C7 6385   0.397   0.435   1.218  0.1929 -0.2517 -0.1591
  424TMC3    C8 6386   0.766   0.153   1.097 -0.0379 -0.4328 -0.0057
  424TMC3    O1 6387   0.438   0.430   1.336 -0.4219 -0.2691 -1.2245
  424TMC3    O2 6388   0.781   0.083   0.998  0.3188  0.4966  0.1677
  425MPD2     C 6389   4.289   3.966  17.106  0.3703 -0.1600  0.3737
  425MPD2    C1 6390   4.171   3.903  17.133 -0.3657 -0.0026 -0.2779
  425MPD2    C2 6391   4.066   3.965  17.204  0.4486  0.2491  0.4843
  425MPD2    C3 6392   4.083   4.091  17.245 -0.0334  0.1888  0.0812
  425MPD2    C4 6393   4.204   4.154  17.224 -0.1911  0.7570 -0.1181
  425MPD2    C5 6394   4.304   4.088  17.148  0.4703  0.1212  0.5610
  425MPD2     H 6395   3.972   3.911  17.206 -0.1578  1.2571 -1.0591
  425MPD2    H1 6396   4.226   4.253  17.260  2.2044  0.1231  0.1208
  425MPD2    H2 6397   4.361   3.911  17.046  0.4436 -1.1373  1.3470
  425MPD2    H3 6398   4.395   4.140  17.120  0.2131  0.5677  0.5349
  425MPD2     N 6399   3.972   4.159  17.299  0.5316  0.0142 -0.3637
  425MPD2    H5 6400   3.887   4.105  17.306  0.2454  0.7650  2.1636
  425MPD2    N1 6401   4.167   3.765  17.086 -0.3070  0.2635 -0.7197
  425MPD2    H7 6402   4.239   3.739  17.019 -0.4275  1.2099 -1.2193
  426TMC3    C1 6403   4.090   3.555  17.045 -0.1751 -0.3304 -0.2423
  426TMC3    C2 6404   4.144   3.555  16.920 -0.1466 -0.5554  0.1992
  426TMC3    C3 6405   4.137   3.433  16.848 -0.5052 -0.3180 -0.0591
  426TMC3    C4 6406   4.029   3.444  17.089 -0.1527 -0.2823 -0.6116
  426TMC3    C5 6407   4.039   3.323  17.018  0.6890 -0.3509 -0.2933
  426TMC3    C6 6408   4.088   3.314  16.891 -0.3831 -0.2381 -0.4641
  426TMC3     C 6409   4.067   3.681  17.115 -0.2730 -0.3630 -0.5111
  426TMC3     O 6410   3.976   3.691  17.197 -0.4269 -0.0667  0.1036
  426TMC3     H 6411   4.207   3.637  16.885 -1.3273 -0.2939 -1.3100
  426TMC3    H1 6412   3.984   3.450  17.187 -1.7124  2.7921 -1.5199
  426TMC3    H2 6413   4.093   3.219  16.840  1.8469 -1.3287  1.7495
  426TMC3    C7 6414   3.951   3.208  17.048 -0.0506  0.0446 -0.8191
  426TMC3    C8 6415   4.194   3.438  16.705  0.4221 -0.1293  0.3595
  426TMC3    O1 6416   3.965   3.104  16.990  0.1424  0.3953 -0.1337
  426TMC3    O2 6417   4.254   3.339  16.666  0.2815 -0.1915  0.2513
  427MPD2     C 6418   3.131   0.855  14.806 -0.3004 -0.1562  0.7853
  427MPD2    C1 6419   3.170   0.942  14.915 -0.0090 -0.1390  0.3332
  427MPD2    C2 6420   3.082   1.035  14.962 -0.1997  0.1001  0.3947
  427MPD2    C3 6421   2.955   1.041  14.912  0.1941  0.4681 -0.3102
  427MPD2    C4 6422   2.926   0.972  14.797  0.0451  0.5222 -0.0329
  427MPD2    C5 6423   3.006   0.868  14.751 -0.1053 -0.2405 -0.0906
  427MPD2     H 6424   3.110   1.100  15.044  1.6385 -0.1501 -0.0502
  427MPD2    H1 6425   2.834   0.995  14.744  0.0975 -3.9531 -2.1319
  427MPD2    H2 6426   3.192   0.774  14.767  0.7606  0.7374  0.5769
  427MPD2    H3 6427   2.970   0.803  14.673 -2.0782  0.7922 -0.0348
  427MPD2     N 6428   2.872   1.141  14.963  0.2255 -0.1876  0.2187
  427MPD2    H5 6429   2.787   1.166  14.914  0.4587  0.8102  0.3046
  427MPD2    N1 6430   3.297   0.912  14.989  0.2060 -0.0185  0.6224
  427MPD2    H7 6431   3.341   0.827  14.956  1.5773  0.4173  1.3050
  428TMC3    C1 6432   3.466   0.915  15.142  0.0453  0.1440 -0.2899
  428TMC3    C2 6433   3.443   0.800  15.215 -0.8002  0.2254 -0.2500
  428TMC3    C3 6434   3.512   0.767  15.330  0.6226  0.0363  0.2155
  428TMC3    C4 6435   3.578   0.987  15.182  0.8750 -0.3910 -0.4134
  428TMC3    C5 6436   3.649   0.945  15.289 -1.0931 -0.2072  0.2095
  428TMC3    C6 6437   3.622   0.839  15.373 -0.1600  0.1272 -0.2710
  428TMC3     C 6438   3.356   0.985  15.085  0.2290  0.3520 -0.4410
  428TMC3     O 6439   3.341   1.101  15.119 -0.4155  0.4957  0.6312
  428TMC3     H 6440   3.349   0.750  15.193 -1.6906  2.4108 -1.4065
  428TMC3    H1 6441   3.604   1.079  15.130 -1.6290  0.2321 -0.5317
  428TMC3    H2 6442   3.688   0.796  15.447 -0.6726  1.6435  1.0755
  428TMC3    C7 6443   3.773   1.013  15.331 -0.2934  0.2958 -0.0299
  428TMC3    C8 6444   3.493   0.637  15.377  0.0382  0.3247 -0.8849
  428TMC3    O1 6445   3.808   1.003  15.450  0.7463 -0.0513  0.0266
  428TMC3    O2 6446   3.474   0.535  15.309 -0.1575  0.1840 -0.1738
  429MPD2     C 6447   4.119   1.696  17.523 -0.2083  0.3314  0.0242
  429MPD2    C1 6448   4.183   1.607  17.440  0.0399 -0.3739 -0.4844
  429MPD2    C2 6449   4.217   1.651  17.312 -0.5513 -0.2467  0.4330
  429MPD2    C3 6450   4.182   1.777  17.270 -0.4418 -0.2325  0.4981
  429MPD2    C4 6451   4.106   1.859  17.349  0.0017  0.2308  0.5127
  429MPD2    C5 6452   4.079   1.816  17.478  0.1752  0.2882 -0.4666
  429MPD2     H 6453   4.277   1.585  17.250  0.1591  0.3205  0.5140
  429MPD2    H1 6454   4.063   1.954  17.321  2.5098  0.2665 -3.1144
  429MPD2    H2 6455   4.109   1.680  17.629 -0.3117  0.9183  0.1007
  429MPD2    H3 6456   4.014   1.877  17.540 -0.2009 -0.0600 -0.5195
  429MPD2     N 6457   4.224   1.809  17.134 -0.1674 -0.6291  0.1479
  429MPD2    H5 6458   4.304   1.761  17.095 -0.0305  0.4651 -0.9289
  429MPD2    N1 6459   4.216   1.477  17.482  0.4104 -0.4646  0.1307
  429MPD2    H7 6460   4.256   1.414  17.413  0.9585 -0.3566  0.3505
  430TMC3    C1 6461   4.302   1.969  16.965 -0.2412 -0.1227 -0.0366
  430TMC3    C2 6462   4.269   2.070  16.871 -0.2913 -0.2867 -0.1963
  430TMC3    C3 6463   4.355   2.085  16.770  1.0031  0.8517 -0.0074
  430TMC3    C4 6464   4.419   1.888  16.952  0.6852  0.5971  0.8595
  430TMC3    C5 6465   4.500   1.914  16.847 -0.9096 -0.2817 -0.9536
  430TMC3    C6 6466   4.471   2.009  16.750  0.2787  0.4829 -0.2689
  430TMC3     C 6467   4.207   1.932  17.073  0.2376 -0.9218  0.3627
  430TMC3     O 6468   4.117   2.012  17.083  0.5519 -0.1807 -0.0336
  430TMC3     H 6469   4.184   2.134  16.892 -0.7615 -1.1875  0.6529
  430TMC3    H1 6470   4.458   1.807  17.012  3.5711  1.5803  0.3226
  430TMC3    H2 6471   4.516   2.012  16.651  0.6665  0.6779 -0.0853
  430TMC3    C7 6472   4.595   1.815  16.817  0.3809  0.2677 -0.5434
  430TMC3    C8 6473   4.289   2.118  16.638 -0.2842 -0.0359 -0.2731
  430TMC3    O1 6474   4.586   1.698  16.852 -0.3860 -0.8773  0.3020
  430TMC3    O2 6475   4.308   2.044  16.545  0.1958 -0.2157 -0.0776
  431MPD2     C 6476   1.042   1.566  11.899  0.6747  1.0217  0.0041
  431MPD2    C1 6477   1.073   1.560  12.028  0.6294  0.4938 -0.0783
  431MPD2    C2 6478   1.073   1.444  12.097 -0.3158 -0.0288  0.0205
  431MPD2    C3 6479   1.047   1.330  12.031 -0.1161  0.4294 -0.1646
  431MPD2    C4 6480   1.011   1.330  11.899 -0.3570  0.4029 -0.0924
  431MPD2    C5 6481   1.004   1.449  11.834 -1.1209 -0.9079 -0.4065
  431MPD2     H 6482   1.101   1.445  12.202 -0.7244 -1.6028  0.1347
  431MPD2    H1 6483   0.988   1.242  11.840 -2.5058  0.2459  0.9961
  431MPD2    H2 6484   1.053   1.650  11.831  0.6125  1.6199  0.7280
  431MPD2    H3 6485   0.987   1.454  11.727  1.0943 -0.9298 -0.7575
  431MPD2     N 6486   1.046   1.206  12.102 -0.0904 -0.2804 -0.3600
  431MPD2    H5 6487   1.036   1.130  12.037 -2.0942 -0.9311  0.7197
  431MPD2    N1 6488   1.114   1.671  12.104  0.2307  0.0555  0.2027
  431MPD2    H7 6489   1.121   1.648  12.202  0.3197 -0.1401  0.1516
  432TMC3    C1 6490   1.059   1.039  12.257  0.1747  0.0374  0.4797
  432TMC3    C2 6491   1.101   0.955  12.158  0.2156  0.1219 -0.1943
  432TMC3    C3 6492   1.102   0.819  12.182 -0.0357  0.2598  1.2138
  432TMC3    C4 6493   1.037   0.993  12.383 -0.3515 -0.3636  0.6536
  432TMC3    C5 6494   1.043   0.853  12.405  0.5904 -0.1122 -0.2091
  432TMC3    C6 6495   1.084   0.764  12.306  0.7480  0.4150  0.2664
  432TMC3     C 6496   1.053   1.177  12.237  0.0803  0.1085  0.1415
  432TMC3     O 6497   1.024   1.245  12.334 -1.0182  0.4611  0.4918
  432TMC3     H 6498   1.116   0.977  12.053 -0.4782 -1.2668 -0.5908
  432TMC3    H1 6499   1.024   1.063  12.466  2.7914 -0.4853  1.2513
  432TMC3    H2 6500   1.093   0.656  12.320 -0.1646  0.5302  1.6731
  432TMC3    C7 6501   1.039   0.798  12.543  0.9988  0.1218  0.5555
  432TMC3    C8 6502   1.145   0.744  12.060 -0.7007  0.9232 -0.9840
  432TMC3    O1 6503   1.120   0.715  12.571  0.3790  0.1047  0.3218
  432TMC3    O2 6504   1.076   0.765  11.964  0.0748 -0.9168  0.1157
  433MPD2     C 6505   4.197   0.044  11.266 -0.2156  0.0516 -0.1137
  433MPD2    C1 6506   4.204   4.642  11.296 -0.0696  0.5490 -0.3762
  433MPD2    C2 6507   4.201   4.592  11.422 -0.9358 -0.1163  0.0136
  433MPD2    C3 6508   4.222   4.673  11.530 -0.9139 -1.1412  0.4054
  433MPD2    C4 6509   4.222   0.073  11.509  0.1324 -0.0723 -0.0449
  433MPD2    C5 6510   4.207   0.123  11.381  0.7878 -0.0988  0.4196
  433MPD2     H 6511   4.207   4.486  11.443  1.8385  0.7355  3.5670
  433MPD2    H1 6512   4.239   0.142  11.591  1.9875 -1.2459  0.5717
  433MPD2    H2 6513   4.183   0.089  11.169 -0.4951 -0.2932 -0.2346
  433MPD2    H3 6514   4.202   0.229  11.360  0.9764 -0.1623  0.0650
  433MPD2     N 6515   4.246   4.608  11.652  0.0215  0.6190  0.9990
  433MPD2    H5 6516   4.232   4.508  11.648  1.2383  0.5480 -1.8219
  433MPD2    N1 6517   4.182   4.557  11.181 -0.1357 -0.5184  0.9394
  433MPD2    H7 6518   4.176   4.606  11.092 -1.6487  0.9812  1.8682
  434TMC3    C1 6519   4.221   4.364  11.039 -0.4165  0.3673  0.3996
  434TMC3    C2 6520   4.279   4.245  11.050  0.4521 -0.5959 -1.0462
  434TMC3    C3 6521   4.371   4.204  10.960  0.0342 -0.1920 -0.1731
  434TMC3    C4 6522   4.243   4.447  10.937  0.4503 -0.1965  0.6432
  434TMC3    C5 6523   4.334   4.404  10.844  0.6455 -0.1682  0.1922
  434TMC3    C6 6524   4.398   4.286  10.856  0.5792 -0.1728  0.4195
  434TMC3     C 6525   4.199   4.421  11.176 -0.3010 -0.3215  0.3590
  434TMC3     O 6526   4.202   4.336  11.263 -0.1912 -0.1264 -0.1244
  434TMC3     H 6527   4.259   4.175  11.131  0.6855 -0.2743 -0.7104
  434TMC3    H1 6528   4.183   4.534  10.915  2.5293  0.6452 -1.6945
  434TMC3    H2 6529   4.461   4.239  10.780  0.4313  0.4115 -0.0635
  434TMC3    C7 6530   4.299   4.437  10.705 -0.1847  0.0076 -0.2385
  434TMC3    C8 6531   4.478   4.129  11.024  0.0357  0.1738  0.3756
  434TMC3    O1 6532   4.272   4.555  10.684 -0.3100  0.0962  0.1953
  434TMC3    O2 6533   4.446   4.042  11.105  0.8268 -0.1650 -0.1403
  435MPD2     C 6534   1.594   4.685  15.393  0.7021 -0.0965 -0.9563
  435MPD2    C1 6535   1.538   4.690  15.524 -0.6949  0.7375 -0.5318
  435MPD2    C2 6536   1.610   4.656  15.636 -0.8385 -0.1253 -0.0877
  435MPD2    C3 6537   1.731   4.590  15.617 -0.2791  0.2569 -0.7229
  435MPD2    C4 6538   1.783   4.577  15.492 -0.1123  0.8670 -0.0771
  435MPD2    C5 6539   1.718   4.624  15.381 -0.3492 -0.5474 -0.2540
  435MPD2     H 6540   1.573   4.675  15.736  1.1261  0.9576  0.4337
  435MPD2    H1 6541   1.886   4.546  15.482 -1.1914 -1.8756 -2.6144
  435MPD2    H2 6542   1.549   4.725  15.303  1.8825  0.6339 -1.2076
  435MPD2    H3 6543   1.768   4.628  15.284  0.7969  0.7851  0.3839
  435MPD2     N 6544   1.793   4.549  15.736  0.0387  0.2451 -0.0015
  435MPD2    H5 6545   1.756   4.573  15.827 -1.6549 -0.2194 -0.5672
  435MPD2    N1 6546   1.414   0.015  15.552 -0.8654  0.1149 -0.1724
  435MPD2    H7 6547   1.395   0.017  15.652 -1.8846  1.5664 -0.3820
  436TMC3    C1 6548   1.092   0.182  15.718 -0.0530 -0.0619 -0.1372
  436TMC3    C2 6549   1.208   0.169  15.651 -0.3262  0.4990 -0.4514
  436TMC3    C3 6550   1.196   0.095  15.536  0.5556  0.4097  0.0167
  436TMC3    C4 6551   0.972   0.130  15.681  0.4366  1.0269  0.4651
  436TMC3    C5 6552   0.973   0.061  15.560 -0.2953 -0.8103  0.8810
  436TMC3    C6 6553   1.088   0.049  15.480  0.0895  0.2062  0.1095
  436TMC3     C 6554   1.101   0.258  15.843 -0.0513 -0.1567 -0.1452
  436TMC3     O 6555   1.208   0.306  15.863  0.1750 -0.1275 -0.1478
  436TMC3     H 6556   1.301   0.205  15.693 -0.7377  3.6023 -2.1805
  436TMC3    H1 6557   0.887   0.147  15.745 -0.2354  2.8533 -0.8999
  436TMC3    H2 6558   1.096   4.711  15.400  1.9300 -2.4499  2.6777
  436TMC3    C7 6559   0.864   4.709  15.540  0.0897  0.2630  1.1005
  436TMC3    C8 6560   1.317   0.068  15.468 -0.2867  0.0298  0.4233
  436TMC3    O1 6561   0.806   4.663  15.638 -0.0753 -0.0654 -0.2639
  436TMC3    O2 6562   1.315   0.076  15.348 -0.4756 -0.1143  0.0422
  437TMC3    C1 6563   0.383   2.494  12.276  1.1786 -0.0954  1.5832
  437TMC3    C2 6564   0.306   2.598  12.207 -0.3853 -0.6674 -0.0726
  437TMC3    C3 6565   0.364   2.657  12.103  0.3156  0.0096 -0.0816
  437TMC3    C4 6566   0.508   2.456  12.239 -0.7031 -0.8154  0.2486
  437TMC3    C5 6567   0.562   2.515  12.130  0.2840 -0.0999  0.4359
  437TMC3    C6 6568   0.489   2.613  12.061  0.5740  0.4510  0.2249
  437TMC3     C 6569   0.325   2.408  12.377  0.5019  0.4225  0.0870
  437TMC3     O 6570   0.390   2.318  12.427  0.2948 -0.8627  0.0717
  437TMC3     H 6571   0.204   2.630  12.223 -0.1112  0.1005  0.1501
  437TMC3    H1 6572   0.563   2.380  12.293  0.8918  0.1310 -0.0544
  437TMC3    H2 6573   0.546   2.672  11.990  0.7928  1.0404  0.8865
  437TMC3    C7 6574   0.693   2.481  12.069 -0.1753 -0.4272  0.4252
  437TMC3    C8 6575   0.280   2.711  12.001  0.5749  0.1392  0.2153
  437TMC3    O1 6576   0.709   2.502  11.950 -0.1459  0.3746  0.3985
  437TMC3    O2 6577   0.165   2.741  12.029  0.9220  0.0236  0.2056
  438MPD2     C 6578   1.746   2.908  16.702 -0.3964  1.0146 -0.2995
  438MPD2    C1 6579   1.864   2.853  16.750 -0.4135  0.2621 -0.1758
  438MPD2    C2 6580   1.890   2.859  16.886 -0.0575 -0.1121  0.8207
  438MPD2    C3 6581   1.794   2.920  16.973  0.1306  0.2051 -0.0571
  438MPD2    C4 6582   1.685   2.983  16.918  0.1325  0.7791 -0.1959
  438MPD2    C5 6583   1.664   2.983  16.779 -0.0467 -0.8143  0.2869
  438MPD2     H 6584   1.985   2.828  16.928 -1.3044 -2.0208  2.2463
  438MPD2    H1 6585   1.615   3.037  16.981  0.6229  1.7516 -0.4907
  438MPD2    H2 6586   1.719   2.891  16.599  0.0031 -2.9855  0.2626
  438MPD2    H3 6587   1.566   3.024  16.755  0.9067  1.5006  0.3141
  438MPD2     N 6588   1.827   2.934  17.109 -0.9808  0.2993  0.2624
  438MPD2    H5 6589   1.768   2.995  17.164 -0.4519  0.1979  0.9414
  438MPD2    N1 6590   1.952   2.784  16.669 -0.0364  0.5937  0.7922
  438MPD2    H7 6591   2.018   2.724  16.717 -1.8406 -1.1335  1.0789
  439TMC3    C1 6592   2.077   2.704  16.491  0.7297 -0.0476 -0.2325
  439TMC3    C2 6593   2.107   2.712  16.360 -0.4442 -0.2141  0.2668
  439TMC3    C3 6594   2.211   2.635  16.307  0.8638  0.5073  0.1298
  439TMC3    C4 6595   2.146   2.622  16.576 -0.2733  1.1501 -0.2916
  439TMC3    C5 6596   2.243   2.533  16.518  0.1810 -0.7172  0.0064
  439TMC3    C6 6597   2.283   2.546  16.389 -0.3210  0.0570 -0.3659
  439TMC3     C 6598   1.963   2.789  16.534  0.7079  0.5518  0.2852
  439TMC3     O 6599   1.896   2.854  16.458  0.2967  0.7531 -0.2385
  439TMC3     H 6600   2.053   2.773  16.288 -0.8077 -1.7064 -0.7310
  439TMC3    H1 6601   2.144   2.613  16.684 -1.5091  2.2083 -0.2267
  439TMC3    H2 6602   2.344   2.465  16.350  1.6870 -0.5204  3.9707
  439TMC3    C7 6603   2.344   2.470  16.602 -0.0049 -0.6726  0.2168
  439TMC3    C8 6604   2.268   2.677  16.180  0.2783 -0.1091  0.9295
  439TMC3    O1 6605   2.463   2.483  16.580 -0.1806 -0.2582  0.2222
  439TMC3    O2 6606   2.187   2.730  16.104 -0.4206 -0.6032  0.2649
  440MPD2     C 6607   1.474   3.254  14.866 -0.2437 -0.1134  0.0577
  440MPD2    C1 6608   1.514   3.347  14.957  0.3047 -0.3804 -0.4881
  440MPD2    C2 6609   1.650   3.343  14.993 -0.2860  0.1452  0.4100
  440MPD2    C3 6610   1.741   3.246  14.942  0.3740  0.0685  0.6865
  440MPD2    C4 6611   1.693   3.152  14.850 -0.0961 -0.0452 -0.5043
  440MPD2    C5 6612   1.556   3.155  14.819  1.0155 -0.1629  0.0594
  440MPD2     H 6613   1.695   3.420  15.055  0.1129 -0.8374  1.3483
  440MPD2    H1 6614   1.762   3.077  14.814  1.0962  1.5686 -1.5793
  440MPD2    H2 6615   1.374   3.243  14.827 -0.8661 -1.0592  1.9041
  440MPD2    H3 6616   1.512   3.079  14.756 -0.0860  0.9356 -0.5172
  440MPD2     N 6617   1.881   3.242  14.967  0.1296 -0.2094 -0.3588
  440MPD2    H5 6618   1.943   3.168  14.938  1.4523 -0.1163  2.2038
  440MPD2    N1 6619   1.431   3.449  15.015  0.0018  0.4251 -0.3143
  440MPD2    H7 6620   1.476   3.503  15.088 -0.9234 -0.5895  1.0017
  441TMC3    C1 6621   2.073   3.289  15.099  0.0453  0.2939 -0.0339
  441TMC3    C2 6622   2.130   3.385  15.173  0.0228  0.4536  0.3230
  441TMC3    C3 6623   2.166   3.368  15.303 -0.0184  0.5472 -0.5338
  441TMC3    C4 6624   2.061   3.165  15.165  0.1520  0.5460 -0.3438
  441TMC3    C5 6625   2.105   3.144  15.290  0.3200 -0.0075  0.3613
  441TMC3    C6 6626   2.153   3.248  15.367 -0.4050 -0.1023  0.5139
  441TMC3     C 6627   1.945   3.331  15.052 -0.4501 -0.1273 -0.1742
  441TMC3     O 6628   1.912   3.434  15.105 -0.0731 -0.6548 -0.2616
  441TMC3     H 6629   2.144   3.481  15.124 -0.2919  0.4630  0.2536
  441TMC3    H1 6630   2.018   3.079  15.115  2.2456  0.4405 -1.9271
  441TMC3    H2 6631   2.153   3.248  15.475  1.1286  1.6057  0.5249
  441TMC3    C7 6632   2.036   3.032  15.352 -0.3488 -0.1398 -0.2194
  441TMC3    C8 6633   2.113   3.475  15.390  0.3073 -0.1101  0.2532
  441TMC3    O1 6634   1.918   3.026  15.322  0.3461 -0.3811  0.0414
  441TMC3    O2 6635   2.158   3.487  15.502  0.4858  0.5049 -0.2974
  442MPD2     C 6636   4.143   3.510  15.870  0.3115 -1.6428  0.6533
  442MPD2    C1 6637   4.039   3.439  15.929 -0.0883 -0.6771 -0.2973
  442MPD2    C2 6638   4.007   3.316  15.879  0.3329  0.4009 -0.0678
  442MPD2    C3 6639   4.068   3.262  15.770 -0.3207  0.0226  0.3188
  442MPD2    C4 6640   4.166   3.337  15.711 -0.2121  0.1500  0.4212
  442MPD2    C5 6641   4.210   3.456  15.767 -0.0959 -0.7373  0.1044
  442MPD2     H 6642   3.921   3.265  15.922  1.8329 -0.6771  1.6988
  442MPD2    H1 6643   4.207   3.299  15.618 -1.5131 -2.1455  0.7989
  442MPD2    H2 6644   4.173   3.607  15.910 -1.3790  0.3120 -2.8408
  442MPD2    H3 6645   4.288   3.513  15.718  0.0731  0.6602  2.0245
  442MPD2     N 6646   4.043   3.137  15.705 -0.6306  0.0126  0.1798
  442MPD2    H5 6647   4.093   3.129  15.617  1.8862 -2.9941  1.8865
  442MPD2    N1 6648   3.949   3.496  16.026  0.0194  0.5593  0.0729
  442MPD2    H7 6649   3.877   3.436  16.065  2.6346 -2.2251  0.6403
  443TMC3    C1 6650   3.852   3.658  16.169 -0.8918  0.5160  1.1937
  443TMC3    C2 6651   3.820   3.787  16.177  0.0048 -0.0547  0.9014
  443TMC3    C3 6652   3.730   3.820  16.275  0.5660 -0.1816  0.3520
  443TMC3    C4 6653   3.805   3.557  16.249 -0.1709 -0.3191  0.6024
  443TMC3    C5 6654   3.714   3.596  16.349 -0.1929 -0.1167  0.5790
  443TMC3    C6 6655   3.694   3.734  16.372  0.0652 -0.1932  0.1460
  443TMC3     C 6656   3.963   3.627  16.073 -0.6882  0.0621 -0.4620
  443TMC3     O 6657   4.031   3.722  16.029  0.5685 -0.0836 -0.0360
  443TMC3     H 6658   3.847   3.857  16.099 -1.2424 -0.8047 -0.2043
  443TMC3    H1 6659   3.822   3.451  16.233  1.0692  0.1714 -1.2475
  443TMC3    H2 6660   3.638   3.780  16.452  0.8872  1.1781 -0.0767
  443TMC3    C7 6661   3.628   3.492  16.404  0.4013 -0.8671 -0.4007
  443TMC3    C8 6662   3.656   3.945  16.254 -0.6578 -0.2796 -0.3165
  443TMC3    O1 6663   3.650   3.373  16.384  0.1860  0.0548 -0.0586
  443TMC3    O2 6664   3.717   4.049  16.259 -0.6692  0.8890  0.5742
  444MPD2     C 6665   3.899   3.327  16.539 -0.2233  0.1570  1.1880
  444MPD2    C1 6666   3.845   3.223  16.615 -0.5753  0.8252 -0.9593
  444MPD2    C2 6667   3.884   3.101  16.582  0.7865  0.5778  0.2838
  444MPD2    C3 6668   3.961   3.074  16.471  0.3923  0.1862  0.4042
  444MPD2    C4 6669   3.997   3.176  16.388 -0.4230  0.0685 -0.5894
  444MPD2    C5 6670   3.972   3.306  16.425 -0.0009 -0.2015 -0.5637
  444MPD2     H 6671   3.862   3.012  16.640 -0.2615  0.4447 -0.3220
  444MPD2    H1 6672   4.061   3.166  16.301  0.5140  2.5769 -0.2007
  444MPD2    H2 6673   3.880   3.428  16.574 -0.7840  0.8374 -1.0858
  444MPD2    H3 6674   4.008   3.389  16.366 -1.3615 -0.1999 -1.3932
  444MPD2     N 6675   4.013   2.939  16.460 -0.0654  0.1927  0.2638
  444MPD2    H5 6676   4.007   2.881  16.543 -3.8330 -0.7116 -0.6714
  444MPD2    N1 6677   3.752   3.223  16.725 -0.5088 -0.7702 -0.1939
  444MPD2    H7 6678   3.726   3.134  16.766 -0.8556 -0.0316  1.1911
  445TMC3    C1 6679   4.118   2.754  16.368 -0.3553 -0.4265 -0.2278
  445TMC3    C2 6680   4.109   2.671  16.253  0.1173  0.8981 -0.0928
  445TMC3    C3 6681   4.198   2.568  16.251  0.1709  0.0804  0.9041
  445TMC3    C4 6682   4.199   2.723  16.477  0.5016  0.2471  0.1873
  445TMC3    C5 6683   4.284   2.619  16.457  0.4881 -0.3216 -0.2876
  445TMC3    C6 6684   4.290   2.545  16.346  0.9773 -0.8390  0.1166
  445TMC3     C 6685   4.065   2.887  16.350  0.0408 -0.0634 -0.1203
  445TMC3     O 6686   4.075   2.937  16.239 -0.3313 -0.5064  0.1949
  445TMC3     H 6687   4.045   2.700  16.172  0.7269  2.0527 -0.1672
  445TMC3    H1 6688   4.207   2.793  16.559  0.1750  0.4745  0.0256
  445TMC3    H2 6689   4.349   2.455  16.344  3.3055  0.7615 -3.6789
  445TMC3    C7 6690   4.406   2.631  16.542  0.0607 -0.8791 -0.4787
  445TMC3    C8 6691   4.174   2.472  16.141 -0.4132  0.4914  0.5095
  445TMC3    O1 6692   4.395   2.675  16.656  0.8124  0.1106 -0.3043
  445TMC3    O2 6693   4.073   2.490  16.073  0.0823  0.0950 -0.1493
  446MPD2     C 6694   4.027   3.852  11.479 -0.5488  0.2466 -0.0759
  446MPD2    C1 6695   4.015   3.954  11.388  0.0796 -0.3959 -0.5674
  446MPD2    C2 6696   4.124   4.044  11.370 -0.2713 -0.5315 -0.4601
  446MPD2    C3 6697   4.249   4.020  11.418 -0.4640  0.5838  0.3525
  446MPD2    C4 6698   4.267   3.901  11.493 -0.4702 -0.4449 -0.6688
  446MPD2    C5 6699   4.155   3.832  11.525  0.5305  0.0976  0.5148
  446MPD2     H 6700   4.112   4.138  11.316  0.5883 -0.0181  0.2390
  446MPD2    H1 6701   4.357   3.884  11.550 -0.5339  0.1865 -0.3691
  446MPD2    H2 6702   3.946   3.786  11.507 -0.0841 -1.6406 -3.2389
  446MPD2    H3 6703   4.175   3.744  11.585  1.2529 -1.1533 -1.5762
  446MPD2     N 6704   4.351   4.117  11.395  0.4117  0.2905 -0.6137
  446MPD2    H5 6705   4.319   4.200  11.347 -0.6631  1.5308  2.2742
  446MPD2    N1 6706   3.897   3.992  11.325  0.4612 -0.3915 -0.1812
  446MPD2    H7 6707   3.900   4.075  11.266  1.1527  0.0696  0.4959
  447TMC3    C1 6708   4.581   4.211  11.380  0.2953 -0.5207  0.4640
  447TMC3    C2 6709   4.553   4.300  11.284  0.8246  0.3350  0.0808
  447TMC3    C3 6710   4.650   4.373  11.228 -0.3221  0.3977  0.2431
  447TMC3    C4 6711   4.713   4.202  11.422  0.3523  0.0553  0.1871
  447TMC3    C5 6712   0.075   4.262  11.343  0.0381 -0.2440 -0.0092
  447TMC3    C6 6713   0.050   4.355  11.244 -0.2100 -0.2264  0.2813
  447TMC3     C 6714   4.484   4.101  11.423 -0.0043 -0.7145  0.2551
  447TMC3     O 6715   4.541   4.002  11.471 -0.0964  0.2577  0.4763
  447TMC3     H 6716   4.450   4.312  11.252  0.6869 -0.7583  0.1142
  447TMC3    H1 6717   0.009   4.119  11.485 -0.5266 -0.7621 -0.4628
  447TMC3    H2 6718   0.132   4.405  11.195 -0.7275  1.1207  0.8034
  447TMC3    C7 6719   0.209   4.206  11.360  0.3929 -0.2077  0.0917
  447TMC3    C8 6720   4.602   4.477  11.138  0.2758  0.3841  0.1673
  447TMC3    O1 6721   0.224   4.099  11.437  1.1026  0.2014  0.4371
  447TMC3    O2 6722   4.482   4.487  11.116  0.1564  0.4640 -0.2952
  448TMC3    C1 6723   2.151   4.291  17.223 -0.0058  0.4456 -0.4424
  448TMC3    C2 6724   2.139   4.201  17.125 -0.9410 -0.0384  0.4221
  448TMC3    C3 6725   2.142   4.073  17.166 -0.4750  0.3141 -0.2314
  448TMC3    C4 6726   2.170   4.269  17.358  0.1817  0.8328 -0.1399
  448TMC3    C5 6727   2.178   4.138  17.391 -0.0940 -0.3704  0.5664
  448TMC3    C6 6728   2.170   4.050  17.300  0.3103  0.2909  0.1509
  448TMC3     C 6729   2.159   4.425  17.184 -0.1845  0.0262 -0.2787
  448TMC3     O 6730   2.134   4.441  17.066 -0.6699  0.2366 -0.0998
  448TMC3     H 6731   2.128   4.229  17.020 -2.2121 -1.3743  0.1841
  448TMC3    H1 6732   2.187   4.344  17.435 -2.2344  1.0175  0.1942
  448TMC3    H2 6733   2.183   3.945  17.327  0.9714 -0.0271 -1.3973
  448TMC3    C7 6734   2.184   4.101  17.529  0.7262 -0.3297  0.3961
  448TMC3    C8 6735   2.132   3.967  17.065  0.0583  0.1739 -0.0237
  448TMC3    O1 6736   2.245   3.995  17.548  0.0166 -0.2741  0.0372
  448TMC3    O2 6737   2.189   3.862  17.093  0.4347 -0.4140 -0.6590
  449MPD2     C 6738   4.229   2.598  13.801 -0.4713  0.1861  0.4801
  449MPD2    C1 6739   4.103   2.636  13.781  0.0454 -0.2745 -0.3436
  449MPD2    C2 6740   3.997   2.556  13.827 -0.1192  1.0603 -0.0931
  449MPD2    C3 6741   4.012   2.438  13.889 -0.3111 -0.5218 -0.0933
  449MPD2    C4 6742   4.144   2.398  13.918  0.2687 -0.7644 -0.1818
  449MPD2    C5 6743   4.243   2.476  13.868 -1.1103 -0.0987 -0.4704
  449MPD2     H 6744   3.896   2.586  13.802 -0.3437 -0.0475 -0.5208
  449MPD2    H1 6745   4.157   2.301  13.965  0.6518 -0.4695  0.3170
  449MPD2    H2 6746   4.313   2.644  13.752 -0.7609 -1.0519 -1.1712
  449MPD2    H3 6747   4.346   2.444  13.879 -1.0357  0.6313  1.0150
  449MPD2     N 6748   3.898   2.370  13.907  0.4039  0.7998  0.0138
  449MPD2    H5 6749   3.811   2.422  13.899  0.4078  0.4676 -2.3613
  449MPD2    N1 6750   4.071   2.739  13.690  0.0007  0.0747  0.8338
  449MPD2    H7 6751   3.974   2.755  13.667  0.3255 -0.1843 -0.7385
  450TMC3    C1 6752   4.080   2.887  13.517  0.6604  0.7856  0.1466
  450TMC3    C2 6753   4.103   2.859  13.385  0.7896  0.0698  0.1517
  450TMC3    C3 6754   3.999   2.844  13.299  0.8208 -0.4834  0.4402
  450TMC3    C4 6755   3.948   2.902  13.562 -0.0367  0.4638 -0.0452
  450TMC3    C5 6756   3.846   2.889  13.474  0.3575 -0.0312  0.1524
  450TMC3    C6 6757   3.870   2.848  13.345  0.3137  0.3935 -0.3480
  450TMC3     C 6758   4.159   2.811  13.610 -0.4048  0.5528  0.1904
  450TMC3     O 6759   4.280   2.798  13.583 -0.8202  0.0623  0.4235
  450TMC3     H 6760   4.206   2.842  13.357  0.6668 -0.7630  0.1912
  450TMC3    H1 6761   3.920   2.937  13.661 -1.3471  2.0267 -0.9514
  450TMC3    H2 6762   3.789   2.826  13.278 -0.5632 -1.3755  1.2975
  450TMC3    C7 6763   3.744   2.812  13.543  0.4394 -0.1460 -0.2337
  450TMC3    C8 6764   4.009   2.765  13.178 -0.3514  0.2161 -0.1468
  450TMC3    O1 6765   3.780   2.756  13.643  0.4842 -0.3928  1.2419
  450TMC3    O2 6766   3.910   2.713  13.135  1.0533 -0.1957 -0.0034
  451MPD2     C 6767   4.691   0.659   0.881 -0.8781  0.0572 -0.5793
  451MPD2    C1 6768   4.707   0.779   0.817  0.1736 -0.1102  0.3027
  451MPD2    C2 6769   0.092   0.815   0.765 -0.2495  0.7125  0.4236
  451MPD2    C3 6770   0.194   0.719   0.759  1.3572 -0.0469  0.2238
  451MPD2    C4 6771   0.183   0.598   0.811 -0.2537  0.6030 -0.1731
  451MPD2    C5 6772   0.065   0.574   0.879 -0.2845 -0.2363  0.3089
  451MPD2     H 6773   0.101   0.907   0.708  0.4021  0.3588 -0.0300
  451MPD2    H1 6774   0.258   0.519   0.811  0.8290  1.6196  2.4519
  451MPD2    H2 6775   4.599   0.622   0.924 -1.9321  0.8667 -2.1492
  451MPD2    H3 6776   0.049   0.479   0.928 -0.0108 -1.9025 -2.8512
  451MPD2     N 6777   0.321   0.742   0.700 -0.4486  0.0258  0.0987
  451MPD2    H5 6778   0.385   0.663   0.695  1.6228  1.8308 -2.0283
  451MPD2    N1 6779   4.586   0.850   0.795 -0.0664  0.7721  0.2883
  451MPD2    H7 6780   4.508   0.805   0.842 -1.0907  1.1531 -1.0459
  452TMC3    C1 6781   0.481   0.845   0.555  0.0710 -0.1439 -0.1260
  452TMC3    C2 6782   0.467   0.733   0.481  0.4621 -0.0618 -0.1702
  452TMC3    C3 6783   0.502   0.742   0.352 -0.1724 -0.3059  0.0380
  452TMC3    C4 6784   0.528   0.962   0.506  0.0408  0.1492 -0.5239
  452TMC3    C5 6785   0.573   0.965   0.382 -0.2977 -0.2540 -0.5674
  452TMC3    C6 6786   0.560   0.858   0.303  0.0130 -0.0334  0.2285
  452TMC3     C 6787   0.356   0.860   0.636  0.4025 -0.1768 -0.3876
  452TMC3     O 6788   0.291   0.960   0.633 -0.2054  0.0209 -0.7490
  452TMC3     H 6789   0.424   0.639   0.514 -1.9496  0.9106 -0.5122
  452TMC3    H1 6790   0.502   1.051   0.564  2.7769  0.8758 -0.4232
  452TMC3    H2 6791   0.592   0.863   0.200  2.6033  1.1495  1.0751
  452TMC3    C7 6792   0.628   1.084   0.315  0.2759 -0.4877 -0.5383
  452TMC3    C8 6793   0.398   0.676   0.273  0.0280  0.3727 -0.8168
  452TMC3    O1 6794   0.666   1.075   0.200 -0.1575 -0.4837  0.4365
  452TMC3    O2 6795   0.285   0.685   0.321  0.0350  0.1741 -0.0269
  453TMC3    C1 6796   1.592   2.836  12.002  0.1022 -0.2196  0.2535
  453TMC3    C2 6797   1.649   2.710  12.012 -0.2266  0.0574  0.7370
  453TMC3    C3 6798   1.705   2.658  11.899  0.3633  0.1348 -0.1916
  453TMC3    C4 6799   1.580   2.901  11.875  0.3351  0.1587 -1.0125
  453TMC3    C5 6800   1.636   2.847  11.764  1.0706 -0.0578 -1.0143
  453TMC3    C6 6801   1.700   2.726  11.775  0.4415  0.6995  0.0716
  453TMC3     C 6802   1.628   2.934  12.107  0.1780 -0.0413  0.4513
  453TMC3     O 6803   1.647   3.047  12.064  0.6147  0.0110  0.1586
  453TMC3     H 6804   1.636   2.642  12.095 -0.4475  0.7782  1.2845
  453TMC3    H1 6805   1.528   2.996  11.873 -0.1354 -0.0260  2.0378
  453TMC3    H2 6806   1.760   2.687  11.693 -0.1233 -1.9760  0.9176
  453TMC3    C7 6807   1.678   2.938  11.657  0.0553 -0.7909 -0.4013
  453TMC3    C8 6808   1.778   2.533  11.893 -0.4372  0.6255 -0.6236
  453TMC3    O1 6809   1.778   2.910  11.590 -0.0947  0.2703  0.7103
  453TMC3    O2 6810   1.778   2.477  11.785 -0.7381 -0.1518 -0.2533
  454MPD2     C 6811   0.244   2.850  15.960 -0.1059 -0.6608  0.5128
  454MPD2    C1 6812   0.162   2.867  15.850 -0.2616  0.0181 -0.4557
  454MPD2    C2 6813   0.066   2.967  15.849  0.8606  0.4324 -0.3168
  454MPD2    C3 6814   0.045   3.045  15.959  0.2540  0.4650  0.0774
  454MPD2    C4 6815   0.120   3.021  16.070  0.2918  0.0464  0.0898
  454MPD2    C5 6816   0.219   2.925  16.070  0.1613  0.9687 -0.3808
  454MPD2     H 6817   0.001   2.977  15.763  1.3032 -2.3488 -0.9728
  454MPD2    H1 6818   0.107   3.076  16.162 -0.9201 -0.2531  0.0948
  454MPD2    H2 6819   0.315   2.768  15.965  1.5879  0.6434 -1.7708
  454MPD2    H3 6820   0.267   2.908  16.166 -1.8391 -0.6544  0.3225
  454MPD2     N 6821   4.683   3.156  15.950 -0.0974 -0.4259  0.2696
  454MPD2    H5 6822   4.655   3.200  16.037 -2.2817 -0.8268 -0.2246
  454MPD2    N1 6823   0.177   2.796  15.730 -0.0232 -0.1357  0.5164
  454MPD2    H7 6824   0.121   2.821  15.649 -0.0947 -1.4606  0.1659
  455TMC3    C1 6825   4.481   3.229  15.876 -0.6772 -0.5585 -0.3775
  455TMC3    C2 6826   4.465   3.291  15.995 -0.2223  0.5435  0.3035
  455TMC3    C3 6827   4.385   3.230  16.087 -0.2588 -0.4196 -0.0962
  455TMC3    C4 6828   4.397   3.118  15.847  0.7319  0.2206 -0.7001
  455TMC3    C5 6829   4.320   3.060  15.946 -0.0767  1.1206 -0.0315
  455TMC3    C6 6830   4.333   3.104  16.076  0.3481  0.3981 -0.8247
  455TMC3     C 6831   4.618   3.199  15.833 -0.6630  0.0932  0.5714
  455TMC3     O 6832   4.648   3.175  15.717  0.4444  0.1170  0.0926
  455TMC3     H 6833   4.508   3.388  16.017 -0.2272  0.0183  2.6066
  455TMC3    H1 6834   4.413   3.060  15.757 -1.1276 -2.5907  0.8187
  455TMC3    H2 6835   4.284   3.047  16.154 -2.0754 -1.3604 -3.6137
  455TMC3    C7 6836   4.329   2.917  15.923 -0.0799  0.1527 -0.1084
  455TMC3    C8 6837   4.348   3.303  16.208 -0.5620 -0.3489 -0.3376
  455TMC3    O1 6838   4.253   2.870  15.841  0.5758 -0.3181  0.7859
  455TMC3    O2 6839   4.321   3.233  16.302  0.2808 -0.3068 -0.8017
  456MPD2     C 6840   2.376   3.248  15.961  0.4962  0.0631  0.3339
  456MPD2    C1 6841   2.487   3.198  16.023  0.4321  0.9142  0.3060
  456MPD2    C2 6842   2.488   3.205  16.158 -0.1137  0.0433 -0.5457
  456MPD2    C3 6843   2.384   3.266  16.226 -0.4055 -0.3953 -0.0754
  456MPD2    C4 6844   2.272   3.320  16.162  0.2618  0.8292 -0.0182
  456MPD2    C5 6845   2.270   3.302  16.026 -0.0513 -0.0796  0.3057
  456MPD2     H 6846   2.575   3.169  16.211  0.8524 -0.3498 -2.4096
  456MPD2    H1 6847   2.186   3.360  16.215 -1.8376 -0.8950 -2.0691
  456MPD2    H2 6848   2.368   3.248  15.853 -1.2902  4.4967  0.4655
  456MPD2    H3 6849   2.186   3.334  15.966 -0.2867  0.2353  0.8046
  456MPD2     N 6850   2.375   3.295  16.358  0.1650  0.1057  0.2134
  456MPD2    H5 6851   2.308   3.365  16.388  1.2837  1.2168  0.1520
  456MPD2    N1 6852   2.596   3.163  15.946 -0.0080 -0.2169  0.0132
  456MPD2    H7 6853   2.594   3.174  15.845  1.0183  1.9673  0.2265
  457TMC3    C1 6854   2.448   3.301  16.579 -0.1662  0.3963 -1.4050
  457TMC3    C2 6855   2.341   3.383  16.613  0.3167  0.1466  0.1891
  457TMC3    C3 6856   2.337   3.422  16.741 -0.3402 -0.1475 -0.2086
  457TMC3    C4 6857   2.536   3.252  16.677 -0.2804 -0.1429 -0.1485
  457TMC3    C5 6858   2.512   3.278  16.809  0.0814  0.0739 -0.3788
  457TMC3    C6 6859   2.409   3.362  16.837 -0.4001 -0.2459 -0.1776
  457TMC3     C 6860   2.454   3.233  16.455  0.1945  0.3206 -0.6428
  457TMC3     O 6861   2.531   3.139  16.442  0.1981  0.7863  0.0158
  457TMC3     H 6862   2.278   3.429  16.538 -0.4602 -0.4553  0.4826
  457TMC3    H1 6863   2.616   3.183  16.655  1.2086  2.1703 -1.9126
  457TMC3    H2 6864   2.396   3.391  16.940  1.5212 -1.1933  0.3245
  457TMC3    C7 6865   2.609   3.256  16.916 -0.0449  0.1177  0.1518
  457TMC3    C8 6866   2.273   3.546  16.784 -0.4187 -0.4987 -0.6677
  457TMC3    O1 6867   2.557   3.262  17.024 -0.1296 -0.4141 -0.0070
  457TMC3    O2 6868   2.286   3.583  16.902 -0.2579 -0.3404  0.0031
  458MPD2     C 6869   1.182   2.295  12.118 -0.0364  0.5620 -0.6012
  458MPD2    C1 6870   1.119   2.299  12.240  0.1396 -0.1040 -0.0782
  458MPD2    C2 6871   0.985   2.326  12.251 -0.1021 -0.5383  0.1027
  458MPD2    C3 6872   0.914   2.369  12.142  0.6523 -0.4061 -0.0673
  458MPD2    C4 6873   0.983   2.388  12.017  0.3670  0.4447 -0.0419
  458MPD2    C5 6874   1.108   2.341  12.010 -0.4068  0.0754 -0.7168
  458MPD2     H 6875   0.930   2.315  12.344 -0.9945 -1.5897 -0.5497
  458MPD2    H1 6876   0.944   2.440  11.931 -0.5712 -1.7365 -0.9271
  458MPD2    H2 6877   1.288   2.275  12.108  0.0722  0.9410 -0.2056
  458MPD2    H3 6878   1.169   2.359  11.922 -1.7538  0.6864 -1.5193
  458MPD2     N 6879   0.771   2.413  12.159 -0.1496  0.0441  0.0807
  458MPD2    H5 6880   0.726   2.394  12.248 -0.0760  0.4131  0.1978
  458MPD2    N1 6881   1.199   2.268  12.351 -0.6231 -0.2161 -0.2518
  458MPD2    H7 6882   1.299   2.271  12.336 -0.6642 -1.4470 -0.7919
  459TMC3    C1 6883   1.252   2.201  12.583 -0.8937 -0.3690 -0.1871
  459TMC3    C2 6884   1.366   2.283  12.589 -0.5941  0.1604 -0.3861
  459TMC3    C3 6885   1.453   2.260  12.696 -0.9348 -0.4165 -0.1200
  459TMC3    C4 6886   1.214   2.137  12.698 -0.1587 -0.3093  0.3741
  459TMC3    C5 6887   1.295   2.133  12.811 -0.1203 -0.2336  1.1463
  459TMC3    C6 6888   1.416   2.187  12.807 -0.0923 -0.2949  0.5166
  459TMC3     C 6889   1.153   2.218  12.474 -0.4337  0.1722  0.0127
  459TMC3     O 6890   1.042   2.178  12.502 -0.0925  1.1334  0.7883
  459TMC3     H 6891   1.381   2.363  12.518  4.1158 -1.7047 -1.5334
  459TMC3    H1 6892   1.130   2.070  12.685  0.3547 -0.9573  0.4417
  459TMC3    H2 6893   1.494   2.175  12.881 -2.0225 -0.6131  2.4936
  459TMC3    C7 6894   1.265   2.051  12.926  0.1057 -0.2183 -0.6267
  459TMC3    C8 6895   1.589   2.317  12.686 -0.2584 -0.7640 -0.2134
  459TMC3    O1 6896   1.358   2.037  13.005 -0.3452 -0.1155 -0.4869
  459TMC3    O2 6897   1.592   2.406  12.603  0.0125 -0.1267  0.2693
  460MPD2     C 6898   0.059   0.012  10.983 -0.3313  0.4052  0.8882
  460MPD2    C1 6899   4.690   4.653  10.998  0.0382 -0.0349  0.1763
  460MPD2    C2 6900   4.577   4.675  10.913 -0.6102  0.2961  0.4983
  460MPD2    C3 6901   4.577   0.042  10.815 -1.0811 -0.5271  0.4715
  460MPD2    C4 6902   4.681   0.128  10.807 -0.5078 -0.2605  0.0884
  460MPD2    C5 6903   0.050   0.120  10.892 -0.0561  0.3351  0.4286
  460MPD2     H 6904   4.493   4.606  10.918 -0.3255  0.0067  1.4671
  460MPD2    H1 6905   4.684   0.205  10.731  0.6866  0.1438  0.5378
  460MPD2    H2 6906   0.146   4.727  11.045 -0.6307  0.6349  1.3815
  460MPD2    H3 6907   0.129   0.192  10.876  2.3974 -2.1785  1.1183
  460MPD2     N 6908   4.472   0.045  10.719 -0.2907  0.0211 -0.3711
  460MPD2    H5 6909   4.417   4.696  10.698  1.2432 -0.8127 -1.0946
  460MPD2    N1 6910   4.707   4.556  11.097 -0.0717 -0.5856 -0.5324
  460MPD2    H7 6911   0.066   4.536  11.133  0.3889 -2.0885 -2.5654
  461TMC3    C1 6912   4.323   0.153  10.562 -0.1552 -0.1562  0.7470
  461TMC3    C2 6913   4.313   0.046  10.476 -0.5182 -0.2765 -0.1498
  461TMC3    C3 6914   4.220   0.046  10.382  0.0195 -0.1320  0.0055
  461TMC3    C4 6915   4.253   0.261  10.540 -0.1767  0.1892 -0.2326
  461TMC3    C5 6916   4.166   0.263  10.430  0.4726 -0.2098  0.2776
  461TMC3    C6 6917   4.132   0.151  10.364 -0.2477 -0.4083  0.6035
  461TMC3     C 6918   4.435   0.160  10.649 -0.5179  0.4677 -0.1167
  461TMC3     O 6919   4.484   0.272  10.649  0.1615  0.5429  0.0675
  461TMC3     H 6920   4.380   4.696  10.491 -0.5165 -0.0734  0.9731
  461TMC3    H1 6921   4.252   0.346  10.608  0.6354 -0.0833  0.1259
  461TMC3    H2 6922   4.081   0.166  10.269 -0.7427 -0.1427  0.9159
  461TMC3    C7 6923   4.114   0.391  10.392 -0.4322 -0.5261  0.6309
  461TMC3    C8 6924   4.267   4.722  10.249  0.6031 -0.3304 -0.2004
  461TMC3    O1 6925   4.032   0.379  10.303 -0.4595 -0.8593  0.5488
  461TMC3    O2 6926   4.384   4.688  10.237 -0.2055  0.0589  0.1470
  462TMC3    C1 6927   4.182   1.702   0.161  0.1942 -0.0369  0.5358
  462TMC3    C2 6928   4.317   1.700   0.135  0.3209  0.4747  0.1752
  462TMC3    C3 6929   4.378   1.581   0.157  0.2454 -0.0802  0.2669
  462TMC3    C4 6930   4.112   1.586   0.186 -0.3052 -0.2289  0.2825
  462TMC3    C5 6931   4.182   1.465   0.205 -0.3247  0.5805 -0.3042
  462TMC3    C6 6932   4.316   1.459   0.185 -0.6240 -0.2725 -0.3706
  462TMC3     C 6933   4.110   1.831   0.134 -0.2971 -0.1879  0.5437
  462TMC3     O 6934   3.996   1.823   0.177  0.2261  0.5316  0.0001
  462TMC3     H 6935   4.383   1.786   0.137  1.1508 -0.0732 -3.8473
  462TMC3    H1 6936   4.004   1.583   0.197 -0.2008 -1.8983  0.8554
  462TMC3    H2 6937   4.363   1.376   0.236  0.0418 -1.2981 -2.6365
  462TMC3    C7 6938   4.118   1.335   0.219  0.0953 -0.2325  0.3796
  462TMC3    C8 6939   4.499   1.571   0.082  0.3912 -0.5032 -0.9004
  462TMC3    O1 6940   4.183   1.242   0.182  0.6179  0.2374 -0.3160
  462TMC3    O2 6941   4.529   1.667   0.015  0.1647  0.7564  0.5470
  463MPD2     C 6942   1.284   3.779   1.617 -0.0413  0.5032  0.6577
  463MPD2    C1 6943   1.221   3.875   1.543 -0.6741  0.2987  0.5426
  463MPD2    C2 6944   1.291   3.994   1.529 -0.6963  0.0930 -0.1466
  463MPD2    C3 6945   1.413   4.027   1.589  0.4514  0.5785 -0.7405
  463MPD2    C4 6946   1.466   3.930   1.664 -1.1317 -0.3903  0.7349
  463MPD2    C5 6947   1.406   3.807   1.675  0.6773  0.1909  0.0170
  463MPD2     H 6948   1.237   4.061   1.463  0.1412  1.9060  1.0160
  463MPD2    H1 6949   1.560   3.934   1.718  0.2772  1.6827 -1.8674
  463MPD2    H2 6950   1.247   3.677   1.606  0.9795  0.0094  1.8052
  463MPD2    H3 6951   1.453   3.726   1.730  0.5295  0.3511  0.3828
  463MPD2     N 6952   1.470   4.157   1.589 -0.4344 -0.3425  0.8445
  463MPD2    H5 6953   1.564   4.159   1.627  1.1455 -1.8706 -2.9831
  463MPD2    N1 6954   1.104   3.859   1.467 -0.2295 -0.1945  0.4554
  463MPD2    H7 6955   1.066   3.937   1.414  0.7893 -1.1069 -1.5956
  464TMC3    C1 6956   0.895   3.784   1.397  0.0064 -0.4299 -0.3001
  464TMC3    C2 6957   0.861   3.913   1.380 -0.6367 -0.1967 -0.0501
  464TMC3    C3 6958   0.739   3.931   1.318 -0.3487 -0.2912 -0.1577
  464TMC3    C4 6959   0.815   3.679   1.364  0.4414 -0.5862 -0.6821
  464TMC3    C5 6960   0.701   3.694   1.294 -1.2090 -0.3447  0.3477
  464TMC3    C6 6961   0.659   3.824   1.273 -0.1023  0.6634 -0.3033
  464TMC3     C 6962   1.024   3.754   1.467  0.2568 -0.1337  0.6155
  464TMC3     O 6963   1.033   3.655   1.538  0.8094  0.1032  0.1790
  464TMC3     H 6964   0.919   3.998   1.412  0.3546  0.2136 -2.9794
  464TMC3    H1 6965   0.836   3.577   1.396  0.3601  0.6739  3.4086
  464TMC3    H2 6966   0.570   3.849   1.216 -0.2269 -0.3995 -0.5766
  464TMC3    C7 6967   0.670   3.580   1.209  0.7894  0.0703 -0.0666
  464TMC3    C8 6968   0.695   4.073   1.285 -0.7083 -0.8772 -0.2756
  464TMC3    O1 6969   0.767   3.507   1.191  0.1106  0.2689 -0.1501
  464TMC3    O2 6970   0.627   4.088   1.186 -0.1023  0.2454  0.2179
  465MPD2     C 6971   1.849   3.460  16.649 -0.5135  0.1030  0.2894
  465MPD2    C1 6972   1.748   3.386  16.710 -0.1521 -0.0548 -0.3558
  465MPD2    C2 6973   1.653   3.321  16.630 -0.6508  0.7345 -0.1737
  465MPD2    C3 6974   1.642   3.358  16.499 -0.1739  0.1381 -0.0033
  465MPD2    C4 6975   1.748   3.431  16.445  0.1966 -0.7095 -0.5282
  465MPD2    C5 6976   1.850   3.483  16.516  0.7620 -0.0962  0.6386
  465MPD2     H 6977   1.570   3.268  16.676  1.9025 -3.4787 -0.4224
  465MPD2    H1 6978   1.754   3.444  16.337 -0.0854  1.3359 -0.2988
  465MPD2    H2 6979   1.916   3.531  16.696 -2.5381  1.5743  0.9725
  465MPD2    H3 6980   1.919   3.551  16.467 -3.0362  3.3448  0.0874
  465MPD2     N 6981   1.539   3.298  16.422 -0.5964 -0.1274  0.0778
  465MPD2    H5 6982   1.474   3.232  16.464  1.3348 -1.3629  1.1431
  465MPD2    N1 6983   1.728   3.381  16.849  1.1266 -0.7149  0.2939
  465MPD2    H7 6984   1.664   3.313  16.889 -1.3670  0.3579 -1.8094
  466TMC3    C1 6985   1.322   3.019  16.198  0.1165  0.2743  0.0555
  466TMC3    C2 6986   1.225   3.061  16.114 -0.3716  0.0461 -0.1715
  466TMC3    C3 6987   1.225   3.198  16.088 -0.1554 -0.0034 -0.4024
  466TMC3    C4 6988   1.415   3.102  16.254 -0.3899 -0.0584  0.0979
  466TMC3    C5 6989   1.404   3.235  16.228  0.4795 -0.9567  0.3762
  466TMC3    C6 6990   1.318   3.288  16.139 -0.4494  0.5762 -0.2397
  466TMC3     C 6991   1.272   2.931  16.302  0.7648  0.0304 -0.3757
  466TMC3     O 6992   1.338   2.922  16.404  0.5221  0.0791  0.3011
  466TMC3     H 6993   1.128   3.018  16.089  0.3100 -0.5221 -1.8803
  466TMC3    H1 6994   1.498   3.069  16.316 -0.5031  1.6295  1.1611
  466TMC3    H2 6995   1.319   3.393  16.111  1.8959 -0.0251 -2.3519
  466TMC3    C7 6996   1.514   3.316  16.284  0.7369  0.3308 -0.8465
  466TMC3    C8 6997   1.104   3.253  16.047  0.3039 -0.4111 -0.1094
  466TMC3    O1 6998   1.569   3.392  16.206 -0.1612  0.1531  0.0808
  466TMC3    O2 6999   1.049   3.196  15.950 -0.0925  0.7537  0.3397
  467TMC3    C1 7000   3.040   1.263  14.087 -0.3682 -0.4956 -0.1081
  467TMC3    C2 7001   3.020   1.390  14.050 -0.3737 -0.3194 -0.8099
  467TMC3    C3 7002   2.899   1.429  13.994 -0.2585 -0.9418 -0.9445
  467TMC3    C4 7003   2.939   1.170  14.055  0.0368  0.1106 -0.1449
  467TMC3    C5 7004   2.817   1.212  14.018 -0.2851 -0.3902  0.3158
  467TMC3    C6 7005   2.797   1.339  13.976  0.1506 -0.4512  0.1280
  467TMC3     C 7006   3.177   1.243  14.054  0.3228  0.2120 -0.2477
  467TMC3     O 7007   3.258   1.281  14.137 -0.5055 -0.2887 -0.0310
  467TMC3     H 7008   3.112   1.445  14.040  0.6961 -2.4917 -2.7507
  467TMC3    H1 7009   2.950   1.070  14.096  0.5023  0.6835  1.1090
  467TMC3    H2 7010   2.700   1.378  13.947  0.7829 -0.1272 -1.5569
  467TMC3    C7 7011   2.702   1.134  14.052 -0.0717 -0.6488 -0.4137
  467TMC3    C8 7012   2.935   1.512  13.881 -0.2673 -0.3504  0.4063
  467TMC3    O1 7013   2.716   1.013  14.058 -1.0972 -0.4707  0.0710
  467TMC3    O2 7014   3.018   1.598  13.901 -0.1859  0.1113  0.4707
  468MPD2     C 7015   1.609   4.488  10.779  0.1217  0.1984  0.0557
  468MPD2    C1 7016   1.721   4.510  10.860 -0.4646 -0.5404  0.1114
  468MPD2    C2 7017   1.811   4.403  10.876 -0.0012  0.0174 -0.1420
  468MPD2    C3 7018   1.787   4.282  10.813 -0.3649  0.9678  0.0881
  468MPD2    C4 7019   1.672   4.266  10.737 -0.0818 -0.4098  0.4713
  468MPD2    C5 7020   1.585   4.367  10.726 -0.8818 -0.1477  0.2589
  468MPD2     H 7021   1.906   4.424  10.925  0.1379 -1.0139  0.0316
  468MPD2    H1 7022   1.640   4.172  10.694 -0.2169 -1.1136  2.1145
  468MPD2    H2 7023   1.538   4.570  10.770 -0.8005 -0.6176 -0.0841
  468MPD2    H3 7024   1.498   4.358  10.662 -0.0861  0.6140 -0.9415
  468MPD2     N 7025   1.869   4.166  10.835  0.4631 -0.0267 -0.3324
  468MPD2    H5 7026   1.850   4.081  10.784 -0.9525  0.9227 -1.3839
  468MPD2    N1 7027   1.760   4.637  10.914  0.0887  0.3118 -0.1071
  468MPD2    H7 7028   1.841   4.646  10.975 -0.4400  0.6873  0.5320
  469TMC3    C1 7029   1.709   0.119  11.010 -0.2225 -0.1583  1.0734
  469TMC3    C2 7030   1.834   0.128  11.057 -0.0731 -0.2923 -0.3829
  469TMC3    C3 7031   1.856   0.181  11.177 -0.3374  0.7939 -0.1376
  469TMC3    C4 7032   1.603   0.163  11.087  0.2052  0.7387 -0.4501
  469TMC3    C5 7033   1.628   0.212  11.209  0.5704  0.8345  0.4193
  469TMC3    C6 7034   1.753   0.223  11.257 -0.1277 -0.6769  0.9114
  469TMC3     C 7035   1.672   0.010  10.913  0.2428 -0.2822 -0.6473
  469TMC3     O 7036   1.562   0.029  10.866 -0.5017 -0.7721 -0.3821
  469TMC3     H 7037   1.923   0.095  11.006 -0.8760 -1.2841 -1.1636
  469TMC3    H1 7038   1.504   0.159  11.042 -0.3965  1.1191  0.8416
  469TMC3    H2 7039   1.768   0.269  11.354  1.8149 -1.8403  1.1622
  469TMC3    C7 7040   1.518   0.235  11.292 -0.4634 -0.1245  0.8024
  469TMC3    C8 7041   1.984   0.157  11.229 -0.3925 -0.5117 -0.3098
  469TMC3    O1 7042   1.411   0.227  11.232 -0.5404 -0.1774  0.5260
  469TMC3    O2 7043   2.083   0.161  11.155 -0.2647  0.5297 -0.1977
  470TMC3    C1 7044   3.278   1.181   0.228 -0.0973  0.2164 -0.5056
  470TMC3    C2 7045   3.249   1.272   0.327 -0.2493  0.3992 -0.6911
  470TMC3    C3 7046   3.252   1.222   0.453  0.1033  0.3633  0.3686
  470TMC3    C4 7047   3.326   1.058   0.249  0.3220 -0.8986  0.0723
  470TMC3    C5 7048   3.339   1.026   0.380  0.1517  0.3359 -0.4805
  470TMC3    C6 7049   3.303   1.104   0.485 -0.4549 -1.3036  0.2358
  470TMC3     C 7050   3.253   1.224   0.097  0.6316 -0.7877  0.0913
  470TMC3     O 7051   3.272   1.343   0.068 -0.5392  0.6029 -0.5770
  470TMC3     H 7052   3.224   1.375   0.302  1.7231  0.7022 -1.4527
  470TMC3    H1 7053   3.374   0.995   0.174  4.8496  1.6478  0.8804
  470TMC3    H2 7054   3.292   1.059   0.583  1.5136 -1.1191  0.5404
  470TMC3    C7 7055   3.421   0.909   0.413  0.1204  0.9411 -0.2138
  470TMC3    C8 7056   3.245   1.324   0.558  0.3159  0.6691  0.6135
  470TMC3    O1 7057   3.427   0.818   0.332  0.2234 -0.2422 -0.0193
  470TMC3    O2 7058   3.319   1.291   0.653 -0.5784  0.0629 -0.0367
  471MPD2     C 7059   3.917   2.362  16.397  0.4515 -0.3901  0.4562
  471MPD2    C1 7060   3.988   2.253  16.358 -0.4709  0.2979 -0.4281
  471MPD2    C2 7061   4.098   2.218  16.432  0.3393 -0.0951  0.0902
  471MPD2    C3 7062   4.128   2.287  16.547 -0.3973  0.2326  0.9440
  471MPD2    C4 7063   4.066   2.402  16.579 -0.3860 -0.1960 -0.3262
  471MPD2    C5 7064   3.965   2.435  16.495 -0.1246 -0.8900 -0.1274
  471MPD2     H 7065   4.153   2.133  16.393  0.9891  0.7249 -0.7486
  471MPD2    H1 7066   4.082   2.469  16.662  0.0970  0.6448 -1.1016
  471MPD2    H2 7067   3.823   2.392  16.352  0.9198  2.5165  1.4484
  471MPD2    H3 7068   3.907   2.521  16.526  0.9642  0.0813 -0.7888
  471MPD2     N 7069   4.221   2.244  16.641 -0.0813 -0.1577 -0.2442
  471MPD2    H5 7070   4.229   2.293  16.730  1.0988  1.1899 -1.0907
  471MPD2    N1 7071   3.959   2.174  16.247  0.3748  0.3025  0.1103
  471MPD2    H7 7072   4.028   2.101  16.232  0.2303 -0.1139  1.5008
  472TMC3    C1 7073   3.846   2.084  16.055 -0.0737 -0.3497 -0.0792
  472TMC3    C2 7074   3.716   2.087  16.009  0.3324  0.9178  0.3720
  472TMC3    C3 7075   3.631   1.982  16.031  0.0650 -0.2084 -0.9419
  472TMC3    C4 7076   3.898   1.968  16.100  0.0817  0.4139 -0.0743
  472TMC3    C5 7077   3.815   1.863  16.114 -0.1182  0.2448  0.4858
  472TMC3    C6 7078   3.681   1.865  16.084 -0.0392  0.2377  0.0633
  472TMC3     C 7079   3.858   2.190  16.153 -0.4123 -0.1990  0.3721
  472TMC3     O 7080   3.773   2.279  16.163  0.0547  0.7072  0.1105
  472TMC3     H 7081   3.668   2.177  15.974  0.9082  1.9209  2.1562
  472TMC3    H1 7082   4.002   1.962  16.131 -0.7750  3.4533  3.2672
  472TMC3    H2 7083   3.623   1.774  16.092  1.5320 -0.6704  1.1835
  472TMC3    C7 7084   3.877   1.737  16.157  0.1387  0.0828 -0.6047
  472TMC3    C8 7085   3.490   1.996  16.007  0.0284  0.6950 -1.0209
  472TMC3    O1 7086   3.813   1.644  16.212 -0.0402  0.1085 -0.0235
  472TMC3    O2 7087   3.455   2.081  15.926  0.4990 -0.0702  0.3120
  473MPD2     C 7088   4.586   3.709  13.867  0.8918  0.9692  0.6332
  473MPD2    C1 7089   4.537   3.828  13.805  0.4371  0.0383 -0.4440
  473MPD2    C2 7090   4.552   3.950  13.879 -0.3401  0.0140  0.2030
  473MPD2    C3 7091   4.613   3.958  14.004  0.2479 -0.6407 -0.0555
  473MPD2    C4 7092   4.647   3.838  14.058  0.0088 -0.4340 -0.4116
  473MPD2    C5 7093   4.642   3.717  13.990  0.4233 -0.1482 -0.4708
  473MPD2     H 7094   4.520   4.043  13.832  1.4896  0.8908  0.6896
  473MPD2    H1 7095   4.678   3.835  14.161 -0.6534  1.2776 -0.1673
  473MPD2    H2 7096   4.578   3.614  13.815 -3.4604  2.3545 -1.2029
  473MPD2    H3 7097   4.673   3.620  14.026 -0.8925 -0.3923 -0.0016
  473MPD2     N 7098   4.618   4.080  14.081  0.2856 -0.2603 -0.4082
  473MPD2    H5 7099   4.678   4.072  14.163 -2.4829 -0.0146  1.6256
  473MPD2    N1 7100   4.456   3.830  13.690 -0.2686  0.1264 -0.4091
  473MPD2    H7 7101   4.419   3.921  13.664 -2.3280 -0.2347  1.3059
  474TMC3    C1 7102   4.576   4.300  14.141  0.3250  0.4095  0.7063
  474TMC3    C2 7103   4.486   4.399  14.146  0.1580 -0.2317 -0.4230
  474TMC3    C3 7104   4.529   4.517  14.209 -0.2657 -0.1421  0.5075
  474TMC3    C4 7105   4.690   4.302  14.216 -0.5729 -0.6358  0.6331
  474TMC3    C5 7106   4.724   4.415  14.284 -0.9205 -0.4886 -0.1436
  474TMC3    C6 7107   4.641   4.521  14.287 -0.4587 -0.2082 -0.2171
  474TMC3     C 7108   4.556   4.193  14.043  0.5196 -0.2943  0.5589
  474TMC3     O 7109   4.451   4.208  13.979  0.1678 -0.1672  0.5519
  474TMC3     H 7110   4.398   4.393  14.083 -0.7945 -1.8713  1.0419
  474TMC3    H1 7111   0.034   4.228  14.207 -0.6930 -0.7084  0.1604
  474TMC3    H2 7112   4.683   4.611  14.331  0.9853  0.0306 -2.0865
  474TMC3    C7 7113   0.117   4.413  14.354  0.7732  0.3896 -0.5277
  474TMC3    C8 7114   4.474   4.645  14.172  0.0550 -0.5801 -0.6676
  474TMC3    O1 7115   0.206   4.342  14.302  0.1191  0.3641 -0.3325
  474TMC3    O2 7116   4.501   0.007  14.242 -0.6714  0.1418  0.8406
  475MPD2     C 7117   2.685   2.024  10.891 -0.1674 -0.0428 -0.0070
  475MPD2    C1 7118   2.662   2.155  10.845 -0.4248  0.1262 -0.5770
  475MPD2    C2 7119   2.584   2.176  10.731 -0.0776 -0.1561 -0.3103
  475MPD2    C3 7120   2.503   2.077  10.686 -0.7101  0.3476  0.1105
  475MPD2    C4 7121   2.514   1.952  10.738 -0.1569  0.1401  0.0240
  475MPD2    C5 7122   2.606   1.922  10.837 -0.1482 -0.8335  0.5150
  475MPD2     H 7123   2.573   2.277  10.693 -1.7068 -0.4131 -0.5318
  475MPD2    H1 7124   2.456   1.866  10.707  2.0118 -2.0928  2.1532
  475MPD2    H2 7125   2.749   1.999  10.975 -0.4701  0.4810  0.3889
  475MPD2    H3 7126   2.616   1.821  10.875 -1.6446 -1.3551 -0.4834
  475MPD2     N 7127   2.417   2.110  10.578 -0.0477  0.3262 -0.3384
  475MPD2    H5 7128   2.424   2.210  10.557 -1.8224  0.2880 -1.1631
  475MPD2    N1 7129   2.732   2.263  10.899 -0.1298 -0.7241  0.0522
  475MPD2    H7 7130   2.750   2.346  10.843  0.8926 -0.8559  0.1740
  476TMC3    C1 7131   2.866   2.381  11.059  0.1567 -0.4894  0.1876
  476TMC3    C2 7132   2.936   2.447  10.964  0.2598 -0.3700 -0.0471
  476TMC3    C3 7133   3.002   2.566  10.995 -0.3142  0.0484  0.8349
  476TMC3    C4 7134   2.867   2.429  11.185  0.1786 -0.2316 -0.2368
  476TMC3    C5 7135   2.919   2.553  11.210 -0.4942  0.2694  0.1642
  476TMC3    C6 7136   2.983   2.628  11.117 -0.1582 -0.2787  1.2723
  476TMC3     C 7137   2.785   2.265  11.029 -0.9166  0.0584  0.0795
  476TMC3     O 7138   2.759   2.193  11.124 -0.6937  0.1495  0.3527
  476TMC3     H 7139   2.935   2.413  10.861  0.4029  0.6905 -0.3903
  476TMC3    H1 7140   2.810   2.386  11.267 -0.0778  2.1404  0.8301
  476TMC3    H2 7141   3.029   2.724  11.137 -1.0683  0.2566  0.7652
  476TMC3    C7 7142   2.901   2.612  11.344  0.7160  0.2616  0.8325
  476TMC3    C8 7143   3.103   2.634  10.908 -0.3845  0.5782 -0.1772
  476TMC3    O1 7144   2.871   2.535  11.438  0.3326 -0.7501  0.3996
  476TMC3    O2 7145   3.164   2.724  10.963  0.6674 -0.0042 -1.2424
  477MPD2     C 7146   0.723   3.363  11.333 -0.4056 -0.2651  0.0071
  477MPD2    C1 7147   0.665   3.380  11.456  0.1016 -0.7775 -0.4509
  477MPD2    C2 7148   0.717   3.312  11.569 -0.0792 -0.1110  0.0984
  477MPD2    C3 7149   0.831   3.224  11.551  0.3980  0.7247 -0.6576
  477MPD2    C4 7150   0.875   3.197  11.422 -0.1639  0.4694  0.0730
  477MPD2    C5 7151   0.816   3.260  11.316 -0.8192  0.1429 -0.2930
  477MPD2     H 7152   0.677   3.323  11.669 -2.1434 -1.1159 -0.6371
  477MPD2    H1 7153   0.934   3.110  11.396 -0.5512  0.8050 -1.8796
  477MPD2    H2 7154   0.707   3.432  11.251 -0.0621  0.7767  0.8133
  477MPD2    H3 7155   0.853   3.232  11.218  1.5583 -1.1280  0.9758
  477MPD2     N 7156   0.884   3.160  11.665 -0.1607 -0.4772  0.4991
  477MPD2    H5 7157   0.840   3.167  11.756 -4.0833 -3.6114 -1.1702
  477MPD2    N1 7158   0.558   3.472  11.460 -0.3585 -0.1915 -0.0502
  477MPD2    H7 7159   0.515   3.497  11.371 -0.6219  2.6175  0.8785
  478TMC3    C1 7160   0.374   3.591  11.551  0.2787  0.3730 -0.0185
  478TMC3    C2 7161   0.286   3.612  11.652 -0.5222  0.3912  0.1751
  478TMC3    C3 7162   0.200   3.715  11.632 -0.7345  0.0207 -0.0046
  478TMC3    C4 7163   0.367   3.650  11.431  1.0691  0.2872  0.0913
  478TMC3    C5 7164   0.277   3.751  11.415 -0.5033 -0.2442  0.7034
  478TMC3    C6 7165   0.194   3.786  11.518  0.9601  0.1160 -0.3064
  478TMC3     C 7166   0.489   3.508  11.573  0.4624  0.2334 -0.1735
  478TMC3     O 7167   0.500   3.481  11.691  0.0641 -0.1573 -0.7930
  478TMC3     H 7168   0.300   3.566  11.749 -1.1037 -0.6838 -0.2562
  478TMC3    H1 7169   0.439   3.631  11.353  1.7465 -0.5839  0.9354
  478TMC3    H2 7170   0.129   3.871  11.502  0.5928 -0.3408 -1.2456
  478TMC3    C7 7171   0.281   3.819  11.287 -0.3105 -0.0442  0.3026
  478TMC3    C8 7172   0.093   3.728  11.727 -0.1984 -0.4112  0.0149
  478TMC3    O1 7173   0.361   3.785  11.200  0.0004 -0.0805 -0.5416
  478TMC3    O2 7174   0.079   3.644  11.815  0.1335 -0.0289 -0.3102
  479MPD2     C 7175   4.018   1.166  15.091  0.0035  0.4025  0.7242
  479MPD2    C1 7176   3.971   1.129  15.210 -0.0009 -0.6905  1.0343
  479MPD2    C2 7177   4.044   1.158  15.327  0.3710  0.6989 -0.5105
  479MPD2    C3 7178   4.168   1.226  15.316  0.1205  0.0236  0.3264
  479MPD2    C4 7179   4.211   1.265  15.194 -0.2810 -0.6919  0.9733
  479MPD2    C5 7180   4.135   1.239  15.080 -0.3058 -0.5073  0.7941
  479MPD2     H 7181   4.008   1.115  15.420  0.8464 -1.5953 -1.3958
  479MPD2    H1 7182   4.306   1.315  15.182 -1.8431  1.9987 -0.0163
  479MPD2    H2 7183   3.962   1.142  15.001  2.9092  0.1533 -0.9871
  479MPD2    H3 7184   4.171   1.277  14.986  0.7146  0.4199  1.5624
  479MPD2     N 7185   4.246   1.260  15.428  0.0387 -0.1884  0.6802
  479MPD2    H5 7186   4.342   1.280  15.402 -0.0309  0.1079  0.6476
  479MPD2    N1 7187   3.842   1.062  15.218 -0.1313  0.1616 -0.2225
  479MPD2    H7 7188   3.796   1.047  15.129  1.9443  0.0289 -1.2661
  480TMC3    C1 7189   3.898   1.202  15.753  0.2060  0.3159  0.2017
  480TMC3    C2 7190   3.799   1.268  15.676  0.4384  0.2733  0.6915
  480TMC3    C3 7191   3.850   1.336  15.575 -0.0027 -0.3003  0.2085
  480TMC3    C4 7192   4.032   1.193  15.715 -0.3570 -0.2093 -0.3021
  480TMC3    C5 7193   4.072   1.261  15.611  0.0449 -0.3762  1.0579
  480TMC3    C6 7194   3.982   1.340  15.534 -0.4810  0.5869 -0.1710
  480TMC3     C 7195   3.853   1.095  15.839  0.0643 -0.0224 -0.1291
  480TMC3     O 7196   3.904   0.987  15.829 -0.7436  0.4520 -0.0612
  480TMC3     H 7197   3.695   1.258  15.701 -0.2267  0.0334 -2.1525
  480TMC3    H1 7198   4.095   1.140  15.785 -0.3944 -0.4616 -0.4615
  480TMC3    H2 7199   4.010   1.405  15.453  0.1886  2.0779  1.2539
  480TMC3    C7 7200   4.213   1.250  15.566  0.2448  0.7549 -0.4964
  480TMC3    C8 7201   3.748   1.391  15.492  1.0044  0.5761  0.1667
  480TMC3    O1 7202   4.296   1.241  15.658 -0.1083 -0.4225 -0.1808
  480TMC3    O2 7203   3.633   1.387  15.526  0.1619 -0.5281  0.3667
  481MPD2     C 7204   0.827   0.700  13.978  0.8003  0.3113  0.0789
  481MPD2    C1 7205   0.746   0.627  14.065  0.1344 -0.2500 -0.3050
  481MPD2    C2 7206   0.787   0.595  14.191  0.4830 -0.7683 -0.4035
  481MPD2    C3 7207   0.912   0.633  14.235  0.6612  0.1372 -0.9026
  481MPD2    C4 7208   0.990   0.703  14.149 -0.4263  0.0384 -0.5148
  481MPD2    C5 7209   0.947   0.741  14.022 -0.3087 -0.7082  0.0938
  481MPD2     H 7210   0.720   0.540  14.257  1.3245 -1.9148 -0.4941
  481MPD2    H1 7211   1.091   0.735  14.172  0.5900 -0.7086 -3.8166
  481MPD2    H2 7212   0.796   0.744  13.884 -0.7218 -0.9995 -0.0223
  481MPD2    H3 7213   1.020   0.794  13.962 -0.1221 -2.0469 -0.8466
  481MPD2     N 7214   0.961   0.607  14.365  0.0592 -0.2975 -0.0452
  481MPD2    H5 7215   1.061   0.618  14.378  0.0050  2.1346 -1.7140
  481MPD2    N1 7216   0.614   0.588  14.024 -0.4382  0.0492  0.3656
  481MPD2    H7 7217   0.574   0.635  13.944  0.8463  2.4492  1.1484
  482TMC3    C1 7218   0.399   0.479  14.026 -0.4868  0.0298 -0.1004
  482TMC3    C2 7219   0.340   0.359  14.010 -0.5548 -0.0509  0.7914
  482TMC3    C3 7220   0.226   0.346  13.939  0.8829 -0.0285 -0.4080
  482TMC3    C4 7221   0.342   0.597  13.988  0.5698  0.7499  0.2476
  482TMC3    C5 7222   0.224   0.587  13.924  0.5741  0.4873 -0.4680
  482TMC3    C6 7223   0.159   0.466  13.906  0.4558 -0.1598 -0.5103
  482TMC3     C 7224   0.537   0.485  14.074  0.1211  0.4879 -0.1395
  482TMC3     O 7225   0.576   0.388  14.139  0.2635 -0.3540  0.1554
  482TMC3     H 7226   0.402   0.270  14.011  0.1964  0.4729  2.6079
  482TMC3    H1 7227   0.388   0.692  14.010  2.5181 -0.1622  0.0963
  482TMC3    H2 7228   0.088   0.467  13.824  0.3372 -0.0507 -0.4045
  482TMC3    C7 7229   0.158   0.701  13.859  0.3212 -0.4795  0.5341
  482TMC3    C8 7230   0.212   0.232  13.853  0.1162  0.0011  0.1986
  482TMC3    O1 7231   0.036   0.691  13.838  0.0126  0.2856 -0.0269
  482TMC3    O2 7232   0.308   0.153  13.854  0.0324 -0.5970  0.4191
  483TMC3    C1 7233   3.486   0.066   0.996 -0.3080 -0.8704 -1.1900
  483TMC3    C2 7234   3.583   0.165   0.988 -0.0626 -0.8850 -0.8191
  483TMC3    C3 7235   3.713   0.118   0.972  0.2198 -1.0248  0.2196
  483TMC3    C4 7236   3.500   4.666   0.989  0.3595  0.3302  0.2485
  483TMC3    C5 7237   3.634   4.622   0.974  0.3246  0.3800  0.5713
  483TMC3    C6 7238   3.737   4.720   0.970 -0.2549  0.2845 -0.1866
  483TMC3     C 7239   3.355   0.113   1.036  0.2838  0.4788 -0.3893
  483TMC3     O 7240   3.347   0.193   1.127  0.0164  0.5830 -0.0407
  483TMC3     H 7241   3.558   0.270   0.984 -0.2682 -0.8610  1.1246
  483TMC3    H1 7242   3.418   4.602   1.020  1.4022 -0.8567  0.6006
  483TMC3    H2 7243   3.835   4.680   0.947 -0.1799  0.6469 -0.5014
  483TMC3    C7 7244   3.675   4.488   0.936  0.3962 -0.2885 -0.3150
  483TMC3    C8 7245   3.788   0.197   0.874  0.5180 -0.1695 -0.2608
  483TMC3    O1 7246   3.790   4.456   0.968 -0.0011  0.3781 -0.5232
  483TMC3    O2 7247   3.723   0.287   0.818 -0.5572  0.0107 -0.3172
  484MPD2     C 7248   1.917   2.186  12.810  0.2212 -0.1366 -1.1486
  484MPD2    C1 7249   1.836   2.272  12.733  0.3499  0.0223  0.2654
  484MPD2    C2 7250   1.896   2.362  12.647  0.5332 -0.3607 -0.0930
  484MPD2    C3 7251   2.031   2.359  12.631 -0.4745 -0.1490 -0.2324
  484MPD2    C4 7252   2.104   2.282  12.716 -0.2306 -0.2482  0.1755
  484MPD2    C5 7253   2.052   2.193  12.804 -0.2852  0.2321  0.3731
  484MPD2     H 7254   1.835   2.432  12.590  2.2550 -0.1715 -1.6652
  484MPD2    H1 7255   2.212   2.289  12.715 -0.2571  0.1415  0.1432
  484MPD2    H2 7256   1.875   2.118  12.883 -0.8782  0.2795 -1.3857
  484MPD2    H3 7257   2.115   2.133  12.869 -0.1186 -0.0126 -0.0133
  484MPD2     N 7258   2.101   2.448  12.546 -0.2694 -0.1424 -0.2807
  484MPD2    H5 7259   2.202   2.433  12.547 -0.2950 -0.2911  0.2115
  484MPD2    N1 7260   1.692   2.254  12.748  0.2353  0.6748 -0.2616
  484MPD2    H7 7261   1.669   2.170  12.801 -1.4433  1.5028  0.3375
  485TMC3    C1 7262   2.137   2.626  12.384  0.4478 -0.4556  0.3011
  485TMC3    C2 7263   2.271   2.590  12.383  0.6166  0.2060 -0.4725
  485TMC3    C3 7264   2.352   2.657  12.297  0.5739  0.1680 -0.0228
  485TMC3    C4 7265   2.086   2.703  12.284 -0.4847 -0.0504  0.1422
  485TMC3    C5 7266   2.165   2.758  12.192  0.3836  1.0829  0.0458
  485TMC3    C6 7267   2.300   2.742  12.206 -0.3032  0.8730  0.2048
  485TMC3     C 7268   2.041   2.550  12.467 -0.6488  0.0698 -1.1467
  485TMC3     O 7269   1.921   2.580  12.451 -0.4721 -0.2837 -0.0711
  485TMC3     H 7270   2.314   2.523  12.457 -0.2877 -1.4303 -1.4346
  485TMC3    H1 7271   1.978   2.711  12.282 -0.4618  0.9921  2.8429
  485TMC3    H2 7272   2.368   2.804  12.150 -0.3012  1.1271  0.4868
  485TMC3    C7 7273   2.122   2.743  12.052 -1.1303  0.2335 -0.0461
  485TMC3    C8 7274   2.447   2.580  12.223 -0.0260  0.0802  0.3121
  485TMC3    O1 7275   2.000   2.753  12.028 -0.9083  0.3543  0.5546
  485TMC3    O2 7276   2.462   2.605  12.104 -0.1935  0.6923  0.2356
  486MPD2     C 7277   3.681   1.166  12.731  0.3975  0.0974 -0.6562
  486MPD2    C1 7278   3.557   1.188  12.676 -0.2860 -0.0724  0.4609
  486MPD2    C2 7279   3.520   1.310  12.622 -0.0317 -0.5110  0.0419
  486MPD2    C3 7280   3.609   1.416  12.642 -0.4099 -0.6650 -0.1990
  486MPD2    C4 7281   3.732   1.394  12.705  0.1820  0.5165 -0.0296
  486MPD2    C5 7282   3.775   1.266  12.738 -0.4669 -0.2326  0.7780
  486MPD2     H 7283   3.429   1.327  12.566 -0.4486  0.8299  1.0995
  486MPD2    H1 7284   3.800   1.479  12.711 -0.2809  0.8205  0.9123
  486MPD2    H2 7285   3.720   1.073  12.770  0.3319  0.6037  0.5948
  486MPD2    H3 7286   3.875   1.245  12.774  0.0537 -2.3224 -1.8256
  486MPD2     N 7287   3.577   1.551  12.599  0.1078 -0.0570  0.6214
  486MPD2    H5 7288   3.659   1.609  12.584 -0.7077  1.1851  0.9303
  486MPD2    N1 7289   3.474   1.075  12.677  0.0121 -0.0654  0.2164
  486MPD2    H7 7290   3.510   1.002  12.738 -1.3363 -1.2703 -0.4321
  487TMC3    C1 7291   3.317   0.914  12.597  0.7450  0.0581 -0.6860
  487TMC3    C2 7292   3.186   0.881  12.563 -0.6117  0.2224 -0.5218
  487TMC3    C3 7293   3.153   0.752  12.568  0.1876  0.2424 -0.2637
  487TMC3    C4 7294   3.417   0.821  12.625  0.5627  0.2731  0.2124
  487TMC3    C5 7295   3.373   0.687  12.629  0.1356 -0.1933 -0.6576
  487TMC3    C6 7296   3.242   0.653  12.600  0.1519  0.0157 -0.4603
  487TMC3     C 7297   3.365   1.049  12.592  0.0895 -0.1677  0.1467
  487TMC3     O 7298   3.321   1.112  12.496  0.3208 -0.3428  0.0817
  487TMC3     H 7299   3.110   0.958  12.561 -1.7372 -0.8660  0.6870
  487TMC3    H1 7300   3.519   0.849  12.645  0.0955  2.3612 -0.3600
  487TMC3    H2 7301   3.223   0.553  12.565  0.4934 -0.3368  0.3633
  487TMC3    C7 7302   3.407   0.631  12.757 -0.8327 -0.1293  0.0626
  487TMC3    C8 7303   3.028   0.710  12.623 -0.0079  0.2495  0.0484
  487TMC3    O1 7304   3.518   0.673  12.800 -0.1882  0.0699 -0.6132
  487TMC3    O2 7305   3.031   0.606  12.688 -0.0177 -0.4213  0.1310
  488MPD2     C 7306   3.483   2.831  15.915 -0.5016 -0.0236 -0.5662
  488MPD2    C1 7307   3.478   2.948  15.981 -0.0889  0.3323 -0.7207
  488MPD2    C2 7308   3.430   2.951  16.110 -0.1711 -0.4860 -0.0343
  488MPD2    C3 7309   3.363   2.842  16.163  0.5775 -0.2058  0.1997
  488MPD2    C4 7310   3.348   2.728  16.084 -0.1856  0.5858  0.7526
  488MPD2    C5 7311   3.411   2.724  15.965  0.0161 -0.6698  0.0656
  488MPD2     H 7312   3.464   3.032  16.174 -0.1280 -1.0095  0.6064
  488MPD2    H1 7313   3.316   2.634  16.129 -0.2085  0.3921  0.3309
  488MPD2    H2 7314   3.536   2.834  15.820 -0.1551 -2.0888 -0.4302
  488MPD2    H3 7315   3.424   2.632  15.909  0.2693 -0.0137 -0.9416
  488MPD2     N 7316   3.341   2.843  16.300 -0.7543  0.0123 -0.4073
  488MPD2    H5 7317   3.391   2.916  16.350  0.1251 -0.5449 -0.4770
  488MPD2    N1 7318   3.535   3.075  15.932 -0.1178  0.0193 -0.3260
  488MPD2    H7 7319   3.527   3.152  15.997  1.7789 -0.2909  0.2723
  489TMC3    C1 7320   3.279   2.773  16.510 -0.2129 -0.0247 -0.1159
  489TMC3    C2 7321   3.369   2.866  16.555 -0.1976 -0.3325 -0.4880
  489TMC3    C3 7322   3.333   2.942  16.663 -0.5787 -0.3403 -0.0384
  489TMC3    C4 7323   3.159   2.758  16.574  1.0052 -0.0178 -0.3400
  489TMC3    C5 7324   3.133   2.824  16.688 -0.9622  0.3512  0.2829
  489TMC3    C6 7325   3.220   2.925  16.734 -0.2007 -0.3326 -0.1041
  489TMC3     C 7326   3.280   2.740  16.369  0.2868 -0.0375 -0.2354
  489TMC3     O 7327   3.207   2.653  16.326  0.8093  0.1035 -0.5424
  489TMC3     H 7328   3.469   2.869  16.514 -0.6771  1.3691 -1.5363
  489TMC3    H1 7329   3.088   2.693  16.525  1.3932  0.3199 -1.3557
  489TMC3    H2 7330   3.197   2.973  16.829 -0.4302 -0.0484 -0.3032
  489TMC3    C7 7331   3.006   2.799  16.761  0.4485 -0.2456 -0.1403
  489TMC3    C8 7332   3.396   3.069  16.661  0.2172 -0.7767  0.5009
  489TMC3    O1 7333   2.924   2.730  16.696 -0.0932 -0.2086  0.2320
  489TMC3    O2 7334   3.509   3.080  16.610  0.8789 -0.7620  0.1722
  490MPD2     C 7335   3.597   2.377  17.616 -0.4150 -0.0604  0.5432
  490MPD2    C1 7336   3.695   2.322  17.542  0.0991 -0.4932  0.0688
  490MPD2    C2 7337   3.796   2.404  17.485 -0.4874 -0.3881  0.0921
  490MPD2    C3 7338   3.779   2.543  17.487  0.6490  0.0263  0.5840
  490MPD2    C4 7339   3.671   2.594  17.558  0.2655  0.1029 -0.2528
  490MPD2    C5 7340   3.579   2.509  17.615  0.0871  0.2107  0.1069
  490MPD2     H 7341   3.881   2.363  17.432 -0.9366 -0.7796 -0.3257
  490MPD2    H1 7342   3.651   2.700  17.570 -3.9927 -0.8369  0.9097
  490MPD2    H2 7343   3.530   2.319  17.679 -0.4459  0.1778  0.7304
  490MPD2    H3 7344   3.495   2.553  17.668  1.3799  2.8400 -0.0132
  490MPD2     N 7345   3.860   2.636  17.422  0.3281 -0.4180  0.3245
  490MPD2    H5 7346   3.829   2.732  17.420 -1.4558 -0.9933 -0.3460
  490MPD2    N1 7347   3.717   2.178  17.535  0.4344  0.2740  0.5680
  490MPD2    H7 7348   3.785   2.140  17.470 -1.3845 -0.0157 -1.1202
  491TMC3    C1 7349   3.744   1.960  17.604 -0.2080  0.0804  0.9230
  491TMC3    C2 7350   3.764   1.893  17.722  0.0437  0.3990 -0.0746
  491TMC3    C3 7351   3.729   1.766   0.007 -0.4210 -0.3365 -0.0760
  491TMC3    C4 7352   3.686   1.886  17.501  0.1603  0.3022 -0.4824
  491TMC3    C5 7353   3.647   1.761  17.524 -0.7848  0.3076 -0.4586
  491TMC3    C6 7354   3.666   1.697  17.645  0.5623 -0.5151  0.2535
  491TMC3     C 7355   3.682   2.082  17.626  0.6218  0.2486 -0.6479
  491TMC3     O 7356   3.623   2.101  17.733  0.3148  0.1485  0.1409
  491TMC3     H 7357   3.816   1.953   0.058 -0.2484 -0.3592  0.7629
  491TMC3    H1 7358   3.650   1.942  17.415  0.1313  0.8548 -0.1102
  491TMC3    H2 7359   3.628   1.600  17.675 -1.6555  0.1010 -0.5860
  491TMC3    C7 7360   3.581   1.697  17.410 -0.3118  0.1348  0.1053
  491TMC3    C8 7361   3.653   1.766   0.129  0.6666 -0.1347 -0.5338
  491TMC3    O1 7362   3.543   1.768  17.316  0.0747 -0.3510  0.0653
  491TMC3    O2 7363   3.538   1.720   0.115  0.1722  0.2158  0.0846
  492MPD2     C 7364   4.517   2.601  11.770 -0.4907  0.3288  0.3161
  492MPD2    C1 7365   4.521   2.523  11.653  1.3396  0.1831  0.7678
  492MPD2    C2 7366   4.520   2.383  11.672  0.1381 -0.3644 -0.0857
  492MPD2    C3 7367   4.522   2.324  11.802 -1.0467 -0.0900  0.4759
  492MPD2    C4 7368   4.512   2.409  11.911 -0.4610  0.2849  1.2271
  492MPD2    C5 7369   4.507   2.543  11.897 -1.1010 -0.0616 -0.6393
  492MPD2     H 7370   4.519   2.330  11.578 -2.4887 -2.2408  1.0173
  492MPD2    H1 7371   4.507   2.368  12.012 -0.7795  2.8451  2.2450
  492MPD2    H2 7372   4.523   2.709  11.767  1.7582  0.1767  0.0050
  492MPD2    H3 7373   4.483   2.599  11.987 -2.3457 -2.0796  0.2847
  492MPD2     N 7374   4.520   2.182  11.824  0.2265 -0.0841  0.2908
  492MPD2    H5 7375   4.507   2.153  11.920 -0.9869  0.0573  0.1739
  492MPD2    N1 7376   4.536   2.601  11.531  0.0928 -0.1573  0.0199
  492MPD2    H7 7377   4.563   2.699  11.539 -0.0588  0.0227 -1.6879
  493TMC3    C1 7378   4.559   2.646  11.300 -0.7983  1.1808 -0.0354
  493TMC3    C2 7379   4.575   2.775  11.342  0.0211  0.6495  0.1146
  493TMC3    C3 7380   4.606   2.870  11.246 -0.2684  0.1598  0.4166
  493TMC3    C4 7381   4.560   2.610  11.170  1.0048 -0.1671 -0.3092
  493TMC3    C5 7382   4.585   2.707  11.082  0.1657 -0.4593  0.1241
  493TMC3    C6 7383   4.613   2.838  11.113 -0.3824  0.0982 -0.3473
  493TMC3     C 7384   4.545   2.547  11.405  0.6440  0.0403 -0.3047
  493TMC3     O 7385   4.513   2.436  11.368 -0.6848  0.0957  0.5927
  493TMC3     H 7386   4.574   2.812  11.444 -1.2125  0.4238  0.1860
  493TMC3    H1 7387   4.543   2.507  11.139 -1.1003  0.7936 -2.4125
  493TMC3    H2 7388   4.622   2.917  11.040 -0.0862 -0.5097 -0.9666
  493TMC3    C7 7389   4.600   2.690  10.934  0.9014 -0.3867  0.4942
  493TMC3    C8 7390   4.632   3.001  11.296  0.0269  0.0225  0.2218
  493TMC3    O1 7391   4.651   2.783  10.877 -1.1986 -0.2792  0.0938
  493TMC3    O2 7392   4.589   3.024  11.410  0.4805  0.0220 -0.7805
  494TMC3    C1 7393   0.133   4.507   0.143  0.3268  0.4254 -0.3422
  494TMC3    C2 7394   0.088   4.378   0.162  0.5393  0.1731  0.6514
  494TMC3    C3 7395   0.094   4.294   0.058 -0.4215 -0.5048  0.3433
  494TMC3    C4 7396   0.184   4.547   0.024 -0.1470  0.0486  0.2965
  494TMC3    C5 7397   0.189   4.461  17.657 -0.2693 -0.2751 -0.0692
  494TMC3    C6 7398   0.133   4.339  17.670 -0.1535  0.4381  0.2755
  494TMC3     C 7399   0.128   4.584   0.269 -0.4847 -0.8639 -0.2258
  494TMC3     O 7400   0.107   4.522   0.376  0.5521 -0.6590 -0.1775
  494TMC3     H 7401   0.063   4.342   0.261 -2.7858  1.6909  0.3288
  494TMC3    H1 7402   0.224   4.647   0.015 -3.9682  1.6981  1.6375
  494TMC3    H2 7403   0.134   4.267  17.589  1.9150  1.2382 -0.4004
  494TMC3    C7 7404   0.231   4.502  17.528  0.7871 -0.6297 -0.0221
  494TMC3    C8 7405   0.096   4.152   0.077 -0.0468 -0.0107 -0.1464
  494TMC3    O1 7406   0.279   4.420  17.455 -0.0697 -0.2111 -0.0789
  494TMC3    O2 7407   0.139   4.128   0.186 -0.9998  0.7508  0.2401
  495TMC3    C1 7408   4.130   1.414  14.580 -0.4905 -0.1380  0.0822
  495TMC3    C2 7409   4.054   1.487  14.486  0.0481  0.1250  0.9543
  495TMC3    C3 7410   3.951   1.568  14.533 -0.1842 -0.2998  0.4031
  495TMC3    C4 7411   4.119   1.434  14.716  0.1799  0.1020 -0.3832
  495TMC3    C5 7412   4.018   1.522  14.752 -0.0319 -0.2076  0.1014
  495TMC3    C6 7413   3.942   1.595  14.668  0.3057  0.4135  0.1005
  495TMC3     C 7414   4.105   1.276  14.543  0.1446 -0.6470  0.5510
  495TMC3     O 7415   4.031   1.219  14.622  0.3238  0.2051  0.7304
  495TMC3     H 7416   4.081   1.482  14.381 -0.7639 -0.2145  0.7658
  495TMC3    H1 7417   4.182   1.373  14.781  0.1331  0.6567  0.1739
  495TMC3    H2 7418   3.866   1.666  14.699  0.4309  0.6455 -0.1230
  495TMC3    C7 7419   3.974   1.504  14.886  0.4813  0.4453 -0.1730
  495TMC3    C8 7420   3.819   1.532  14.484  0.0229 -0.2420  0.4245
  495TMC3    O1 7421   4.067   1.507  14.964  0.5548 -0.5940 -0.0247
  495TMC3    O2 7422   3.727   1.572  14.550  0.2910 -0.6872 -0.5829
  496MPD2     C 7423   1.207   2.016  15.624 -0.2401  0.4045  0.1524
  496MPD2    C1 7424   1.240   1.896  15.676  0.8058  0.0076  0.5131
  496MPD2    C2 7425   1.262   1.885  15.814  0.4150  0.2585  1.0101
  496MPD2    C3 7426   1.264   2.003  15.893  0.1026 -0.6144 -0.9100
  496MPD2    C4 7427   1.235   2.123  15.839  0.2447  0.4595  0.1932
  496MPD2    C5 7428   1.209   2.129  15.703 -0.3915  1.0372  0.6103
  496MPD2     H 7429   1.286   1.788  15.855 -0.8892  0.1116  1.4390
  496MPD2    H1 7430   1.231   2.210  15.903 -1.1185  0.5217  0.0143
  496MPD2    H2 7431   1.214   2.028  15.516 -0.3695 -0.8549 -0.0054
  496MPD2    H3 7432   1.193   2.229  15.663 -0.0199  0.3437 -1.2564
  496MPD2     N 7433   1.266   1.998  16.035 -0.1211 -0.4625 -0.1748
  496MPD2    H5 7434   1.279   2.088  16.081 -0.2441 -0.3498 -0.3620
  496MPD2    N1 7435   1.250   1.778  15.594 -0.3235 -0.3717 -1.0685
  496MPD2    H7 7436   1.279   1.691  15.637 -0.9997  0.7226  1.6703
  497TMC3    C1 7437   1.250   1.911  16.258  0.2330 -0.9266  1.0123
  497TMC3    C2 7438   1.261   2.034  16.307 -0.2568  0.1290  1.0497
  497TMC3    C3 7439   1.200   2.070  16.425  0.1508 -0.0425 -0.1732
  497TMC3    C4 7440   1.174   1.822  16.330 -0.3161  0.8639 -0.7102
  497TMC3    C5 7441   1.102   1.860  16.443 -1.2397  0.4761 -0.6416
  497TMC3    C6 7442   1.106   1.993  16.483 -0.0975 -0.0955  0.2128
  497TMC3     C 7443   1.259   1.886  16.112  0.7048 -0.9430 -0.0008
  497TMC3     O 7444   1.250   1.768  16.081  0.0217 -0.5799 -0.0416
  497TMC3     H 7445   1.337   2.102  16.271  0.0109 -2.3285 -2.9816
  497TMC3    H1 7446   1.157   1.724  16.286 -0.0831 -0.1401  1.4551
  497TMC3    H2 7447   1.075   2.030  16.580  0.2121  1.0555 -0.1234
  497TMC3    C7 7448   1.085   1.758  16.545 -0.9651  0.1848  0.5318
  497TMC3    C8 7449   1.275   2.141  16.526  0.2256  0.8419 -0.2951
  497TMC3    O1 7450   1.020   1.784  16.645 -0.3897  0.1047 -0.1341
  497TMC3    O2 7451   1.215   2.212  16.606  0.2775 -0.0463  0.4793
  498MPD2     C 7452   1.248   2.334  10.184  0.1138 -0.5961 -0.1121
  498MPD2    C1 7453   1.356   2.328  10.099  0.3578 -0.1375 -0.2124
  498MPD2    C2 7454   1.396   2.208  10.050 -0.6522  0.5716 -0.6826
  498MPD2    C3 7455   1.330   2.087  10.077  0.9073 -0.4340 -0.0296
  498MPD2    C4 7456   1.220   2.097  10.153 -0.1125 -0.3093  0.4082
  498MPD2    C5 7457   1.188   2.210  10.210  0.0050 -0.0341  1.3694
  498MPD2     H 7458   1.482   2.212   9.983 -1.0191 -0.8468 -1.2351
  498MPD2    H1 7459   1.162   2.011  10.185 -0.6888  0.5775  1.7132
  498MPD2    H2 7460   1.208   2.427  10.222  1.6879  0.6163 -1.4517
  498MPD2    H3 7461   1.115   2.191  10.287  0.0118 -0.4956  1.2604
  498MPD2     N 7462   1.369   1.960  10.012 -0.3115 -0.5276 -0.7695
  498MPD2    H5 7463   1.455   1.950   9.961  1.0614 -2.3135  1.8862
  498MPD2    N1 7464   1.415   2.444  10.044  0.1812 -0.4564  0.2788
  498MPD2    H7 7465   1.468   2.429   9.959 -1.8811 -0.4477 -1.0087
  499TMC3    C1 7466   1.460   2.665  10.000 -0.4533 -0.1799  0.8947
  499TMC3    C2 7467   1.490   2.640   9.870 -0.0976  0.5925 -0.3961
  499TMC3    C3 7468   1.582   2.709   9.801 -0.6850 -0.3246  0.3229
  499TMC3    C4 7469   1.509   2.770  10.068  0.1233  0.1451  0.0267
  499TMC3    C5 7470   1.606   2.840   9.991 -0.3346 -0.2676 -0.2534
  499TMC3    C6 7471   1.635   2.822   9.856  0.0247  0.0118 -0.3410
  499TMC3     C 7472   1.382   2.572  10.080  0.1068  0.0537  0.1761
  499TMC3     O 7473   1.318   2.618  10.170 -0.4265 -0.6329 -0.2168
  499TMC3     H 7474   1.430   2.560   9.827 -0.3190  0.4306  0.2081
  499TMC3    H1 7475   1.512   2.775  10.176 -0.2088  0.8935  0.0028
  499TMC3    H2 7476   1.700   2.888   9.800 -0.4041  0.7996  0.0816
  499TMC3    C7 7477   1.658   2.967  10.043  0.2167 -1.1671 -0.3333
  499TMC3    C8 7478   1.593   2.693   9.658 -0.3185  0.3062  0.0469
  499TMC3    O1 7479   1.761   3.014   9.992 -0.2662 -0.7843  0.4123
  499TMC3    O2 7480   1.617   2.795   9.597 -0.4890 -0.4118 -0.4998
  500MPD2     C 7481   3.623   3.424  10.062  0.7602 -0.5538  0.3679
  500MPD2    C1 7482   3.545   3.472  10.162 -0.7732 -0.4118  0.4151
  500MPD2    C2 7483   3.415   3.434  10.176  0.4188 -0.1350  0.1345
  500MPD2    C3 7484   3.360   3.335  10.098  0.2014 -0.6956 -0.6416
  500MPD2    C4 7485   3.441   3.279  10.000 -0.3787  0.2220 -0.3685
  500MPD2    C5 7486   3.566   3.327   9.981  0.7086  0.9675 -0.3668
  500MPD2     H 7487   3.359   3.487  10.252 -0.1278  2.3146 -1.9930
  500MPD2    H1 7488   3.405   3.212   9.923  0.9511 -2.8790  1.6673
  500MPD2    H2 7489   3.731   3.436  10.061  0.8079 -1.2639 -1.2309
  500MPD2    H3 7490   3.636   3.291   9.906  0.8591  1.2743 -0.3738
  500MPD2     N 7491   3.221   3.299  10.104 -0.1768  0.2668  0.6616
  500MPD2    H5 7492   3.181   3.238  10.034  2.5988 -1.3309  0.4472
  500MPD2    N1 7493   3.614   3.540  10.270 -0.1014  0.3129  0.6121
  500MPD2    H7 7494   3.561   3.557  10.355  1.4102 -0.8723  1.7767
  501TMC3    C1 7495   3.779   3.667  10.385 -0.1682 -0.2355 -0.3009
  501TMC3    C2 7496   3.832   3.793  10.382  0.2736  0.1127 -0.9985
  501TMC3    C3 7497   3.820   3.863  10.498 -0.8487 -0.5211  0.1722
  501TMC3    C4 7498   3.735   3.599  10.497  0.3269  0.3459 -0.5050
  501TMC3    C5 7499   3.731   3.674  10.614  0.1721 -0.1453  0.0075
  501TMC3    C6 7500   3.766   3.808  10.611  0.0983  0.3828 -0.1495
  501TMC3     C 7501   3.740   3.602  10.262  0.2674  0.4851 -0.7680
  501TMC3     O 7502   3.793   3.637  10.159  0.0272 -0.3678  0.4644
  501TMC3     H 7503   3.887   3.837  10.300 -0.5768  1.5059 -0.8395
  501TMC3    H1 7504   3.704   3.496  10.494  0.3082  0.2946  1.3186
  501TMC3    H2 7505   3.758   3.873  10.697 -1.2167  1.9262 -1.4123
  501TMC3    C7 7506   3.789   3.603  10.726 -0.4225  0.4088  0.1256
  501TMC3    C8 7507   3.902   3.982  10.514 -0.2882  0.0711  0.2481
  501TMC3    O1 7508   3.800   3.480  10.707 -0.0721 -0.8414 -0.4280
  501TMC3    O2 7509   3.907   4.012  10.633  0.2583 -0.3572 -0.5526
  502TMC3    C1 7510   3.141   2.155  15.039  0.2775  0.5073 -0.3255
  502TMC3    C2 7511   3.141   2.273  14.973 -0.3323 -0.0117  0.3646
  502TMC3    C3 7512   3.024   2.330  14.925 -0.2074  0.0959  0.5625
  502TMC3    C4 7513   3.021   2.108  15.090 -0.1907 -0.4826  0.0595
  502TMC3    C5 7514   2.906   2.166  15.058 -0.6469 -0.1830 -0.5437
  502TMC3    C6 7515   2.902   2.274  14.972  0.1438  0.0649 -0.5593
  502TMC3     C 7516   3.262   2.135  15.122 -0.0230 -0.0718  0.3903
  502TMC3     O 7517   3.375   2.149  15.073 -0.1417  0.1762  0.2113
  502TMC3     H 7518   3.229   2.334  14.960 -0.1891 -0.4841 -0.9225
  502TMC3    H1 7519   3.019   2.022  15.156 -0.8217 -0.6241 -0.1498
  502TMC3    H2 7520   2.806   2.317  14.947 -0.3003 -0.2005  0.6918
  502TMC3    C7 7521   2.793   2.113  15.134  0.2387  0.0304  0.2201
  502TMC3    C8 7522   3.031   2.471  14.875 -0.2199 -0.3062 -0.6954
  502TMC3    O1 7523   2.795   1.996  15.165 -0.0616 -0.2749  0.1839
  502TMC3    O2 7524   3.127   2.489  14.801 -0.3113  0.1055  0.2842
  503MPD2     C 7525   0.611   3.260  16.771 -0.2682 -0.7502 -0.2497
  503MPD2    C1 7526   0.581   3.279  16.905  0.3050 -0.1260 -0.1394
  503MPD2    C2 7527   0.613   3.173  16.994  0.8391  0.3821  0.1005
  503MPD2    C3 7528   0.650   3.044  16.951 -0.4608 -0.0509  0.2654
  503MPD2    C4 7529   0.657   3.026  16.814 -0.7259 -0.1441  0.6225
  503MPD2    C5 7530   0.637   3.134  16.730 -0.9561  0.3122  0.1292
  503MPD2     H 7531   0.610   3.192  17.100 -1.3944  0.0218  0.1031
  503MPD2    H1 7532   0.675   2.927  16.774  3.3221  1.0047 -0.4142
  503MPD2    H2 7533   0.605   3.340  16.698 -0.3466  0.7007  1.3320
  503MPD2    H3 7534   0.647   3.124  16.623 -1.9866 -0.0899  0.0710
  503MPD2     N 7535   0.677   2.944  17.047 -0.9014 -0.0189  0.2239
  503MPD2    H5 7536   0.662   2.971  17.143  1.0491  0.5211  0.3847
  503MPD2    N1 7537   0.526   3.397  16.959 -0.3739 -0.1839 -0.2296
  503MPD2    H7 7538   0.498   3.401  17.057 -0.3848  1.5176 -0.3014
  504TMC3    C1 7539   0.792   2.758  17.149  0.1718 -0.0914  0.0465
  504TMC3    C2 7540   0.722   2.791  17.263  0.0662 -0.2163  0.0088
  504TMC3    C3 7541   0.777   2.727  17.377  0.8633 -0.2079  0.6300
  504TMC3    C4 7542   0.908   2.692  17.143 -0.3933 -0.1477  0.1242
  504TMC3    C5 7543   0.965   2.655  17.255 -0.0730  0.3720 -0.8030
  504TMC3    C6 7544   0.900   2.661  17.373  0.0003  0.2354  0.3926
  504TMC3     C 7545   0.751   2.828  17.023 -0.1587 -0.1929 -0.2387
  504TMC3     O 7546   0.803   2.802  16.918  0.0957 -0.3271 -0.0811
  504TMC3     H 7547   0.621   2.826  17.251  0.5549  1.3883  0.5599
  504TMC3    H1 7548   0.971   2.717  17.058  0.5346  1.7254  1.3756
  504TMC3    H2 7549   0.941   2.623  17.466  3.8478  3.8473  0.1776
  504TMC3    C7 7550   1.110   2.654  17.258 -0.3403  0.6572  0.3023
  504TMC3    C8 7551   0.715   2.759  17.503  0.5506  0.7274 -0.0308
  504TMC3    O1 7552   1.159   2.690  17.365  0.3533 -1.3753 -0.1676
  504TMC3    O2 7553   0.636   2.852  17.497  0.1562  0.0239 -0.4597
  505MPD2     C 7554   1.620   0.907  10.769 -0.2949 -0.7354 -0.8045
  505MPD2    C1 7555   1.678   0.862  10.658  0.7482  0.3400 -0.2255
  505MPD2    C2 7556   1.783   0.930  10.603 -0.9480  0.1967 -0.6204
  505MPD2    C3 7557   1.836   1.045  10.655 -0.6314 -0.6094  0.1468
  505MPD2    C4 7558   1.774   1.095  10.773  0.5783 -0.0204 -0.2234
  505MPD2    C5 7559   1.666   1.025  10.831 -0.8361  0.6174  0.2531
  505MPD2     H 7560   1.820   0.893  10.508  1.5295  0.2510  0.3079
  505MPD2    H1 7561   1.812   1.183  10.824  0.1086 -0.6892  1.2862
  505MPD2    H2 7562   1.528   0.862  10.802  1.9491 -2.6208  2.8758
  505MPD2    H3 7563   1.618   1.063  10.921 -2.0172  0.4622 -0.3057
  505MPD2     N 7564   1.942   1.114  10.592  0.3559 -0.5009 -0.5142
  505MPD2    H5 7565   1.960   1.207  10.628 -1.3281 -0.4436  0.2000
  505MPD2    N1 7566   1.621   0.747  10.594 -0.2702  0.3249  0.0511
  505MPD2    H7 7567   1.536   0.711  10.636 -1.1209 -1.0006 -2.7773
  506TMC3    C1 7568   1.586   0.599  10.419  0.1819  0.3888 -0.8304
  506TMC3    C2 7569   1.465   0.667  10.409 -0.2918 -0.4164 -0.0641
  506TMC3    C3 7570   1.416   0.668  10.284  0.0521  0.0976 -0.1988
  506TMC3    C4 7571   1.649   0.532  10.321 -0.3040  0.2519 -0.2043
  506TMC3    C5 7572   1.589   0.545  10.199  0.4774  0.0597  0.3020
  506TMC3    C6 7573   1.475   0.622  10.180  0.1102 -0.2629  0.1288
  506TMC3     C 7574   1.680   0.672  10.498  0.5509  0.2764 -0.1326
  506TMC3     O 7575   1.795   0.673  10.447 -0.1439 -0.3419 -0.7289
  506TMC3     H 7576   1.401   0.710  10.486 -0.2725 -0.5503  0.0283
  506TMC3    H1 7577   1.740   0.476  10.342  0.0456  0.7396 -0.4167
  506TMC3    H2 7578   1.432   0.626  10.080  0.3741  0.1023  0.0290
  506TMC3    C7 7579   1.687   0.559  10.098  1.1232 -0.0563  0.2051
  506TMC3    C8 7580   1.301   0.760  10.259  0.3954  0.0632 -0.6045
  506TMC3    O1 7581   1.682   0.504   9.987  0.2634 -0.4941 -0.0613
  506TMC3    O2 7582   1.191   0.739  10.311 -0.3774 -0.3711  0.1929
  507TMC3    C1 7583   1.267   2.467  14.675 -0.3332  0.6679  0.3172
  507TMC3    C2 7584   1.332   2.375  14.604  0.6308 -0.5588  0.0800
  507TMC3    C3 7585   1.454   2.334  14.659 -0.1002  0.0657  0.2649
  507TMC3    C4 7586   1.301   2.505  14.803  0.2657 -0.2979  0.4277
  507TMC3    C5 7587   1.405   2.454  14.866 -1.0670 -0.4648 -0.0668
  507TMC3    C6 7588   1.488   2.376  14.790 -0.1063 -0.6287  0.2272
  507TMC3     C 7589   1.136   2.509  14.617 -0.2194 -0.4276 -0.4420
  507TMC3     O 7590   1.089   2.442  14.522 -0.3242 -0.5020 -0.4944
  507TMC3     H 7591   1.295   2.339  14.509  0.1001 -3.3407  1.3429
  507TMC3    H1 7592   1.237   2.577  14.853 -1.2930 -0.1234 -1.7878
  507TMC3    H2 7593   1.573   2.322  14.830  0.7360  0.6386  0.1738
  507TMC3    C7 7594   1.475   2.556  14.940  0.0182 -0.3413  0.2772
  507TMC3    C8 7595   1.561   2.368  14.570  0.1975 -0.0900  0.4555
  507TMC3    O1 7596   1.419   2.622  15.026 -0.5535  0.0901  0.3546
  507TMC3    O2 7597   1.667   2.390  14.627 -0.0559  0.9595 -0.3066
  508MPD2     C 7598   2.617   4.714  16.056  0.2228  0.3591 -0.9036
  508MPD2    C1 7599   2.607   0.052  16.170  0.0388 -0.2371 -0.0867
  508MPD2    C2 7600   2.562   0.181  16.168 -0.5329 -0.6766 -0.9753
  508MPD2    C3 7601   2.526   0.247  16.051 -0.9551 -0.6766 -0.1015
  508MPD2    C4 7602   2.525   0.174  15.931  0.0453  0.1379 -0.1577
  508MPD2    C5 7603   2.579   0.043  15.937 -1.2035  0.5619 -0.1032
  508MPD2     H 7604   2.544   0.240  16.257  1.5811  1.1103 -1.7505
  508MPD2    H1 7605   2.485   0.208  15.836 -2.1674 -0.1443  0.6835
  508MPD2    H2 7606   2.665   4.616  16.057 -2.8537 -1.1215  1.0175
  508MPD2    H3 7607   2.589   4.729  15.840  1.6722  0.5760  0.2121
  508MPD2     N 7608   2.499   0.389  16.056  0.0150  0.1724 -0.1858
  508MPD2    H5 7609   2.523   0.433  16.144  0.2641  2.3059 -1.3306
  508MPD2    N1 7610   2.648   4.724  16.287 -0.9929  0.2930  0.0420
  508MPD2    H7 7611   2.715   4.648  16.277 -1.2782 -0.0527  0.7395
  509TMC3    C1 7612   2.414   0.804  15.881  0.0699 -0.1449 -0.3421
  509TMC3    C2 7613   2.526   0.862  15.940  0.8826  0.1959 -0.0200
  509TMC3    C3 7614   2.603   0.774  16.015 -0.2520  0.5280  0.6845
  509TMC3    C4 7615   2.374   0.674  15.904  0.5126 -0.2574 -0.1533
  509TMC3    C5 7616   2.456   0.601  15.984 -0.2616  0.2912 -0.0462
  509TMC3    C6 7617   2.570   0.643  16.037  0.3489  0.3263  0.5231
  509TMC3     C 7618   2.312   0.891  15.808  0.5730  0.0928  0.7423
  509TMC3     O 7619   2.197   0.852  15.816 -0.3601 -0.1429 -0.4665
  509TMC3     H 7620   2.538   0.970  15.938  0.0022  0.2218 -4.1359
  509TMC3    H1 7621   2.278   0.636  15.872 -0.6280 -0.2973  3.2726
  509TMC3    H2 7622   2.639   0.571  16.079 -0.2925 -0.1584  0.7388
  509TMC3    C7 7623   2.440   0.462  15.956 -0.3438 -0.1670 -0.2356
  509TMC3    C8 7624   2.718   0.822  16.094 -0.3418 -0.6135 -0.3303
  509TMC3    O1 7625   2.371   0.424  15.860 -0.1628  0.3263  0.6995
  509TMC3    O2 7626   2.760   0.746  16.181  0.3079  0.2964  0.4364
  510MPD2     C 7627   0.458   1.901  14.366  0.8978 -0.3944 -0.1774
  510MPD2    C1 7628   0.520   1.811  14.451 -0.0186 -0.0512  0.0255
  510MPD2    C2 7629   0.659   1.789  14.449  0.4591  0.1879  0.7050
  510MPD2    C3 7630   0.734   1.846  14.346  0.2615 -0.4264 -0.1582
  510MPD2    C4 7631   0.673   1.929  14.257 -0.1008  0.4351 -0.4968
  510MPD2    C5 7632   0.540   1.965  14.274  0.2365 -0.2570 -0.1392
  510MPD2     H 7633   0.703   1.703  14.499  0.4722 -0.2071  0.0181
  510MPD2    H1 7634   0.737   1.972  14.181 -0.7259 -2.4198 -2.6085
  510MPD2    H2 7635   0.357   1.937  14.374  0.3601 -2.2421  1.3842
  510MPD2    H3 7636   0.510   2.045  14.208 -1.9690 -1.0354 -0.1051
  510MPD2     N 7637   0.877   1.827  14.349 -0.1644 -0.2529 -0.4116
  510MPD2    H5 7638   0.911   1.773  14.427  0.2999 -0.7338 -0.9450
  510MPD2    N1 7639   0.429   1.737  14.529 -0.2296 -0.1018 -0.0578
  510MPD2    H7 7640   0.330   1.761  14.525  0.2530  1.6324 -2.1431
  511TMC3    C1 7641   0.348   1.579  14.670 -0.1518 -0.1097 -0.7016
  511TMC3    C2 7642   0.256   1.659  14.743 -0.2176 -0.3337 -0.2786
  511TMC3    C3 7643   0.161   1.591  14.813 -0.4016 -0.3890  0.6131
  511TMC3    C4 7644   0.330   1.443  14.650  0.8274  0.4540  0.5703
  511TMC3    C5 7645   0.221   1.389  14.710 -0.4456 -0.3167  0.1269
  511TMC3    C6 7646   0.140   1.459  14.794  0.3339 -0.7591 -0.3954
  511TMC3     C 7647   0.465   1.628  14.605  0.2447  0.0896 -0.0919
  511TMC3     O 7648   0.558   1.549  14.591  0.3876  0.2556  0.1822
  511TMC3     H 7649   0.286   1.762  14.763 -2.2516 -0.6082  4.1644
  511TMC3    H1 7650   0.400   1.384  14.591  1.3357  2.0972 -0.4605
  511TMC3    H2 7651   0.058   1.408  14.843  0.2500  0.1337  0.3851
  511TMC3    C7 7652   0.167   1.262  14.651 -0.2526  0.0095  0.3275
  511TMC3    C8 7653   0.118   1.653  14.937 -0.2138  0.5238  0.5946
  511TMC3    O1 7654   0.215   1.240  14.541  0.1102  0.5614  0.4065
  511TMC3    O2 7655   0.124   1.773  14.955 -0.0814 -0.4588 -0.2218
  512TMC3    C1 7656   3.946   1.282  13.170 -0.0557 -0.1587 -1.1620
  512TMC3    C2 7657   4.030   1.250  13.278 -0.1570  0.3741  0.2267
  512TMC3    C3 7658   4.070   1.123  13.292  0.2182 -1.0866 -0.5177
  512TMC3    C4 7659   3.905   1.193  13.074 -1.0702 -0.0389 -0.5434
  512TMC3    C5 7660   3.943   1.063  13.100 -0.3507  0.4159  0.7771
  512TMC3    C6 7661   4.013   1.024  13.214 -0.2408 -0.3437 -0.3281
  512TMC3     C 7662   3.945   1.421  13.142 -0.5230  0.2122 -0.3664
  512TMC3     O 7663   4.014   1.489  13.217  0.0645 -0.1908  0.1233
  512TMC3     H 7664   4.075   1.323  13.343 -0.8287  1.3743 -0.4392
  512TMC3    H1 7665   3.847   1.218  12.986 -1.7704 -0.6643 -0.2624
  512TMC3    H2 7666   4.064   0.928  13.212 -1.0727 -0.7496 -1.7065
  512TMC3    C7 7667   4.019   1.016  12.985 -1.0929 -0.8358 -0.1682
  512TMC3    C8 7668   4.194   1.097  13.360 -0.0998  0.0397 -0.6675
  512TMC3    O1 7669   4.049   1.107  12.909  0.0495 -0.0833 -0.6463
  512TMC3    O2 7670   4.215   0.976  13.373  0.2116  0.2967 -0.0330
  513MPD2     C 7671   1.162   1.135  13.143 -0.4768  1.1827  0.3437
  513MPD2    C1 7672   1.249   1.034  13.106  0.1470 -0.1081 -0.2988
  513MPD2    C2 7673   1.306   0.960  13.208 -0.0959  0.1248  0.3452
  513MPD2    C3 7674   1.286   1.000  13.335 -0.7817  0.2592  0.5061
  513MPD2    C4 7675   1.194   1.095  13.376 -0.0229 -0.0072  0.8549
  513MPD2    C5 7676   1.128   1.156  13.275  0.1611 -0.2416 -0.5143
  513MPD2     H 7677   1.368   0.874  13.188 -2.2555 -1.7339  1.7432
  513MPD2    H1 7678   1.171   1.107  13.482 -0.0403  3.0175  0.5146
  513MPD2    H2 7679   1.109   1.186  13.063  0.1211  1.6489  0.2401
  513MPD2    H3 7680   1.059   1.235  13.303  0.3514 -0.2233 -0.0866
  513MPD2     N 7681   1.358   0.923  13.429 -0.4949 -0.4803  0.4762
  513MPD2    H5 7682   1.394   0.835  13.391  1.9223  0.2118  1.1368
  513MPD2    N1 7683   1.273   0.996  12.971  1.2880  0.0438  0.2991
  513MPD2    H7 7684   1.342   0.922  12.957  0.5580 -0.4478 -0.7284
  514TMC3    C1 7685   1.296   0.986  12.747  0.8648  0.6918 -0.0245
  514TMC3    C2 7686   1.369   1.081  12.677 -0.6085 -0.3942 -0.3169
  514TMC3    C3 7687   1.499   1.057  12.660  0.3546  0.1973 -0.1517
  514TMC3    C4 7688   1.352   0.867  12.786  0.1264 -0.4907  0.5508
  514TMC3    C5 7689   1.481   0.840  12.754  0.4295  0.2654  0.1330
  514TMC3    C6 7690   1.559   0.939  12.702  0.5904 -0.3798  0.4720
  514TMC3     C 7691   1.226   1.051  12.851  0.7004  0.0306 -0.0014
  514TMC3     O 7692   1.175   1.158  12.832  0.2482  0.5747  0.1035
  514TMC3     H 7693   1.348   1.187  12.669  1.8568  0.1910  1.0112
  514TMC3    H1 7694   1.279   0.791  12.812  0.0302 -0.6744 -0.2405
  514TMC3    H2 7695   1.666   0.920  12.701  0.8816  1.2975  1.5507
  514TMC3    C7 7696   1.535   0.776  12.878 -0.1526 -0.0865  0.5196
  514TMC3    C8 7697   1.560   1.132  12.554 -0.1899  0.0706  0.5238
  514TMC3    O1 7698   1.452   0.767  12.972  0.2525 -0.0794  0.3472
  514TMC3    O2 7699   1.497   1.232  12.511  0.0833 -0.4591 -0.2164
  515MPD2     C 7700   4.244   2.856  14.812  0.2074  0.0614 -0.4864
  515MPD2    C1 7701   4.295   2.870  14.686 -0.0410  0.1246  0.2091
  515MPD2    C2 7702   4.347   2.995  14.649 -0.1735  0.2056  0.0431
  515MPD2    C3 7703   4.386   3.090  14.742 -0.4740 -0.1068 -0.0979
  515MPD2    C4 7704   4.342   3.073  14.871  0.4440 -0.6150  0.0685
  515MPD2    C5 7705   4.268   2.961  14.901  0.1028  0.0291 -0.2034
  515MPD2     H 7706   4.366   3.014  14.544  1.1283 -3.2934 -0.3728
  515MPD2    H1 7707   4.375   3.132  14.956 -1.2512 -2.0060  1.6932
  515MPD2    H2 7708   4.193   2.768  14.850 -2.0702  0.8763 -1.6700
  515MPD2    H3 7709   4.231   2.953  15.003 -0.2824 -0.4474 -0.3788
  515MPD2     N 7710   4.469   3.203  14.721 -0.0005  0.2157  0.1049
  515MPD2    H5 7711   4.495   3.262  14.800  0.0550  0.5448 -0.1603
  515MPD2    N1 7712   4.296   2.766  14.590 -0.5147  0.5181  0.3883
  515MPD2    H7 7713   4.321   2.784  14.493 -3.5907  0.3814 -0.4405
  516TMC3    C1 7714   4.226   2.560  14.502  0.0379 -0.2010  0.0146
  516TMC3    C2 7715   4.187   2.625  14.389 -0.2244  0.2486 -0.2721
  516TMC3    C3 7716   4.121   2.549  14.296 -0.3915  0.4427  0.0009
  516TMC3    C4 7717   4.193   2.430  14.527  0.7706  0.9404  0.5808
  516TMC3    C5 7718   4.119   2.364  14.433  0.3780  0.1840  0.7690
  516TMC3    C6 7719   4.088   2.418  14.314 -0.5836 -0.6012  0.0008
  516TMC3     C 7720   4.270   2.641  14.619  0.5833 -0.8079 -0.6299
  516TMC3     O 7721   4.256   2.583  14.727  0.1228  0.2429  0.5136
  516TMC3     H 7722   4.180   2.733  14.378 -1.9762  0.1011 -0.4626
  516TMC3    H1 7723   4.234   2.384  14.616 -1.0425  0.3347  1.1062
  516TMC3    H2 7724   4.033   2.370  14.234 -0.6686  0.2745 -0.4721
  516TMC3    C7 7725   4.074   2.240  14.490 -0.2954 -0.3248  0.0582
  516TMC3    C8 7726   4.043   2.618  14.199 -0.1370  0.2529  0.7256
  516TMC3    O1 7727   4.156   2.188  14.559 -0.7571 -0.0785 -0.2302
  516TMC3    O2 7728   3.939   2.560  14.163  0.5112  0.2068 -0.1428
  517MPD2     C 7729   3.516   0.117  17.361  0.0890 -0.1803 -0.2486
  517MPD2    C1 7730   3.619   0.062  17.440 -1.2580 -0.1111  0.7348
  517MPD2    C2 7731   3.686   0.143  17.526  0.5887 -0.6558  0.4952
  517MPD2    C3 7732   3.659   0.278  17.533  0.2259  0.1812 -0.1564
  517MPD2    C4 7733   3.555   0.334  17.468 -0.1054 -0.6063 -0.4871
  517MPD2    C5 7734   3.490   0.251  17.379 -0.5247 -0.3324  0.1069
  517MPD2     H 7735   3.767   0.090  17.576 -0.0059  0.2762  2.4610
  517MPD2    H1 7736   3.525   0.437  17.485  3.0839  0.1521  0.4630
  517MPD2    H2 7737   3.458   0.063  17.288  1.0721 -1.0119 -0.4067
  517MPD2    H3 7738   3.404   0.290  17.326  0.4595 -1.2979 -2.2409
  517MPD2     N 7739   3.734   0.370  17.620 -0.0798  1.0095  0.1393
  517MPD2    H5 7740   3.700   0.466  17.616 -2.1494  0.2580 -0.3311
  517MPD2    N1 7741   3.663   4.664  17.424 -0.4758 -0.0348  0.1197
  517MPD2    H7 7742   3.754   4.635  17.458 -0.7897 -1.8256 -0.5784
  518TMC3    C1 7743   3.647   4.439  17.373 -0.9486 -0.1734 -0.3563
  518TMC3    C2 7744   3.565   4.330  17.371 -0.1730 -0.3288  0.2982
  518TMC3    C3 7745   3.625   4.213  17.405 -0.4923 -0.6415  0.2742
  518TMC3    C4 7746   3.785   4.439  17.404  0.4087 -0.1368 -0.1892
  518TMC3    C5 7747   3.838   4.315  17.420  0.1143 -0.2892 -0.1680
  518TMC3    C6 7748   3.757   4.204  17.431  0.5215  0.8079 -0.4550
  518TMC3     C 7749   3.580   4.564  17.381  0.8826 -0.4232 -0.1567
  518TMC3     O 7750   3.459   4.566  17.359 -0.1706  0.2660  0.5465
  518TMC3     H 7751   3.460   4.332  17.344  0.1302 -1.6650 -0.9933
  518TMC3    H1 7752   3.851   4.510  17.356  1.2399 -1.4355 -0.9980
  518TMC3    H2 7753   3.795   4.104  17.450 -1.6770 -0.2166 -1.4952
  518TMC3    C7 7754   3.965   4.287  17.345 -0.1169 -0.2433  0.4085
  518TMC3    C8 7755   3.580   4.098  17.332 -0.4619 -0.2267 -0.0844
  518TMC3    O1 7756   4.044   4.378  17.337 -0.4415 -0.3020  0.1251
  518TMC3    O2 7757   3.672   4.043  17.273 -0.0865  0.0419 -0.0822
  519MPD2     C 7758   0.652   2.396  14.375  0.3471  0.2815  0.4027
  519MPD2    C1 7759   0.622   2.420  14.242  0.3696 -0.0585 -0.3874
  519MPD2    C2 7760   0.687   2.346  14.141 -0.1239  0.1923 -1.0035
  519MPD2    C3 7761   0.777   2.249  14.172 -0.1464 -0.4202 -0.3499
  519MPD2    C4 7762   0.800   2.219  14.303  0.2002 -0.1151  0.0104
  519MPD2    C5 7763   0.736   2.294  14.400  0.5284  0.2990  0.0461
  519MPD2     H 7764   0.667   2.365  14.036 -0.4504 -1.9701 -1.3306
  519MPD2    H1 7765   0.868   2.141  14.332 -0.6652  0.0176  2.4332
  519MPD2    H2 7766   0.609   2.447  14.460 -2.1292  0.6852 -1.0840
  519MPD2    H3 7767   0.747   2.271  14.506 -1.2088 -1.1809 -0.0971
  519MPD2     N 7768   0.851   2.178  14.075 -0.1474  0.2342  0.6308
  519MPD2    H5 7769   0.904   2.099  14.111 -0.0131 -0.5068 -1.2035
  519MPD2    N1 7770   0.537   2.525  14.205  0.3389  0.4240 -0.6612
  519MPD2    H7 7771   0.531   2.545  14.106 -1.2970  0.5384 -0.5399
  520TMC3    C1 7772   0.946   2.146  13.859  0.2720 -0.1343  0.0956
  520TMC3    C2 7773   0.947   2.165  13.727 -0.7885  0.2978 -0.0382
  520TMC3    C3 7774   1.057   2.141  13.652 -0.3494  0.3029  0.6585
  520TMC3    C4 7775   1.065   2.128  13.928 -0.0826 -0.3642  0.2387
  520TMC3    C5 7776   1.179   2.111  13.844 -0.7079 -0.2924 -1.1555
  520TMC3    C6 7777   1.175   2.104  13.711 -0.0775  0.2341 -0.0361
  520TMC3     C 7778   0.836   2.197  13.937  0.4892  0.0534  0.1968
  520TMC3     O 7779   0.741   2.248  13.876  0.4116 -0.0788  0.0308
  520TMC3     H 7780   0.848   2.154  13.686 -0.1941 -1.4689 -0.9899
  520TMC3    H1 7781   1.080   2.103  14.032  0.1679  0.5652  0.4256
  520TMC3    H2 7782   1.264   2.092  13.651  0.1181 -1.5669  0.6257
  520TMC3    C7 7783   1.307   2.121  13.916  0.7948  0.3820  0.0627
  520TMC3    C8 7784   1.041   2.149  13.510 -0.7537 -0.1540  0.1275
  520TMC3    O1 7785   1.310   2.111  14.039 -0.1063  0.4050  0.2205
  520TMC3    O2 7786   1.130   2.097  13.444 -0.0692  0.0078 -0.1398
  521MPD2     C 7787   1.551   1.131  17.204 -0.1725 -0.4571  0.0146
  521MPD2    C1 7788   1.541   1.004  17.248 -0.2575 -0.6225 -0.1907
  521MPD2    C2 7789   1.648   0.934  17.283  0.3413  0.1110  0.2363
  521MPD2    C3 7790   1.774   0.986  17.275 -0.6153 -0.6825 -0.0407
  521MPD2    C4 7791   1.793   1.119  17.241  0.0335  0.7695  0.7479
  521MPD2    C5 7792   1.676   1.187  17.210 -0.1932 -0.4688 -0.2740
  521MPD2     H 7793   1.640   0.831  17.315 -1.0078  0.6589  1.6603
  521MPD2    H1 7794   1.891   1.164  17.232 -0.2510  1.1491 -0.4519
  521MPD2    H2 7795   1.464   1.185  17.171  1.2892  2.1633  0.4599
  521MPD2    H3 7796   1.680   1.289  17.174  0.3547 -0.6865 -0.8387
  521MPD2     N 7797   1.877   0.890  17.306  0.4271 -0.5125 -0.2731
  521MPD2    H5 7798   1.844   0.794  17.311 -0.4461 -0.2898 -1.8711
  521MPD2    N1 7799   1.408   0.948  17.249 -0.0992  0.0018 -0.3864
  521MPD2    H7 7800   1.333   0.984  17.191 -1.2904  0.2397  1.2982
  522TMC3    C1 7801   2.069   0.790  17.223  0.6537  0.2841 -0.4090
  522TMC3    C2 7802   2.197   0.742  17.250  0.4627 -0.4271  0.3352
  522TMC3    C3 7803   2.233   0.618  17.196  0.4848 -0.6171  0.7283
  522TMC3    C4 7804   1.981   0.727  17.144 -0.6784 -0.4628  0.2012
  522TMC3    C5 7805   2.025   0.605  17.089  0.4819  0.0362  0.1562
  522TMC3    C6 7806   2.146   0.543  17.128 -1.4339  0.1234 -0.3578
  522TMC3     C 7807   2.013   0.908  17.289 -0.0965 -0.5840  0.1991
  522TMC3     O 7808   2.077   1.013  17.303  0.4610  0.1795  0.1491
  522TMC3     H 7809   2.279   0.788  17.303 -0.6553  1.5110  0.4104
  522TMC3    H1 7810   1.879   0.754  17.122 -0.3750  0.3020 -0.2469
  522TMC3    H2 7811   2.167   0.443  17.091 -1.2954 -0.7110  2.0105
  522TMC3    C7 7812   1.946   0.522  16.990  0.3414 -0.0169 -0.1229
  522TMC3    C8 7813   2.365   0.567  17.232 -0.4253  0.5807  0.2612
  522TMC3    O1 7814   1.991   0.408  16.976  0.0642 -0.0336  0.4562
  522TMC3    O2 7815   2.418   0.618  17.331  0.0719 -0.9458 -0.2840
  523MPD2     C 7816   4.267   0.712  10.443 -0.2659 -0.6031  0.9951
  523MPD2    C1 7817   4.182   0.622  10.390 -0.1123  0.4494  0.4311
  523MPD2    C2 7818   4.101   0.661  10.286 -0.3936 -0.0107  0.2380
  523MPD2    C3 7819   4.114   0.785  10.225 -0.3139  0.2754 -0.0749
  523MPD2    C4 7820   4.198   0.871  10.283 -0.0951  0.1141 -0.5499
  523MPD2    C5 7821   4.269   0.840  10.395 -0.1237  0.1490 -0.8150
  523MPD2     H 7822   4.028   0.598  10.235  3.8235 -1.6071 -3.8344
  523MPD2    H1 7823   4.216   0.972  10.248  1.8087  0.1126  0.4101
  523MPD2    H2 7824   4.324   0.689  10.532  1.9649  0.2007 -0.2329
  523MPD2    H3 7825   4.340   0.913  10.432  0.2751  0.1848 -1.6627
  523MPD2     N 7826   4.041   0.819  10.108 -0.1273  0.1522 -0.2778
  523MPD2    H5 7827   4.053   0.914  10.073 -1.3364 -0.1261 -1.4234
  523MPD2    N1 7828   4.188   0.494  10.440  0.1294  0.2676 -0.3735
  523MPD2    H7 7829   4.259   0.475  10.511 -0.6926 -2.2502 -0.2549
  524TMC3    C1 7830   3.889   0.809   9.929 -0.0883 -0.1225  0.6126
  524TMC3    C2 7831   3.851   0.749   9.810 -0.7183 -0.5497  0.2102
  524TMC3    C3 7832   3.790   0.826   9.715 -0.7758  0.2734 -0.5492
  524TMC3    C4 7833   3.874   0.946   9.948  0.7413 -0.0170 -0.7583
  524TMC3    C5 7834   3.805   1.017   9.846 -0.4051 -0.3335  0.7888
  524TMC3    C6 7835   3.762   0.955   9.730 -0.0199  0.6441 -0.1906
  524TMC3     C 7836   3.961   0.742  10.028 -0.2693  0.0392 -0.3257
  524TMC3     O 7837   3.956   0.617  10.023  0.3256  0.3352 -0.4497
  524TMC3     H 7838   3.858   0.642   9.793  1.2718 -0.6695  1.8181
  524TMC3    H1 7839   3.906   1.008  10.031 -0.2990 -1.4776  0.7359
  524TMC3    H2 7840   3.709   1.020   9.662 -2.3450 -0.6068  0.4497
  524TMC3    C7 7841   3.824   1.159   9.845 -0.0969  0.0590 -0.4999
  524TMC3    C8 7842   3.792   0.777   9.580 -0.5318 -0.1285 -0.4615
  524TMC3    O1 7843   3.728   1.232   9.861 -0.0474  0.0325  0.2223
  524TMC3    O2 7844   3.730   0.840   9.494 -0.3395 -0.4154 -0.1150
  525MPD2     C 7845   2.230   1.984  15.121  0.1295 -0.4468  0.3479
  525MPD2    C1 7846   2.355   1.926  15.091 -0.5164  0.0396 -0.8557
  525MPD2    C2 7847   2.431   1.978  14.988 -0.1727 -0.1600 -0.2180
  525MPD2    C3 7848   2.381   2.082  14.909  0.0594  0.0758 -0.7209
  525MPD2    C4 7849   2.259   2.139  14.942  0.5200 -0.4562 -0.6160
  525MPD2    C5 7850   2.186   2.090  15.045  1.2547  0.0564 -0.6894
  525MPD2     H 7851   2.532   1.939  14.978 -1.1090 -2.6853  0.2215
  525MPD2    H1 7852   2.210   2.214  14.880  0.1049  0.0960  0.3693
  525MPD2    H2 7853   2.159   1.956  15.199  0.2633  0.8508  0.9386
  525MPD2    H3 7854   2.081   2.116  15.053  1.2676  0.1333 -0.7680
  525MPD2     N 7855   2.447   2.129  14.796 -0.8780  0.5846  0.3433
  525MPD2    H5 7856   2.400   2.192  14.731  1.7737  0.0986 -2.0422
  525MPD2    N1 7857   2.422   1.836  15.174 -0.4991  0.5618 -0.2024
  525MPD2    H7 7858   2.514   1.809  15.142 -0.0127 -0.7739  2.3290
  526TMC3    C1 7859   2.458   1.697  15.365  0.0567 -0.2265  0.0158
  526TMC3    C2 7860   2.407   1.679  15.491  0.5869 -0.5800 -0.6504
  526TMC3    C3 7861   2.490   1.647  15.598  0.4591 -0.1315  0.7308
  526TMC3    C4 7862   2.585   1.692  15.334  0.0675 -0.1320 -0.3094
  526TMC3    C5 7863   2.669   1.655  15.435 -0.0982  0.4491  0.0773
  526TMC3    C6 7864   2.624   1.643  15.565  0.1006  0.2190  0.2436
  526TMC3     C 7865   2.364   1.775  15.285  1.1236  0.5370  1.1829
  526TMC3     O 7866   2.250   1.789  15.328  0.6158  0.1799 -0.5027
  526TMC3     H 7867   2.302   1.665  15.513  0.4160  1.9088  0.1537
  526TMC3    H1 7868   2.615   1.681  15.231  1.5979  0.7320  0.0348
  526TMC3    H2 7869   2.695   1.619  15.643  0.7751 -0.4388 -0.5741
  526TMC3    C7 7870   2.807   1.618  15.409 -0.5976  0.7078  0.0447
  526TMC3    C8 7871   2.465   1.724  15.716  0.0755 -0.5941  0.0567
  526TMC3    O1 7872   2.866   1.566  15.503 -0.3432 -0.0756 -0.1976
  526TMC3    O2 7873   2.563   1.791  15.753  0.2901 -0.2818  0.1268
  527MPD2     C 7874   4.653   0.420   1.390 -0.7602 -0.1481 -0.4769
  527MPD2    C1 7875   4.655   0.377   1.259  0.7428  0.3898  0.4606
  527MPD2    C2 7876   0.039   0.367   1.192  0.1408  0.3250 -0.2360
  527MPD2    C3 7877   0.155   0.413   1.248 -0.2207  0.1497 -0.1789
  527MPD2    C4 7878   0.146   0.475   1.369  0.2473  0.0958  0.2282
  527MPD2    C5 7879   0.032   0.461   1.448 -0.5929  0.1175 -0.8963
  527MPD2     H 7880   0.032   0.332   1.089 -1.7029  1.4727 -0.4963
  527MPD2    H1 7881   0.235   0.520   1.412 -0.4746  0.2945  1.5044
  527MPD2    H2 7882   4.561   0.415   1.447 -0.0017 -0.0639  0.7371
  527MPD2    H3 7883   0.043   0.499   1.549  0.5610  0.4060 -1.1335
  527MPD2     N 7884   0.274   0.419   1.167  0.8748 -0.1488  0.4930
  527MPD2    H5 7885   0.262   0.370   1.079 -2.8436  0.5899  0.6216
  527MPD2    N1 7886   4.537   0.354   1.182  0.1290  0.7568 -0.0874
  527MPD2    H7 7887   4.549   0.326   1.085 -0.6024 -0.3944  0.1517
  528TMC3    C1 7888   4.316   0.401   1.110  0.1433 -0.2701 -0.4403
  528TMC3    C2 7889   4.361   0.435   0.990  0.7284  0.6917  0.2956
  528TMC3    C3 7890   4.264   0.490   0.909  0.0473  0.4912  0.5405
  528TMC3    C4 7891   4.187   0.399   1.147 -0.2373  0.3224  0.2125
  528TMC3    C5 7892   4.087   0.439   1.056  0.2963  0.3750  0.9332
  528TMC3    C6 7893   4.124   0.478   0.934  0.3154 -0.3189 -0.4872
  528TMC3     C 7894   4.410   0.388   1.217  0.0178  0.3770  0.1643
  528TMC3     O 7895   4.372   0.406   1.332 -0.5381 -0.1325 -0.2693
  528TMC3     H 7896   4.465   0.436   0.961  0.5576 -0.6055 -0.3637
  528TMC3    H1 7897   4.157   0.382   1.250  0.5308  0.2412  0.4179
  528TMC3    H2 7898   4.050   0.500   0.858 -0.3619 -0.1482  0.2226
  528TMC3    C7 7899   3.970   0.512   1.097 -0.2174  0.2003 -0.1802
  528TMC3    C8 7900   4.305   0.552   0.792  0.0458 -0.2512  0.1136
  528TMC3    O1 7901   3.931   0.595   1.010  0.2107  0.2351  0.2385
  528TMC3    O2 7902   4.416   0.515   0.750 -0.4436  0.0937 -0.7206
  529MPD2     C 7903   1.780   3.798   1.060  0.3443 -0.3051 -0.1353
  529MPD2    C1 7904   1.765   3.755   0.931 -0.1077  0.5900  0.0110
  529MPD2    C2 7905   1.696   3.836   0.842  0.0593 -0.4957  0.3295
  529MPD2    C3 7906   1.626   3.947   0.887  0.5977 -0.2871 -0.3101
  529MPD2    C4 7907   1.633   3.981   1.018 -1.1429 -0.5468 -0.3352
  529MPD2    C5 7908   1.702   3.903   1.103 -0.3631 -1.0712 -0.6299
  529MPD2     H 7909   1.698   3.819   0.735  1.1286  1.7973 -0.0187
  529MPD2    H1 7910   1.592   4.071   1.063  0.8188  0.0096  0.3580
  529MPD2    H2 7911   1.845   3.754   1.136 -0.7203  0.2963  1.1302
  529MPD2    H3 7912   1.712   3.935   1.206  1.3596 -2.4399 -0.3727
  529MPD2     N 7913   1.570   4.043   0.801  0.2870  0.3367 -0.2373
  529MPD2    H5 7914   1.581   4.142   0.819  1.7829  0.6943 -3.1565
  529MPD2    N1 7915   1.838   3.649   0.876  0.6284  0.2168 -0.7270
  529MPD2    H7 7916   1.844   3.636   0.775  0.6798  0.0850 -0.7064
  530TMC3    C1 7917   2.013   3.513   0.849 -0.5163  0.0497  0.3505
  530TMC3    C2 7918   2.097   3.604   0.801 -0.0111  0.7699  0.3462
  530TMC3    C3 7919   2.221   3.560   0.762  0.3012 -0.2683  0.1437
  530TMC3    C4 7920   2.042   3.379   0.857 -0.0797 -0.6052 -0.5408
  530TMC3    C5 7921   2.161   3.346   0.813  0.1788 -0.2902  0.0855
  530TMC3    C6 7922   2.252   3.428   0.751  0.1316 -0.4813 -0.0556
  530TMC3     C 7923   1.916   3.559   0.945  0.2896 -0.2916  0.4642
  530TMC3     O 7924   1.939   3.539   1.062 -0.3859  0.0755 -0.3115
  530TMC3     H 7925   2.071   3.709   0.807  2.1668  1.3114  0.3900
  530TMC3    H1 7926   1.983   3.311   0.916 -1.2429  0.2114 -0.7737
  530TMC3    H2 7927   2.347   3.385   0.720 -0.7006 -1.0679 -1.8401
  530TMC3    C7 7928   2.189   3.206   0.777 -0.5517 -0.4255 -0.0897
  530TMC3    C8 7929   2.328   3.658   0.759 -0.5219  0.4461  0.5386
  530TMC3    O1 7930   2.271   3.193   0.689  0.9213 -0.8187 -0.1558
  530TMC3    O2 7931   2.305   3.776   0.741 -0.1375 -0.1752 -0.0304
  531MPD2     C 7932   1.897   0.574  13.175 -0.4875 -0.0218  0.5573
  531MPD2    C1 7933   1.773   0.626  13.204 -0.6158  0.1225  0.0277
  531MPD2    C2 7934   1.701   0.687  13.101  0.6320  0.1143 -0.4983
  531MPD2    C3 7935   1.751   0.697  12.972 -0.4166 -0.0725  1.0738
  531MPD2    C4 7936   1.878   0.648  12.950  0.2754  0.7879 -0.0112
  531MPD2    C5 7937   1.950   0.591  13.053 -0.5329 -0.0296 -0.0709
  531MPD2     H 7938   1.603   0.723  13.127  1.4020 -0.2693  2.8881
  531MPD2    H1 7939   1.917   0.636  12.850 -1.9299 -1.0522 -0.6548
  531MPD2    H2 7940   1.960   0.528  13.251  0.5839 -1.0725 -0.9518
  531MPD2    H3 7941   2.049   0.553  13.032  0.2769  2.4522 -0.7682
  531MPD2     N 7942   1.671   0.751  12.867  0.8220  0.3196  0.3788
  531MPD2    H5 7943   1.714   0.775  12.778  0.1927 -1.4038 -0.3960
  531MPD2    N1 7944   1.724   0.610  13.336 -0.4311  0.2797  0.1468
  531MPD2    H7 7945   1.797   0.596  13.405  1.1034  2.9308 -0.9599
  532TMC3    C1 7946   1.570   0.659  13.517 -0.1501 -0.3860 -0.2343
  532TMC3    C2 7947   1.449   0.721  13.540 -0.7416  0.4612 -0.8420
  532TMC3    C3 7948   1.446   0.830  13.622  0.2983 -0.3312 -0.1682
  532TMC3    C4 7949   1.688   0.690  13.591 -0.0753 -0.3475 -0.1996
  532TMC3    C5 7950   1.675   0.793  13.684  0.3734  0.1732  0.4407
  532TMC3    C6 7951   1.560   0.868  13.690  0.0080 -0.1758 -0.0792
  532TMC3     C 7952   1.595   0.633  13.376  0.1404  0.6227  0.3497
  532TMC3     O 7953   1.496   0.661  13.310 -0.3164  0.2148  0.4024
  532TMC3     H 7954   1.356   0.698  13.490 -1.3825  0.8092  0.2086
  532TMC3    H1 7955   1.786   0.651  13.568  0.5365  1.4941 -0.6920
  532TMC3    H2 7956   1.564   0.964  13.740 -1.9099 -0.5719  0.8298
  532TMC3    C7 7957   1.789   0.817  13.768 -0.5410  0.2643 -0.2364
  532TMC3    C8 7958   1.372   0.941  13.565 -0.8586 -0.2149 -0.0488
  532TMC3    O1 7959   1.796   0.938  13.792 -0.0470  0.5616  0.2348
  532TMC3    O2 7960   1.353   1.042  13.630 -0.4279  0.1269 -0.1157
  533TMC3    C1 7961   2.605   2.166  14.626  0.2106 -0.2805 -0.5763
  533TMC3    C2 7962   2.710   2.248  14.610  0.4066 -0.7402 -0.7708
  533TMC3    C3 7963   2.706   2.357  14.525  0.3693 -0.3412  0.4421
  533TMC3    C4 7964   2.490   2.200  14.556 -0.5298 -0.2364  0.1447
  533TMC3    C5 7965   2.486   2.318  14.487  1.6631 -0.2523  0.1467
  533TMC3    C6 7966   2.595   2.398  14.463  0.4124  0.5865  1.1055
  533TMC3     C 7967   2.577   2.111  14.758 -0.6788  0.5032  0.1139
  533TMC3     O 7968   2.672   2.064  14.817 -0.0448  0.3031 -0.1859
  533TMC3     H 7969   2.794   2.237  14.677 -0.9562 -2.4473  0.6569
  533TMC3    H1 7970   2.405   2.133  14.566  0.8379 -1.8740  0.9884
  533TMC3    H2 7971   2.595   2.492  14.409 -1.3908  0.2314  0.4707
  533TMC3    C7 7972   2.386   2.395  14.561  0.0836  0.0407 -0.1213
  533TMC3    C8 7973   2.825   2.438  14.499  0.1185 -0.4624  0.6575
  533TMC3    O1 7974   2.318   2.337  14.638  0.1799 -0.7419 -0.3731
  533TMC3    O2 7975   2.801   2.543  14.446  0.5894 -0.3528 -0.3165
  534MPD2     C 7976   0.604   3.435   0.953  0.4048  0.4854 -0.6066
  534MPD2    C1 7977   0.510   3.497   1.041 -0.2771 -0.1745 -0.4753
  534MPD2    C2 7978   0.374   3.464   1.031  0.0481 -0.2871 -0.4568
  534MPD2    C3 7979   0.332   3.376   0.928  0.1727  0.0870 -0.4955
  534MPD2    C4 7980   0.429   3.313   0.851  0.1512  0.0382  0.0279
  534MPD2    C5 7981   0.561   3.336   0.865 -0.3274 -0.1957 -0.8503
  534MPD2     H 7982   0.311   3.515   1.104 -1.8497 -0.7722 -1.7446
  534MPD2    H1 7983   0.401   3.236   0.779  0.7982 -0.1764  0.0091
  534MPD2    H2 7984   0.710   3.443   0.973 -0.1687 -0.8600  3.1028
  534MPD2    H3 7985   0.627   3.281   0.798 -1.2821 -1.6541 -0.5986
  534MPD2     N 7986   0.195   3.356   0.887 -0.0149  0.2071  0.0605
  534MPD2    H5 7987   0.174   3.292   0.811 -0.9066  1.8436 -1.0912
  534MPD2    N1 7988   0.554   3.584   1.139  0.3991 -0.3975 -0.0458
  534MPD2    H7 7989   0.487   3.654   1.166 -0.0388 -1.3660  1.3762
  535TMC3    C1 7990   4.693   3.419   0.871 -0.1732  0.1997 -0.2801
  535TMC3    C2 7991   4.587   3.438   0.948  0.2673  0.1835  0.3391
  535TMC3    C3 7992   4.463   3.418   0.882  0.4756 -0.7644 -0.2045
  535TMC3    C4 7993   4.691   3.401   0.741  0.8571  0.3703 -0.4094
  535TMC3    C5 7994   4.574   3.401   0.672  0.9253 -0.3307 -1.1879
  535TMC3    C6 7995   4.455   3.406   0.750 -1.3893  0.5139  0.0932
  535TMC3     C 7996   0.089   3.431   0.938  0.0666 -0.5568 -0.0721
  535TMC3     O 7997   0.086   3.482   1.052 -0.4336  0.0130  0.2851
  535TMC3     H 7998   4.597   3.440   1.056 -0.2472  2.4100  0.3451
  535TMC3    H1 7999   0.049   3.412   0.686  2.0413 -2.4313  1.0264
  535TMC3    H2 8000   4.363   3.410   0.693 -1.3250  2.6524  0.1568
  535TMC3    C7 8001   4.552   3.475   0.551  0.4511 -0.3375  0.1104
  535TMC3    C8 8002   4.345   3.471   0.936  0.2965 -0.3365  0.0048
  535TMC3    O1 8003   4.443   3.480   0.496 -0.1569  0.1017 -0.0744
  535TMC3    O2 8004   4.240   3.460   0.877  0.3912 -0.4282  0.3875
  536MPD2     C 8005   3.557   1.964  16.459  0.2399 -0.1549 -0.1577
  536MPD2    C1 8006   3.416   1.955  16.453 -0.1853  0.6310 -0.3390
  536MPD2    C2 8007   3.350   2.052  16.378  0.3301  0.0428  1.0544
  536MPD2    C3 8008   3.413   2.160  16.321 -0.6639  0.3194  0.2016
  536MPD2    C4 8009   3.552   2.171  16.338  0.2261  0.6547 -0.6600
  536MPD2    C5 8010   3.620   2.069  16.396  0.5834 -0.7541  0.0611
  536MPD2     H 8011   3.244   2.045  16.361  0.1319  0.8063  1.9828
  536MPD2    H1 8012   3.609   2.258  16.307  0.8748 -0.3014 -2.1609
  536MPD2    H2 8013   3.616   1.890  16.512  0.3064 -0.2014 -0.2979
  536MPD2    H3 8014   3.726   2.077  16.413  0.4352 -0.7194  0.9960
  536MPD2     N 8015   3.359   2.261  16.239 -0.1020  0.3531  0.0131
  536MPD2    H5 8016   3.420   2.333  16.203  0.8277 -1.3044 -1.6998
  536MPD2    N1 8017   3.352   1.847  16.523  0.1883  0.1259  0.1544
  536MPD2    H7 8018   3.413   1.793  16.583 -0.8189  1.8678  2.7293
  537TMC3    C1 8019   3.182   1.727  16.634 -0.4762 -0.5887 -0.1143
  537TMC3    C2 8020   3.262   1.711  16.749 -0.2871  0.6163 -0.2753
  537TMC3    C3 8021   3.216   1.625  16.850  0.6600 -0.8447 -0.3356
  537TMC3    C4 8022   3.062   1.660  16.625 -0.3415 -0.6486 -0.1990
  537TMC3    C5 8023   3.025   1.580  16.732 -0.3147  0.0165 -0.2119
  537TMC3    C6 8024   3.098   1.559  16.846 -0.0529  0.4106 -0.2243
  537TMC3     C 8025   3.212   1.825  16.530  0.0266 -0.1344  0.1662
  537TMC3     O 8026   3.125   1.878  16.467  0.4922 -0.1408  0.2996
  537TMC3     H 8027   3.353   1.768  16.761  0.9343 -1.3840 -0.0035
  537TMC3    H1 8028   3.011   1.671  16.530 -0.2697  0.6949 -0.0710
  537TMC3    H2 8029   3.065   1.489  16.922  1.1974 -0.1557 -0.2227
  537TMC3    C7 8030   2.891   1.538  16.736 -0.5795  0.7111  0.1113
  537TMC3    C8 8031   3.293   1.616  16.974 -1.0910  0.6206  0.6953
  537TMC3    O1 8032   2.823   1.593  16.650  0.0722  0.3635 -0.3720
  537TMC3    O2 8033   3.370   1.710  17.012 -0.3062  0.0820 -0.0120
  538TMC3    C1 8034   0.039   0.329  11.183 -0.3512  0.4869 -0.2035
  538TMC3    C2 8035   0.174   0.341  11.199  0.5913 -0.5006 -0.0639
  538TMC3    C3 8036   0.234   0.422  11.096  0.7054  0.4273  0.7985
  538TMC3    C4 8037   4.704   0.386  11.081 -0.0879 -0.3616 -0.5226
  538TMC3    C5 8038   0.036   0.479  10.998 -0.1760  0.2014 -1.2845
  538TMC3    C6 8039   0.172   0.501  11.004  0.1911 -0.1014 -0.3557
  538TMC3     C 8040   4.704   0.223  11.255  0.3701  0.4592 -0.1725
  538TMC3     O 8041   4.582   0.224  11.239  0.3253 -0.1109  0.1734
  538TMC3     H 8042   0.237   0.286  11.268  0.5511  1.4045  1.4762
  538TMC3    H1 8043   4.599   0.359  11.071  0.7811 -3.6579 -0.6147
  538TMC3    H2 8044   0.225   0.577  10.949 -0.8747  1.5421  0.8565
  538TMC3    C7 8045   4.688   0.544  10.900 -0.2394  0.0569  0.0826
  538TMC3    C8 8046   0.374   0.445  11.117 -0.1912  1.0680  0.1938
  538TMC3    O1 8047   4.565   0.532  10.911 -0.2311 -0.0414  0.5670
  538TMC3    O2 8048   0.426   0.406  11.222  0.0759  0.2414  0.2099
  539MPD2     C 8049   4.551   3.744  11.818 -0.1996 -0.4665 -1.1040
  539MPD2    C1 8050   4.618   3.848  11.767 -0.7185  0.2555 -0.3382
  539MPD2    C2 8051   4.568   3.976  11.779 -0.2826 -0.4979  0.3153
  539MPD2    C3 8052   4.439   4.006  11.817 -0.2170  0.7694  0.3501
  539MPD2    C4 8053   4.363   3.892  11.862  0.0881  0.1457 -0.4701
  539MPD2    C5 8054   4.420   3.765  11.859  0.5954  0.0913 -0.5403
  539MPD2     H 8055   4.642   4.052  11.759 -0.7746  0.2451  1.3645
  539MPD2    H1 8056   4.263   3.900  11.904  0.7847  0.1291  1.2274
  539MPD2    H2 8057   4.589   3.644  11.806 -1.8132 -1.0410 -1.4012
  539MPD2    H3 8058   4.366   3.684  11.907  2.2384 -1.6125 -1.5909
  539MPD2     N 8059   4.386   4.131  11.835  0.0024 -0.3947 -0.1065
  539MPD2    H5 8060   4.287   4.129  11.860 -0.0768 -0.6345 -0.4426
  539MPD2    N1 8061   0.017   3.841  11.720  0.3178 -0.2305  0.9979
  539MPD2    H7 8062   0.059   3.924  11.679 -0.5305 -0.1240  0.3343
  540TMC3    C1 8063   4.367   4.358  11.886  0.2459 -0.7502 -0.0753
  540TMC3    C2 8064   4.393   4.484  11.842  0.2429 -0.4121 -0.3153
  540TMC3    C3 8065   4.295   4.579  11.865  0.1614 -0.3663  0.1565
  540TMC3    C4 8066   4.250   4.318  11.953  0.4400  0.0988  0.2148
  540TMC3    C5 8067   4.160   4.422  11.968  0.7470  0.5070 -0.1702
  540TMC3    C6 8068   4.175   4.546  11.928 -0.1284 -0.2795 -0.0213
  540TMC3     C 8069   4.448   4.252  11.823  0.0954 -0.2758 -0.2821
  540TMC3     O 8070   4.564   4.269  11.798  0.1658 -0.6156  0.6476
  540TMC3     H 8071   4.477   4.511  11.780 -0.3442 -0.9267 -1.3341
  540TMC3    H1 8072   4.246   4.226  12.010  0.5777 -1.9002 -3.0257
  540TMC3    H2 8073   4.099   4.621  11.949 -1.1422 -0.6219 -2.5160
  540TMC3    C7 8074   4.035   4.380  12.028 -0.0883 -0.6399  0.5854
  540TMC3    C8 8075   4.274   4.673  11.768 -0.4948 -0.1785  0.2489
  540TMC3    O1 8076   3.975   4.464  12.097  0.4867 -0.2159  0.3160
  540TMC3    O2 8077   4.276   0.056  11.799  0.2813 -0.4429  0.0228
  541MPD2     C 8078   3.313   1.199  13.148 -0.6473 -0.9355  0.5452
  541MPD2    C1 8079   3.195   1.150  13.091 -0.5336  0.4796  0.1112
  541MPD2    C2 8080   3.154   1.194  12.970  0.6944 -0.2854 -0.1749
  541MPD2    C3 8081   3.228   1.286  12.901 -0.4022  0.0725  0.6004
  541MPD2    C4 8082   3.345   1.341  12.958 -0.5133  0.6227  0.0639
  541MPD2    C5 8083   3.390   1.289  13.073  0.1710 -0.4575  0.2326
  541MPD2     H 8084   3.056   1.157  12.941 -0.1676 -0.3098  2.8391
  541MPD2    H1 8085   3.395   1.423  12.907 -0.9426  0.6022 -0.3888
  541MPD2    H2 8086   3.359   1.158  13.238  0.9729  0.0483  0.1836
  541MPD2    H3 8087   3.484   1.320  13.119 -0.9844  0.8085  1.7537
  541MPD2     N 8088   3.191   1.346  12.774  0.5141 -0.5729 -0.1746
  541MPD2    H5 8089   3.242   1.428  12.743  0.8803  0.2016  2.4680
  541MPD2    N1 8090   3.107   1.059  13.162  0.3641 -0.1699 -0.5158
  541MPD2    H7 8091   3.023   1.030  13.113 -0.5466  1.4429  0.0946
  542TMC3    C1 8092   3.072   1.352  12.568  0.3545  0.9034  0.1894
  542TMC3    C2 8093   3.090   1.269  12.461  0.5188 -0.2275 -0.6593
  542TMC3    C3 8094   3.113   1.331  12.338 -0.0388  0.0429  0.1104
  542TMC3    C4 8095   3.089   1.491  12.567 -0.1370  0.4397 -0.2307
  542TMC3    C5 8096   3.100   1.544  12.441  0.3350 -0.4616 -0.4698
  542TMC3    C6 8097   3.107   1.470  12.327  0.3669 -0.1530  0.2930
  542TMC3     C 8098   3.087   1.290  12.696 -0.2663  0.1238 -0.3813
  542TMC3     O 8099   3.033   1.183  12.713  0.5356  0.0303 -0.3734
  542TMC3     H 8100   3.092   1.163  12.480 -1.6739 -0.2324 -0.5159
  542TMC3    H1 8101   3.086   1.555  12.655  1.9359 -3.0611  2.3450
  542TMC3    H2 8102   3.113   1.509  12.226 -0.5372  2.1709  1.1515
  542TMC3    C7 8103   3.119   1.683  12.425  1.2061 -0.4994 -0.0387
  542TMC3    C8 8104   3.135   1.247  12.229 -0.6605 -0.1688  0.4033
  542TMC3    O1 8105   3.076   1.755  12.516  0.1800 -0.1089  0.0460
  542TMC3    O2 8106   3.103   1.292  12.122  0.2280 -0.0447  0.1096
  543TMC3    C1 8107   1.900   2.863  17.322  0.4309  0.3819 -0.0395
  543TMC3    C2 8108   1.907   2.743  17.390  0.7901  0.2320  0.0861
  543TMC3    C3 8109   1.903   2.752  17.529 -0.5370 -0.3428 -0.6037
  543TMC3    C4 8110   1.892   2.986  17.383  0.0167  0.3947 -0.0558
  543TMC3    C5 8111   1.903   2.984  17.519  0.4563  0.4851 -0.2187
  543TMC3    C6 8112   1.916   2.874  17.593 -0.3968 -0.4719  0.1530
  543TMC3     C 8113   1.919   2.860  17.177 -0.2841 -0.9687 -0.7523
  543TMC3     O 8114   2.003   2.774  17.142 -0.3447 -0.4132  0.3998
  543TMC3     H 8115   1.911   2.651  17.333 -2.6787  0.3816 -0.4338
  543TMC3    H1 8116   1.896   3.076  17.322 -0.2933  2.1254  2.4558
  543TMC3    H2 8117   1.930   2.875  17.700  0.3599  0.9614  0.0371
  543TMC3    C7 8118   1.915   3.107  17.594  0.4714 -0.3190  0.5534
  543TMC3    C8 8119   1.890   2.628  17.602 -0.1928 -1.1217  0.9866
  543TMC3    O1 8120   1.862   3.102  17.705  1.0364  0.0977  0.4101
  543TMC3    O2 8121   1.885   2.531  17.527  0.2851  0.6583 -0.1731
  544MPD2     C 8122   1.931   2.314   0.275  0.0870 -0.2024  0.3952
  544MPD2    C1 8123   1.960   2.294   0.143  0.2183  0.1396 -0.1153
  544MPD2    C2 8124   1.941   2.392   0.050  0.1644 -0.1415  0.1149
  544MPD2    C3 8125   1.898   2.518   0.089  0.1571  0.2728  0.1329
  544MPD2    C4 8126   1.863   2.541   0.220  0.2549 -0.2271  0.8551
  544MPD2    C5 8127   1.880   2.436   0.310  0.7271  0.2593 -0.2284
  544MPD2     H 8128   1.963   2.374  17.682  4.1166  1.9584  0.5735
  544MPD2    H1 8129   1.820   2.632   0.261  0.5744 -0.6642  2.1664
  544MPD2    H2 8130   1.944   2.235   0.348 -1.4299 -0.9861 -0.1829
  544MPD2    H3 8131   1.849   2.442   0.414  0.3499  0.1545 -0.3327
  544MPD2     N 8132   1.885   2.630  17.737 -0.3770  0.3695  0.1837
  544MPD2    H5 8133   1.883   2.722   0.043 -1.0776  1.6881 -2.6190
  544MPD2    N1 8134   2.004   2.162   0.118  0.0884 -0.2834  0.1259
  544MPD2    H7 8135   1.970   2.087   0.176  0.9324 -1.1650 -0.5174
  545TMC3    C1 8136   2.075   1.977   0.004  0.4283 -0.5464 -0.1218
  545TMC3    C2 8137   2.196   1.914  17.711  0.1226  0.0503 -0.0848
  545TMC3    C3 8138   2.194   1.774  17.717  0.1412  0.6574  0.3383
  545TMC3    C4 8139   1.959   1.912   0.030  0.5185 -0.4187 -0.1779
  545TMC3    C5 8140   1.963   1.778   0.035  0.2985  0.7360 -0.8958
  545TMC3    C6 8141   2.074   1.705  17.733  0.0955  0.0302  0.3521
  545TMC3     C 8142   2.069   2.119   0.002 -0.3038 -0.3497 -0.1911
  545TMC3     O 8143   2.119   2.175  17.640 -1.1605  0.6524 -0.2523
  545TMC3     H 8144   2.285   1.972  17.693  0.4408  0.2233  2.0497
  545TMC3    H1 8145   1.864   1.966   0.035 -0.0866 -1.5370  0.3986
  545TMC3    H2 8146   2.067   1.596  17.727 -0.5554  0.1411 -1.0189
  545TMC3    C7 8147   1.836   1.718   0.029 -0.1348  0.2154  0.3897
  545TMC3    C8 8148   2.299   1.700  17.643 -0.8850  0.2805  0.1723
  545TMC3    O1 8149   1.741   1.777  17.716  0.2884  1.0213  0.6047
  545TMC3    O2 8150   2.273   1.593  17.590 -0.1280  0.4080  0.7073
  546MPD2     C 8151   3.137   2.759  17.340  0.7146  0.5775  0.1260
  546MPD2    C1 8152   3.190   2.741  17.211 -0.9078 -0.0600  1.2393
  546MPD2    C2 8153   3.288   2.827  17.153  0.0250 -0.1654  0.5079
  546MPD2    C3 8154   3.314   2.944  17.229 -0.1160 -0.3976 -0.6361
  546MPD2    C4 8155   3.267   2.956  17.358 -0.7155 -0.3982 -0.0169
  546MPD2    C5 8156   3.183   2.863  17.414  0.3333 -0.0873  0.0521
  546MPD2     H 8157   3.324   2.815  17.051  0.0069  2.4911  0.1813
  546MPD2    H1 8158   3.277   3.045  17.418  0.9009  0.4469 -1.5646
  546MPD2    H2 8159   3.064   2.688  17.376  1.8872  0.1025  1.5381
  546MPD2    H3 8160   3.137   2.883  17.510  0.1473  0.6762 -0.1986
  546MPD2     N 8161   3.385   3.052  17.186  0.6281 -0.5814 -0.3014
  546MPD2    H5 8162   3.393   3.134  17.246 -0.0743 -1.4706  1.0003
  546MPD2    N1 8163   3.129   2.625  17.158  0.2330  0.3200  0.3952
  546MPD2    H7 8164   3.061   2.571  17.210  0.1219  0.2958  0.2243
  547TMC3    C1 8165   3.107   2.442  17.024 -0.3728 -0.9455  0.0352
  547TMC3    C2 8166   2.990   2.438  16.954  0.2916  0.9894  0.6625
  547TMC3    C3 8167   2.914   2.324  16.962 -0.8563  0.0049  0.6194
  547TMC3    C4 8168   3.146   2.346  17.111  0.3353  0.3447 -0.3160
  547TMC3    C5 8169   3.053   2.247  17.138  0.3409  0.3272  0.2768
  547TMC3    C6 8170   2.938   2.231  17.065 -0.1030  0.1428 -0.1606
  547TMC3     C 8171   3.156   2.579  17.028  0.2878  0.7036 -0.2495
  547TMC3     O 8172   3.224   2.625  16.940 -0.3294  0.5814  0.4045
  547TMC3     H 8173   2.964   2.523  16.892  0.8973  0.9680  0.3808
  547TMC3    H1 8174   3.230   2.353  17.179 -1.0076  0.3730  1.3509
  547TMC3    H2 8175   2.885   2.138  17.082  1.3954 -0.5394  0.7741
  547TMC3    C7 8176   3.072   2.167  17.256  0.8077 -0.1207 -0.4868
  547TMC3    C8 8177   2.785   2.334  16.900 -0.2988  0.8309  0.4070
  547TMC3    O1 8178   3.187   2.133  17.276  0.5415 -0.1846  0.7108
  547TMC3    O2 8179   2.783   2.398  16.795 -0.0566 -0.1897  0.3209
  548MPD2     C 8180   3.482   3.123  12.714  0.0923 -0.1557 -0.5183
  548MPD2    C1 8181   3.445   2.999  12.761 -0.2710 -0.4663 -0.4160
  548MPD2    C2 8182   3.543   2.900  12.750  0.4238  0.2978 -0.2736
  548MPD2    C3 8183   3.671   2.930  12.716  0.6728  0.0273  0.4058
  548MPD2    C4 8184   3.709   3.063  12.692 -0.1866 -0.6113  0.2698
  548MPD2    C5 8185   3.611   3.161  12.699 -0.2997  0.3981 -0.8661
  548MPD2     H 8186   3.526   2.793  12.758 -4.2691  1.0254 -0.0499
  548MPD2    H1 8187   3.812   3.095  12.679 -0.9227  1.5999 -0.0720
  548MPD2    H2 8188   3.411   3.204  12.726 -0.1189 -0.3308 -0.5683
  548MPD2    H3 8189   3.650   3.262  12.686 -0.0670  0.3440 -0.5762
  548MPD2     N 8190   3.766   2.821  12.714 -0.1176  0.9378  0.8038
  548MPD2    H5 8191   3.733   2.736  12.758  2.3087 -0.7458 -0.6276
  548MPD2    N1 8192   3.309   2.970  12.787 -0.0593  0.0596  0.4066
  548MPD2    H7 8193   3.244   3.048  12.777 -1.0955 -0.6150  1.7696
  549TMC3    C1 8194   3.112   2.834  12.807 -0.1318 -0.0313  0.8712
  549TMC3    C2 8195   3.044   2.929  12.737  0.0560  0.0110 -0.9068
  549TMC3    C3 8196   2.920   2.902  12.683  0.1482  0.1394 -0.5828
  549TMC3    C4 8197   3.065   2.705  12.814 -0.5506  0.0515 -0.0011
  549TMC3    C5 8198   2.951   2.674  12.746 -0.1879 -0.0056 -0.3263
  549TMC3    C6 8199   2.884   2.770  12.680  0.4651 -0.6089  0.2115
  549TMC3     C 8200   3.259   2.849  12.831 -0.0786 -0.1313 -0.4265
  549TMC3     O 8201   3.316   2.742  12.857 -0.8668  0.1454  0.6082
  549TMC3     H 8202   3.058   3.036  12.740  0.4017 -0.0282 -1.1373
  549TMC3    H1 8203   3.113   2.619  12.861 -1.1301 -0.9280 -1.1794
  549TMC3    H2 8204   2.797   2.735  12.626  0.6164  1.2578 -1.2061
  549TMC3    C7 8205   2.890   2.544  12.723  0.3327 -0.0430 -0.1798
  549TMC3    C8 8206   2.841   2.994  12.602 -0.2685  1.0684  0.6126
  549TMC3    O1 8207   2.764   2.543  12.726 -0.2064  0.4572  0.1929
  549TMC3    O2 8208   2.725   2.969  12.585 -0.0556 -0.1630 -0.2675
  550TMC3    C1 8209   2.782   1.140  12.272  0.6309  0.2914 -0.1292
  550TMC3    C2 8210   2.719   1.175  12.384 -0.8587  0.1059  0.2762
  550TMC3    C3 8211   2.610   1.252  12.377 -1.1003 -0.1026 -0.2258
  550TMC3    C4 8212   2.755   1.186  12.146 -0.0503  0.2711 -0.5247
  550TMC3    C5 8213   2.635   1.261  12.136  0.0918  0.0714 -0.0049
  550TMC3    C6 8214   2.571   1.303  12.255  0.0780 -0.4130  0.3974
  550TMC3     C 8215   2.838   1.005  12.279 -0.1087  0.0152  0.3674
  550TMC3     O 8216   2.888   0.969  12.381  0.2576  0.2177 -0.0304
  550TMC3     H 8217   2.740   1.128  12.480 -0.3237  0.7437  0.4654
  550TMC3    H1 8218   2.806   1.147  12.058  2.5896 -0.8106  1.4764
  550TMC3    H2 8219   2.470   1.344  12.251  0.3419 -0.0981 -3.0137
  550TMC3    C7 8220   2.540   1.201  12.048 -0.3662 -0.1204  0.2405
  550TMC3    C8 8221   2.505   1.202  12.457  0.3573 -0.3518  0.1575
  550TMC3    O1 8222   2.460   1.127  12.107  0.0027  0.1561 -0.1256
  550TMC3    O2 8223   2.453   1.271  12.539  0.1806 -0.5908  0.4454
  551TMC3    C1 8224   4.633   3.951  13.155 -0.1488  0.4872  0.6544
  551TMC3    C2 8225   4.710   4.026  13.078  0.4560 -0.1418 -0.1235
  551TMC3    C3 8226   0.100   4.071  13.127  0.6559  0.5626 -0.7523
  551TMC3    C4 8227   4.667   3.908  13.284  0.0247  0.1794  0.4420
  551TMC3    C5 8228   0.051   3.956  13.330 -0.7381 -0.1932  0.4944
  551TMC3    C6 8229   0.132   4.040  13.255  0.3694 -0.9573  0.0181
  551TMC3     C 8230   4.484   3.952  13.129  0.1644 -0.4506 -0.0891
  551TMC3     O 8231   4.402   3.990  13.213  0.1388  0.3093  0.1541
  551TMC3     H 8232   4.666   4.040  12.979  1.4386 -1.3923 -0.7419
  551TMC3    H1 8233   4.594   3.844  13.331  0.9143 -1.6316 -0.6612
  551TMC3    H2 8234   0.228   4.065  13.298  0.0925 -0.1845  0.1896
  551TMC3    C7 8235   0.106   3.894  13.441  0.0391 -0.2891 -0.2844
  551TMC3    C8 8236   0.174   4.155  13.043 -0.1388  0.4720  0.2918
  551TMC3    O1 8237   0.203   3.947  13.494  0.3036  0.4281  0.1470
  551TMC3    O2 8238   0.122   4.197  12.939  0.5918  0.2891  0.4416
  552MPD2     C 8239   1.865   0.699  14.168 -0.6745 -0.7152  0.2231
  552MPD2    C1 8240   1.879   0.583  14.241  0.3584  0.4628 -0.0502
  552MPD2    C2 8241   1.938   0.589  14.363 -0.0172 -0.5454  0.1881
  552MPD2    C3 8242   1.978   0.708  14.423  0.7463  0.3590 -0.1669
  552MPD2    C4 8243   1.955   0.825  14.347 -0.1963 -0.6586 -0.3481
  552MPD2    C5 8244   1.901   0.819  14.219  0.6097 -0.0111  0.3372
  552MPD2     H 8245   1.965   0.492  14.402  1.8644  0.2591  0.8882
  552MPD2    H1 8246   1.974   0.925  14.383  1.4887 -0.7410 -1.0106
  552MPD2    H2 8247   1.823   0.700  14.068 -1.8360 -2.5971  0.6785
  552MPD2    H3 8248   1.884   0.913  14.167 -0.0101 -1.0079 -1.2826
  552MPD2     N 8249   2.027   0.726  14.549  0.1260 -0.1389  0.2753
  552MPD2    H5 8250   2.053   0.820  14.577 -0.5582  0.1141  0.0447
  552MPD2    N1 8251   1.853   0.453  14.183 -0.1872  0.4124  0.0685
  552MPD2    H7 8252   1.874   0.372  14.240 -1.3415 -0.3273 -0.5464
  553TMC3    C1 8253   1.803   0.293  14.005 -0.0625 -0.1108  0.1125
  553TMC3    C2 8254   1.794   0.273  13.869 -0.1254 -0.3382  0.7216
  553TMC3    C3 8255   1.807   0.146  13.827 -0.0479  0.6301  0.4921
  553TMC3    C4 8256   1.826   0.193  14.094  0.2354  0.0121  0.2365
  553TMC3    C5 8257   1.845   0.068  14.046  0.3717  0.0025  0.5544
  553TMC3    C6 8258   1.824   0.038  13.916  0.2417 -0.0419  0.2874
  553TMC3     C 8259   1.806   0.434  14.052 -0.0694  0.4426  0.1576
  553TMC3     O 8260   1.772   0.516  13.967 -0.0633 -0.5712  0.5092
  553TMC3     H 8261   1.757   0.353  13.806  0.3839  0.4132  1.3694
  553TMC3    H1 8262   1.823   0.213  14.200  0.0412 -0.0550  0.2439
  553TMC3    H2 8263   1.838   4.671  13.882 -1.8968  0.1408 -1.1989
  553TMC3    C7 8264   1.948   4.729  14.109  1.1017  0.4105 -0.9343
  553TMC3    C8 8265   1.906   0.142  13.720 -0.3922  0.5787 -0.6795
  553TMC3    O1 8266   1.948   4.604  14.091  0.4342 -0.5741 -0.4012
  553TMC3    O2 8267   1.959   0.248  13.683  0.1185  0.4906 -0.6449
  554TMC3    C1 8268   3.581   0.478  11.584  0.2111  0.1309 -0.3072
  554TMC3    C2 8269   3.491   0.428  11.495  0.4473 -0.0994  0.0309
  554TMC3    C3 8270   3.445   0.527  11.403  0.1578  0.0136 -0.3281
  554TMC3    C4 8271   3.606   0.613  11.604 -0.4903  0.0486 -0.0746
  554TMC3    C5 8272   3.563   0.703  11.512  0.3947  0.6827  0.4223
  554TMC3    C6 8273   3.480   0.660  11.409  0.6450  0.6929 -0.1393
  554TMC3     C 8274   3.669   0.393  11.651 -0.4571  0.1508  0.4624
  554TMC3     O 8275   3.755   0.449  11.724  0.3389  0.1467 -0.1028
  554TMC3     H 8276   3.475   0.322  11.482  1.1222 -0.1072 -0.6885
  554TMC3    H1 8277   3.677   0.642  11.681 -2.8648  1.8878  1.4050
  554TMC3    H2 8278   3.441   0.736  11.343  0.5805  1.5908  0.9304
  554TMC3    C7 8279   3.652   0.815  11.486 -0.5169  0.0776  0.2867
  554TMC3    C8 8280   3.401   0.491  11.266  0.7071 -1.1476 -0.3655
  554TMC3    O1 8281   3.630   0.876  11.383  1.0024 -0.1592  0.0341
  554TMC3    O2 8282   3.395   0.579  11.185 -0.0483  1.0636 -0.3012
  555TMC3    C1 8283   2.637   4.512  15.457 -0.6859 -0.4637 -0.1167
  555TMC3    C2 8284   2.560   4.526  15.568 -0.2776  0.1069 -0.9755
  555TMC3    C3 8285   2.528   4.416  15.639 -0.6416 -0.1440  0.5819
  555TMC3    C4 8286   2.668   4.386  15.412 -0.3305  1.1928 -0.2331
  555TMC3    C5 8287   2.632   4.278  15.479  0.6425  0.1578  0.7608
  555TMC3    C6 8288   2.570   4.292  15.602 -0.0653  0.0830 -0.7104
  555TMC3     C 8289   2.635   4.627  15.366  0.2464  0.0741  0.1218
  555TMC3     O 8290   2.618   0.002  15.415  0.4515  0.0441  0.2254
  555TMC3     H 8291   2.525   4.625  15.596  2.2203  1.1773 -1.6412
  555TMC3    H1 8292   2.713   4.385  15.313 -0.6881 -0.8703 -0.3712
  555TMC3    H2 8293   2.532   4.210  15.663 -1.2091  1.5740  0.5854
  555TMC3    C7 8294   2.665   4.147  15.434 -0.0671  0.0899  0.0102
  555TMC3    C8 8295   2.447   4.432  15.756 -0.3744 -0.8114  0.2586
  555TMC3    O1 8296   2.642   4.055  15.514  0.4517 -0.4243 -0.0369
  555TMC3    O2 8297   2.357   4.517  15.758  0.4397 -0.2807 -0.0648
  556MPD2     C 8298   0.842   1.489  10.559 -0.5260  0.2292 -0.1390
  556MPD2    C1 8299   0.839   1.396  10.665 -0.4573 -0.6078  0.6630
  556MPD2    C2 8300   0.825   1.259  10.633  0.3211 -0.6537  0.3988
  556MPD2    C3 8301   0.794   1.217  10.502  0.1672 -0.6451 -0.4866
  556MPD2    C4 8302   0.792   1.308  10.402  0.0640 -0.3439  0.5339
  556MPD2    C5 8303   0.821   1.440  10.432 -0.2827 -0.1932  0.0553
  556MPD2     H 8304   0.817   1.190  10.716  2.2921 -1.4262 -0.0718
  556MPD2    H1 8305   0.776   1.279  10.299 -1.1062  1.2075  0.2792
  556MPD2    H2 8306   0.858   1.594  10.577  0.4753  0.1227 -0.4024
  556MPD2    H3 8307   0.817   1.519  10.357 -0.8866  0.3321  0.6437
  556MPD2     N 8308   0.757   1.081  10.480 -1.0793 -0.2762  0.3153
  556MPD2    H5 8309   0.762   1.022  10.562 -1.2519  1.0840  1.3153
  556MPD2    N1 8310   0.866   1.437  10.796 -0.2845 -0.3912 -1.0752
  556MPD2    H7 8311   0.848   1.368  10.869  1.3315  0.8911  0.5544
  557TMC3    C1 8312   0.748   0.873  10.361 -0.3416  0.5144 -0.1123
  557TMC3    C2 8313   0.746   0.824  10.235 -0.0580  0.4679 -0.5119
  557TMC3    C3 8314   0.733   0.685  10.232  0.3924  0.0457  0.9859
  557TMC3    C4 8315   0.749   0.796  10.470  0.5675  0.0764 -0.4605
  557TMC3    C5 8316   0.739   0.664  10.462  0.0133  0.4003 -0.2948
  557TMC3    C6 8317   0.721   0.604  10.342 -0.6807  0.3134 -0.5068
  557TMC3     C 8318   0.720   1.017  10.363  0.5342 -0.2320  0.2057
  557TMC3     O 8319   0.670   1.067  10.266 -0.2899  1.0193  0.4278
  557TMC3     H 8320   0.739   0.891  10.150  1.2032 -0.4456 -1.3335
  557TMC3    H1 8321   0.731   0.847  10.564  0.8739 -0.8577  0.0987
  557TMC3    H2 8322   0.695   0.499  10.333  1.1954 -0.1282 -0.7600
  557TMC3    C7 8323   0.697   0.596  10.581 -0.2802 -0.0469  0.1590
  557TMC3    C8 8324   0.710   0.634  10.098 -0.0062 -0.8151 -0.1835
  557TMC3    O1 8325   0.610   0.509  10.571  0.0054  0.7435  0.1939
  557TMC3    O2 8326   0.676   0.711  10.005 -0.4782  0.4623  0.6597
  558TMC3    C1 8327   3.013   3.287  10.185  0.6682  0.5715 -0.3638
  558TMC3    C2 8328   2.955   3.231  10.295 -0.2108 -0.3996  0.4179
  558TMC3    C3 8329   2.829   3.174  10.275  1.1731  0.2520 -0.3167
  558TMC3    C4 8330   2.955   3.291  10.058  0.4026  0.2805  0.7986
  558TMC3    C5 8331   2.835   3.238  10.049  0.0509  0.1378 -0.4116
  558TMC3    C6 8332   2.765   3.179  10.154  0.0268  0.6998  0.3337
  558TMC3     C 8333   3.143   3.333  10.208 -0.1979  0.1535  0.3520
  558TMC3     O 8334   3.166   3.385  10.316 -0.4250  0.2456  0.0383
  558TMC3     H 8335   3.011   3.225  10.387  1.6445 -1.6835 -0.8083
  558TMC3    H1 8336   2.994   3.347   9.975  0.9343  2.9693  2.8724
  558TMC3    H2 8337   2.659   3.159  10.141 -0.0246  1.5476 -0.5174
  558TMC3    C7 8338   2.762   3.269   9.929  0.8073 -0.6699 -0.5299
  558TMC3    C8 8339   2.743   3.127  10.383  0.7762  0.6106 -0.7816
  558TMC3    O1 8340   2.834   3.277   9.829  0.1853  0.9078 -0.0547
  558TMC3    O2 8341   2.646   3.065  10.344  0.0247 -0.1515 -0.2118
  559MPD2     C 8342   3.485   4.712  10.825  0.9488 -0.3279 -0.5821
  559MPD2    C1 8343   3.430   4.600  10.768 -0.0102  0.3263 -0.4735
  559MPD2    C2 8344   3.450   4.475  10.828  0.1678 -0.1008  0.3612
  559MPD2    C3 8345   3.521   4.463  10.946 -0.1784  0.3262 -0.4945
  559MPD2    C4 8346   3.556   4.577  11.013 -0.0566 -0.2377  0.5182
  559MPD2    C5 8347   3.545   4.697  10.950  0.4239 -0.1984 -0.0179
  559MPD2     H 8348   3.403   4.388  10.785  2.0162 -0.5946 -0.6384
  559MPD2    H1 8349   3.612   4.579  11.106 -1.4796  0.2085  1.3475
  559MPD2    H2 8350   3.473   0.077  10.783  0.9416  0.5223  1.4599
  559MPD2    H3 8351   3.580   0.058  10.987  0.9120 -0.3871  0.0044
  559MPD2     N 8352   3.527   4.336  11.008  0.5820 -0.6536 -0.2500
  559MPD2    H5 8353   3.480   4.263  10.955 -2.3581 -1.0632  2.9101
  559MPD2    N1 8354   3.355   4.615  10.650 -0.2467 -0.1835  0.7072
  559MPD2    H7 8355   3.333   4.712  10.628  3.2748  0.0965 -1.4827
  560TMC3    C1 8356   3.587   4.163  11.151 -0.0013  0.6711 -0.5927
  560TMC3    C2 8357   3.475   4.095  11.123  0.2719  0.2001  0.6735
  560TMC3    C3 8358   3.472   3.960  11.150  0.0174 -0.0150  0.4676
  560TMC3    C4 8359   3.679   4.111  11.232  0.2488  0.0089  0.0579
  560TMC3    C5 8360   3.675   3.974  11.250 -0.2939  0.0836 -0.0678
  560TMC3    C6 8361   3.575   3.890  11.212 -0.5855  0.3750  0.6590
  560TMC3     C 8362   3.604   4.306  11.121 -0.0239 -0.3366  0.0143
  560TMC3     O 8363   3.677   4.372  11.194 -0.4062 -0.0287 -0.1699
  560TMC3     H 8364   3.382   4.151  11.116 -0.6555 -1.1918  2.1459
  560TMC3    H1 8365   3.754   4.178  11.273  0.3162  0.1846 -0.3470
  560TMC3    H2 8366   3.572   3.785  11.240  2.1075  0.1105 -0.0844
  560TMC3    C7 8367   3.781   3.918  11.332 -0.7491  0.3468 -0.8061
  560TMC3    C8 8368   3.349   3.883  11.123  0.9085  0.2614 -0.2125
  560TMC3    O1 8369   3.749   3.817  11.386  0.4009  0.4472 -0.2260
  560TMC3    O2 8370   3.327   3.795  11.211 -0.6377  0.2945  0.1236
  561TMC3    C1 8371   1.797   2.864  10.952  0.5040 -0.3387  0.2460
  561TMC3    C2 8372   1.789   2.766  11.042 -0.0909  0.1308  0.2777
  561TMC3    C3 8373   1.731   2.795  11.155 -0.6665  0.0088 -0.4005
  561TMC3    C4 8374   1.753   2.990  10.977  0.0974 -0.1283 -0.4833
  561TMC3    C5 8375   1.700   3.025  11.101  0.5413 -0.4875  0.7727
  561TMC3    C6 8376   1.690   2.924  11.191  0.0460  0.5644  0.4785
  561TMC3     C 8377   1.883   2.857  10.836  0.9101 -0.4290  0.3341
  561TMC3     O 8378   1.884   2.749  10.781 -0.0376  0.7345  0.2757
  561TMC3     H 8379   1.815   2.662  11.026  1.9716  1.0241 -2.0988
  561TMC3    H1 8380   1.741   3.069  10.904 -1.9701 -0.9027 -0.9868
  561TMC3    H2 8381   1.643   2.944  11.287  0.7062  1.0232  0.7049
  561TMC3    C7 8382   1.632   3.146  11.132 -0.0303 -0.2185  0.2021
  561TMC3    C8 8383   1.666   2.686  11.228 -0.3536 -0.0372  0.4870
  561TMC3    O1 8384   1.530   3.136  11.196  0.2500  0.7412  0.8108
  561TMC3    O2 8385   1.719   2.576  11.228 -0.4615 -0.0999 -0.3105
  562TMC3    C1 8386   2.318   4.644  16.874  0.0494 -0.0831  0.1615
  562TMC3    C2 8387   2.276   0.039  16.844 -0.0690  0.3084 -0.3425
  562TMC3    C3 8388   2.213   0.053  16.722  0.2281 -0.4337  0.0771
  562TMC3    C4 8389   2.298   4.540  16.788 -0.0070  0.2399 -0.4486
  562TMC3    C5 8390   2.221   4.561  16.675 -0.3810 -0.5054  0.4106
  562TMC3    C6 8391   2.184   4.689  16.636  0.0184  0.1003  0.5198
  562TMC3     C 8392   2.423   4.618  16.965  1.0808 -0.0522 -0.0847
  562TMC3     O 8393   2.479   4.509  16.949 -0.2662 -0.1229 -0.4509
  562TMC3     H 8394   2.285   0.119  16.916 -2.6418  0.2067  0.1198
  562TMC3    H1 8395   2.318   4.438  16.818  0.3026  0.3473 -0.2853
  562TMC3    H2 8396   2.136   4.702  16.540  0.7079  2.0133  0.4412
  562TMC3    C7 8397   2.223   4.457  16.568  0.5082  0.4315  1.0349
  562TMC3    C8 8398   2.167   0.192  16.697  0.7482  0.8004  0.1875
  562TMC3    O1 8399   2.177   4.486  16.458 -0.4748 -0.1355 -0.1314
  562TMC3    O2 8400   2.185   0.281  16.779 -0.6282  0.0817 -0.3326
  563MPD2     C 8401   4.576   1.066  15.593  0.1177 -0.2108 -0.4959
  563MPD2    C1 8402   4.627   1.130  15.704  0.0948  0.0268 -0.3017
  563MPD2    C2 8403   4.732   1.073  15.767  0.0997  0.6896  0.0180
  563MPD2    C3 8404   0.059   0.960  15.719  0.2661 -0.2925 -0.1237
  563MPD2    C4 8405   0.020   0.904  15.599 -0.0289  0.3772 -0.5485
  563MPD2    C5 8406   4.637   0.953  15.542  0.0844 -0.0492 -0.1532
  563MPD2     H 8407   0.030   1.104  15.865 -0.1806 -1.2891  0.7325
  563MPD2    H1 8408   0.059   0.810  15.561 -1.5350 -0.0614 -1.0113
  563MPD2    H2 8409   4.488   1.106  15.544  0.6608 -0.3440 -1.5823
  563MPD2    H3 8410   4.586   0.899  15.462 -1.7149  0.3738  0.6961
  563MPD2     N 8411   0.160   0.904  15.801 -0.3226 -0.3227 -0.0643
  563MPD2    H5 8412   0.179   0.953  15.888 -4.6073 -0.1571  0.7519
  563MPD2    N1 8413   4.561   1.244  15.749 -0.7205  0.0466 -0.1704
  563MPD2    H7 8414   4.465   1.253  15.719 -1.1282  2.6402  1.8429
  564TMC3    C1 8415   4.529   1.297  15.977  0.3567  0.2237 -0.2652
  564TMC3    C2 8416   4.406   1.238  15.966  0.0586 -0.0043 -0.2717
  564TMC3    C3 8417   4.360   1.162  16.065  0.4114  0.1145  0.8452
  564TMC3    C4 8418   4.611   1.261  16.079 -0.3867 -0.1074  0.5190
  564TMC3    C5 8419   4.568   1.176  16.172 -0.2627 -0.5939  0.1615
  564TMC3    C6 8420   4.439   1.127  16.167  0.2749  0.9117  0.6029
  564TMC3     C 8421   4.601   1.319  15.854  0.2168 -0.9982 -0.1520
  564TMC3     O 8422   4.716   1.360  15.865  0.2424 -0.3153  0.1834
  564TMC3     H 8423   4.345   1.255  15.877  0.3773 -1.7459 -0.8128
  564TMC3    H1 8424   4.708   1.309  16.087 -0.4330 -0.0727  0.8686
  564TMC3    H2 8425   4.396   1.078  16.254 -0.3977 -0.1564 -0.3310
  564TMC3    C7 8426   4.664   1.071  16.199 -0.1481  0.6969  0.1244
  564TMC3    C8 8427   4.284   1.045  16.028  0.1555  0.0794 -0.3180
  564TMC3    O1 8428   0.044   1.095  16.241 -0.6262  0.2095  0.3721
  564TMC3    O2 8429   4.242   0.979  16.122 -0.6783  0.0450  0.0016
  565TMC3    C1 8430   1.079   2.355   9.846 -0.6042  0.6378 -0.5668
  565TMC3    C2 8431   0.969   2.280   9.894 -0.0519 -0.3861  0.2302
  565TMC3    C3 8432   0.969   2.147   9.857 -0.1957 -0.7747 -0.0530
  565TMC3    C4 8433   1.181   2.306   9.775  0.5766  0.0284 -0.1032
  565TMC3    C5 8434   1.176   2.172   9.747  0.1643  0.6971  0.4129
  565TMC3    C6 8435   1.080   2.086   9.803 -0.1968  0.2267  0.5231
  565TMC3     C 8436   1.082   2.496   9.877 -0.1611  0.4243 -0.3201
  565TMC3     O 8437   1.155   2.565   9.800 -0.3690  0.3612  0.1013
  565TMC3     H 8438   0.887   2.324   9.950  0.8318  0.1323  1.1031
  565TMC3    H1 8439   1.248   2.371   9.720  0.0411  2.4191  2.0469
  565TMC3    H2 8440   1.077   1.979   9.785  0.2044  0.3367 -0.1866
  565TMC3    C7 8441   1.292   2.106   9.706 -1.5983 -0.1820 -0.2870
  565TMC3    C8 8442   0.869   2.068   9.920  0.1046  0.2977  0.0155
  565TMC3    O1 8443   1.392   2.170   9.727 -0.2468  0.1589  0.4139
  565TMC3    O2 8444   0.819   2.109  10.024 -0.8659  0.5818  0.1351
  566MPD2     C 8445   2.889   3.303  14.490  0.0915 -0.3268 -0.0171
  566MPD2    C1 8446   2.824   3.387  14.403 -0.3663 -0.2312  0.3053
  566MPD2    C2 8447   2.709   3.353  14.336  0.5937 -0.1968 -0.4234
  566MPD2    C3 8448   2.655   3.225  14.346  0.2128 -0.7562 -0.0653
  566MPD2    C4 8449   2.718   3.142  14.436  0.6997 -0.0477 -0.5227
  566MPD2    C5 8450   2.832   3.177  14.507 -0.1071 -0.2850  0.0025
  566MPD2     H 8451   2.657   3.422  14.270 -0.1389 -1.0104 -0.6893
  566MPD2    H1 8452   2.675   3.044  14.453 -0.2205  0.6120  0.9225
  566MPD2    H2 8453   2.980   3.332  14.542 -1.0233 -2.1962  2.9845
  566MPD2    H3 8454   2.877   3.111  14.580 -0.0390  0.1826  0.3864
  566MPD2     N 8455   2.539   3.181  14.277  0.3513 -0.3065 -0.0235
  566MPD2    H5 8456   2.497   3.089  14.288  0.4995 -0.2218  1.2133
  566MPD2    N1 8457   2.888   3.512  14.382  0.1977  0.4696  0.6542
  566MPD2    H7 8458   2.977   3.521  14.430  1.3330 -3.1248 -0.7720
  567TMC3    C1 8459   2.940   3.708  14.271  0.2840 -0.0504 -0.4020
  567TMC3    C2 8460   2.969   3.753  14.151 -0.0869 -0.1729  1.0047
  567TMC3    C3 8461   2.982   3.886  14.119 -0.3196  0.0119 -0.0195
  567TMC3    C4 8462   2.922   3.790  14.375 -0.1473 -0.9036 -0.3199
  567TMC3    C5 8463   2.925   3.928  14.345  0.4661  0.3856 -0.5683
  567TMC3    C6 8464   2.971   3.979  14.226 -0.6350 -0.0491 -0.2025
  567TMC3     C 8465   2.863   3.588  14.269 -0.1171  0.1087 -0.8980
  567TMC3     O 8466   2.804   3.564  14.165 -0.1292 -0.0566  0.0796
  567TMC3     H 8467   2.974   3.679  14.071  2.5437 -0.4495  1.4015
  567TMC3    H1 8468   2.914   3.742  14.473 -0.2763 -0.7759 -0.2697
  567TMC3    H2 8469   2.960   4.084  14.200 -0.8862  0.1619  0.7871
  567TMC3    C7 8470   2.902   4.028  14.453 -0.0341 -0.3327 -0.2046
  567TMC3    C8 8471   2.909   3.929  14.004  0.2813  0.1260 -0.2683
  567TMC3    O1 8472   2.956   4.136  14.430 -0.0593  0.2642 -0.3918
  567TMC3    O2 8473   2.807   3.992  14.027  0.4916 -0.4135  0.5837
  568MPD2     C 8474   4.667   4.496  16.540 -0.2149  0.0681  0.0347
  568MPD2    C1 8475   4.552   4.556  16.583 -0.2545  0.1005 -0.2381
  568MPD2    C2 8476   4.514   4.674  16.520 -0.5250  1.0799 -0.4327
  568MPD2    C3 8477   4.589   4.723  16.414 -0.4250  0.3340  0.0054
  568MPD2    C4 8478   4.702   4.659  16.373  0.1136  0.4916 -0.0768
  568MPD2    C5 8479   0.009   4.546  16.438 -0.2790 -0.4754 -0.2530
  568MPD2     H 8480   4.423   4.717  16.560 -0.7071  0.7156 -0.4465
  568MPD2    H1 8481   0.026   4.700  16.292  0.5846 -1.6021 -0.8007
  568MPD2    H2 8482   4.714   4.407  16.581  0.7713  0.8992  0.7060
  568MPD2    H3 8483   0.099   4.492  16.412 -0.4029 -0.0474 -1.5905
  568MPD2     N 8484   4.548   0.112  16.364 -0.2625  0.5459  0.4487
  568MPD2    H5 8485   4.477   0.166  16.412 -0.3760 -1.4236  2.5099
  568MPD2    N1 8486   4.477   4.477  16.677  1.3383 -0.1900  0.1568
  568MPD2    H7 8487   4.522   4.393  16.711  2.1226  0.9674  1.9677
  569TMC3    C1 8488   4.515   0.289  16.211  0.2453 -0.5336  1.1541
  569TMC3    C2 8489   4.471   0.348  16.327  0.1510  0.7766  0.3281
  569TMC3    C3 8490   4.357   0.423  16.322  0.7971 -0.4897  0.7456
  569TMC3    C4 8491   4.433   0.276  16.102 -0.1582 -0.1646 -0.8476
  569TMC3    C5 8492   4.313   0.344  16.101  0.4400  0.2314 -0.6767
  569TMC3    C6 8493   4.279   0.420  16.207  0.3064 -0.2727  0.0702
  569TMC3     C 8494   4.587   0.160  16.236 -0.0533  1.0805 -0.5383
  569TMC3     O 8495   4.640   0.101  16.140 -0.3528 -0.5998 -0.7550
  569TMC3     H 8496   4.530   0.341  16.417  0.6294  1.3506  0.0567
  569TMC3    H1 8497   4.475   0.227  16.015 -0.2293 -0.2759 -0.8194
  569TMC3    H2 8498   4.181   0.467  16.207  1.6695  2.5859 -0.8986
  569TMC3    C7 8499   4.311   0.416  15.975  0.0160  0.2607 -0.6644
  569TMC3    C8 8500   4.368   0.563  16.356 -0.2510 -0.1009  0.1866
  569TMC3    O1 8501   4.315   0.345  15.873 -0.4101 -0.2235  0.3468
  569TMC3    O2 8502   4.298   0.642  16.292  0.2416  0.6847  0.3835
  570TMC3    C1 8503   3.624   3.238  15.776  0.0402 -0.1950  0.5113
  570TMC3    C2 8504   3.697   3.266  15.661 -0.1849  0.1353 -0.1651
  570TMC3    C3 8505   3.720   3.397  15.627  0.1265  0.0248 -0.2304
  570TMC3    C4 8506   3.563   3.344  15.844  0.5174 -0.3235  0.3221
  570TMC3    C5 8507   3.587   3.476  15.808 -0.0208 -0.1233  0.2083
  570TMC3    C6 8508   3.673   3.497  15.708 -0.1508 -0.5590  0.3806
  570TMC3     C 8509   3.588   3.098  15.807  0.7431 -0.4404  0.0880
  570TMC3     O 8510   3.600   3.016  15.717 -0.0511 -0.4625 -0.1063
  570TMC3     H 8511   3.741   3.184  15.605 -0.1507 -0.6634  1.0335
  570TMC3    H1 8512   3.498   3.318  15.926  1.1143 -0.9746  0.5943
  570TMC3    H2 8513   3.685   3.600  15.677 -0.4408 -0.6867 -0.1420
  570TMC3    C7 8514   3.555   3.582  15.895 -1.2491 -0.5356  0.2608
  570TMC3    C8 8515   3.828   3.436  15.546 -0.5854 -0.2398 -0.5371
  570TMC3    O1 8516   3.623   3.684  15.874  0.2959  0.1687 -0.4292
  570TMC3    O2 8517   3.864   3.555  15.543 -0.5445  0.4294 -0.1231
  571MPD2     C 8518   1.720   0.421   0.699  0.4989 -0.4059  0.5774
  571MPD2    C1 8519   1.623   0.518   0.705 -0.2033  1.1154 -0.7112
  571MPD2    C2 8520   1.663   0.644   0.745 -0.3808  0.0288 -0.2467
  571MPD2    C3 8521   1.796   0.677   0.765  0.0641  0.5247 -0.3859
  571MPD2    C4 8522   1.889   0.576   0.766  0.3734 -0.5109 -0.2399
  571MPD2    C5 8523   1.846   0.448   0.734 -0.0002 -0.1004  0.0422
  571MPD2     H 8524   1.580   0.708   0.772 -1.6127 -0.5950 -2.5198
  571MPD2    H1 8525   1.995   0.596   0.783  0.0303 -0.2379  1.6142
  571MPD2    H2 8526   1.695   0.322   0.662 -3.4725  0.3130  1.3786
  571MPD2    H3 8527   1.918   0.367   0.732 -1.5835 -1.5027 -0.2579
  571MPD2     N 8528   1.837   0.802   0.810 -0.1609 -0.5007  0.8788
  571MPD2    H5 8529   1.933   0.802   0.842 -0.0676 -2.5403  0.6149
  571MPD2    N1 8530   1.495   0.479   0.659 -0.1537  0.0922  0.4770
  571MPD2    H7 8531   1.472   0.381   0.648 -0.3915  0.1913  0.0880
  572TMC3    C1 8532   1.858   1.036   0.812 -0.4486 -0.0778  0.1145
  572TMC3    C2 8533   1.976   1.025   0.881  0.4627  0.3605 -0.4431
  572TMC3    C3 8534   2.040   1.148   0.903  0.3844  0.4597  0.4886
  572TMC3    C4 8535   1.816   1.155   0.757  0.1578 -0.0100  0.3730
  572TMC3    C5 8536   1.898   1.259   0.751 -0.1569 -0.4361 -0.6058
  572TMC3    C6 8537   2.013   1.257   0.827 -0.1632 -0.5001  0.2610
  572TMC3     C 8538   1.776   0.917   0.796  0.5901  0.4631  0.3700
  572TMC3     O 8539   1.671   0.937   0.735  0.6913 -0.5300  0.1274
  572TMC3     H 8540   1.970   0.954   0.963 -2.2872  0.0549 -0.9183
  572TMC3    H1 8541   1.720   1.151   0.706 -0.0708  1.9355  0.6529
  572TMC3    H2 8542   2.072   1.346   0.847  1.1964 -1.5315  0.8512
  572TMC3    C7 8543   1.865   1.366   0.657  1.0887 -0.3595 -0.0013
  572TMC3    C8 8544   2.142   1.165   1.004 -0.0282 -0.5891  0.0832
  572TMC3    O1 8545   1.755   1.371   0.607 -0.3921  0.4034 -0.6584
  572TMC3    O2 8546   2.180   1.279   1.026  0.6008 -0.3520  0.1280
  573MPD2     C 8547   2.459   0.933   0.798 -0.0722  0.3895 -0.1735
  573MPD2    C1 8548   2.392   1.042   0.748  0.0172  0.1817  0.7462
  573MPD2    C2 8549   2.300   1.028   0.647 -0.2932 -0.0491 -0.5145
  573MPD2    C3 8550   2.259   0.904   0.607 -0.6454  0.3535 -0.3110
  573MPD2    C4 8551   2.334   0.790   0.650  0.0082  0.4516  0.8916
  573MPD2    C5 8552   2.425   0.808   0.748 -0.3886 -0.2673 -0.5799
  573MPD2     H 8553   2.252   1.116   0.606 -1.5303  0.2603  1.5642
  573MPD2    H1 8554   2.317   0.692   0.606  3.2535 -0.3025  1.3140
  573MPD2    H2 8555   2.531   0.936   0.879 -0.2266 -0.2059 -0.0164
  573MPD2    H3 8556   2.487   0.725   0.783  1.8683  1.3371 -0.7698
  573MPD2     N 8557   2.142   0.883   0.533 -0.2923 -0.1223  0.5371
  573MPD2    H5 8558   2.113   0.786   0.525 -1.5086  0.2529  0.3279
  573MPD2    N1 8559   2.435   1.168   0.803  0.4152  0.0883  0.2633
  573MPD2    H7 8560   2.506   1.162   0.875  1.1082  0.8521 -0.3508
  574TMC3    C1 8561   1.925   0.926   0.451 -0.0866  0.3079  0.9394
  574TMC3    C2 8562   1.823   1.018   0.432 -0.0199  0.9155 -0.0134
  574TMC3    C3 8563   1.704   0.974   0.389  0.0933 -0.3011  0.0840
  574TMC3    C4 8564   1.901   0.792   0.435  0.8684  0.5477  0.1976
  574TMC3    C5 8565   1.771   0.751   0.405  0.2185  0.7841  0.6567
  574TMC3    C6 8566   1.672   0.838   0.369  0.3745 -0.0032 -0.7355
  574TMC3     C 8567   2.055   0.979   0.484  0.9770  0.4469  0.1150
  574TMC3     O 8568   2.065   1.097   0.483  0.1752 -0.0071 -0.0251
  574TMC3     H 8569   1.848   1.121   0.455  1.9384  0.4818 -0.1870
  574TMC3    H1 8570   1.982   0.720   0.434 -0.7695 -1.2596 -2.3350
  574TMC3    H2 8571   1.572   0.811   0.339  0.6162 -1.1216 -0.5568
  574TMC3    C7 8572   1.752   0.628   0.337  0.4590 -0.6902 -0.5085
  574TMC3    C8 8573   1.624   1.071   0.311  0.3282  0.7213  0.0331
  574TMC3    O1 8574   1.646   0.614   0.273  0.1217 -0.2070 -0.1484
  574TMC3    O2 8575   1.504   1.049   0.290 -0.3773  0.3463 -1.1453
  575TMC3    C1 8576   0.560   1.704  10.633  0.3555  0.4871 -0.0190
  575TMC3    C2 8577   0.466   1.603  10.647  0.2277 -0.9909  0.7272
  575TMC3    C3 8578   0.419   1.545  10.532  0.0721  0.3020  0.2337
  575TMC3    C4 8579   0.605   1.746  10.511 -0.1381 -0.0371  0.0605
  575TMC3    C5 8580   0.544   1.698  10.406 -0.3991 -0.4162  0.6929
  575TMC3    C6 8581   0.453   1.592  10.403  0.0088 -0.0407 -0.4328
  575TMC3     C 8582   0.611   1.777  10.747  0.1646 -0.3869 -0.0995
  575TMC3     O 8583   0.651   1.893  10.720  0.6002 -0.4468  0.2351
  575TMC3     H 8584   0.423   1.576  10.742 -2.1617 -0.6113 -0.2396
  575TMC3    H1 8585   0.667   1.835  10.511 -0.4030  0.1382  3.1566
  575TMC3    H2 8586   0.424   1.539  10.314  1.3434  0.7902 -1.3618
  575TMC3    C7 8587   0.586   1.767  10.283 -0.5946 -0.8077 -0.5349
  575TMC3    C8 8588   0.389   1.404  10.544 -0.2335 -0.7283 -0.6942
  575TMC3    O1 8589   0.673   1.852  10.287  0.2543  0.0699  0.3668
  575TMC3    O2 8590   0.404   1.350  10.652  0.6182 -0.1147 -0.3089
  576MPD2     C 8591   0.928   3.038  12.427  0.3233 -0.2787  0.0411
  576MPD2    C1 8592   0.953   3.118  12.319  0.2181 -0.2619  0.5415
  576MPD2    C2 8593   0.965   3.257  12.346 -0.7301 -0.4066 -0.8774
  576MPD2    C3 8594   0.971   3.306  12.475  0.9180 -0.4897 -0.2183
  576MPD2    C4 8595   0.940   3.219  12.586 -0.2887 -0.4977  0.1377
  576MPD2    C5 8596   0.913   3.086  12.554  0.3621 -0.1529 -0.5489
  576MPD2     H 8597   0.994   3.327  12.269  2.3021 -1.8660 -1.0602
  576MPD2    H1 8598   0.933   3.247  12.691  0.5325  0.5319 -0.0751
  576MPD2    H2 8599   0.908   2.932  12.418 -0.5398 -0.0093 -1.2285
  576MPD2    H3 8600   0.872   3.015  12.625 -0.0391  2.9992  2.3380
  576MPD2     N 8601   0.999   3.444  12.495 -0.3009  0.7730 -0.3451
  576MPD2    H5 8602   1.004   3.503  12.412  3.4246 -0.0598 -0.7185
  576MPD2    N1 8603   0.965   3.072  12.184 -0.5549  0.1423 -0.4023
  576MPD2    H7 8604   0.984   3.142  12.113  1.6986 -0.5075 -0.4342
  577TMC3    C1 8605   1.003   2.919  11.997 -0.5912 -0.1177 -0.2447
  577TMC3    C2 8606   1.074   2.798  11.970  0.0022 -0.0314  0.5153
  577TMC3    C3 8607   1.108   2.777  11.836 -0.8981  0.7322  0.2497
  577TMC3    C4 8608   0.948   3.003  11.898  0.2688  0.1523 -0.1706
  577TMC3    C5 8609   0.984   2.971  11.773 -0.6151  0.4092  0.0377
  577TMC3    C6 8610   1.055   2.862  11.737 -0.1569  0.4686 -0.6806
  577TMC3     C 8611   0.969   2.940  12.141 -0.4422 -0.3447 -0.0437
  577TMC3     O 8612   0.951   2.835  12.203  0.4361  0.1975  0.8047
  577TMC3     H 8613   1.092   2.726  12.049 -0.7778  0.3579  1.0454
  577TMC3    H1 8614   0.883   3.085  11.925  0.6848  1.8640 -4.4188
  577TMC3    H2 8615   1.059   2.839  11.631 -0.0640  0.9773 -0.7886
  577TMC3    C7 8616   0.991   3.072  11.663  0.3466  0.1994  0.2538
  577TMC3    C8 8617   1.212   2.683  11.806  0.3150 -0.1949  0.6078
  577TMC3    O1 8618   1.077   3.056  11.576  0.1310 -0.0070  0.3841
  577TMC3    O2 8619   1.257   2.611  11.896 -0.1787  0.6773  0.4626
  578MPD2     C 8620   3.048   4.440   1.050 -0.0495 -1.2564  0.6760
  578MPD2    C1 8621   3.015   4.329   0.968  0.5597 -0.6801  0.0082
  578MPD2    C2 8622   3.114   4.229   0.959 -0.3002 -0.5840 -0.1051
  578MPD2    C3 8623   3.236   4.237   1.027  0.2081  0.2575 -0.0110
  578MPD2    C4 8624   3.262   4.349   1.106  0.6598 -0.2409  0.2996
  578MPD2    C5 8625   3.165   4.446   1.109 -0.4957 -0.2766 -0.1174
  578MPD2     H 8626   3.106   4.149   0.887  1.1323 -0.5514 -0.2870
  578MPD2    H1 8627   3.351   4.350   1.168  1.6727  1.2359 -1.1643
  578MPD2    H2 8628   2.974   4.518   1.063  0.3176 -0.9675  1.0428
  578MPD2    H3 8629   3.183   4.533   1.171 -0.4734 -1.7022  1.8709
  578MPD2     N 8630   3.326   4.127   1.012  0.3020 -0.7163  0.1768
  578MPD2    H5 8631   3.290   4.052   0.954 -3.1944  2.3715 -1.6168
  578MPD2    N1 8632   2.892   4.335   0.891 -0.2074  0.4953 -0.1057
  578MPD2    H7 8633   2.850   4.424   0.914 -0.2988  0.6422 -0.8532
  579TMC3    C1 8634   3.520   3.996   1.053 -0.1493  0.6115 -0.3452
  579TMC3    C2 8635   3.655   3.991   1.058  0.0644 -0.0329  0.2304
  579TMC3    C3 8636   3.730   3.882   1.071 -0.3286  0.1173 -0.0064
  579TMC3    C4 8637   3.450   3.882   1.033 -0.6580  0.0586 -0.3111
  579TMC3    C5 8638   3.528   3.768   1.031 -0.3036  0.5968 -0.4822
  579TMC3    C6 8639   3.662   3.770   1.067  0.0077  0.0383  0.3562
  579TMC3     C 8640   3.446   4.116   1.080 -0.0992 -0.6876 -0.3281
  579TMC3     O 8641   3.509   4.199   1.144 -0.4363 -0.1862 -0.1530
  579TMC3     H 8642   3.709   4.084   1.067 -1.1479  0.7257 -0.4209
  579TMC3    H1 8643   3.342   3.877   1.036 -0.5244 -1.9572  1.0216
  579TMC3    H2 8644   3.713   3.675   1.064  0.1549  0.1561 -0.7409
  579TMC3    C7 8645   3.466   3.646   0.993 -0.1683 -0.3961 -0.8691
  579TMC3    C8 8646   3.873   3.891   1.113 -0.7606  0.1007 -0.7206
  579TMC3    O1 8647   3.531   3.550   1.026  0.4397  0.5381  0.2507
  579TMC3    O2 8648   3.914   4.003   1.155 -0.4919  0.2056 -0.0047
  580TMC3    C1 8649   3.708   2.949  12.370 -0.6554 -0.3680  0.3394
  580TMC3    C2 8650   3.800   3.017  12.290 -0.3835 -0.0264  0.5489
  580TMC3    C3 8651   3.888   2.942  12.215 -0.2308  0.3587  0.1305
  580TMC3    C4 8652   3.701   2.811  12.376 -0.2750  0.1097 -0.0520
  580TMC3    C5 8653   3.777   2.742  12.293 -0.7507 -0.1443 -0.0258
  580TMC3    C6 8654   3.870   2.800  12.205 -0.3480 -0.3096  0.0599
  580TMC3     C 8655   3.572   3.009  12.357  0.4429 -0.3777 -0.0365
  580TMC3     O 8656   3.553   3.097  12.276 -0.0644  0.2908 -0.1793
  580TMC3     H 8657   3.791   3.124  12.280  0.0456 -0.1324 -0.9817
  580TMC3    H1 8658   3.629   2.761  12.440  2.1578 -1.8791  1.1600
  580TMC3    H2 8659   3.937   2.740  12.145  2.1101  0.0232  2.4868
  580TMC3    C7 8660   3.776   2.598  12.309  0.0788 -0.1716 -0.0645
  580TMC3    C8 8661   3.965   3.002  12.111 -0.7809  0.6347  1.0071
  580TMC3    O1 8662   3.743   2.558  12.421 -0.2392 -0.0792  0.3852
  580TMC3    O2 8663   4.006   3.119  12.132 -0.0702  0.3029  0.1297
  581MPD2     C 8664   0.818   1.942  14.886 -0.0195  0.0754 -0.2306
  581MPD2    C1 8665   0.782   2.036  14.977 -0.1066 -0.0148  0.0610
  581MPD2    C2 8666   0.692   2.139  14.938 -0.0226 -0.0728  0.0332
  581MPD2    C3 8667   0.642   2.145  14.809 -0.9479 -0.4284 -0.3453
  581MPD2    C4 8668   0.680   2.051  14.723  0.1011  0.0115  0.7033
  581MPD2    C5 8669   0.768   1.950  14.760  0.2321  0.1847  0.1452
  581MPD2     H 8670   0.664   2.212  15.013  1.8575  1.5341 -0.8309
  581MPD2    H1 8671   0.633   2.057  14.625  0.6730 -0.2974  0.4099
  581MPD2    H2 8672   0.881   1.858  14.912  0.1714 -0.9029 -3.8345
  581MPD2    H3 8673   0.797   1.870  14.692 -0.6636  0.8442 -0.9985
  581MPD2     N 8674   0.551   2.255  14.782 -0.3725  0.1489  0.4690
  581MPD2    H5 8675   0.542   2.326  14.853 -1.8085  0.4820 -0.0473
  581MPD2    N1 8676   0.840   2.020  15.103  0.2707  0.1011 -0.0502
  581MPD2    H7 8677   0.901   1.940  15.099  1.3552  0.9964 -1.1959
  582TMC3    C1 8678   0.857   2.009  15.332 -0.1335 -0.4052  0.0890
  582TMC3    C2 8679   0.835   2.071  15.452 -0.0325 -0.3467 -0.6107
  582TMC3    C3 8680   0.808   2.003  15.569  0.3356  0.5828 -0.2403
  582TMC3    C4 8681   0.832   1.872  15.326  0.2818  0.5233  0.1306
  582TMC3    C5 8682   0.777   1.815  15.442  0.3745 -0.6204  0.1613
  582TMC3    C6 8683   0.771   1.874  15.559 -0.9249 -0.4204 -0.2406
  582TMC3     C 8684   0.803   2.082  15.221  0.2466 -0.6264  0.1116
  582TMC3     O 8685   0.733   2.178  15.245  0.3950  0.3596 -0.4092
  582TMC3     H 8686   0.842   2.179  15.464  0.8141 -0.7563  2.4187
  582TMC3    H1 8687   0.834   1.807  15.239 -0.3046  1.1593 -0.3526
  582TMC3    H2 8688   0.722   1.826  15.643 -1.9758  1.5420  0.2632
  582TMC3    C7 8689   0.695   1.691  15.438  0.4790 -0.1359  0.0215
  582TMC3    C8 8690   0.812   2.068  15.700 -0.7524 -0.2828  0.7292
  582TMC3    O1 8691   0.711   1.622  15.539  0.3129  0.3105 -0.0924
  582TMC3    O2 8692   0.783   2.184  15.704 -0.0797 -0.5927  0.0780
  583MPD2     C 8693   0.515   4.080  16.259  0.2541 -0.4019  0.2977
  583MPD2    C1 8694   0.632   4.150  16.275 -0.5546 -0.5595 -0.1800
  583MPD2    C2 8695   0.630   4.262  16.365 -0.4583  0.0969 -0.4977
  583MPD2    C3 8696   0.516   4.292  16.440  0.1769 -0.0497 -0.1412
  583MPD2    C4 8697   0.397   4.221  16.416 -1.0337 -0.3460 -0.5831
  583MPD2    C5 8698   0.406   4.120  16.328  0.6154  0.6288  0.2873
  583MPD2     H 8699   0.721   4.318  16.382 -0.5732 -0.3610  1.6047
  583MPD2    H1 8700   0.299   4.261  16.439 -0.8725 -0.9203  1.1326
  583MPD2    H2 8701   0.508   3.989  16.200  0.1254 -1.0309  1.2874
  583MPD2    H3 8702   0.310   4.071  16.313  1.0375 -0.4226  0.9459
  583MPD2     N 8703   0.523   4.395  16.536 -0.1012  0.3666  0.6539
  583MPD2    H5 8704   0.614   4.440  16.533 -0.4115  1.0481  1.4080
  583MPD2    N1 8705   0.749   4.106  16.217 -0.2489 -0.4737  0.2076
  583MPD2    H7 8706   0.836   4.149  16.248  0.3823 -1.0595 -0.7462
  584TMC3    C1 8707   0.469   4.550  16.700 -0.4704 -0.7878  0.1077
  584TMC3    C2 8708   0.533   4.652  16.636  0.0951 -0.4378  0.3494
  584TMC3    C3 8709   0.581   0.019  16.718  0.3025  0.6411 -0.0897
  584TMC3    C4 8710   0.449   4.538  16.836 -0.4671  0.1224 -0.2270
  584TMC3    C5 8711   0.500   4.639  16.909  0.5071 -0.2542 -0.1720
  584TMC3    C6 8712   0.563   0.017  16.859 -0.3225 -0.3656 -0.6556
  584TMC3     C 8713   0.421   4.435  16.621  0.5399 -0.3446  0.0691
  584TMC3     O 8714   0.323   4.376  16.664 -0.1828 -0.2725 -0.2355
  584TMC3     H 8715   0.541   4.660  16.529 -1.9667  1.4191  0.3317
  584TMC3    H1 8716   0.400   4.449  16.874  0.8204 -1.1144 -1.4555
  584TMC3    H2 8717   0.629   0.068  16.928 -0.9706  0.5777 -0.7409
  584TMC3    C7 8718   0.477   4.633  17.052  0.2595  0.1315 -1.0628
  584TMC3    C8 8719   0.673   0.121  16.660  0.4803 -0.1745 -0.3413
  584TMC3    O1 8720   0.442   4.527  17.102 -0.6540  0.1903  0.8135
  584TMC3    O2 8721   0.711   0.109  16.543  0.1069 -0.2418 -0.2990
  585MPD2     C 8722   3.965   3.384   0.107  0.0343  0.2748 -0.3436
  585MPD2    C1 8723   4.039   3.422  17.733 -0.2200  0.1137 -0.0506
  585MPD2    C2 8724   4.064   3.324  17.640  0.0402 -0.8702  0.4929
  585MPD2    C3 8725   4.007   3.196  17.659  0.3449  0.1164  0.1061
  585MPD2    C4 8726   3.938   3.168   0.035 -0.0097 -0.2273  0.0205
  585MPD2    C5 8727   3.913   3.264   0.127  0.2380  0.0483 -0.5564
  585MPD2     H 8728   4.122   3.347  17.551 -0.2363  3.4683  1.4645
  585MPD2    H1 8729   3.895   3.070   0.054  0.5617 -0.4817 -0.0009
  585MPD2    H2 8730   3.945   3.469   0.171  2.4465 -1.2086  2.3493
  585MPD2    H3 8731   3.847   3.246   0.211 -0.8406  1.7589 -1.0361
  585MPD2     N 8732   4.029   3.086  17.573  0.1260 -0.2140  0.0527
  585MPD2    H5 8733   3.999   2.995  17.606 -0.9602  0.2864  0.4095
  585MPD2    N1 8734   4.087   3.556  17.717 -0.0887  0.0222  0.3107
  585MPD2    H7 8735   4.077   3.618   0.059 -1.9101 -0.1339  0.1914
  586TMC3    C1 8736   4.090   2.975  17.368  0.3968  0.4294  0.3253
  586TMC3    C2 8737   4.207   2.970  17.291 -0.6233 -0.3758  0.3593
  586TMC3    C3 8738   4.259   2.848  17.255 -0.4109 -0.2607  0.5934
  586TMC3    C4 8739   4.014   2.867  17.401 -0.3284  0.0419 -0.3367
  586TMC3    C5 8740   4.061   2.745  17.356  0.1629  0.2853 -0.2949
  586TMC3    C6 8741   4.180   2.739  17.292  0.4427  0.1051  0.3000
  586TMC3     C 8742   4.095   3.097  17.448 -0.6030  0.1710 -0.1252
  586TMC3     O 8743   4.122   3.199  17.384 -0.0461  0.6194  0.7362
  586TMC3     H 8744   4.261   3.063  17.277 -0.5951 -0.6311 -1.1672
  586TMC3    H1 8745   3.929   2.881  17.467  1.0961  0.7845  1.3550
  586TMC3    H2 8746   4.220   2.646  17.255  1.9352  2.0877 -3.0632
  586TMC3    C7 8747   3.997   2.612  17.379  0.0508  0.2679 -0.6705
  586TMC3    C8 8748   4.397   2.838  17.245 -0.3263 -0.1433 -0.2074
  586TMC3    O1 8749   4.064   2.511  17.370 -0.2453  0.0066  0.1436
  586TMC3    O2 8750   4.444   2.733  17.296 -0.2051  0.3370  0.1747
  587TMC3    C1 8751   2.647   1.834  16.858 -0.2169  0.0321 -0.0800
  587TMC3    C2 8752   2.579   1.915  16.771  0.5710  0.5392  0.5137
  587TMC3    C3 8753   2.654   1.994  16.689  0.0141  0.7121 -0.2350
  587TMC3    C4 8754   2.781   1.835  16.868 -0.0440 -0.0771 -0.1120
  587TMC3    C5 8755   2.852   1.916  16.789  0.0059 -0.0016  0.0775
  587TMC3    C6 8756   2.790   1.992  16.694 -0.1808  0.3811  0.0184
  587TMC3     C 8757   2.573   1.752  16.944  0.3044  0.1060 -0.1695
  587TMC3     O 8758   2.632   1.712  17.045  0.3659 -0.5358  0.1324
  587TMC3     H 8759   2.474   1.930  16.792  0.3239 -0.7807  0.2425
  587TMC3    H1 8760   2.829   1.784  16.951  2.8771  1.1818 -1.0407
  587TMC3    H2 8761   2.844   2.047  16.618 -0.3275 -0.1509 -0.4700
  587TMC3    C7 8762   2.991   1.933  16.825 -0.6490 -0.3039 -0.2672
  587TMC3    C8 8763   2.585   2.070  16.584  0.1474  0.0263  0.4204
  587TMC3    O1 8764   3.021   1.900  16.942  0.0417  0.0709 -0.2274
  587TMC3    O2 8765   2.657   2.110  16.495  0.7557  0.3733  0.0959
  588TMC3    C1 8766   0.028   4.565   9.972  0.0360 -0.2093 -0.1894
  588TMC3    C2 8767   0.065   4.430   9.962 -0.5861 -0.6905  0.1269
  588TMC3    C3 8768   0.109   4.360  10.075 -0.3079 -0.4981  0.2047
  588TMC3    C4 8769   0.044   4.628  10.092  0.4848 -0.0127  0.2146
  588TMC3    C5 8770   0.130   4.567  10.184  0.4587 -0.1681  0.2735
  588TMC3    C6 8771   0.141   4.430  10.188 -0.0357  0.3911  0.4513
  588TMC3     C 8772   0.082   4.642   9.864  0.1503 -0.1475 -0.5464
  588TMC3     O 8773   0.148   4.575   9.786 -0.2460  0.4824  0.2362
  588TMC3     H 8774   0.040   4.379   9.869 -0.8488 -0.5972  0.1473
  588TMC3    H1 8775   0.001   4.725  10.116 -1.4148 -0.8876  0.3394
  588TMC3    H2 8776   0.197   4.378  10.265 -2.6976 -3.1662 -0.0353
  588TMC3    C7 8777   0.237   4.643  10.241 -0.2339  0.2108 -0.3739
  588TMC3    C8 8778   0.044   4.222  10.082  0.5447 -0.8246 -0.7315
  588TMC3    O1 8779   0.305   4.578  10.320  0.5257  0.2802 -1.1562
  588TMC3    O2 8780   4.709   4.197   9.985 -0.7303 -0.6479 -0.4014
  589TMC3    C1 8781   3.455   1.768   1.320  0.2696  0.1332  0.1175
  589TMC3    C2 8782   3.564   1.701   1.368 -0.9923  0.2634  0.5468
  589TMC3    C3 8783   3.612   1.605   1.288 -0.2560 -0.0487  0.4180
  589TMC3    C4 8784   3.384   1.738   1.203  0.0804 -0.4719 -0.1077
  589TMC3    C5 8785   3.440   1.636   1.134  0.2853  1.0362  0.2159
  589TMC3    C6 8786   3.547   1.565   1.177 -0.4448 -0.2523  0.2873
  589TMC3     C 8787   3.380   1.839   1.431 -0.0732 -0.4743  0.5995
  589TMC3     O 8788   3.420   1.820   1.545 -0.2793 -0.5637 -0.3557
  589TMC3     H 8789   3.612   1.718   1.464 -0.8694 -0.9061  0.6958
  589TMC3    H1 8790   3.300   1.796   1.168  0.2135 -0.6425 -0.7089
  589TMC3    H2 8791   3.578   1.476   1.123 -0.5164  1.6713 -2.8506
  589TMC3    C7 8792   3.389   1.603   1.001 -0.4460 -0.0389 -0.2476
  589TMC3    C8 8793   3.711   1.512   1.343  0.2889 -0.1694  0.2813
  589TMC3    O1 8794   3.443   1.506   0.951 -0.2829  0.3239 -0.2255
  589TMC3    O2 8795   3.737   1.522   1.461 -0.4828 -0.0429  0.1060
  590MPD2     C 8796   3.225   4.555  16.351  0.2093 -0.3495  0.5126
  590MPD2    C1 8797   3.211   4.678  16.406  0.1742  0.2494 -0.5923
  590MPD2    C2 8798   3.305   0.044  16.386 -0.0382  0.4037 -0.1330
  590MPD2    C3 8799   3.418   0.008  16.317  0.0379 -0.7709 -1.1238
  590MPD2    C4 8800   3.433   4.615  16.268  0.4998 -0.2151 -0.5340
  590MPD2    C5 8801   3.341   4.525  16.277  0.2996  0.1281 -0.8797
  590MPD2     H 8802   3.287   0.141  16.429  2.2979  0.5310  0.5800
  590MPD2    H1 8803   3.521   4.586  16.212 -0.4295  0.3460 -2.2557
  590MPD2    H2 8804   3.158   4.470  16.358 -2.4435  1.6743 -0.2825
  590MPD2    H3 8805   3.352   4.428  16.229  0.5665 -0.5222  0.4855
  590MPD2     N 8806   3.506   0.117  16.294 -0.6066  0.0357 -0.2419
  590MPD2    H5 8807   3.473   0.209  16.320  1.6543  0.7445  0.0890
  590MPD2    N1 8808   3.095   4.693  16.476 -0.2195 -0.3173 -0.0567
  590MPD2    H7 8809   3.034   4.611  16.476  0.3771 -0.7683 -3.1743
  591TMC3    C1 8810   3.688   0.231  16.187  0.4050 -1.0865 -0.1658
  591TMC3    C2 8811   3.801   0.233  16.110 -0.0874  0.7617  0.2850
  591TMC3    C3 8812   3.854   0.348  16.062  0.1545 -0.1608  0.1762
  591TMC3    C4 8813   3.622   0.353  16.208 -0.4222 -0.6603 -0.4262
  591TMC3    C5 8814   3.672   0.467  16.148 -0.5159 -0.0284  0.1907
  591TMC3    C6 8815   3.795   0.470  16.083 -0.6520  0.6719  0.5886
  591TMC3     C 8816   3.623   0.112  16.213  0.4915 -0.3536 -1.2842
  591TMC3     O 8817   3.672   0.014  16.164 -0.1842  0.0572  0.9535
  591TMC3     H 8818   3.848   0.140  16.080 -1.3996 -0.2508  1.3941
  591TMC3    H1 8819   3.533   0.358  16.269  0.1985  1.8309  0.2861
  591TMC3    H2 8820   3.842   0.563  16.054 -3.3333  1.1365 -2.3119
  591TMC3    C7 8821   3.611   0.594  16.185 -0.5176 -0.7421 -0.1314
  591TMC3    C8 8822   3.963   0.338  15.961  0.0240 -0.7237  0.2787
  591TMC3    O1 8823   3.526   0.588  16.268  0.3562 -0.2059  0.1212
  591TMC3    O2 8824   4.037   0.242  15.971 -0.3833 -0.1107 -0.1062
  592MPD2     C 8825   4.155   1.931  11.593  0.6297  0.2478  0.0375
  592MPD2    C1 8826   4.139   2.005  11.706 -0.1695  0.8917 -0.0969
  592MPD2    C2 8827   4.122   1.950  11.829  0.1485 -0.1465  0.2862
  592MPD2    C3 8828   4.118   1.814  11.841 -0.4600  0.1042 -0.4711
  592MPD2    C4 8829   4.130   1.736  11.726  0.3395  0.4164  0.4579
  592MPD2    C5 8830   4.152   1.799  11.605 -0.1494 -0.5119 -0.1657
  592MPD2     H 8831   4.103   2.000  11.923 -1.0027  0.2022 -0.1340
  592MPD2    H1 8832   4.122   1.628  11.739 -0.3935  0.6433  1.9665
  592MPD2    H2 8833   4.166   1.987  11.501  4.7895 -0.3820  0.1517
  592MPD2    H3 8834   4.152   1.729  11.522  0.5384  0.3555 -0.8944
  592MPD2     N 8835   4.086   1.756  11.965  0.0523 -0.8391  0.4142
  592MPD2    H5 8836   4.033   1.813  12.030 -1.9256 -1.8776 -0.2673
  592MPD2    N1 8837   4.159   2.148  11.692 -0.5780 -0.0668  0.7151
  592MPD2    H7 8838   4.177   2.178  11.596 -0.4626  1.4013  1.1977
  593TMC3    C1 8839   4.157   2.386  11.737 -0.6094 -0.1676  0.4878
  593TMC3    C2 8840   4.169   2.483  11.835  0.6851 -0.1797  0.4469
  593TMC3    C3 8841   4.171   2.610  11.810  0.1215 -0.3577 -0.1011
  593TMC3    C4 8842   4.169   2.424  11.607  0.0168 -0.2961 -0.4340
  593TMC3    C5 8843   4.179   2.557  11.585 -1.1593  0.1122  0.7115
  593TMC3    C6 8844   4.188   2.656  11.681 -0.6304 -0.2875  0.9438
  593TMC3     C 8845   4.151   2.249  11.788 -0.8189  0.0921 -0.4454
  593TMC3     O 8846   4.158   2.234  11.908  0.0779  0.3597  0.6767
  593TMC3     H 8847   4.191   2.445  11.934  1.8779 -1.1719 -0.2084
  593TMC3    H1 8848   4.152   2.347  11.532 -1.1997 -2.4007  1.9986
  593TMC3    H2 8849   4.170   2.758  11.651 -1.8743 -0.3834  1.3269
  593TMC3    C7 8850   4.201   2.602  11.448  0.2515 -0.5764 -0.2754
  593TMC3    C8 8851   4.187   2.696  11.931 -0.7226 -0.0368  0.5973
  593TMC3    O1 8852   4.226   2.720  11.440  0.4020 -0.0256  1.0110
  593TMC3    O2 8853   4.139   2.650  12.036  0.3859 -0.4364  0.1116
  594MPD2     C 8854   2.567   0.730  14.408  0.2274 -0.4364 -0.3241
  594MPD2    C1 8855   2.574   0.786  14.533  0.2512 -0.3092  0.0699
  594MPD2    C2 8856   2.646   0.900  14.561 -0.2335  0.0387 -0.4701
  594MPD2    C3 8857   2.734   0.947  14.467  0.2434  0.0336  0.8178
  594MPD2    C4 8858   2.742   0.888  14.347 -0.2164  0.5150  0.3320
  594MPD2    C5 8859   2.654   0.788  14.321  0.4068 -0.2558  0.2375
  594MPD2     H 8860   2.633   0.957  14.652  0.1515 -1.5309  0.5697
  594MPD2    H1 8861   2.809   0.927  14.272 -0.0911  0.6568  0.5154
  594MPD2    H2 8862   2.518   0.638  14.378 -1.0397  0.1738 -0.1340
  594MPD2    H3 8863   2.649   0.762  14.216  0.9687  1.9027 -0.3297
  594MPD2     N 8864   2.804   1.063  14.496  0.3127  0.0819  0.3349
  594MPD2    H5 8865   2.790   1.111  14.584 -0.0216  1.2129 -0.3350
  594MPD2    N1 8866   2.487   0.731  14.625 -0.0748  0.5900  0.0711
  594MPD2    H7 8867   2.431   0.653  14.593  2.0722 -1.2723  0.8813
  595TMC3    C1 8868   3.199   1.308  14.539  0.2177  0.1030 -0.1247
  595TMC3    C2 8869   3.122   1.222  14.459 -0.1391  0.0112  0.2786
  595TMC3    C3 8870   2.994   1.205  14.506 -0.4206 -0.5937 -0.4889
  595TMC3    C4 8871   3.160   1.356  14.659  0.2267 -0.7440  0.2114
  595TMC3    C5 8872   3.037   1.327  14.703  0.1742  0.3012  0.2915
  595TMC3    C6 8873   2.945   1.253  14.620 -0.0360 -0.8797 -0.9530
  595TMC3     C 8874   3.341   1.320  14.517 -0.6888 -0.0807 -0.0907
  595TMC3     O 8875   3.399   1.396  14.591 -0.1598  0.1059 -0.0776
  595TMC3     H 8876   3.163   1.189  14.365 -0.1898 -0.9003  0.5756
  595TMC3    H1 8877   3.226   1.419  14.718 -0.4718  0.4588 -0.2897
  595TMC3    H2 8878   2.842   1.251  14.653 -0.0462  1.8452 -0.7490
  595TMC3    C7 8879   2.989   1.408  14.814  0.1884 -0.4260  0.2821
  595TMC3    C8 8880   2.924   1.097  14.437  0.0159 -0.0817 -0.1323
  595TMC3    O1 8881   2.874   1.446  14.803  0.2592  0.4260 -0.8388
  595TMC3    O2 8882   2.978   1.053  14.337 -0.1871  0.6661  0.3163
  596MPD2     C 8883   1.184   3.898  16.607  0.3928 -0.0894  0.1957
  596MPD2    C1 8884   1.294   3.980  16.609 -0.5035 -0.3597  0.5078
  596MPD2    C2 8885   1.402   3.945  16.524  0.0594  0.2160 -0.0917
  596MPD2    C3 8886   1.399   3.834  16.447 -0.1810 -0.2321  0.1560
  596MPD2    C4 8887   1.289   3.743  16.460  0.5679 -0.8366 -0.3385
  596MPD2    C5 8888   1.185   3.779  16.539 -1.2339  0.1918  0.0033
  596MPD2     H 8889   1.484   4.015  16.514  0.5738 -0.5535 -1.2694
  596MPD2    H1 8890   1.285   3.647  16.411  0.8493 -1.2110  0.3779
  596MPD2    H2 8891   1.092   3.918  16.662  0.7430 -1.9820  1.4639
  596MPD2    H3 8892   1.095   3.719  16.546  0.1602 -2.0588 -1.5952
  596MPD2     N 8893   1.495   3.803  16.355  0.3354  0.5898 -0.2681
  596MPD2    H5 8894   1.474   3.733  16.285  3.4023  0.3116 -0.9322
  596MPD2    N1 8895   1.295   4.108  16.676  0.4455  0.1482  0.5099
  596MPD2    H7 8896   1.377   4.167  16.666 -1.0817  2.0956 -0.5473
  597TMC3    C1 8897   1.214   4.271  16.833  0.4818 -0.4140 -0.5000
  597TMC3    C2 8898   1.308   4.363  16.775  0.2395 -0.2274 -0.3864
  597TMC3    C3 8899   1.309   4.491  16.825 -0.4591 -0.3170 -0.1205
  597TMC3    C4 8900   1.134   4.305  16.938 -0.1787  0.3179 -0.3851
  597TMC3    C5 8901   1.141   4.437  16.979  0.3729  0.4150  0.1150
  597TMC3    C6 8902   1.229   4.532  16.931  0.0800 -0.1771 -0.9967
  597TMC3     C 8903   1.199   4.139  16.774 -0.2516  0.0749  0.1105
  597TMC3     O 8904   1.128   4.066  16.842 -0.3910 -0.1688  0.0686
  597TMC3     H 8905   1.345   4.348  16.674  0.4260 -0.9854 -0.2035
  597TMC3    H1 8906   1.077   4.236  16.999  0.9520 -1.7316 -1.6590
  597TMC3    H2 8907   1.253   4.630  16.970 -2.1536 -0.3990  0.9247
  597TMC3    C7 8908   1.039   4.478  17.071  0.2553 -0.0104 -0.3423
  597TMC3    C8 8909   1.407   4.588  16.774  0.7899 -0.0149  0.4190
  597TMC3    O1 8910   0.977   4.395  17.132 -0.0548  0.1230 -0.0606
  597TMC3    O2 8911   1.381   4.709  16.785  0.3641  0.2757  0.2320
  598TMC3    C1 8912   4.400   0.596  15.137 -0.1620 -0.0690  0.9128
  598TMC3    C2 8913   4.293   0.508  15.122  0.6970 -0.6733 -0.3748
  598TMC3    C3 8914   4.232   0.508  14.998  0.2265  0.2089 -0.4214
  598TMC3    C4 8915   4.448   0.665  15.034  0.1325  0.4146  0.8950
  598TMC3    C5 8916   4.391   0.655  14.912  0.0302  0.2739 -0.1328
  598TMC3    C6 8917   4.290   0.571  14.890 -0.2269  0.3474  0.1762
  598TMC3     C 8918   4.476   0.610  15.265  0.1158  0.5016 -0.5733
  598TMC3     O 8919   4.558   0.708  15.274 -0.1547 -0.2997  0.2042
  598TMC3     H 8920   4.247   0.466  15.211  3.0122 -2.1829  0.1274
  598TMC3    H1 8921   4.547   0.707  15.051 -0.9474  3.0500  0.5886
  598TMC3    H2 8922   4.245   0.562  14.792  0.1845 -1.7569  0.1728
  598TMC3    C7 8923   4.444   0.724  14.808 -0.0257 -0.2491 -0.5764
  598TMC3    C8 8924   4.128   0.412  14.977  0.1343 -0.4529  0.3623
  598TMC3    O1 8925   4.402   0.689  14.701 -0.0176 -0.2278 -0.1184
  598TMC3    O2 8926   4.120   0.314  15.054  0.6245  0.1168  0.0580
  599MPD2     C 8927   4.436   2.459  15.124  0.6160 -0.3598  0.2502
  599MPD2    C1 8928   4.481   2.529  15.238  0.0856 -0.2381  0.0820
  599MPD2    C2 8929   4.389   2.610  15.291 -0.6146 -0.5088  1.3343
  599MPD2    C3 8930   4.265   2.641  15.232  0.4278 -0.1333  0.5100
  599MPD2    C4 8931   4.235   2.586  15.108 -0.8831  0.1455 -0.0321
  599MPD2    C5 8932   4.321   2.496  15.058 -0.4137 -0.1261  0.2983
  599MPD2     H 8933   4.407   2.648  15.392 -2.0898  0.6912  1.1487
  599MPD2    H1 8934   4.139   2.592  15.059 -1.9397 -2.1373  1.7856
  599MPD2    H2 8935   4.498   2.374  15.095  1.4107  0.8438 -1.5711
  599MPD2    H3 8936   4.283   2.426  14.984  0.7070 -1.3784  0.9023
  599MPD2     N 8937   4.168   2.723  15.286 -0.5256  0.8098 -0.0383
  599MPD2    H5 8938   4.078   2.726  15.239 -0.6414  3.6138  0.3803
  599MPD2    N1 8939   4.607   2.502  15.299  0.5928  0.0684  0.1904
  599MPD2    H7 8940   4.653   2.415  15.273  0.1551 -0.2634  0.5357
  600TMC3    C1 8941   4.051   2.826  15.471 -0.1145  0.5005 -0.1311
  600TMC3    C2 8942   3.933   2.763  15.444 -0.7946 -0.0427 -0.2360
  600TMC3    C3 8943   3.832   2.781  15.531  0.2891 -0.3594  0.0902
  600TMC3    C4 8944   4.070   2.913  15.577  0.2337  0.2653 -0.2966
  600TMC3    C5 8945   3.966   2.919  15.666  0.1085 -0.4808 -0.8060
  600TMC3    C6 8946   3.846   2.855  15.649 -0.2815 -0.1819 -0.2471
  600TMC3     C 8947   4.175   2.778  15.414  0.5913  0.4996 -1.0448
  600TMC3     O 8948   4.268   2.778  15.495  0.3960  0.0775  0.2867
  600TMC3     H 8949   3.918   2.690  15.366 -0.6281 -1.2541  0.8670
  600TMC3    H1 8950   4.167   2.957  15.600  1.1312 -2.3815  1.0247
  600TMC3    H2 8951   3.780   2.846  15.734  0.2997  0.4632  0.2712
  600TMC3    C7 8952   3.974   3.035  15.761 -0.0930  0.3427  1.1397
  600TMC3    C8 8953   3.702   2.724  15.487  0.2813  0.8702  0.2246
  600TMC3    O1 8954   3.903   3.028  15.859  0.2824  0.1156  0.1123
  600TMC3    O2 8955   3.702   2.652  15.391 -0.3712  0.3003  0.1876
  601MPD2     C 8956   2.014   1.778   0.387  0.5885 -0.1495  0.6372
  601MPD2    C1 8957   1.886   1.736   0.429 -0.7305  0.0203 -0.0480
  601MPD2    C2 8958   1.872   1.620   0.504 -1.0476  0.3787 -0.4649
  601MPD2    C3 8959   1.981   1.555   0.544 -0.3018  0.4159  0.0919
  601MPD2    C4 8960   2.109   1.596   0.507 -0.0201  0.1159 -0.1101
  601MPD2    C5 8961   2.123   1.710   0.434  0.5237  0.0153  0.2516
  601MPD2     H 8962   1.773   1.581   0.524 -1.1810  0.7934 -0.3155
  601MPD2    H1 8963   2.192   1.532   0.534 -1.4820 -2.5572 -1.8895
  601MPD2    H2 8964   2.038   1.861   0.322  2.5300  1.6929  3.6782
  601MPD2    H3 8965   2.218   1.752   0.406  1.1763 -0.5952  1.5582
  601MPD2     N 8966   1.976   1.439   0.627  0.3651 -0.7476 -0.8188
  601MPD2    H5 8967   2.065   1.400   0.655  0.8536 -0.0608 -1.4114
  601MPD2    N1 8968   1.772   1.799   0.382 -1.2028 -0.3535  0.3927
  601MPD2    H7 8969   1.683   1.764   0.414 -1.8805 -0.2884 -1.4522
  602TMC3    C1 8970   1.650   1.956   0.249 -0.0870 -0.5179 -0.5056
  602TMC3    C2 8971   1.656   2.083   0.184  0.4355 -0.5380 -1.1129
  602TMC3    C3 8972   1.563   2.112   0.090  0.6930 -0.0996 -0.4442
  602TMC3    C4 8973   1.546   1.868   0.230 -0.8269 -0.2198 -0.6631
  602TMC3    C5 8974   1.469   1.897   0.123 -0.4532  0.5739 -0.4455
  602TMC3    C6 8975   1.473   2.017   0.050 -0.1797 -0.2405 -0.4193
  602TMC3     C 8976   1.772   1.917   0.313 -0.3274  0.5656  0.0773
  602TMC3     O 8977   1.863   1.995   0.284  0.1488 -0.0106 -0.3879
  602TMC3     H 8978   1.729   2.158   0.214  1.4647 -1.9331 -0.1474
  602TMC3    H1 8979   1.555   1.770   0.275 -2.3456 -0.7485 -1.4997
  602TMC3    H2 8980   1.385   2.043  17.730  0.7835  0.1239 -1.7301
  602TMC3    C7 8981   1.361   1.807   0.080  0.0220 -0.0075 -0.0348
  602TMC3    C8 8982   1.590   2.220  17.729 -1.1609 -0.6137  0.6361
  602TMC3    O1 8983   1.316   1.721   0.149 -0.6203 -0.0809  0.3958
  602TMC3    O2 8984   1.628   2.330   0.027 -0.1827 -0.0487  0.0996
  603TMC3    C1 8985   0.617   2.220  11.462 -0.8941 -0.6326  0.9012
  603TMC3    C2 8986   0.683   2.140  11.555  0.2706 -0.3596  0.3068
  603TMC3    C3 8987   0.604   2.049  11.619  0.3453  0.0305 -0.1122
  603TMC3    C4 8988   0.483   2.197  11.422 -0.5783  0.3741  0.4932
  603TMC3    C5 8989   0.410   2.105  11.495 -0.0059  0.7444 -0.1035
  603TMC3    C6 8990   0.467   2.034  11.593 -0.1712 -0.5475  0.2822
  603TMC3     C 8991   0.699   2.285  11.367 -0.7710  0.2047  0.0657
  603TMC3     O 8992   0.814   2.247  11.341  0.6958  0.0811 -0.1299
  603TMC3     H 8993   0.786   2.150  11.585  0.3656 -0.9063  0.1478
  603TMC3    H1 8994   0.429   2.259  11.351 -0.3401 -0.5449 -0.4947
  603TMC3    H2 8995   0.408   1.977  11.664 -0.2423 -2.2889 -1.1622
  603TMC3    C7 8996   0.271   2.088  11.480  1.2453 -0.3990  0.4139
  603TMC3    C8 8997   0.642   1.960  11.729  0.3404  0.1352  0.2195
  603TMC3    O1 8998   0.200   2.127  11.573 -0.2007  0.7285  0.4274
  603TMC3    O2 8999   0.583   1.858  11.730  0.5699 -0.3801 -0.1384
  604MPD2     C 9000   0.957   0.448  16.293 -0.2818 -0.3094  0.5100
  604MPD2    C1 9001   0.849   0.379  16.251  0.0697 -0.5896  0.3704
  604MPD2    C2 9002   0.863   0.307  16.132  0.1339  0.5343 -0.7328
  604MPD2    C3 9003   0.978   0.332  16.051  0.3311 -0.3044  0.2638
  604MPD2    C4 9004   1.072   0.423  16.088 -0.3815 -0.6918 -0.1217
  604MPD2    C5 9005   1.060   0.482  16.210 -0.2022  0.3635  0.5154
  604MPD2     H 9006   0.786   0.242  16.094 -0.2664  0.5664  0.0264
  604MPD2    H1 9007   1.152   0.445  16.018 -0.0188 -1.4951  0.0394
  604MPD2    H2 9008   0.955   0.504  16.386 -0.9638  2.9965 -1.5166
  604MPD2    H3 9009   1.129   0.557  16.246 -0.8904  1.2443 -0.0008
  604MPD2     N 9010   0.997   0.255  15.934 -0.4053  0.0714  0.1163
  604MPD2    H5 9011   0.924   0.188  15.911 -2.1282  2.4430 -1.2902
  604MPD2    N1 9012   0.740   0.386  16.335 -0.4122  0.3747 -0.0524
  604MPD2    H7 9013   0.751   0.435  16.423 -0.9021  3.5559 -1.7781
  605TMC3    C1 9014   0.524   0.419  16.412 -0.8333 -0.4387  0.5836
  605TMC3    C2 9015   0.584   0.435  16.534  0.6454  0.1019 -0.0602
  605TMC3    C3 9016   0.537   0.530  16.614 -0.5580 -0.4530 -0.0652
  605TMC3    C4 9017   0.428   0.496  16.369 -0.0511 -0.4854 -0.2201
  605TMC3    C5 9018   0.376   0.595  16.461  0.4400 -0.6654  0.8373
  605TMC3    C6 9019   0.431   0.614  16.585 -0.1433 -0.1114 -0.3669
  605TMC3     C 9020   0.607   0.355  16.307  0.7323 -0.6987 -0.1885
  605TMC3     O 9021   0.565   0.329  16.194 -0.6275 -0.0578 -0.0747
  605TMC3     H 9022   0.677   0.384  16.559  0.9081 -0.1231 -1.5131
  605TMC3    H1 9023   0.409   0.488  16.262 -1.8202  2.2270 -0.1126
  605TMC3    H2 9024   0.407   0.706  16.637  0.9447  0.9888 -1.7779
  605TMC3    C7 9025   0.257   0.669  16.423  0.4174  0.0810 -0.0448
  605TMC3    C8 9026   0.648   0.612  16.662  0.5135 -0.2398 -0.6836
  605TMC3    O1 9027   0.209   0.760  16.494 -0.0374 -1.0197 -0.5541
  605TMC3    O2 9028   0.740   0.626  16.580 -0.8432 -0.1006  0.4576
  606TMC3    C1 9029   1.332   4.282  17.236  0.0193 -0.1957  0.1346
  606TMC3    C2 9030   1.281   4.244  17.357  0.3770 -1.0506  0.5871
  606TMC3    C3 9031   1.255   4.109  17.385 -0.1275 -0.0855  0.5601
  606TMC3    C4 9032   1.370   4.182  17.152 -0.0050 -0.7146 -0.0576
  606TMC3    C5 9033   1.346   4.046  17.182  0.0568 -0.4087 -0.6603
  606TMC3    C6 9034   1.287   4.012  17.302  0.1649 -0.1965  0.0363
  606TMC3     C 9035   1.376   4.418  17.214 -0.0785 -0.5777 -0.1574
  606TMC3     O 9036   1.460   4.441  17.127 -0.4651 -0.0601 -0.1302
  606TMC3     H 9037   1.281   4.316  17.438  0.1753  1.0261 -1.2807
  606TMC3    H1 9038   1.420   4.214  17.061  1.1688 -3.7876 -0.4873
  606TMC3    H2 9039   1.279   3.911  17.341 -0.1657 -0.0207  0.4242
  606TMC3    C7 9040   1.391   3.942  17.087 -0.9682 -0.1436 -0.3904
  606TMC3    C8 9041   1.240   4.079  17.519 -0.5218 -0.5712 -0.4118
  606TMC3    O1 9042   1.424   3.988  16.977  0.1506  0.7083 -0.2141
  606TMC3    O2 9043   1.308   3.998  17.573  0.2573  0.8104  0.3294
  607MPD2     C 9044   4.475   1.322  11.624  0.2276 -0.2219 -0.4504
  607MPD2    C1 9045   4.402   1.371  11.723 -0.7095 -0.2522  0.2165
  607MPD2    C2 9046   4.351   1.285  11.820 -0.3691 -0.6024  0.4522
  607MPD2    C3 9047   4.385   1.150  11.822 -0.0173  0.6487 -0.5272
  607MPD2    C4 9048   4.464   1.096  11.716  0.1224  0.1550 -0.1382
  607MPD2    C5 9049   4.495   1.183  11.619  0.7579  0.6378  0.4226
  607MPD2     H 9050   4.291   1.317  11.904  0.4213 -1.5666  1.3943
  607MPD2    H1 9051   4.502   0.996  11.702 -1.2929 -0.1653 -1.7526
  607MPD2    H2 9052   4.531   1.377  11.549 -1.7715 -0.4989 -2.1479
  607MPD2    H3 9053   4.567   1.142  11.549  1.0614  0.6646  0.7198
  607MPD2     N 9054   4.334   1.073  11.930 -0.1209  0.5734  0.0156
  607MPD2    H5 9055   4.278   1.123  11.998 -1.1588 -0.6177  0.0526
  607MPD2    N1 9056   4.386   1.508  11.748  0.2686 -0.0524  0.1758
  607MPD2    H7 9057   4.326   1.536  11.825  2.5594 -3.4564  3.1368
  608TMC3    C1 9058   4.467   1.723  11.763 -0.4076 -0.0109 -0.5505
  608TMC3    C2 9059   4.461   1.706  11.897 -0.2199 -0.8607 -0.1968
  608TMC3    C3 9060   4.485   1.811  11.979  0.0637  0.6161 -0.5159
  608TMC3    C4 9061   4.495   1.845  11.702  0.4995  0.2017 -0.1976
  608TMC3    C5 9062   4.514   1.949  11.792  0.1095  0.3157 -0.1696
  608TMC3    C6 9063   4.511   1.940  11.930 -0.2907  0.0685 -0.0309
  608TMC3     C 9064   4.448   1.609  11.676 -0.1559 -0.2270 -0.2212
  608TMC3     O 9065   4.504   1.607  11.565 -0.6152  0.3298 -0.4988
  608TMC3     H 9066   4.464   1.609  11.946  1.7556 -1.9227 -2.4004
  608TMC3    H1 9067   4.482   1.856  11.595  0.9619  2.2616 -0.0269
  608TMC3    H2 9068   4.545   2.020  11.995 -0.7067  0.7641 -0.6563
  608TMC3    C7 9069   4.505   2.082  11.731 -0.1514  0.9741 -0.3408
  608TMC3    C8 9070   4.465   1.798  12.123  0.7376 -0.8823 -0.4013
  608TMC3    O1 9071   4.497   2.084  11.609 -0.0076 -0.6935  0.0109
  608TMC3    O2 9072   4.517   1.886  12.193 -0.0925 -0.2326  0.2003
  609TMC3    C1 9073   2.499   4.660   9.172 -0.0561 -0.1277  0.0506
  609TMC3    C2 9074   2.480   4.526   9.168 -0.5570 -0.1535 -0.1605
  609TMC3    C3 9075   2.595   4.456   9.150  0.2390  0.2488  0.4082
  609TMC3    C4 9076   2.615   4.729   9.160 -0.0794 -0.3368  0.0013
  609TMC3    C5 9077   2.726   4.650   9.149 -0.3683 -0.0885 -0.2680
  609TMC3    C6 9078   2.717   4.517   9.142 -0.3757  0.2322 -0.0545
  609TMC3     C 9079   2.384   4.724   9.233 -0.8222 -0.5520 -0.4852
  609TMC3     O 9080   2.297   4.653   9.283  0.6027 -0.7110 -0.0962
  609TMC3     H 9081   2.386   4.476   9.185 -0.7327 -0.2846 -1.5525
  609TMC3    H1 9082   2.627   0.101   9.177  0.0997 -0.2291 -0.7829
  609TMC3    H2 9083   2.804   4.452   9.145 -0.5428  0.0383  0.5687
  609TMC3    C7 9084   2.853   4.717   9.179  0.7293 -0.4440  0.1490
  609TMC3    C8 9085   2.575   4.311   9.137  0.1175  0.2831  0.2802
  609TMC3    O1 9086   2.848   0.088   9.242  0.8195 -0.0438 -0.1780
  609TMC3    O2 9087   2.466   4.269   9.173 -0.2008 -0.1994  0.2707
  610TMC3    C1 9088   4.635   1.885  12.657  0.4335 -0.1118  0.0529
  610TMC3    C2 9089   4.656   1.895  12.516 -0.1056  0.0403 -0.3083
  610TMC3    C3 9090   0.056   1.896  12.483  0.6590  0.4813 -0.2858
  610TMC3    C4 9091   0.001   1.848  12.744  0.1116  0.5535 -0.1694
  610TMC3    C5 9092   0.129   1.835  12.699  0.0517  0.0621  0.2059
  610TMC3    C6 9093   0.156   1.853  12.566 -0.1666  0.3558 -0.3137
  610TMC3     C 9094   4.505   1.900  12.712 -0.5584 -0.5703 -0.0571
  610TMC3     O 9095   4.435   1.982  12.660  0.3795 -0.3022  0.0719
  610TMC3     H 9096   4.581   1.932  12.447 -0.6127 -0.8322 -0.2225
  610TMC3    H1 9097   4.715   1.834  12.850  0.7769 -0.7141 -0.2064
  610TMC3    H2 9098   0.255   1.832  12.529 -0.5148 -1.0907 -0.4068
  610TMC3    C7 9099   0.222   1.792  12.791  0.0097 -0.2725 -0.3738
  610TMC3    C8 9100   0.095   1.921  12.343  0.0177  0.0029  0.3922
  610TMC3    O1 9101   0.165   1.739  12.886  0.7698 -0.2948  0.0183
  610TMC3    O2 9102   0.190   1.860  12.297 -0.3136 -0.0139  0.2735
  611MPD2     C 9103   3.856   1.942  10.592 -0.5877 -0.1872 -0.2481
  611MPD2    C1 9104   3.916   1.850  10.508  0.4221  0.3826 -0.1864
  611MPD2    C2 9105   4.054   1.845  10.519  0.6032  0.0669 -0.0132
  611MPD2    C3 9106   4.119   1.931  10.605 -0.2041  0.6637 -0.5619
  611MPD2    C4 9107   4.050   2.006  10.693 -0.7570  0.5678  0.9079
  611MPD2    C5 9108   3.919   2.019  10.684  0.7623  0.6834  0.2151
  611MPD2     H 9109   4.118   1.786  10.454  2.0589  2.6547 -0.9297
  611MPD2    H1 9110   4.102   2.068  10.765 -0.1531 -0.2694  1.1905
  611MPD2    H2 9111   3.749   1.954  10.582 -0.8766 -1.7316  0.9676
  611MPD2    H3 9112   3.865   2.082  10.753 -0.1416  0.3053 -0.1446
  611MPD2     N 9113   4.262   1.929  10.610  0.2111 -0.3774  0.2650
  611MPD2    H5 9114   4.294   1.965  10.700  0.1447  0.3499 -0.0036
  611MPD2    N1 9115   3.831   1.765  10.430 -0.2542 -0.5622 -0.1062
  611MPD2    H7 9116   3.731   1.772  10.447 -0.2892 -0.9941 -0.1338
  612TMC3    C1 9117   4.489   1.904  10.551  0.0431  0.4113  0.1058
  612TMC3    C2 9118   4.515   1.874  10.684 -0.3005 -0.2115 -0.8739
  612TMC3    C3 9119   4.610   1.944  10.751  0.4627 -0.0146  0.2262
  612TMC3    C4 9120   4.572   1.995  10.484 -0.0065 -0.0492  1.1006
  612TMC3    C5 9121   4.674   2.060  10.558 -0.9212 -1.0372 -0.1575
  612TMC3    C6 9122   4.690   2.042  10.696  0.2524  0.0661 -0.5454
  612TMC3     C 9123   4.349   1.907  10.508 -0.6083 -0.2982  0.8200
  612TMC3     O 9124   4.329   1.886  10.389 -0.0665  0.3062  0.4624
  612TMC3     H 9125   4.457   1.795  10.729 -0.1669 -0.6422 -1.4679
  612TMC3    H1 9126   4.552   2.002  10.378  1.9689  1.0596  0.8130
  612TMC3    H2 9127   0.015   2.109  10.757 -0.5159  0.5161 -0.2786
  612TMC3    C7 9128   0.012   2.177  10.495  0.2452 -0.1865 -0.2194
  612TMC3    C8 9129   4.599   1.921  10.892  0.0229 -0.1831 -0.2292
  612TMC3    O1 9130   0.096   2.232  10.562 -0.4748 -0.3122  0.2049
  612TMC3    O2 9131   4.528   1.831  10.937 -0.7141 -0.6865 -0.1060
  613MPD2     C 9132   3.330   4.001  16.754 -0.4486 -0.2015 -0.1787
  613MPD2    C1 9133   3.211   4.063  16.721 -0.5975  0.1675  0.6522
  613MPD2    C2 9134   3.093   3.991  16.739  0.3146 -0.3174  0.1532
  613MPD2    C3 9135   3.092   3.864  16.796  0.1130  0.1055 -0.3384
  613MPD2    C4 9136   3.211   3.802  16.829 -0.4140  0.1299  0.1969
  613MPD2    C5 9137   3.326   3.873  16.804 -0.0515 -0.4851  0.6924
  613MPD2     H 9138   2.997   4.032  16.712 -0.4335 -1.3109  1.3069
  613MPD2    H1 9139   3.209   3.701  16.867 -0.2172 -0.4764 -1.3734
  613MPD2    H2 9140   3.425   4.052  16.741 -0.6384  0.3636  0.6128
  613MPD2    H3 9141   3.420   3.823  16.825  0.5819  0.0884 -0.7658
  613MPD2     N 9142   2.969   3.787  16.816  0.1736 -0.2825  0.0967
  613MPD2    H5 9143   2.969   3.696  16.860 -1.4189  0.2283  1.1446
  613MPD2    N1 9144   3.222   4.196  16.675 -0.3323 -0.0197  0.5257
  613MPD2    H7 9145   3.315   4.235  16.682  0.0770 -0.4842 -2.2837
  614TMC3    C1 9146   3.007   4.211  16.549 -0.2634  0.5288 -0.4213
  614TMC3    C2 9147   3.026   4.093  16.479 -0.1905 -0.4446  0.3270
  614TMC3    C3 9148   2.923   4.036  16.412 -0.5681 -0.0389 -0.7954
  614TMC3    C4 9149   2.889   4.284  16.536  0.1737 -0.3065 -0.9645
  614TMC3    C5 9150   2.786   4.221  16.468 -0.0681 -0.3280  0.2699
  614TMC3    C6 9151   2.803   4.104  16.401  0.1762 -0.1395 -0.9015
  614TMC3     C 9152   3.117   4.271  16.628 -0.3411 -0.6079  0.7605
  614TMC3     O 9153   3.114   4.394  16.612  0.0974 -0.1689  0.5130
  614TMC3     H 9154   3.118   4.038  16.490 -0.1454 -0.4298  0.0247
  614TMC3    H1 9155   2.866   4.376  16.588  0.4304  0.4753 -2.2309
  614TMC3    H2 9156   2.718   4.046  16.367 -0.7169  0.5830  0.0790
  614TMC3    C7 9157   2.664   4.296  16.431  0.9768 -0.0486 -0.0662
  614TMC3    C8 9158   2.934   3.895  16.382 -0.6319 -0.5546 -0.6819
  614TMC3    O1 9159   2.646   4.395  16.501 -0.5267  0.4487  0.1800
  614TMC3    O2 9160   3.020   3.838  16.445  0.9712 -0.2496 -0.3852
  615MPD2     C 9161   1.984   0.663  15.643 -0.2664 -0.5564  0.1314
  615MPD2    C1 9162   1.894   0.662  15.747 -0.3587  0.0464 -0.2081
  615MPD2    C2 9163   1.771   0.606  15.724 -0.5496  0.2364 -0.4424
  615MPD2    C3 9164   1.738   0.555  15.600  0.3710  0.0805 -0.5345
  615MPD2    C4 9165   1.830   0.558  15.497 -0.0348  0.0577  1.1951
  615MPD2    C5 9166   1.952   0.620  15.513  0.1598 -0.0107  0.7327
  615MPD2     H 9167   1.698   0.602  15.804 -0.1427  0.5275 -0.0527
  615MPD2    H1 9168   1.806   0.511  15.402 -0.1135  1.1119  0.6911
  615MPD2    H2 9169   2.086   0.689  15.667 -0.4439  0.5896 -0.3547
  615MPD2    H3 9170   2.030   0.632  15.439  0.3713 -0.3897  0.8967
  615MPD2     N 9171   1.610   0.508  15.566  0.3481  0.2075 -0.5126
  615MPD2    H5 9172   1.604   0.461  15.476 -1.1524  0.6157 -0.6166
  615MPD2    N1 9173   1.930   0.726  15.866  0.1621 -0.3303  0.5799
  615MPD2    H7 9174   2.006   0.793  15.862  0.1981 -0.4328 -0.2706
  616TMC3    C1 9175   1.916   0.806  16.092  0.1074 -0.6759  0.1606
  616TMC3    C2 9176   2.016   0.896  16.063 -0.1490  0.0769  0.9386
  616TMC3    C3 9177   2.070   0.959  16.157  0.0758 -0.4417 -0.0342
  616TMC3    C4 9178   1.865   0.792  16.217 -0.0206 -0.5669 -0.0380
  616TMC3    C5 9179   1.926   0.867  16.315 -0.6403 -0.1104  1.1894
  616TMC3    C6 9180   2.032   0.951  16.286 -0.2341 -0.1678 -0.0801
  616TMC3     C 9181   1.871   0.715  15.992 -0.1980 -0.1774  0.1659
  616TMC3     O 9182   1.784   0.633  16.024  0.1557  0.3110 -0.0668
  616TMC3     H 9183   2.053   0.914  15.963  2.5429 -1.3761  1.6555
  616TMC3    H1 9184   1.782   0.724  16.233  1.9554 -3.5431 -2.4506
  616TMC3    H2 9185   2.087   0.998  16.367 -1.4872 -2.3474  2.0518
  616TMC3    C7 9186   1.882   0.868  16.457 -0.1687  0.3319 -0.0059
  616TMC3    C8 9187   2.194   1.026  16.138 -0.1485 -0.3794 -0.8185
  616TMC3    O1 9188   1.772   0.814  16.471  0.0359 -0.3179 -0.2669
  616TMC3    O2 9189   2.269   1.022  16.237  0.4528  0.4341 -0.0638
  617MPD2     C 9190   1.156   3.056  13.746  0.2636  0.8682 -0.5625
  617MPD2    C1 9191   1.131   3.106  13.875  1.0542 -0.7964 -0.1073
  617MPD2    C2 9192   1.000   3.122  13.910  0.3433 -0.3967  0.0706
  617MPD2    C3 9193   0.899   3.097  13.821  0.0859  0.4692  0.2691
  617MPD2    C4 9194   0.922   3.032  13.703 -0.9292 -0.0478 -0.3098
  617MPD2    C5 9195   1.052   3.009  13.667  0.0098 -0.7528 -0.0557
  617MPD2     H 9196   0.985   3.158  14.012  1.8917  0.8036 -0.1307
  617MPD2    H1 9197   0.843   2.992  13.640 -0.1710 -0.0044 -1.2811
  617MPD2    H2 9198   1.256   3.039  13.707  0.7814 -1.3503  1.7235
  617MPD2    H3 9199   1.080   2.971  13.569  0.7130 -3.3083  1.1361
  617MPD2     N 9200   0.768   3.130  13.851 -0.5155 -0.2465 -0.5881
  617MPD2    H5 9201   0.702   3.092  13.785  2.4459 -2.2012 -2.3848
  617MPD2    N1 9202   1.242   3.139  13.954 -0.2248 -0.0007  0.4976
  617MPD2    H7 9203   1.334   3.134  13.912 -0.0973  0.5049  0.7053
  618TMC3    C1 9204   1.376   3.184  14.128  0.1043 -0.3511  0.6487
  618TMC3    C2 9205   1.434   3.072  14.180 -0.4566 -0.2676 -0.3697
  618TMC3    C3 9206   1.572   3.053  14.161  0.0236  0.1359 -0.1229
  618TMC3    C4 9207   1.447   3.263  14.049 -0.0146 -0.0515  0.3707
  618TMC3    C5 9208   1.578   3.239  14.024 -0.2350 -0.2386  0.4854
  618TMC3    C6 9209   1.644   3.142  14.095  0.6613  0.0779 -0.4680
  618TMC3     C 9210   1.234   3.167  14.088  0.5671  0.2470  0.5835
  618TMC3     O 9211   1.154   3.143  14.176 -0.6250 -0.2034  0.0450
  618TMC3     H 9212   1.368   3.011  14.241  0.6567 -1.5935 -0.4894
  618TMC3    H1 9213   1.404   3.351  14.004  1.0029 -0.3998 -1.2823
  618TMC3    H2 9214   1.749   3.119  14.077  0.6830 -0.5252  0.3838
  618TMC3    C7 9215   1.579   3.210  13.880 -0.3148 -0.0391  0.7861
  618TMC3    C8 9216   1.601   2.922  14.121  0.0808  0.2216  0.0247
  618TMC3    O1 9217   1.475   3.228  13.823 -0.2455  0.4868  0.9839
  618TMC3    O2 9218   1.720   2.898  14.112 -0.4662  0.3600  0.0657
  619MPD2     C 9219   2.191   4.328  13.859  0.4911  0.1968 -0.3039
  619MPD2    C1 9220   2.126   4.445  13.831 -0.0242 -0.3134  0.4019
  619MPD2    C2 9221   1.993   4.434  13.796  0.1390  0.2058  0.5168
  619MPD2    C3 9222   1.924   4.316  13.772 -0.1575  0.2792 -0.5810
  619MPD2    C4 9223   1.997   4.201  13.790 -0.8600 -0.5223 -0.3134
  619MPD2    C5 9224   2.124   4.206  13.845  0.1091 -0.0309 -1.0761
  619MPD2     H 9225   1.947   4.528  13.769 -3.6946 -0.7926  3.5847
  619MPD2    H1 9226   1.960   4.105  13.757  0.4671 -0.7878 -0.9858
  619MPD2    H2 9227   2.288   4.326  13.906  1.3466 -2.0030 -2.1446
  619MPD2    H3 9228   2.183   4.116  13.855  1.3702  0.7084 -1.7945
  619MPD2     N 9229   1.780   4.311  13.735 -0.0398 -0.5968  0.1122
  619MPD2    H5 9230   1.745   4.216  13.732  2.2829 -1.4589  0.0326
  619MPD2    N1 9231   2.178   4.572  13.846 -0.0730 -0.5158 -0.2239
  619MPD2    H7 9232   2.118   4.652  13.828  0.2295 -0.3350 -0.4317
  620TMC3    C1 9233   2.336   4.734  13.839  0.1780  0.2824  0.5241
  620TMC3    C2 9234   2.428   0.018  13.731  0.1173 -0.7402 -0.1298
  620TMC3    C3 9235   2.434   0.151  13.695  0.3723  0.0872 -0.0806
  620TMC3    C4 9236   2.274   0.095  13.904 -0.1173 -0.1744 -0.4539
  620TMC3    C5 9237   2.300   0.229  13.873 -0.0961 -0.5867 -0.0923
  620TMC3    C6 9238   2.385   0.252  13.773  0.3554 -0.4475 -0.4972
  620TMC3     C 9239   2.308   4.599  13.857 -0.3852 -0.1606 -0.4817
  620TMC3     O 9240   2.406   4.523  13.862 -0.0899  0.0679  0.1042
  620TMC3     H 9241   2.482   4.671  13.685 -1.2653 -1.8696  0.2568
  620TMC3    H1 9242   2.200   0.072  13.980  0.9678 -2.4006 -0.0605
  620TMC3    H2 9243   2.390   0.350  13.726  2.0886 -1.4906 -2.4705
  620TMC3    C7 9244   2.211   0.336  13.918  0.1251 -0.6372 -0.3974
  620TMC3    C8 9245   2.441   0.167  13.556 -0.5281  0.4371 -0.3477
  620TMC3    O1 9246   2.104   0.296  13.959  0.1233 -0.2067  0.4254
  620TMC3    O2 9247   2.549   0.206  13.518  0.1449 -0.5546 -0.0749
  621MPD2     C 9248   1.931   0.129   9.927  0.0945  0.1006  0.5008
  621MPD2    C1 9249   2.008   0.020   9.890  0.7160  0.0117  0.1244
  621MPD2    C2 9250   2.118   0.042   9.810  0.2509  0.6635 -0.1286
  621MPD2    C3 9251   2.140   0.172   9.761  0.7522  0.3778 -0.2809
  621MPD2    C4 9252   2.056   0.274   9.795  0.4838 -0.3197 -0.1394
  621MPD2    C5 9253   1.957   0.251   9.887  0.2302 -0.0043  0.6378
  621MPD2     H 9254   2.193   4.699   9.795 -0.6877 -0.2480 -0.1335
  621MPD2    H1 9255   2.068   0.372   9.750  0.2971 -0.3552 -0.2642
  621MPD2    H2 9256   1.844   0.119   9.992 -1.4009 -1.9501 -1.7963
  621MPD2    H3 9257   1.886   0.328   9.917  1.7279  0.7460  2.2736
  621MPD2     N 9258   2.259   0.199   9.680 -0.4557 -0.8274 -0.0634
  621MPD2    H5 9259   2.318   0.118   9.660 -1.1364 -0.9855 -1.3896
  621MPD2    N1 9260   1.985   4.621   9.934  0.8356  0.3237  0.4374
  621MPD2    H7 9261   2.046   4.554   9.889 -1.5975 -0.5516 -1.5223
  622TMC3    C1 9262   1.889   4.440  10.032 -0.7267 -1.1773 -0.2227
  622TMC3    C2 9263   1.795   4.398  10.123 -0.3493 -0.3388 -1.5067
  622TMC3    C3 9264   1.747   4.271  10.116 -0.7221 -0.5325 -0.7449
  622TMC3    C4 9265   1.945   4.349   9.947 -0.0526  0.1749 -0.1199
  622TMC3    C5 9266   1.894   4.223   9.942  0.5305  0.0645 -0.5866
  622TMC3    C6 9267   1.801   4.180  10.031  0.8509 -0.2550 -0.0522
  622TMC3     C 9268   1.880   4.579  10.000  0.1583  0.4276  0.4254
  622TMC3     O 9269   1.795   4.646  10.060 -0.0239 -0.5111  0.0963
  622TMC3     H 9270   1.754   4.468  10.194 -0.3996 -2.7377  0.7924
  622TMC3    H1 9271   2.021   4.377   9.874 -0.1197  2.0341  0.5271
  622TMC3    H2 9272   1.776   4.075  10.038 -1.7828  0.2625 -1.6953
  622TMC3    C7 9273   1.953   4.124   9.852 -0.1607  0.5083 -0.3691
  622TMC3    C8 9274   1.647   4.223  10.209  0.4821 -0.1545 -0.0230
  622TMC3    O1 9275   2.049   4.165   9.787  0.2380 -0.4171  0.2239
  622TMC3    O2 9276   1.632   4.098  10.203  0.0602  0.8549 -0.0003
  623MPD2     C 9277   0.966   0.680  15.900  0.0119  0.2790  0.7010
  623MPD2    C1 9278   0.878   0.697  16.005 -0.0459 -0.4540 -0.4209
  623MPD2    C2 9279   0.930   0.751  16.124 -0.2877 -0.2721  0.1044
  623MPD2    C3 9280   1.062   0.797  16.135  0.2396  0.0565  0.1317
  623MPD2    C4 9281   1.143   0.777  16.025  0.0692 -0.6179  0.3797
  623MPD2    C5 9282   1.097   0.725  15.909 -0.0354 -0.0756  0.4329
  623MPD2     H 9283   0.868   0.775  16.209 -1.1105  0.3789 -0.6734
  623MPD2    H1 9284   1.248   0.803  16.036 -0.0931 -0.1108  0.7269
  623MPD2    H2 9285   0.933   0.641  15.804  0.8052  2.1379 -0.3353
  623MPD2    H3 9286   1.166   0.694  15.832  0.6612  0.4131  0.8607
  623MPD2     N 9287   1.103   0.866  16.256 -0.2069 -0.2337 -0.1603
  623MPD2    H5 9288   1.028   0.884  16.322  0.2398  2.5783 -0.4108
  623MPD2    N1 9289   0.735   0.664  15.996  0.5650 -0.6763 -0.3096
  623MPD2    H7 9290   0.683   0.681  16.082  0.1700 -0.6616 -0.5547
  624TMC3    C1 9291   1.344   0.880  16.618  0.3566  0.4004  0.2026
  624TMC3    C2 9292   1.249   0.947  16.694 -0.0148  0.3643  0.2783
  624TMC3    C3 9293   1.138   0.996  16.629  1.0046 -0.4100  0.2325
  624TMC3    C4 9294   1.348   0.890  16.488  0.1410  0.4856 -0.3812
  624TMC3    C5 9295   1.242   0.952  16.427  0.1271 -0.2450 -0.3277
  624TMC3    C6 9296   1.139   1.001  16.498 -0.1086 -0.1417  0.0789
  624TMC3     C 9297   1.455   0.822  16.690 -0.2191 -0.7872  0.2277
  624TMC3     O 9298   1.504   0.881  16.789  0.5382  0.1153  0.0716
  624TMC3     H 9299   1.255   0.929  16.801 -1.7211  1.3433  0.5444
  624TMC3    H1 9300   1.420   0.833  16.431  0.1863  0.6257 -0.4646
  624TMC3    H2 9301   1.047   1.024  16.446  0.9683  1.5036 -1.0763
  624TMC3    C7 9302   1.230   0.911  16.286  0.1350  0.4030 -0.2123
  624TMC3    C8 9303   1.009   0.990  16.688 -0.5330 -0.0576 -0.3367
  624TMC3    O1 9304   1.318   0.934  16.209  0.2063  0.0271  0.3608
  624TMC3    O2 9305   0.912   1.018  16.622 -0.1083  0.2057 -0.0077
  625MPD2     C 9306   1.323   2.257   1.018  0.5917 -0.1895  0.4273
  625MPD2    C1 9307   1.326   2.321   0.898 -0.0572 -0.3925 -0.1524
  625MPD2    C2 9308   1.435   2.387   0.864 -0.1117  0.4349  0.3227
  625MPD2    C3 9309   1.539   2.405   0.947  0.7933  0.0511  0.0186
  625MPD2    C4 9310   1.545   2.330   1.064  0.7003 -0.1466 -0.3792
  625MPD2    C5 9311   1.433   2.258   1.096  0.0599  0.2518  0.2497
  625MPD2     H 9312   1.436   2.432   0.766 -0.7377 -3.0126 -1.2763
  625MPD2    H1 9313   1.631   2.329   1.130 -0.3103  0.0079  0.9382
  625MPD2    H2 9314   1.236   2.199   1.046  0.1119  0.4209  0.2116
  625MPD2    H3 9315   1.448   2.215   1.194 -0.5130  0.5744  0.4782
  625MPD2     N 9316   1.629   2.498   0.908  0.0685  0.6443  0.1177
  625MPD2    H5 9317   1.609   2.550   0.823  1.1251  0.1188 -0.4493
  625MPD2    N1 9318   1.223   2.299   0.807  0.1927 -0.3654 -0.6101
  625MPD2    H7 9319   1.153   2.227   0.822  1.3856 -1.0965  1.5230
  626TMC3    C1 9320   1.051   2.362   0.665  0.0156 -0.5897 -0.0737
  626TMC3    C2 9321   1.024   2.419   0.543 -0.1996 -1.2036  0.3830
  626TMC3    C3 9322   0.900   2.425   0.498  0.1388  0.2553 -0.3349
  626TMC3    C4 9323   0.951   2.329   0.754 -0.2700 -0.0622 -0.5337
  626TMC3    C5 9324   0.820   2.348   0.710 -0.1548  0.1012 -0.5500
  626TMC3    C6 9325   0.796   2.395   0.586  0.4888  0.5212  0.1486
  626TMC3     C 9326   1.186   2.385   0.704  0.0482 -1.0224  0.2407
  626TMC3     O 9327   1.239   2.498   0.691 -0.2787  0.2325  0.3845
  626TMC3     H 9328   1.108   2.450   0.483 -0.2212  0.5991  1.2866
  626TMC3    H1 9329   0.979   2.286   0.849 -1.4756  3.0418  1.2386
  626TMC3    H2 9330   0.694   2.410   0.552 -0.1231 -0.4386  1.5633
  626TMC3    C7 9331   0.716   2.364   0.805 -0.8844  0.2322  0.1093
  626TMC3    C8 9332   0.876   2.479   0.366 -0.6026 -0.4482 -0.6591
  626TMC3    O1 9333   0.760   2.375   0.921 -0.3274  0.2733 -0.3203
  626TMC3    O2 9334   0.954   2.448   0.275 -0.0558 -0.1880  0.0603
  627MPD2     C 9335   4.594   2.439  14.293  0.7047 -0.1016 -0.7980
  627MPD2    C1 9336   4.632   2.357  14.397  0.5193  0.1594  0.5874
  627MPD2    C2 9337   4.556   2.243  14.424 -0.4263 -0.0011  0.3469
  627MPD2    C3 9338   4.445   2.213  14.346  1.2714  0.2192 -0.2425
  627MPD2    C4 9339   4.407   2.301  14.244  0.0568 -0.3113 -0.2530
  627MPD2    C5 9340   4.488   2.409  14.216  0.2761  0.2351  0.4054
  627MPD2     H 9341   4.584   2.173  14.501 -0.5595  0.2126  0.5893
  627MPD2    H1 9342   4.320   2.280  14.182 -0.2377  1.4556 -0.4403
  627MPD2    H2 9343   4.642   2.532  14.266 -1.0571  0.8482 -0.6556
  627MPD2    H3 9344   4.457   2.482  14.143 -1.7805 -1.6235 -0.5701
  627MPD2     N 9345   4.380   2.091  14.378  0.2303 -0.1193 -0.3843
  627MPD2    H5 9346   4.403   2.043  14.464  1.5857  0.2888 -0.5231
  627MPD2    N1 9347   0.020   2.369  14.468  0.0625 -0.5246  0.3265
  627MPD2    H7 9348   0.050   2.288  14.522  0.3324 -1.4095 -1.1515
  628TMC3    C1 9349   0.214   2.484  14.538 -0.0707  0.1262  0.0236
  628TMC3    C2 9350   0.279   2.370  14.574  0.3160 -0.0071 -0.3704
  628TMC3    C3 9351   0.391   2.382  14.652 -0.7101  0.6007 -0.2238
  628TMC3    C4 9352   0.249   2.607  14.592  0.5088  0.1728 -0.6047
  628TMC3    C5 9353   0.347   2.614  14.686 -0.4868  0.8365 -0.0482
  628TMC3    C6 9354   0.427   2.502  14.717  0.0729 -0.8693 -0.2097
  628TMC3     C 9355   0.105   2.482  14.452  0.2983  0.1980 -0.0897
  628TMC3     O 9356   0.081   2.587  14.392 -0.3443  0.4467  0.8746
  628TMC3     H 9357   0.255   2.281  14.517  3.5275 -1.5410  0.6797
  628TMC3    H1 9358   0.188   2.690  14.557  0.0839 -0.4766 -1.3996
  628TMC3    H2 9359   0.531   2.514  14.747 -0.0299 -0.2844 -0.0941
  628TMC3    C7 9360   0.412   2.736  14.705 -0.3323  0.9902 -0.1489
  628TMC3    C8 9361   0.482   2.267  14.660  0.6699  0.5100 -0.4018
  628TMC3    O1 9362   0.491   2.744  14.796  0.2847 -0.1473  0.5941
  628TMC3    O2 9363   0.455   2.185  14.575 -0.6826 -0.6397 -0.4835
  629MPD2     C 9364   2.462   1.412  15.934 -0.6983 -1.1809  0.2438
  629MPD2    C1 9365   2.489   1.336  16.045 -0.0944  0.4322  0.3926
  629MPD2    C2 9366   2.394   1.236  16.087  0.0536 -0.2289  0.0504
  629MPD2    C3 9367   2.294   1.210  16.000 -0.2090  0.4169  0.1711
  629MPD2    C4 9368   2.265   1.290  15.886 -0.4872 -0.3259  0.0234
  629MPD2    C5 9369   2.355   1.390  15.852 -1.1744  0.4041 -0.5076
  629MPD2     H 9370   2.406   1.177  16.177  0.8273 -0.8386 -0.4496
  629MPD2    H1 9371   2.179   1.274  15.822 -1.8845  1.5496  1.4376
  629MPD2    H2 9372   2.522   1.502  15.928 -0.7233 -1.0836  1.5132
  629MPD2    H3 9373   2.336   1.454  15.766 -0.7199  0.9936 -0.1700
  629MPD2     N 9374   2.197   1.107  16.024  0.7256  0.2718 -0.2017
  629MPD2    H5 9375   2.116   1.112  15.963  1.0073 -0.2604 -0.6222
  629MPD2    N1 9376   2.606   1.369  16.121  0.2556  0.5117 -0.7511
  629MPD2    H7 9377   2.671   1.432  16.076 -0.9419  0.9842 -1.8143
  630TMC3    C1 9378   2.768   1.348  16.291  0.0393 -0.6110  0.5528
  630TMC3    C2 9379   2.847   1.449  16.249 -0.4702  0.1484 -0.2714
  630TMC3    C3 9380   2.973   1.468  16.303 -0.1766 -0.4112  0.2049
  630TMC3    C4 9381   2.807   1.268  16.390 -0.0550  0.2777 -0.0572
  630TMC3    C5 9382   2.932   1.285  16.440  0.0273 -0.3882  1.1454
  630TMC3    C6 9383   3.019   1.379  16.401  0.1053  0.5032  0.3039
  630TMC3     C 9384   2.634   1.314  16.239  0.7946  0.2179 -0.0077
  630TMC3     O 9385   2.554   1.256  16.309  0.0443  0.3632 -1.0356
  630TMC3     H 9386   2.823   1.511  16.164  1.5776  1.2568 -0.0315
  630TMC3    H1 9387   2.768   1.167  16.381  0.0167  0.1180  1.4604
  630TMC3    H2 9388   3.116   1.398  16.447 -0.3029 -0.2846  1.4843
  630TMC3    C7 9389   2.957   1.192  16.552  0.8473 -0.1114  0.0069
  630TMC3    C8 9390   3.066   1.567  16.261  0.2719 -0.8991 -0.7650
  630TMC3    O1 9391   2.864   1.111  16.571  0.3885 -0.2321 -0.1949
  630TMC3    O2 9392   3.185   1.544  16.282 -0.2508  0.0420 -0.7575
  631MPD2     C 9393   0.967   1.174  15.572  1.2291  0.3532 -0.3770
  631MPD2    C1 9394   1.095   1.153  15.521  0.4702 -0.3379 -0.3841
  631MPD2    C2 9395   1.155   1.026  15.525  0.1906  0.3229  0.5453
  631MPD2    C3 9396   1.078   0.921  15.567  0.1084 -0.6044 -0.4343
  631MPD2    C4 9397   0.951   0.933  15.607  0.4857  0.5569  0.4677
  631MPD2    C5 9398   0.895   1.060  15.601 -0.4442 -0.3204 -0.4602
  631MPD2     H 9399   1.253   1.009  15.482 -0.5881 -0.7912 -0.7354
  631MPD2    H1 9400   0.888   0.849  15.633  0.9965 -1.0722 -3.4314
  631MPD2    H2 9401   0.917   1.269  15.586 -2.1009 -1.4683 -0.0263
  631MPD2    H3 9402   0.789   1.060  15.624 -0.3875  0.4018 -0.2074
  631MPD2     N 9403   1.142   0.798  15.552  0.2092  0.4288 -0.5276
  631MPD2    H5 9404   1.243   0.799  15.549  0.1900 -1.9212 -1.7735
  631MPD2    N1 9405   1.159   1.274  15.495  0.2129 -0.4845 -0.3237
  631MPD2    H7 9406   1.106   1.359  15.510 -0.2467 -0.7416 -0.4899
  632TMC3    C1 9407   1.317   1.428  15.399  0.6073 -0.7097  0.0441
  632TMC3    C2 9408   1.261   1.535  15.469  0.2146  0.7253  0.5602
  632TMC3    C3 9409   1.275   1.659  15.400  0.3188  0.6546 -0.6779
  632TMC3    C4 9410   1.386   1.434  15.287  0.4617  0.6800  0.5288
  632TMC3    C5 9411   1.402   1.557  15.227  0.8805 -0.1819  0.7644
  632TMC3    C6 9412   1.348   1.671  15.278 -0.6105  0.4017  0.5845
  632TMC3     C 9413   1.287   1.292  15.440 -0.2706  0.4927 -0.4041
  632TMC3     O 9414   1.360   1.203  15.403  0.0945 -0.0612  0.1087
  632TMC3     H 9415   1.210   1.524  15.564 -0.5980 -3.0998 -0.3414
  632TMC3    H1 9416   1.412   1.349  15.225 -0.3080  2.7192 -2.6388
  632TMC3    H2 9417   1.354   1.772  15.240  0.0683 -0.9045 -2.7640
  632TMC3    C7 9418   1.505   1.556  15.126 -0.8120 -0.1751  0.7122
  632TMC3    C8 9419   1.226   1.772  15.462  0.0603 -0.0765  0.0810
  632TMC3    O1 9420   1.524   1.457  15.060  0.0541  0.4793 -0.7010
  632TMC3    O2 9421   1.167   1.856  15.396 -0.4339  0.0055  0.2584
  633MPD2     C 9422   0.751   3.690  17.185  0.2573 -0.8351  0.1971
  633MPD2    C1 9423   0.792   3.631  17.069 -0.3027  0.4663  0.8315
  633MPD2    C2 9424   0.839   3.504  17.068 -0.1053  0.2844 -0.4728
  633MPD2    C3 9425   0.844   3.428  17.190  0.6383 -0.5538 -0.1706
  633MPD2    C4 9426   0.802   3.484  17.311 -0.1291  0.0863 -0.4400
  633MPD2    C5 9427   0.755   3.615  17.305 -0.0041  0.1485 -0.0232
  633MPD2     H 9428   0.861   3.465  16.969 -0.7753 -0.7039 -0.2306
  633MPD2    H1 9429   0.812   3.433  17.406  1.1526  0.3804 -0.4119
  633MPD2    H2 9430   0.720   3.794  17.185 -1.0871 -1.2678 -3.8545
  633MPD2    H3 9431   0.725   3.647  17.404 -1.3433  0.8447 -0.6620
  633MPD2     N 9432   0.896   3.298  17.193  0.3739  0.3769 -0.1067
  633MPD2    H5 9433   0.932   3.264  17.282  0.0126 -0.0240 -0.1160
  633MPD2    N1 9434   0.771   3.683  16.944 -0.4427  0.0762  0.1544
  633MPD2    H7 9435   0.818   3.632  16.870  1.5349  1.7588  0.2558
  634TMC3    C1 9436   0.740   3.827  16.773 -0.3239 -0.2911 -0.8222
  634TMC3    C2 9437   0.753   3.722  16.684  0.3262  0.3293  0.4607
  634TMC3    C3 9438   0.778   3.766  16.559 -0.6561 -0.3366 -0.0685
  634TMC3    C4 9439   0.740   3.957  16.736 -0.6593  0.2809  0.1019
  634TMC3    C5 9440   0.773   3.991  16.607 -0.2842  0.3617 -0.0178
  634TMC3    C6 9441   0.784   3.894  16.512 -0.3271  0.3198  0.9201
  634TMC3     C 9442   0.724   3.802  16.914 -0.6778 -0.1942 -0.5502
  634TMC3     O 9443   0.695   3.894  16.988  0.6058 -0.0647  0.3570
  634TMC3     H 9444   0.730   3.619  16.710 -0.2827 -0.1187 -1.8588
  634TMC3    H1 9445   0.733   4.034  16.812  2.3950  0.2474  0.4296
  634TMC3    H2 9446   0.817   3.917  16.411 -2.2436 -0.3239  0.1526
  634TMC3    C7 9447   0.848   4.116  16.579 -0.2245 -0.4602  0.0625
  634TMC3    C8 9448   0.820   3.661  16.471 -0.0676  0.0784  0.1038
  634TMC3    O1 9449   0.905   4.111  16.470  0.4370  0.2384 -0.2637
  634TMC3    O2 9450   0.886   3.571  16.514 -0.2721 -0.2921  0.1430
  635TMC3    C1 9451   1.262   0.504   0.592  0.5503 -0.3025 -0.2693
  635TMC3    C2 9452   1.253   0.381   0.530 -0.1332 -0.2738 -0.9181
  635TMC3    C3 9453   1.134   0.319   0.526 -0.7540 -0.3527 -0.4751
  635TMC3    C4 9454   1.150   0.572   0.629 -0.5128 -0.1042 -0.4628
  635TMC3    C5 9455   1.027   0.510   0.618  0.2593  0.5448 -0.0057
  635TMC3    C6 9456   1.018   0.380   0.575 -0.1712 -0.1386  0.0733
  635TMC3     C 9457   1.390   0.566   0.624 -0.6833 -0.4399  0.3398
  635TMC3     O 9458   1.385   0.686   0.634  0.5052  0.6929  0.6906
  635TMC3     H 9459   1.344   0.344   0.486  0.8488 -0.3583  1.1805
  635TMC3    H1 9460   1.166   0.667   0.678  1.5076 -0.6958  0.0337
  635TMC3    H2 9461   0.920   0.335   0.572 -0.4710  0.6365 -1.5188
  635TMC3    C7 9462   0.923   0.563   0.703 -0.4814  0.3280 -0.1125
  635TMC3    C8 9463   1.125   0.206   0.446  0.7332  0.5956 -0.0961
  635TMC3    O1 9464   0.861   0.480   0.764 -0.1333  0.0490 -0.3472
  635TMC3    O2 9465   1.219   0.176   0.374 -0.3281  0.7889 -0.2462
  636MPD2     C 9466   2.213   4.204  16.415 -0.3620  0.9740  0.1006
  636MPD2    C1 9467   2.279   4.220  16.538 -0.7409 -0.0112 -0.2213
  636MPD2    C2 9468   2.365   4.122  16.592 -0.1700 -0.2778 -0.4111
  636MPD2    C3 9469   2.381   3.999  16.529 -0.1875 -1.1385  0.0810
  636MPD2    C4 9470   2.312   3.974  16.412 -0.1885  0.2185 -1.0843
  636MPD2    C5 9471   2.227   4.074  16.366  0.0716 -0.3811 -0.6050
  636MPD2     H 9472   2.436   4.161  16.663 -1.5199  1.4770 -0.0143
  636MPD2    H1 9473   2.323   3.889  16.345 -0.0954  1.0079 -2.0661
  636MPD2    H2 9474   2.150   4.270  16.357  1.3330  0.8133 -1.8968
  636MPD2    H3 9475   2.181   4.049  16.271  0.1003 -1.8684 -0.2299
  636MPD2     N 9476   2.470   3.903  16.587  0.4831 -0.5855 -0.4448
  636MPD2    H5 9477   2.515   3.927  16.675  1.3290 -1.2741 -0.6796
  636MPD2    N1 9478   2.289   4.341  16.606 -0.4450  0.1514  0.1030
  636MPD2    H7 9479   2.349   4.346  16.687 -0.4710  0.3662  0.1098
  637TMC3    C1 9480   2.583   3.700  16.619  0.6290  0.5429 -0.2247
  637TMC3    C2 9481   2.639   3.748  16.729 -0.3280 -0.4361  0.2243
  637TMC3    C3 9482   2.758   3.710  16.767  0.6048  0.1703  0.8639
  637TMC3    C4 9483   2.634   3.587  16.560  0.0125 -0.6257  0.8242
  637TMC3    C5 9484   2.750   3.541  16.611 -0.2373  0.1436 -0.8120
  637TMC3    C6 9485   2.816   3.599  16.713  0.3986 -0.3310 -0.6980
  637TMC3     C 9486   2.494   3.778  16.533 -0.2798 -1.0323  0.2835
  637TMC3     O 9487   2.452   3.728  16.432 -0.2410  0.1805  0.1674
  637TMC3     H 9488   2.598   3.836  16.777 -1.0103  0.7127 -2.4586
  637TMC3    H1 9489   2.578   3.537  16.481 -1.5995  1.2440  0.7859
  637TMC3    H2 9490   2.914   3.565  16.745  1.0848  2.1111 -0.2018
  637TMC3    C7 9491   2.807   3.414  16.565  0.7008  0.3999  0.2820
  637TMC3    C8 9492   2.848   3.825  16.772 -0.3452 -0.2528  0.0657
  637TMC3    O1 9493   2.835   3.336  16.656  0.1438  0.4960 -0.0355
  637TMC3    O2 9494   2.804   3.930  16.723  0.0214 -0.6002 -0.3988
  638MPD2     C 9495   2.452   2.740  14.656 -0.0261 -0.2569  0.0274
  638MPD2    C1 9496   2.389   2.619  14.664  0.4363  0.7308 -0.4080
  638MPD2    C2 9497   2.304   2.598  14.774  0.0152  0.0215  0.0600
  638MPD2    C3 9498   2.291   2.689  14.881  0.0588  0.0720 -0.0015
  638MPD2    C4 9499   2.352   2.811  14.869 -0.4567 -0.1178 -0.5278
  638MPD2    C5 9500   2.429   2.835  14.756  0.1261  0.0004 -0.0085
  638MPD2     H 9501   2.260   2.500  14.786  1.2114 -0.9522 -3.3985
  638MPD2    H1 9502   2.352   2.896  14.935 -0.9822 -0.1522 -0.4796
  638MPD2    H2 9503   2.502   2.774  14.566 -3.0947  0.3419 -1.4324
  638MPD2    H3 9504   2.484   2.929  14.753 -1.3200  0.8580  0.2689
  638MPD2     N 9505   2.213   2.653  14.990  0.7968 -0.1601 -0.2598
  638MPD2    H5 9506   2.159   2.567  14.982 -1.7256  1.7717 -3.8646
  638MPD2    N1 9507   2.418   2.527  14.559  0.5426 -0.0647  0.4907
  638MPD2    H7 9508   2.458   2.561  14.472 -2.7083  0.8372 -0.6313
  639TMC3    C1 9509   2.120   2.648  15.206 -0.1158  0.2317 -0.1936
  639TMC3    C2 9510   2.010   2.594  15.147  0.3221 -0.8719  0.9895
  639TMC3    C3 9511   1.947   2.483  15.196  0.0945 -0.6251 -0.0567
  639TMC3    C4 9512   2.168   2.596  15.319 -0.9346 -0.1475  0.4333
  639TMC3    C5 9513   2.102   2.488  15.365 -0.1272 -0.5825  0.3546
  639TMC3    C6 9514   1.996   2.426  15.313  0.1317 -0.2753  0.5353
  639TMC3     C 9515   2.211   2.713  15.113 -0.2940  0.6158 -0.5480
  639TMC3     O 9516   2.303   2.779  15.165  0.1789 -0.7795  0.1128
  639TMC3     H 9517   1.960   2.629  15.057  0.8240  0.2011  1.1243
  639TMC3    H1 9518   2.253   2.642  15.368 -0.8896  1.4124 -1.0990
  639TMC3    H2 9519   1.954   2.336  15.356 -0.8302 -0.9828 -1.8474
  639TMC3    C7 9520   2.192   2.388  15.420 -0.0705 -0.3930 -0.6970
  639TMC3    C8 9521   1.952   2.386  15.091 -0.3549  0.2106 -0.1608
  639TMC3    O1 9522   2.137   2.298  15.481 -0.1004 -0.0984  0.0458
  639TMC3    O2 9523   2.025   2.404  14.993  0.9713  0.9243 -0.2677
  640MPD2     C 9524   3.995   1.831  10.027  0.0851 -0.4587  0.1072
  640MPD2    C1 9525   3.895   1.830   9.938  0.0534  0.0643 -0.3234
  640MPD2    C2 9526   3.784   1.911   9.958  0.6564 -0.0197  0.8083
  640MPD2    C3 9527   3.771   1.991  10.074  0.7643 -0.3109 -0.0090
  640MPD2    C4 9528   3.873   1.979  10.163  1.2576 -0.0621  0.1578
  640MPD2    C5 9529   3.989   1.907  10.141  0.2497 -0.5252 -0.1390
  640MPD2     H 9530   3.713   1.921   9.877  3.1349 -0.3464 -1.4026
  640MPD2    H1 9531   3.872   2.025  10.262 -0.9206 -0.4603  0.3281
  640MPD2    H2 9532   4.087   1.788   9.991  1.1989  1.3346  0.8216
  640MPD2    H3 9533   4.078   1.914  10.203 -0.8351 -1.6361  1.5363
  640MPD2     N 9534   3.663   2.073  10.103  0.0369 -0.2299 -0.7546
  640MPD2    H5 9535   3.680   2.146  10.172 -0.6022 -0.1226 -0.7108
  640MPD2    N1 9536   3.912   1.744   9.827  0.2112  0.0921 -0.5159
  640MPD2    H7 9537   4.006   1.715   9.804  0.2903 -0.2753  0.2614
  641TMC3    C1 9538   3.853   1.623   9.630  0.4799  0.3709 -0.3471
  641TMC3    C2 9539   3.770   1.516   9.612  0.8850 -0.2171  0.7268
  641TMC3    C3 9540   3.803   1.436   9.504  0.4266 -0.3579 -0.1074
  641TMC3    C4 9541   3.967   1.647   9.562  0.4636 -0.7839 -0.2511
  641TMC3    C5 9542   4.008   1.546   9.478  0.1024 -0.7233  0.3554
  641TMC3    C6 9543   3.927   1.441   9.436 -0.4174  0.4682 -0.0900
  641TMC3     C 9544   3.809   1.704   9.744 -0.1462 -0.1625 -0.3466
  641TMC3     O 9545   3.696   1.698   9.776 -0.4068 -0.0748  0.3534
  641TMC3     H 9546   3.681   1.494   9.670  2.0739 -2.0500  1.8142
  641TMC3    H1 9547   4.026   1.735   9.587  1.4240 -1.3181 -0.6331
  641TMC3    H2 9548   3.957   1.377   9.355 -0.2401  1.0697 -0.4994
  641TMC3    C7 9549   4.129   1.582   9.404 -0.3942  0.0099 -0.6923
  641TMC3    C8 9550   3.721   1.321   9.472  0.1158 -0.1103 -0.3350
  641TMC3    O1 9551   4.167   1.700   9.417 -0.0592  0.2076 -0.3392
  641TMC3    O2 9552   3.773   1.234   9.401 -0.0068 -0.6377 -0.4141
  642TMC3    C1 9553   3.967   2.707  12.664 -0.3071 -0.0407 -0.1018
  642TMC3    C2 9554   4.089   2.714  12.606 -0.3711 -0.5401  0.0576
  642TMC3    C3 9555   4.151   2.592  12.577  0.1749  0.0792  0.1630
  642TMC3    C4 9556   3.900   2.585  12.680 -1.0057  0.3174 -0.2872
  642TMC3    C5 9557   3.965   2.470  12.637 -0.6650  0.2586  0.0450
  642TMC3    C6 9558   4.094   2.470  12.593  0.2158 -0.1071 -0.2356
  642TMC3     C 9559   3.891   2.831  12.658  0.8561 -0.4931  0.1809
  642TMC3     O 9560   3.949   2.928  12.609 -0.2188 -0.0783  0.4067
  642TMC3     H 9561   4.136   2.811  12.593 -0.7504 -0.5156 -1.2238
  642TMC3    H1 9562   3.799   2.579  12.718 -0.6712 -0.3343  0.4971
  642TMC3    H2 9563   4.159   2.387  12.571  1.6526  0.5497  1.5457
  642TMC3    C7 9564   3.907   2.343  12.669  0.1497 -0.0419 -0.4321
  642TMC3    C8 9565   4.264   2.600  12.492 -0.1039  0.1178  0.5445
  642TMC3    O1 9566   3.827   2.343  12.765 -0.1503 -0.5568  0.3417
  642TMC3    O2 9567   4.291   2.508  12.415 -0.5653 -0.1549 -0.3818
  643TMC3    C1 9568   2.494   2.383   0.260  0.4446 -0.5193  0.7445
  643TMC3    C2 9569   2.371   2.412   0.216 -0.4495 -0.6498 -0.2232
  643TMC3    C3 9570   2.324   2.359   0.103  0.1547  1.0069 -0.4396
  643TMC3    C4 9571   2.563   2.290   0.196  0.1315 -0.5936 -0.0261
  643TMC3    C5 9572   2.512   2.222   0.090 -0.3050  0.5132 -0.3450
  643TMC3    C6 9573   2.389   2.256   0.041 -0.5347 -0.1161  0.8276
  643TMC3     C 9574   2.552   2.491   0.344 -0.2641  0.6453  0.0075
  643TMC3     O 9575   2.493   2.597   0.358  0.1270  0.0430 -0.1142
  643TMC3     H 9576   2.304   2.475   0.273 -0.9326 -2.0261  0.7148
  643TMC3    H1 9577   2.668   2.280   0.224 -0.2038  0.8425  1.7215
  643TMC3    H2 9578   2.356   2.222  17.681  2.4928 -0.7178  0.0092
  643TMC3    C7 9579   2.608   2.210  17.727 -0.3035 -0.0321  0.4774
  643TMC3    C8 9580   2.294   2.460  17.733 -0.5918 -0.7131  0.1112
  643TMC3    O1 9581   2.569   2.262  17.623 -0.7566 -0.0533  0.1335
  643TMC3    O2 9582   2.246   2.429  17.623 -0.0548 -0.1882  0.2779
  644MPD2     C 9583   0.413   1.868   9.445 -0.6619  0.4404 -0.4707
  644MPD2    C1 9584   0.313   1.863   9.542 -0.0653 -0.5956  0.4456
  644MPD2    C2 9585   0.335   1.941   9.656 -0.5249  0.3166  0.2354
  644MPD2    C3 9586   0.440   2.026   9.662 -0.3092 -0.4607 -0.7425
  644MPD2    C4 9587   0.539   2.031   9.569  0.3973  0.2236 -0.2450
  644MPD2    C5 9588   0.522   1.949   9.461 -0.1767 -0.1175 -0.3075
  644MPD2     H 9589   0.264   1.944   9.737 -1.7609 -0.8599 -0.7855
  644MPD2    H1 9590   0.625   2.094   9.587 -0.2087  0.8492  0.4724
  644MPD2    H2 9591   0.404   1.817   9.350  0.9642  0.2363 -0.5268
  644MPD2    H3 9592   0.592   1.950   9.378  1.2007 -1.8265  0.8249
  644MPD2     N 9593   0.433   2.115   9.780  0.0401 -0.3396 -0.7740
  644MPD2    H5 9594   0.359   2.095   9.847  1.4783 -0.6947  0.7068
  644MPD2    N1 9595   0.203   1.784   9.521  0.1928  0.5972  0.5907
  644MPD2    H7 9596   0.217   1.728   9.437  0.6274 -2.6173  2.8047
  645TMC3    C1 9597   0.507   2.265   9.947  0.0390  0.8455  0.0108
  645TMC3    C2 9598   0.547   2.392   9.964  0.0126  0.1654  0.0300
  645TMC3    C3 9599   0.554   2.446  10.096  0.3805 -0.0258  0.2189
  645TMC3    C4 9600   0.461   2.187  10.051 -0.1998 -0.5062  0.2175
  645TMC3    C5 9601   0.461   2.250  10.175 -0.1353 -0.3668  0.4783
  645TMC3    C6 9602   0.510   2.377  10.204 -0.1773  0.0891  0.0809
  645TMC3     C 9603   0.524   2.214   9.815 -1.2733  0.4116 -0.4672
  645TMC3     O 9604   0.624   2.250   9.754 -0.2093 -0.3353  0.1386
  645TMC3     H 9605   0.557   2.446   9.871  0.7163  0.8883  0.5197
  645TMC3    H1 9606   0.434   2.085  10.027  0.1839 -0.8832  1.3804
  645TMC3    H2 9607   0.507   2.421  10.303  0.0813 -1.7836  0.9144
  645TMC3    C7 9608   0.441   2.158  10.284  0.2399  0.6295  0.5253
  645TMC3    C8 9609   0.521   2.585  10.106  0.1713 -0.3262 -0.3295
  645TMC3    O1 9610   0.474   2.187  10.399 -0.3179 -0.0060 -0.5692
  645TMC3    O2 9611   0.512   2.645  10.001  0.6858 -0.4691 -0.2441
  646MPD2     C 9612   2.696   1.691  14.669  0.3045  0.3620  0.1173
  646MPD2    C1 9613   2.586   1.648  14.743 -0.2389  0.2486 -0.0847
  646MPD2    C2 9614   2.457   1.691  14.708 -0.3475  0.2590 -0.7376
  646MPD2    C3 9615   2.437   1.775  14.602 -0.5892  0.6369 -0.2661
  646MPD2    C4 9616   2.551   1.819  14.528  0.1558 -0.4932 -0.0389
  646MPD2    C5 9617   2.680   1.781  14.563 -0.1500 -0.0577 -0.9545
  646MPD2     H 9618   2.374   1.654  14.767  0.8023  0.1368  0.8239
  646MPD2    H1 9619   2.549   1.883  14.440 -0.3990  0.3976  0.6242
  646MPD2    H2 9620   2.801   1.669  14.686  0.0195  0.1281  1.5798
  646MPD2    H3 9621   2.769   1.809  14.507  1.5885 -1.8348  0.9152
  646MPD2     N 9622   2.304   1.814  14.575 -0.0542  0.1390 -0.7257
  646MPD2    H5 9623   2.232   1.780  14.637  1.0619  1.7653  1.4232
  646MPD2    N1 9624   2.616   1.563  14.849 -0.2249  1.3246  0.1679
  646MPD2    H7 9625   2.713   1.535  14.852 -0.1039  1.6492 -0.8201
  647TMC3    C1 9626   2.578   1.422  15.038 -0.4250 -0.3760 -0.3829
  647TMC3    C2 9627   2.531   1.425  15.165 -0.2090  0.2326 -0.1369
  647TMC3    C3 9628   2.594   1.345  15.255  0.5732  0.8911  0.4071
  647TMC3    C4 9629   2.691   1.346  14.996 -0.3574  0.1625  0.0220
  647TMC3    C5 9630   2.752   1.277  15.102 -0.0605 -0.9596  0.5093
  647TMC3    C6 9631   2.704   1.275  15.229 -1.0708  0.5023  0.0621
  647TMC3     C 9632   2.527   1.518  14.943  0.4316 -1.0855 -0.2082
  647TMC3     O 9633   2.414   1.551  14.956  0.9092  0.0550  0.2831
  647TMC3     H 9634   2.445   1.485  15.194 -0.4794 -1.2304  2.0953
  647TMC3    H1 9635   2.710   1.349  14.889 -0.5831  1.8106  0.0212
  647TMC3    H2 9636   2.749   1.205  15.299 -2.7864 -0.7549 -0.1078
  647TMC3    C7 9637   2.871   1.197  15.093  0.1815  0.6321 -0.3640
  647TMC3    C8 9638   2.541   1.304  15.379  0.6535 -0.7524 -0.6298
  647TMC3    O1 9639   2.941   1.168  15.190  0.0425 -0.3494 -0.7430
  647TMC3    O2 9640   2.627   1.287  15.466  0.2305 -0.5393 -0.3004
  648TMC3    C1 9641   1.684   3.827  16.219  0.6374  0.6867 -0.5457
  648TMC3    C2 9642   1.819   3.808  16.225  0.6041 -0.0454  0.3952
  648TMC3    C3 9643   1.891   3.817  16.111  0.4242 -0.3092 -0.0084
  648TMC3    C4 9644   1.619   3.866  16.099  0.3290 -0.0970  0.2699
  648TMC3    C5 9645   1.698   3.876  15.986 -0.4628 -0.0739 -0.1585
  648TMC3    C6 9646   1.830   3.846  15.991 -0.0267  0.4462 -0.9608
  648TMC3     C 9647   1.626   3.851  16.352 -0.0701  0.2375 -0.5797
  648TMC3     O 9648   1.691   3.908  16.439  0.2740 -0.3661 -0.3655
  648TMC3     H 9649   1.863   3.798  16.323  1.4831 -0.9366 -0.0916
  648TMC3    H1 9650   1.513   3.890  16.095  0.4668  0.4869  0.0986
  648TMC3    H2 9651   1.891   3.865  15.903  1.3279  2.0416  0.3293
  648TMC3    C7 9652   1.666   3.972  15.885  0.0039  0.6814 -0.1499
  648TMC3    C8 9653   2.030   3.769  16.119 -0.3701  1.4736  0.5514
  648TMC3    O1 9654   1.743   3.969  15.793 -0.4494  0.1899  0.0188
  648TMC3    O2 9655   2.083   3.756  16.226  0.2308  0.0829  0.9452
  649TMC3    C1 9656   0.920   0.329  12.988 -0.7127  0.1711 -0.2819
  649TMC3    C2 9657   1.055   0.354  12.977  0.3757 -0.1229 -0.1383
  649TMC3    C3 9658   1.137   0.280  13.062 -0.3107 -0.3855 -1.5419
  649TMC3    C4 9659   0.866   0.241  13.078  0.7557 -0.3676 -0.7310
  649TMC3    C5 9660   0.954   0.159  13.146 -0.1331 -0.8240  0.1389
  649TMC3    C6 9661   1.090   0.185  13.148 -0.0879  0.0308  0.3558
  649TMC3     C 9662   0.829   0.424  12.926  0.4377 -0.0529 -0.1612
  649TMC3     O 9663   0.716   0.433  12.976 -0.7284  0.0486 -0.9183
  649TMC3     H 9664   1.102   0.443  12.936  1.5195 -0.7251 -0.1220
  649TMC3    H1 9665   0.762   0.213  13.069  0.4570 -0.1671  2.3239
  649TMC3    H2 9666   1.154   0.134  13.219  1.8553  0.4685 -1.0656
  649TMC3    C7 9667   0.885   0.071  13.242  0.3378  0.1215 -0.2388
  649TMC3    C8 9668   1.280   0.280  13.037 -0.1476 -0.3449 -1.0308
  649TMC3    O1 9669   0.764   0.066  13.238 -0.3627 -0.3518  0.9600
  649TMC3    O2 9670   1.348   0.238  13.130 -0.8539 -0.0401 -0.0312
  650TMC3    C1 9671   3.461   1.735  12.542 -0.1669 -0.7375 -0.5531
  650TMC3    C2 9672   3.369   1.825  12.596  0.3668 -0.1559 -0.0201
  650TMC3    C3 9673   3.383   1.959  12.572 -0.1027  0.4006 -0.0987
  650TMC3    C4 9674   3.564   1.776  12.465 -1.3460  0.0646  0.2891
  650TMC3    C5 9675   3.568   1.909  12.428  0.1340 -0.0626 -0.6505
  650TMC3    C6 9676   3.480   1.999  12.487 -0.6004 -0.4609 -0.2459
  650TMC3     C 9677   3.449   1.600  12.584  0.3862  0.3470  0.7513
  650TMC3     O 9678   3.347   1.565  12.641 -0.3000 -0.4790  0.0377
  650TMC3     H 9679   3.292   1.789  12.663  0.2447  2.6338  1.3399
  650TMC3    H1 9680   3.644   1.706  12.443 -1.8496 -0.6542  0.7632
  650TMC3    H2 9681   3.474   2.100  12.449  1.9492  0.2675  1.2642
  650TMC3    C7 9682   3.666   1.955  12.330  0.1047  0.2293  0.2800
  650TMC3    C8 9683   3.282   2.055  12.583  0.1459  0.4997 -0.2794
  650TMC3    O1 9684   3.702   1.891  12.232  0.5944  0.0808 -0.4730
  650TMC3    O2 9685   3.309   2.173  12.568  0.8456  0.1727  0.3685
  651MPD2     C 9686   2.587   3.883  10.612 -0.2950 -0.3228  0.4211
  651MPD2    C1 9687   2.540   3.995  10.679  0.3268  0.3423  0.3857
  651MPD2    C2 9688   2.597   4.118  10.647 -0.3593  0.6239 -0.3036
  651MPD2    C3 9689   2.711   4.126  10.569  0.8210 -0.2361  0.7532
  651MPD2    C4 9690   2.762   4.011  10.515 -0.6284 -0.5035  0.4185
  651MPD2    C5 9691   2.704   3.892  10.537 -0.0822  0.2377 -0.3674
  651MPD2     H 9692   2.585   4.210  10.704 -1.7242  0.6532 -0.6415
  651MPD2    H1 9693   2.851   4.018  10.453  0.9397  0.5729  2.7886
  651MPD2    H2 9694   2.538   3.787  10.607  0.7705 -0.8624  0.4505
  651MPD2    H3 9695   2.751   3.804  10.495  0.1509 -0.2428  0.9330
  651MPD2     N 9696   2.773   4.254  10.556  0.5425 -0.3827 -0.6171
  651MPD2    H5 9697   2.720   4.333  10.589  0.0103 -1.6724  1.6543
  651MPD2    N1 9698   2.433   3.988  10.776 -0.1773  0.0089 -0.1848
  651MPD2    H7 9699   2.385   4.076  10.795  0.7245  0.6753 -0.9805
  652TMC3    C1 9700   3.162   4.531  10.542  0.4481  0.8017 -0.1428
  652TMC3    C2 9701   3.090   4.422  10.498 -0.0517 -0.0915 -0.0721
  652TMC3    C3 9702   2.954   4.409  10.516  0.1208 -0.0934 -0.1628
  652TMC3    C4 9703   3.094   4.632  10.594  0.1137 -0.3802 -0.3454
  652TMC3    C5 9704   2.959   4.616  10.612 -0.0877  0.1051 -0.2125
  652TMC3    C6 9705   2.890   4.505  10.583  0.3849  0.0037 -0.2866
  652TMC3     C 9706   3.296   4.510  10.586 -0.0593 -0.1261  0.4171
  652TMC3     O 9707   3.335   4.396  10.568 -0.0018  0.0154 -0.1209
  652TMC3     H 9708   3.142   4.354  10.431 -0.3475 -0.7897  0.3976
  652TMC3    H1 9709   3.141   4.716  10.641  1.9792 -1.9092  0.5192
  652TMC3    H2 9710   2.781   4.511  10.581  0.2962 -1.3395  0.5721
  652TMC3    C7 9711   2.884   4.732  10.638 -0.1658 -0.7372 -0.0439
  652TMC3    C8 9712   2.899   4.274  10.500  0.4260 -0.2842 -0.1453
  652TMC3    O1 9713   2.801   4.731  10.727 -0.1714  1.1739 -0.5304
  652TMC3    O2 9714   2.984   4.186  10.477 -0.0754  0.0058  0.5178
  653MPD2     C 9715   0.455   4.041  17.721  0.7009  0.1951  0.0588
  653MPD2    C1 9716   0.481   4.132  17.623 -0.3890 -0.1982 -0.6045
  653MPD2    C2 9717   0.458   4.082  17.492  0.1015  0.0496  0.3723
  653MPD2    C3 9718   0.440   3.940  17.467  0.0389  0.2525 -0.5898
  653MPD2    C4 9719   0.433   3.854  17.576  0.0201 -0.2581  0.1893
  653MPD2    C5 9720   0.432   3.906  17.703  0.0068 -0.8360 -0.2215
  653MPD2     H 9721   0.450   4.154  17.412 -0.1064 -1.2581 -0.7891
  653MPD2    H1 9722   0.409   3.750  17.555  0.4715 -0.2802 -0.2121
  653MPD2    H2 9723   0.468   4.082   0.084 -4.3840  0.7767  0.4600
  653MPD2    H3 9724   0.413   3.853   0.059  1.1264 -1.4684 -0.3650
  653MPD2     N 9725   0.423   3.895  17.334  0.8724  0.8554 -0.0130
  653MPD2    H5 9726   0.409   3.968  17.265 -1.6160  0.0402 -0.3716
  653MPD2    N1 9727   0.512   4.271  17.633 -0.1216 -0.3263 -0.1037
  653MPD2    H7 9728   0.524   4.317  17.543  2.4237  2.0646  1.4564
  654TMC3    C1 9729   0.409   3.747  17.149 -0.7505  0.3478  0.1282
  654TMC3    C2 9730   0.323   3.826  17.084 -0.3040 -0.2463 -0.1295
  654TMC3    C3 9731   0.289   3.795  16.958 -0.0186  0.3043 -0.1608
  654TMC3    C4 9732   0.447   3.622  17.095  0.7390 -0.0115  0.3330
  654TMC3    C5 9733   0.416   3.601  16.966  0.3835  0.3117 -0.3515
  654TMC3    C6 9734   0.344   3.689  16.897 -0.1016  0.2109 -0.0421
  654TMC3     C 9735   0.426   3.763  17.295 -0.1611  0.4382  0.1005
  654TMC3     O 9736   0.442   3.662  17.356 -0.0742 -0.2268 -0.1154
  654TMC3     H 9737   0.294   3.922  17.127  0.6237  0.3852 -0.9017
  654TMC3    H1 9738   0.522   3.561  17.144  2.4796  1.1145 -0.8878
  654TMC3    H2 9739   0.319   3.671  16.793  2.4654  0.9757 -0.7827
  654TMC3    C7 9740   0.485   3.504  16.886  0.0891 -0.1512 -0.4899
  654TMC3    C8 9741   0.168   3.850  16.901 -0.3648  0.0948  0.2465
  654TMC3    O1 9742   0.489   3.521  16.760 -0.2774 -0.6341 -0.4309
  654TMC3    O2 9743   0.143   3.966  16.929 -0.5189 -0.1966  0.4904
  655MPD2     C 9744   2.339   4.010  15.779 -0.5819  0.3085 -0.0325
  655MPD2    C1 9745   2.238   4.073  15.720  0.2929  0.0835 -0.4737
  655MPD2    C2 9746   2.230   4.071  15.585 -0.0355  0.4415 -0.8556
  655MPD2    C3 9747   2.300   3.984  15.509  0.2914  1.0205 -0.5050
  655MPD2    C4 9748   2.399   3.916  15.574  0.5229 -0.8569  0.2880
  655MPD2    C5 9749   2.415   3.932  15.705  0.1918  0.9321  0.2494
  655MPD2     H 9750   2.160   4.141  15.542 -0.4236 -0.8407 -2.3385
  655MPD2    H1 9751   2.474   3.855  15.526  1.7118  0.4897  0.4518
  655MPD2    H2 9752   2.371   4.017  15.882  1.0943  1.2213 -0.6197
  655MPD2    H3 9753   2.500   3.889  15.757 -0.6179  0.0120  0.8002
  655MPD2     N 9754   2.290   3.971  15.372  0.1095  0.4699 -0.2571
  655MPD2    H5 9755   2.357   3.903  15.338 -0.5149  0.0841 -0.7139
  655MPD2    N1 9756   2.149   4.160  15.793  0.0689  0.0192  0.1876
  655MPD2    H7 9757   2.092   4.228  15.744 -0.0949 -0.1292  0.1722
  656TMC3    C1 9758   2.060   4.267  15.983 -0.5865  0.0442  0.3276
  656TMC3    C2 9759   1.955   4.240  16.071  0.2521  0.4836  0.3160
  656TMC3    C3 9760   1.844   4.329  16.071  0.0023 -0.1571 -0.2949
  656TMC3    C4 9761   2.042   4.363  15.891  0.1232 -0.2878 -0.0380
  656TMC3    C5 9762   1.929   4.437  15.883  0.8069  0.0495 -0.5946
  656TMC3    C6 9763   1.824   4.424  15.973  1.3529 -0.6153  0.4696
  656TMC3     C 9764   2.128   4.153  15.927 -0.5942 -0.1258 -0.2259
  656TMC3     O 9765   2.165   4.071  16.011 -0.7986  0.3237 -0.1664
  656TMC3     H 9766   1.960   4.155  16.137 -1.7831  0.2260  0.1237
  656TMC3    H1 9767   2.132   4.391  15.837  0.1781  0.1830  0.2913
  656TMC3    H2 9768   1.720   4.448  15.953  1.6005 -0.4498 -0.5770
  656TMC3    C7 9769   1.910   4.478  15.744 -0.3340 -0.3494  0.7203
  656TMC3    C8 9770   1.741   4.292  16.162  0.4809 -0.0324 -0.7004
  656TMC3    O1 9771   1.987   4.438  15.655 -0.1229 -0.1138 -0.2601
  656TMC3    O2 9772   1.738   4.174  16.193 -0.3516 -0.5169  0.2961
  657TMC3    C1 9773   1.238   3.586  15.047  0.3458  0.4277  0.2026
  657TMC3    C2 9774   1.236   3.596  15.184  0.8301 -0.0551 -0.6012
  657TMC3    C3 9775   1.148   3.681  15.248  0.0211 -0.2349  0.7875
  657TMC3    C4 9776   1.145   3.650  14.980  0.1508 -0.0779 -0.0185
  657TMC3    C5 9777   1.049   3.725  15.044 -0.5431 -1.2083 -0.1743
  657TMC3    C6 9778   1.056   3.757  15.178 -0.1662 -0.0133 -0.4319
  657TMC3     C 9779   1.300   3.476  14.979  0.5518  0.6553  0.1888
  657TMC3     O 9780   1.227   3.421  14.901 -0.1694 -0.6881  0.0989
  657TMC3     H 9781   1.313   3.542  15.237  0.4432 -1.0374 -1.0330
  657TMC3    H1 9782   1.121   3.618  14.880 -1.3116 -1.9853  0.9542
  657TMC3    H2 9783   0.981   3.819  15.225  0.7441  0.6123  0.2080
  657TMC3    C7 9784   0.941   3.793  14.970  0.0738  0.3988 -0.8632
  657TMC3    C8 9785   1.183   3.728  15.377 -0.1933 -0.2666 -0.2675
  657TMC3    O1 9786   0.833   3.803  15.025  0.5109 -0.4012  0.0796
  657TMC3    O2 9787   1.289   3.685  15.421 -0.0935 -0.1963  0.2833
  658MPD2     C 9788   2.700   4.186  14.891 -0.7034  0.1397 -0.0180
  658MPD2    C1 9789   2.629   4.076  14.849 -0.1759 -0.0393  0.2780
  658MPD2    C2 9790   2.682   4.013  14.741  0.1201 -0.9760 -0.0214
  658MPD2    C3 9791   2.779   4.056  14.663 -0.5772  0.9147  0.6885
  658MPD2    C4 9792   2.841   4.168  14.695  0.0361  0.3417  0.5501
  658MPD2    C5 9793   2.807   4.230  14.814 -0.0592 -0.1530  0.2681
  658MPD2     H 9794   2.629   3.928  14.700  0.0965 -1.4117  0.9008
  658MPD2    H1 9795   2.924   4.216  14.644 -2.2117  3.1778 -0.4288
  658MPD2    H2 9796   2.658   4.240  14.975  0.9536  2.4176 -0.6453
  658MPD2    H3 9797   2.863   4.319  14.841 -0.7212  0.4992 -0.5388
  658MPD2     N 9798   2.815   3.979  14.551 -0.3132  0.2705  0.3064
  658MPD2    H5 9799   2.772   3.890  14.529  2.2255 -0.7180 -0.6829
  658MPD2    N1 9800   2.508   4.037  14.915 -0.4267  0.1213 -0.5208
  658MPD2    H7 9801   2.481   4.095  14.995 -3.4101 -0.9187 -0.7717
  659TMC3    C1 9802   2.305   3.935  14.948 -0.1590  0.4718 -0.4220
  659TMC3    C2 9803   2.312   3.964  15.083  0.4976 -0.0034 -0.3130
  659TMC3    C3 9804   2.197   3.978  15.155 -0.1469  0.6695  0.5247
  659TMC3    C4 9805   2.179   3.908  14.891 -0.4939  0.8147 -0.0064
  659TMC3    C5 9806   2.060   3.922  14.965  0.2553  0.3627  0.1687
  659TMC3    C6 9807   2.074   3.969  15.095 -0.0864 -0.0975  0.9054
  659TMC3     C 9808   2.424   3.942  14.866  0.6192  0.2237 -0.3690
  659TMC3     O 9809   2.428   3.872  14.766 -0.1325  0.2620  0.3670
  659TMC3     H 9810   2.407   3.990  15.128  1.9849 -1.0635 -2.8544
  659TMC3    H1 9811   2.177   3.876  14.788  0.0158  1.6971 -0.2948
  659TMC3    H2 9812   1.987   3.977  15.159 -0.3769  0.6496  0.4124
  659TMC3    C7 9813   1.932   3.877  14.927 -0.1561  0.0278 -0.9030
  659TMC3    C8 9814   2.202   4.031  15.286  0.5277 -0.1448  0.4161
  659TMC3    O1 9815   1.843   3.951  14.958 -0.4507  0.6101 -0.4815
  659TMC3    O2 9816   2.118   4.108  15.323 -0.7036 -0.4236 -0.0243
  660MPD2     C 9817   0.597   2.863  12.309  0.3381 -0.5114 -0.0076
  660MPD2    C1 9818   0.481   2.933  12.334  0.0524 -0.0754 -0.4427
  660MPD2    C2 9819   0.404   2.890  12.443 -0.1350 -0.0712 -0.5947
  660MPD2    C3 9820   0.440   2.785  12.529  0.1250  0.6577 -0.4791
  660MPD2    C4 9821   0.554   2.720  12.499  0.2491 -0.0972  0.6184
  660MPD2    C5 9822   0.627   2.758  12.392  0.4396  0.8465 -0.3420
  660MPD2     H 9823   0.315   2.951  12.457 -0.9064 -1.2435 -0.4449
  660MPD2    H1 9824   0.566   2.630  12.558 -1.4622  0.6161  2.0312
  660MPD2    H2 9825   0.666   2.876  12.226 -0.3605 -1.5189 -0.7584
  660MPD2    H3 9826   0.719   2.706  12.368 -0.1976 -0.9013  1.0345
  660MPD2     N 9827   0.365   2.736  12.640 -0.1111 -0.2851 -0.2558
  660MPD2    H5 9828   0.396   2.647  12.678  2.1937  0.8838  0.6100
  660MPD2    N1 9829   0.429   3.022  12.231 -0.1294 -0.2756  0.2771
  660MPD2    H7 9830   0.483   3.029  12.145 -1.2018 -1.7207 -0.5124
  661TMC3    C1 9831   0.266   3.144  12.109  0.1347 -0.1253  0.2096
  661TMC3    C2 9832   0.348   3.143  12.004 -0.4045 -0.1399  0.2628
  661TMC3    C3 9833   0.301   3.146  11.875 -0.0146  0.2177  0.0486
  661TMC3    C4 9834   0.132   3.153  12.094  0.0628 -0.1508 -0.4616
  661TMC3    C5 9835   0.085   3.152  11.966  0.6847 -0.0087 -0.0577
  661TMC3    C6 9836   0.164   3.161  11.855 -0.1185 -0.1903  0.1361
  661TMC3     C 9837   0.309   3.087  12.235 -0.5125 -0.5464 -0.5642
  661TMC3     O 9838   0.231   3.096  12.328  0.9346  0.1300 -0.0428
  661TMC3     H 9839   0.455   3.150  12.021 -0.3908 -1.3428  0.6420
  661TMC3    H1 9840   0.070   3.142  12.182  1.1175  0.2741  0.3280
  661TMC3    H2 9841   0.114   3.163  11.759  0.5327  1.5351 -0.1707
  661TMC3    C7 9842   4.684   3.110  11.942 -0.1344  0.2134  0.0409
  661TMC3    C8 9843   0.391   3.141  11.759 -0.2073  0.4901 -0.3429
  661TMC3    O1 9844   4.644   3.099  11.825 -0.4543 -0.1188  1.0120
  661TMC3    O2 9845   0.510   3.137  11.788 -0.1041 -0.7441  0.2256
  662MPD2     C 9846   0.140   3.027  17.190 -0.0235  0.0284  0.2954
  662MPD2    C1 9847   0.087   2.922  17.263 -0.2606 -0.4867 -1.1488
  662MPD2    C2 9848   4.685   2.882  17.246 -0.1986  0.8859 -0.2156
  662MPD2    C3 9849   4.595   2.955  17.179  0.6246 -0.3094  0.0280
  662MPD2    C4 9850   4.649   3.065  17.110  1.0236  0.5071 -0.0930
  662MPD2    C5 9851   0.052   3.096  17.109  0.1514  0.0684  0.8930
  662MPD2     H 9852   4.647   2.797  17.302  1.1935  2.2571  2.8085
  662MPD2    H1 9853   4.575   3.116  17.050  1.2426 -0.3878 -1.1137
  662MPD2    H2 9854   0.244   3.059  17.192 -0.2845  0.8771  0.2252
  662MPD2    H3 9855   0.085   3.186  17.059  1.4406 -2.2269 -2.4003
  662MPD2     N 9856   4.457   2.941  17.181  0.3769 -0.5594 -0.8701
  662MPD2    H5 9857   4.400   3.013  17.137  1.8086 -0.9715 -3.3770
  662MPD2    N1 9858   0.162   2.850  17.352  0.6092 -0.1016  0.6015
  662MPD2    H7 9859   0.108   2.778  17.400 -0.2245 -0.6242 -1.0985
  663TMC3    C1 9860   0.329   2.704  17.421 -0.4095  0.3129 -0.3247
  663TMC3    C2 9861   0.263   2.668  17.535  0.2218  0.0215 -0.0735
  663TMC3    C3 9862   0.204   2.548  17.555  0.2473  0.3354  1.1601
  663TMC3    C4 9863   0.359   2.604  17.335  0.4535  0.4750  0.0893
  663TMC3    C5 9864   0.302   2.484  17.344  1.1562  0.2231 -0.3587
  663TMC3    C6 9865   0.229   2.452  17.456 -0.1458  0.5003 -0.0083
  663TMC3     C 9866   0.296   2.831  17.354  0.2606  0.5544 -0.5308
  663TMC3     O 9867   0.382   2.883  17.284 -0.3488  0.0723 -0.5520
  663TMC3     H 9868   0.231   2.756  17.590  2.8730  0.6041  0.5157
  663TMC3    H1 9869   0.400   2.628  17.237  1.6114 -2.5451 -0.1692
  663TMC3    H2 9870   0.161   2.368  17.448  0.7084 -0.3770  2.1307
  663TMC3    C7 9871   0.309   2.397  17.233  0.3814 -0.0347  0.0119
  663TMC3    C8 9872   0.063   2.571  17.559  0.1578  0.1705  0.3399
  663TMC3    O1 9873   0.326   2.450  17.124  0.4914 -0.4028 -0.0009
  663TMC3    O2 9874   0.028   2.651  17.473  0.0109 -0.5093 -0.1260
  664MPD2     C 9875   3.079   0.624  17.535  0.4774  0.2787 -0.8600
  664MPD2    C1 9876   2.948   0.668  17.518 -0.0021  0.0980 -0.2902
  664MPD2    C2 9877   2.858   0.664  17.623  0.0049  0.1682 -0.0895
  664MPD2    C3 9878   2.904   0.632   0.013 -0.3114 -0.6305 -0.4751
  664MPD2    C4 9879   3.034   0.583   0.030 -0.3212  0.3233 -0.2307
  664MPD2    C5 9880   3.120   0.580  17.657  0.5935 -0.2107 -0.2246
  664MPD2     H 9881   2.758   0.705  17.614  0.2463  0.4911 -1.3045
  664MPD2    H1 9882   3.075   0.545   0.122 -1.7789  0.1109  0.3363
  664MPD2    H2 9883   3.157   0.625  17.460 -0.4928 -1.3547 -1.8879
  664MPD2    H3 9884   3.216   0.531  17.658  0.5625 -0.2413  1.3265
  664MPD2     N 9885   2.814   0.641   0.118 -0.1400  0.4553  0.1716
  664MPD2    H5 9886   2.732   0.700   0.112  0.0394  0.8385  1.4265
  664MPD2    N1 9887   2.889   0.700  17.392  0.1577  0.2823 -0.0969
  664MPD2    H7 9888   2.793   0.731  17.390  0.3595  0.8021 -2.3440
  665TMC3    C1 9889   2.750   0.651   0.347 -0.1816 -0.1934  0.0329
  665TMC3    C2 9890   2.771   0.599   0.468  0.1367  0.0301 -0.1349
  665TMC3    C3 9891   2.748   0.668   0.582 -0.1226 -0.0140 -0.2496
  665TMC3    C4 9892   2.686   0.774   0.337  0.1386 -0.2583 -0.2516
  665TMC3    C5 9893   2.674   0.848   0.451  0.2750  0.5518  0.6087
  665TMC3    C6 9894   2.699   0.798   0.575  0.4015  0.0437  0.3078
  665TMC3     C 9895   2.840   0.595   0.248  0.2725  0.4077  0.2870
  665TMC3     O 9896   2.924   0.513   0.281 -0.5234 -0.9936 -0.4351
  665TMC3     H 9897   2.803   0.496   0.481 -1.2270 -0.3823  0.0490
  665TMC3    H1 9898   2.690   0.826   0.242  1.2545 -0.1533 -0.1453
  665TMC3    H2 9899   2.678   0.848   0.670  3.0484 -2.0558  1.9861
  665TMC3    C7 9900   2.607   0.978   0.451 -0.1022  0.4529  0.1132
  665TMC3    C8 9901   2.788   0.625   0.719 -0.5490  0.3492  0.2021
  665TMC3    O1 9902   2.529   1.001   0.358 -0.0022  0.2054  0.1936
  665TMC3    O2 9903   2.743   0.681   0.820  0.3511  0.3608  0.0089
  666TMC3    C1 9904   2.407   0.312   9.536 -0.2079 -0.0788  0.0269
  666TMC3    C2 9905   2.508   0.219   9.556  0.3378  0.0963  0.4814
  666TMC3    C3 9906   2.625   0.224   9.478 -0.0758  0.0803  0.0101
  666TMC3    C4 9907   2.421   0.411   9.437  0.7586  0.7221 -0.0166
  666TMC3    C5 9908   2.533   0.409   9.360  0.2832  0.1222 -0.2496
  666TMC3    C6 9909   2.629   0.312   9.374  0.6013 -0.2428 -0.6282
  666TMC3     C 9910   2.290   0.318   9.624  0.3644 -0.3566  0.2531
  666TMC3     O 9911   2.257   0.435   9.647  0.0274 -0.2065 -0.2767
  666TMC3     H 9912   2.504   0.142   9.632 -0.9615 -0.3497 -0.0483
  666TMC3    H1 9913   2.343   0.483   9.414  0.5422 -0.5168 -3.1221
  666TMC3    H2 9914   2.709   0.304   9.300 -0.4768  0.9606 -1.9151
  666TMC3    C7 9915   2.591   0.534   9.398  0.6639 -0.0559 -0.5110
  666TMC3    C8 9916   2.736   0.231   9.563  0.2372  0.6258 -0.4137
  666TMC3    O1 9917   2.512   0.619   9.438  0.3364 -0.0013  0.1267
  666TMC3    O2 9918   2.720   0.238   9.684  0.1163  0.0029 -0.1246
  667MPD2     C 9919   4.233   0.769  14.254  0.5686  0.5828 -0.7269
  667MPD2    C1 9920   4.257   0.747  14.389 -0.2649  0.1714  0.2621
  667MPD2    C2 9921   4.238   0.620  14.437 -0.1143  1.1117 -0.6579
  667MPD2    C3 9922   4.186   0.520  14.360  0.0956  0.0597 -0.4223
  667MPD2    C4 9923   4.161   0.549  14.228 -0.3663 -0.5456 -0.0187
  667MPD2    C5 9924   4.180   0.669  14.176 -0.1809 -0.3136 -0.7779
  667MPD2     H 9925   4.251   0.603  14.543 -2.7103 -1.4373 -0.7490
  667MPD2    H1 9926   4.120   0.467  14.171 -1.0526 -1.4709  1.7955
  667MPD2    H2 9927   4.247   0.863  14.202  1.2411  1.8630  1.7897
  667MPD2    H3 9928   4.154   0.696  14.075 -1.4226 -1.4615 -0.7678
  667MPD2     N 9929   4.159   0.382  14.404 -0.7007 -0.0185 -0.1571
  667MPD2    H5 9930   4.117   0.319  14.336 -0.0558 -0.0518 -0.5265
  667MPD2    N1 9931   4.320   0.844  14.471 -0.8391 -0.4763 -0.0705
  667MPD2    H7 9932   4.343   0.813  14.565  0.8805  1.1757  0.0297
  668TMC3    C1 9933   4.410   1.052  14.541 -0.1420  0.1032  0.1983
  668TMC3    C2 9934   4.488   1.164  14.510 -0.2442  0.4046  0.4102
  668TMC3    C3 9935   4.522   1.249  14.606  0.3974  0.3945  0.4218
  668TMC3    C4 9936   4.364   1.032  14.666  0.7444  0.3433  0.8556
  668TMC3    C5 9937   4.384   1.128  14.754  0.1100 -0.5264 -0.0411
  668TMC3    C6 9938   4.472   1.225  14.732 -0.2677  0.0680  0.2180
  668TMC3     C 9939   4.373   0.962  14.429 -0.6256  0.2970 -0.0924
  668TMC3     O 9940   4.392   1.010  14.320 -0.3927  0.2309  0.4357
  668TMC3     H 9941   4.516   1.188  14.408 -1.3919 -0.8617 -0.2009
  668TMC3    H1 9942   4.295   0.950  14.679 -0.1656  0.7929 -1.0978
  668TMC3    H2 9943   4.479   1.300  14.810  1.4244 -0.1735  0.2901
  668TMC3    C7 9944   4.387   1.080  14.892  0.6060 -0.0219 -0.2029
  668TMC3    C8 9945   4.565   1.381  14.572 -0.2613 -0.9843  0.4193
  668TMC3    O1 9946   4.473   1.126  14.967 -0.4576 -0.2582 -0.3293
  668TMC3    O2 9947   4.525   1.470  14.646  0.6244  0.3090  0.0388
  669TMC3    C1 9948   2.216   0.604  14.960  0.4353 -0.1385 -0.0961
  669TMC3    C2 9949   2.115   0.607  14.869  0.7384  0.2676 -0.2149
  669TMC3    C3 9950   2.131   0.670  14.748 -0.4821  0.5185 -0.3848
  669TMC3    C4 9951   2.339   0.666  14.932  0.2720  0.1676  0.2488
  669TMC3    C5 9952   2.344   0.713  14.803  0.7818  0.5448  0.5759
  669TMC3    C6 9953   2.247   0.714  14.700 -0.2490  0.0392  0.8563
  669TMC3     C 9954   2.193   0.558  15.100 -0.2597 -0.7748 -0.0192
  669TMC3     O 9955   2.083   0.532  15.145  0.5131 -0.0271 -0.0468
  669TMC3     H 9956   2.020   0.564  14.900  1.6215 -0.8548  0.9546
  669TMC3    H1 9957   2.423   0.671  15.001 -0.6722 -1.7853  1.5488
  669TMC3    H2 9958   2.268   0.781  14.618 -0.3342 -0.0924  0.7245
  669TMC3    C7 9959   2.479   0.754  14.762 -0.2172 -0.1419 -0.1731
  669TMC3    C8 9960   2.044   0.627  14.641 -0.3158  0.4095  0.2090
  669TMC3    O1 9961   2.540   0.822  14.838 -0.6349 -0.3423 -0.1277
  669TMC3    O2 9962   2.032   0.505  14.637  0.1160  0.1440 -0.5663
  670MPD2     C 9963   1.016   2.501  13.843  0.3456 -0.6433  0.2740
  670MPD2    C1 9964   0.975   2.580  13.739  0.6255  0.0023 -0.6251
  670MPD2    C2 9965   0.878   2.681  13.775 -0.1884 -0.1001 -0.2817
  670MPD2    C3 9966   0.828   2.694  13.901 -0.1779 -0.2211  0.3462
  670MPD2    C4 9967   0.870   2.602  13.999 -0.5564  0.2874  0.0587
  670MPD2    C5 9968   0.971   2.514  13.971 -0.0334 -0.0810  0.1002
  670MPD2     H 9969   0.834   2.740  13.696  1.6935 -0.0730 -1.2984
  670MPD2    H1 9970   0.836   2.598  14.102  2.5610  1.2598  1.1409
  670MPD2    H2 9971   1.087   2.423  13.821  0.5256  0.2550 -2.2447
  670MPD2    H3 9972   0.988   2.436  14.045  2.0933  2.2388  2.0409
  670MPD2     N 9973   0.731   2.794  13.928 -0.1871 -0.0081  0.0816
  670MPD2    H5 9974   0.685   2.844  13.853 -0.4725 -0.8084 -0.2788
  670MPD2    N1 9975   1.033   2.575  13.605 -0.5615 -0.6584 -0.3626
  670MPD2    H7 9976   0.992   2.631  13.531  0.9063  0.1994 -0.5340
  671TMC3    C1 9977   0.570   2.879  14.073  0.1869 -0.0211  0.7913
  671TMC3    C2 9978   0.527   2.828  14.193  0.3924 -0.4140 -0.3654
  671TMC3    C3 9979   0.440   2.723  14.196  0.1133  0.0374 -0.6713
  671TMC3    C4 9980   0.499   2.853  13.960 -0.0698 -0.2434 -0.0564
  671TMC3    C5 9981   0.391   2.773  13.972 -0.0543  0.9799  0.0083
  671TMC3    C6 9982   0.371   2.698  14.085  0.2586  0.2101  0.4029
  671TMC3     C 9983   0.710   2.849  14.054 -0.3876  0.4713 -0.4665
  671TMC3     O 9984   0.781   2.837  14.152 -0.1920  0.2530 -0.2374
  671TMC3     H 9985   0.600   2.836  14.272  0.4878  1.5187 -0.6424
  671TMC3    H1 9986   0.522   2.908  13.869  2.0987  0.3987  0.8627
  671TMC3    H2 9987   0.314   2.606  14.088  1.2479 -0.2954  3.2424
  671TMC3    C7 9988   0.330   2.728  13.849 -0.4669 -0.5069 -0.5279
  671TMC3    C8 9989   0.479   2.619  14.284  0.3453 -0.0649  0.3989
  671TMC3    O1 9990   0.401   2.737  13.751  0.5468 -0.0798 -0.0758
  671TMC3    O2 9991   0.484   2.637  14.405  0.5104  0.5648  0.0133
  672MPD2     C 9992   0.320   3.774   0.890  0.0191 -0.3378 -0.3233
  672MPD2    C1 9993   0.419   3.755   0.795 -0.0145  0.3132 -0.7314
  672MPD2    C2 9994   0.535   3.824   0.823 -0.3928 -0.4125  0.0152
  672MPD2    C3 9995   0.552   3.920   0.914  0.4692  0.3360  0.3305
  672MPD2    C4 9996   0.441   3.949   0.998  0.3330  0.0517  0.9748
  672MPD2    C5 9997   0.331   3.866   0.984 -0.4685  0.0358  0.2640
  672MPD2     H 9998   0.620   3.802   0.759 -1.3480 -0.0733 -1.3788
  672MPD2    H1 9999   0.438   4.034   1.065  0.5878  0.5832  0.3051
  672MPD2    H210000   0.228   3.717   0.882  0.0683 -0.6983  1.8725
  672MPD2    H310001   0.247   3.892   1.048 -1.0509 -0.1680 -0.4179
  672MPD2     N10002   0.667   3.997   0.931 -0.5343 -0.1455  0.3472
  672MPD2    H510003   0.668   4.067   1.004  3.2638  1.4933 -1.2497
  672MPD2    N110004   0.428   3.656   0.698 -0.0335 -0.0673 -0.4098
  672MPD2    H710005   0.517   3.646   0.651  0.6979 -1.6146  1.3111
  673TMC3    C110006   0.334   3.531   0.518 -0.1040  0.2024  0.1015
  673TMC3    C210007   0.439   3.439   0.504  0.6298 -0.5695 -0.0366
  673TMC3    C310008   0.453   3.363   0.389  0.3573  0.2872 -0.7124
  673TMC3    C410009   0.242   3.540   0.419 -0.5363  0.4638 -0.0008
  673TMC3    C510010   0.271   3.479   0.299  0.1207  0.1975 -0.0965
  673TMC3    C610011   0.371   3.382   0.284 -0.5663 -0.2645  0.3119
  673TMC3     C10012   0.317   3.599   0.644 -0.5714 -0.5323  0.6825
  673TMC3     O10013   0.200   3.623   0.674 -0.5093 -0.2507 -0.6926
  673TMC3     H10014   0.491   3.421   0.597  0.0398  3.6881  1.1295
  673TMC3    H110015   0.168   3.619   0.423 -0.4432  0.4941  1.0943
  673TMC3    H210016   0.390   3.319   0.198  0.4933 -0.0410  0.3754
  673TMC3    C710017   0.186   3.508   0.185 -0.6076 -0.5802  0.3257
  673TMC3    C810018   0.544   3.243   0.393  0.1198 -0.0586  0.6597
  673TMC3    O110019   0.157   3.422   0.105  0.2923  0.4295  0.1255
  673TMC3    O210020   0.510   3.142   0.333  0.1746 -0.0841 -0.1171
  674MPD2     C10021   0.035   3.596  17.222 -0.4222  0.2422 -0.1623
  674MPD2    C110022   4.685   3.515  17.301 -0.0759  0.3861 -0.0232
  674MPD2    C210023   4.565   3.574  17.343  0.1833 -0.0041 -0.5781
  674MPD2    C310024   4.544   3.708  17.326 -0.5004 -0.1828  0.6757
  674MPD2    C410025   4.629   3.779  17.245  0.1733  0.3249 -0.2502
  674MPD2    C510026   0.009   3.726  17.198 -0.1060  0.0124  0.0310
  674MPD2     H10027   4.494   3.513  17.397 -0.9502  1.1558 -0.7363
  674MPD2    H110028   4.607   3.881  17.214 -2.6441 -0.3512 -0.4131
  674MPD2    H210029   0.123   3.546  17.184 -1.1283 -2.3850  1.6781
  674MPD2    H310030   0.080   3.792  17.150  1.2486 -1.8261 -0.4639
  674MPD2     N10031   4.426   3.768  17.381  0.0724  0.3789 -0.6184
  674MPD2    H510032   4.345   3.715  17.412  0.4407 -0.4918 -1.1419
  674MPD2    N110033   4.711   3.382  17.323 -0.2771  0.0157 -0.2077
  674MPD2    H710034   0.073   3.358  17.309 -0.7663 -2.1752  0.2015
  675TMC3    C110035   4.693   3.190  17.451  1.2102  0.0896  0.2070
  675TMC3    C210036   4.622   3.093  17.511  0.9357  0.1991 -0.2330
  675TMC3    C310037   4.690   3.008  17.601  0.2029  0.8712 -0.3888
  675TMC3    C410038   0.091   3.213  17.477 -0.3271 -0.4423  0.3131
  675TMC3    C510039   0.146   3.134  17.571  0.2962  0.4021  0.2824
  675TMC3    C610040   0.088   3.027  17.626 -0.1150 -0.2114 -0.3974
  675TMC3     C10041   4.620   3.295  17.380  0.1257 -0.4018  0.0854
  675TMC3     O10042   4.499   3.296  17.393 -0.2629 -0.0027  0.2023
  675TMC3     H10043   4.516   3.090  17.492  0.6185  0.7700  1.4971
  675TMC3    H110044   0.149   3.285  17.420  0.1080  0.0417  1.3573
  675TMC3    H210045   0.137   2.964  17.698  0.2942 -0.5850 -1.0067
  675TMC3    C710046   0.286   3.152  17.577 -0.4613  0.3188  0.2459
  675TMC3    C810047   4.631   2.921  17.704 -0.2801 -0.2164 -0.1185
  675TMC3    O110048   0.356   3.052  17.561  0.0965  0.3570  0.0375
  675TMC3    O210049   4.700   2.845   0.035  0.2315  0.4114 -0.3501
  676MPD2     C10050   3.363   1.680  10.882 -0.4548 -0.5777 -0.3611
  676MPD2    C110051   3.285   1.609  10.968  0.0835  0.0162  0.3386
  676MPD2    C210052   3.205   1.513  10.916  0.5449 -0.0916 -0.1927
  676MPD2    C310053   3.199   1.495  10.775 -0.1014  0.2103  0.2348
  676MPD2    C410054   3.262   1.580  10.688 -0.0785  0.2458  1.0277
  676MPD2    C510055   3.343   1.674  10.746  0.6894  0.0553  0.2156
  676MPD2     H10056   3.134   1.454  10.974 -2.1725  2.5376 -0.8647
  676MPD2    H110057   3.236   1.584  10.583 -0.6600  0.0009  1.1600
  676MPD2    H210058   3.449   1.739  10.913  0.0544 -2.9204  2.6210
  676MPD2    H310059   3.399   1.744  10.686  1.2250 -1.6482 -1.2570
  676MPD2     N10060   3.124   1.392  10.715 -0.7578  0.0919 -0.3564
  676MPD2    H510061   3.133   1.381  10.614  0.1047  1.4946 -0.4276
  676MPD2    N110062   3.288   1.636  11.107 -1.0510  0.2293 -0.2403
  676MPD2    H710063   3.237   1.574  11.169 -1.4372  1.1884  0.4006
  677TMC3    C110064   3.340   1.745  11.307 -0.1359 -0.0771  0.7175
  677TMC3    C210065   3.378   1.626  11.380  0.1354  0.3030  0.0016
  677TMC3    C310066   3.428   1.649  11.504 -0.2525 -0.7892 -0.5916
  677TMC3    C410067   3.359   1.874  11.350  0.1816  0.5193  0.0461
  677TMC3    C510068   3.410   1.884  11.476 -0.4366  0.0870  1.4390
  677TMC3    C610069   3.450   1.774  11.549  0.0994  0.0992  0.2636
  677TMC3     C10070   3.353   1.746  11.163  0.6371  0.0502  0.2235
  677TMC3     O10071   3.402   1.844  11.112  0.9284 -0.0738 -0.4306
  677TMC3     H10072   3.391   1.527  11.338  0.3451  0.5997 -0.6399
  677TMC3    H110073   3.310   1.954  11.296 -2.0500 -1.0503 -0.2731
  677TMC3    H210074   3.501   1.784  11.644 -1.1965  0.1435  0.9600
  677TMC3    C710075   3.416   2.011  11.544 -0.3565 -0.5115 -0.3859
  677TMC3    C810076   3.503   1.538  11.563  0.1262 -0.3095 -0.0478
  677TMC3    O110077   3.409   2.012  11.665  0.0009  0.4652 -0.1140
  677TMC3    O210078   3.623   1.563  11.586  0.2214  0.6091 -0.7818
  678MPD2     C10079   4.124   1.202   1.266 -0.0879  0.2620 -0.0725
  678MPD2    C110080   4.074   1.239   1.146 -0.0758  0.1851 -0.3357
  678MPD2    C210081   3.954   1.308   1.142  0.4519  0.4860 -0.4684
  678MPD2    C310082   3.886   1.348   1.252 -0.0121  0.6600  0.0965
  678MPD2    C410083   3.935   1.313   1.378  0.2647  0.2399  0.6579
  678MPD2    C510084   4.053   1.235   1.380  0.4267 -0.3513  0.5905
  678MPD2     H10085   3.918   1.329   1.043 -1.2004  1.1941  0.2883
  678MPD2    H110086   3.886   1.338   1.472 -0.6430  1.0702 -0.0236
  678MPD2    H210087   4.222   1.159   1.279 -0.7315 -1.8936 -2.3554
  678MPD2    H310088   4.086   1.206   1.479  0.1103  0.8872  1.0638
  678MPD2     N10089   3.779   1.444   1.239 -0.0877 -0.7902 -0.1836
  678MPD2    H510090   3.750   1.463   1.143  2.1742 -0.5397 -0.8162
  678MPD2    N110091   4.135   1.203   1.018  0.4239  0.3143  0.6419
  678MPD2    H710092   4.083   1.223   0.933  0.1784 -0.9290  0.5091
  679TMC3    C110093   4.439   1.016   0.718 -0.1645 -0.4992 -0.4219
  679TMC3    C210094   4.388   1.031   0.842 -0.0741 -0.3918 -0.0904
  679TMC3    C310095   4.278   1.106   0.870  0.1901 -0.5892  0.7406
  679TMC3    C410096   4.409   1.096   0.618  0.4751  0.4347 -0.2209
  679TMC3    C510097   4.313   1.185   0.651  0.2858 -0.6706  0.1773
  679TMC3    C610098   4.231   1.182   0.768  0.2865 -0.0484  0.0577
  679TMC3     C10099   4.571   0.959   0.717  0.0097  0.0105 -0.0717
  679TMC3     O10100   4.650   1.013   0.644  0.1912 -0.0545  0.3060
  679TMC3     H10101   4.426   0.975   0.926  1.6963  0.8941 -0.0161
  679TMC3    H110102   4.452   1.087   0.520 -0.1710 -1.6321 -0.3274
  679TMC3    H210103   4.152   1.256   0.776  1.0487  0.9596 -1.5788
  679TMC3    C710104   4.320   1.316   0.594 -0.6244  0.2479  0.2710
  679TMC3    C810105   4.258   1.150   1.008 -0.2646 -0.3230 -0.3683
  679TMC3    O110106   4.231   1.399   0.602  0.7317 -0.6225 -0.0909
  679TMC3    O210107   4.340   1.106   1.087 -0.2546 -0.1436 -0.4048
  680MPD2     C10108   4.688   4.645  13.554 -0.0223 -0.7752  0.0600
  680MPD2    C110109   0.086   4.647  13.589  0.0398  0.3919 -0.0735
  680MPD2    C210110   0.137   0.014  13.661 -0.0938 -0.4245 -0.2164
  680MPD2    C310111   0.057   0.116  13.699  0.7410  0.7276  0.0387
  680MPD2    C410112   4.663   0.117  13.653 -0.3978  0.0841  0.0199
  680MPD2    C510113   4.606   0.014  13.586 -0.0235 -0.2544 -0.7720
  680MPD2     H10114   0.243   0.008  13.681 -0.6828  0.9699  3.2407
  680MPD2    H110115   4.597   0.188  13.700  0.2308  0.3728  0.4560
  680MPD2    H210116   4.654   4.560  13.496  0.4181 -0.7265 -0.2791
  680MPD2    H310117   4.505   0.016  13.547 -0.7571 -2.7885  1.0151
  680MPD2     N10118   0.100   0.221  13.778 -0.3848 -0.4305 -0.0084
  680MPD2    H510119   0.037   0.298  13.799 -0.7679 -0.0672 -2.4767
  680MPD2    N110120   0.180   4.546  13.565  0.0608  0.3839 -0.0746
  680MPD2    H710121   0.273   4.561  13.604 -0.1129  1.6864 -0.1640
  681TMC3    C110122   0.256   4.326  13.550 -0.6392 -0.7004 -0.4013
  681TMC3    C210123   0.216   4.249  13.658  0.0534 -0.5949 -0.3460
  681TMC3    C310124   0.280   4.270  13.780  0.7466  0.7506 -0.8942
  681TMC3    C410125   0.375   4.391  13.552  0.3572  0.2733 -0.1392
  681TMC3    C510126   0.449   4.376  13.666  0.0583 -0.1923  0.1823
  681TMC3    C610127   0.402   4.334  13.786  0.3981  0.0810 -0.0389
  681TMC3     C10128   0.154   4.415  13.520  0.0451  0.1407  0.0303
  681TMC3     O10129   0.043   4.365  13.500  0.0263 -1.0046  0.3880
  681TMC3     H10130   0.121   4.196  13.647 -0.0556 -0.4371 -0.1559
  681TMC3    H110131   0.404   4.448  13.464  0.4878 -0.2403 -0.4292
  681TMC3    H210132   0.466   4.352  13.872 -0.8773  0.2711  0.8637
  681TMC3    C710133   0.594   4.389  13.660  0.2602 -0.1256  0.2954
  681TMC3    C810134   0.183   4.345  13.855  0.4646 -0.0303  0.3005
  681TMC3    O110135   0.661   4.341  13.751  0.3703  0.0502 -0.2810
  681TMC3    O210136   0.064   4.341  13.838  0.4488  0.6899  0.5209
  682MPD2     C10137   2.566   1.553  10.157 -0.3471  0.1397  0.8336
  682MPD2    C110138   2.574   1.432  10.226 -0.1848  0.9185  0.4333
  682MPD2    C210139   2.512   1.425  10.351  0.6508 -1.0717  0.3988
  682MPD2    C310140   2.433   1.530  10.397  0.1986  0.2023 -0.1793
  682MPD2    C410141   2.431   1.645  10.325  0.1334 -0.8372  0.0485
  682MPD2    C510142   2.494   1.658  10.202  0.8075  0.1317 -0.5852
  682MPD2     H10143   2.502   1.331  10.405 -0.5205 -0.8049  0.6495
  682MPD2    H110144   2.390   1.739  10.361  2.1636  0.2303 -0.4570
  682MPD2    H210145   2.612   1.564  10.060  0.3750  0.2383  1.1846
  682MPD2    H310146   2.479   1.747  10.142 -2.2936 -0.6869 -1.0060
  682MPD2     N10147   2.373   1.537  10.530 -0.1819 -0.7962 -0.1751
  682MPD2    H510148   2.317   1.617  10.557 -0.9535 -0.8527 -1.6466
  682MPD2    N110149   2.628   1.312  10.186 -0.5471  0.4996 -0.1689
  682MPD2    H710150   2.608   1.237  10.251  0.3458 -2.0499 -2.8445
  683TMC3    C110151   2.384   1.459  10.955  0.3420 -0.3954  0.1186
  683TMC3    C210152   2.337   1.326  10.988  0.2061  0.0457  0.4586
  683TMC3    C310153   2.269   1.272  10.886  0.4077 -0.4400  0.2120
  683TMC3    C410154   2.369   1.512  10.828  0.1082 -0.1875  0.3696
  683TMC3    C510155   2.301   1.452  10.731  0.2599 -0.4549  0.2384
  683TMC3    C610156   2.249   1.330  10.764 -0.0734 -0.4226  0.1293
  683TMC3     C10157   2.427   1.552  11.059  0.1473 -0.3840  0.0357
  683TMC3     O10158   2.427   1.670  11.029  0.0566 -0.4501 -0.5963
  683TMC3     H10159   2.354   1.280  11.086  2.6148  2.5648  1.2005
  683TMC3    H110160   2.423   1.604  10.806 -0.7151  0.2674  0.2719
  683TMC3    H210161   2.176   1.288  10.696  0.8942 -0.5371 -0.8338
  683TMC3    C710162   2.359   1.426  10.602  0.5239 -0.6191  0.0073
  683TMC3    C810163   2.220   1.133  10.903  1.1726 -0.2786  0.4335
  683TMC3    O110164   2.363   1.305  10.570 -0.2794  0.1142  0.4772
  683TMC3    O210165   2.204   1.079  10.793  0.4096  0.4900 -0.8246
  684MPD2     C10166   0.532   0.982  16.405  0.2256  0.5516 -0.4078
  684MPD2    C110167   0.470   1.019  16.286  0.0160  0.5130  0.0958
  684MPD2    C210168   0.464   1.156  16.250 -0.6704  0.0415  0.3233
  684MPD2    C310169   0.516   1.255  16.333  0.0859 -0.5625  0.1779
  684MPD2    C410170   0.581   1.213  16.445 -0.4523 -0.6593  0.2210
  684MPD2    C510171   0.590   1.082  16.473 -0.1878 -0.8393 -0.2909
  684MPD2     H10172   0.418   1.185  16.156  0.0404  2.4020  0.7047
  684MPD2    H110173   0.635   1.283  16.508 -1.7586  1.7139 -1.3051
  684MPD2    H210174   0.541   0.880  16.438 -2.1284 -0.4213 -2.8320
  684MPD2    H310175   0.663   1.045  16.545  0.5629  1.3817  0.0887
  684MPD2     N10176   0.532   1.393  16.307  0.2179  0.0289 -0.8735
  684MPD2    H510177   0.591   1.442  16.373 -0.4786  2.5382 -2.1397
  684MPD2    N110178   0.428   0.924  16.189 -0.9290 -0.2927  0.5044
  684MPD2    H710179   0.376   0.951  16.107 -2.0449  0.1566  1.3524
  685TMC3    C110180   0.414   0.719  16.089 -0.1664  1.1589  0.7503
  685TMC3    C210181   0.331   0.780  15.994 -0.8134 -0.4448  0.2558
  685TMC3    C310182   0.349   0.753  15.864 -0.6203 -0.6151 -0.2843
  685TMC3    C410183   0.505   0.625  16.054  0.1426  0.5635 -0.5876
  685TMC3    C510184   0.524   0.613  15.919  0.4326 -0.6872  1.0606
  685TMC3    C610185   0.448   0.670  15.821 -0.1506 -0.1667 -0.1685
  685TMC3     C10186   0.475   0.792  16.191 -0.1705  0.9679  0.1902
  685TMC3     O10187   0.576   0.742  16.241 -0.6099 -0.6278  0.4903
  685TMC3     H10188   0.246   0.838  16.029 -0.7814  0.0319 -0.4606
  685TMC3    H110189   0.561   0.564  16.124 -1.3503  1.1005  1.0554
  685TMC3    H210190   0.473   0.667  15.716  0.8225 -1.0601  0.0878
  685TMC3    C710191   0.663   0.604  15.896  0.1577  0.1259 -0.0603
  685TMC3    C810192   0.248   0.800  15.762 -0.1911 -0.0865 -0.0547
  685TMC3    O110193   0.702   0.566  15.785  0.5858  1.0423 -0.2529
  685TMC3    O210194   0.266   0.746  15.656 -0.3153 -0.2520 -0.5687
  686MPD2     C10195   1.782   0.739  15.236  0.3811 -0.6682  0.2719
  686MPD2    C110196   1.657   0.758  15.299  0.2399  0.5895  0.2523
  686MPD2    C210197   1.545   0.685  15.273  0.3696 -0.1584  0.4375
  686MPD2    C310198   1.554   0.582  15.177  0.4355  0.1439  0.7492
  686MPD2    C410199   1.681   0.555  15.121  0.0635 -0.3600 -0.4675
  686MPD2    C510200   1.784   0.639  15.143  0.1588  0.4538 -0.0543
  686MPD2     H10201   1.446   0.698  15.316  0.4321  2.1711 -0.1059
  686MPD2    H110202   1.704   0.466  15.063  1.2038 -0.9415  0.8833
  686MPD2    H210203   1.878   0.783  15.262  0.7049 -0.9073 -0.4961
  686MPD2    H310204   1.878   0.616  15.095  0.1703  1.1031 -0.3443
  686MPD2     N10205   1.447   0.493  15.144  0.4778  0.1766  0.1032
  686MPD2    H510206   1.451   0.455  15.050  3.5098  0.7820 -0.0005
  686MPD2    N110207   1.648   0.855  15.401 -0.5318 -0.4222 -0.0151
  686MPD2    H710208   1.740   0.896  15.414 -0.3382 -0.1331 -2.1969
  687TMC3    C110209   1.305   0.501  15.340  0.2013 -0.4335 -0.6895
  687TMC3    C210210   1.189   0.554  15.388  0.4167 -0.0152 -0.4579
  687TMC3    C310211   1.169   0.562  15.523 -0.1664  0.5370 -0.7204
  687TMC3    C410212   1.400   0.460  15.427  0.2680 -0.1755 -0.0995
  687TMC3    C510213   1.379   0.465  15.566 -0.2283 -0.1448  0.1114
  687TMC3    C610214   1.259   0.512  15.619 -0.0602  0.2235  0.1409
  687TMC3     C10215   1.320   0.478  15.198  0.3350  0.2883 -0.1519
  687TMC3     O10216   1.225   0.432  15.137 -1.0103 -0.0175  0.2252
  687TMC3     H10217   1.126   0.612  15.320  1.1671  1.8090  0.3992
  687TMC3    H110218   1.490   0.414  15.388  0.4723  0.3176 -0.2117
  687TMC3    H210219   1.240   0.521  15.725 -4.4144 -2.6382 -0.4070
  687TMC3    C710220   1.493   0.515  15.640  0.3963  0.3944  0.1690
  687TMC3    C810221   1.078   0.673  15.556  0.7984 -0.9353 -0.6202
  687TMC3    O110222   1.466   0.592  15.733  0.1614  0.7542 -0.5076
  687TMC3    O210223   0.959   0.647  15.549  0.1851 -0.1641 -0.5399
  688MPD2     C10224   0.741   0.115  17.252 -0.1722  0.0117  0.0083
  688MPD2    C110225   0.739   4.716  17.287 -0.0651 -0.5576  0.0299
  688MPD2    C210226   0.818   4.633  17.209  0.9497  0.9121  0.2737
  688MPD2    C310227   0.906   4.680  17.114  0.6675 -0.0300  0.0281
  688MPD2    C410228   0.915   0.088  17.096 -0.2936  0.1281 -0.0947
  688MPD2    C510229   0.822   0.170  17.153  0.1108  0.3510 -0.8972
  688MPD2     H10230   0.827   4.531  17.243 -1.0260 -0.0985 -2.2659
  688MPD2    H110231   0.984   0.127  17.022  1.0015 -0.2179  0.9229
  688MPD2    H210232   0.660   0.177  17.290 -1.7038 -1.9545 -0.0062
  688MPD2    H310233   0.804   0.274  17.130  0.3076  0.0373 -2.4435
  688MPD2     N10234   1.008   4.607  17.054  0.1598  0.4058  0.3110
  688MPD2    H510235   1.077   4.654  16.996 -1.4546 -1.3611 -2.9633
  688MPD2    N110236   0.669   4.673  17.406  0.0393 -0.2205  0.0876
  688MPD2    H710237   0.660   4.574  17.424  0.8754 -0.1330  0.9914
  689TMC3    C110238   0.563   4.683  17.618 -0.7299 -0.2219 -0.0865
  689TMC3    C210239   0.550   0.026  17.734  0.2122  0.0376 -0.1957
  689TMC3    C310240   0.544   4.691   0.117 -0.5696 -0.1339  0.8411
  689TMC3    C410241   0.557   4.546  17.617  0.3509  0.6417  0.2498
  689TMC3    C510242   0.526   4.487  17.734  0.1896 -0.3902  0.3000
  689TMC3    C610243   0.521   4.554   0.118  0.0948  0.5566 -0.5842
  689TMC3     C10244   0.615   0.021  17.503 -0.5568 -0.2378  0.0157
  689TMC3     O10245   0.617   0.142  17.517 -0.1048 -0.2904 -0.4438
  689TMC3     H10246   0.558   0.134  17.729  1.3658 -0.0553 -0.2759
  689TMC3    H110247   0.587   4.483  17.534  2.4394  0.8376  0.8643
  689TMC3    H210248   0.507   4.495   0.207 -0.8984 -0.3535 -1.3321
  689TMC3    C710249   0.522   4.338   0.014  0.2293 -0.7309 -0.7975
  689TMC3    C810250   0.523   0.026   0.245  0.0799  0.0368  0.4781
  689TMC3    O110251   0.497   4.296   0.123  0.1352 -0.7923  0.2833
  689TMC3    O210252   0.480   4.707   0.346  0.2667  0.1582 -0.5043
  690MPD2     C10253   3.891   1.585  15.820 -0.6340  0.3080  0.0719
  690MPD2    C110254   3.794   1.653  15.746  0.1945  0.6418 -0.4026
  690MPD2    C210255   3.835   1.697  15.624  0.1291 -0.8479 -0.3006
  690MPD2    C310256   3.960   1.675  15.579 -0.3040  0.2759 -0.0360
  690MPD2    C410257   4.049   1.614  15.660 -0.0009  0.0344 -0.1608
  690MPD2    C510258   4.019   1.579  15.784 -0.6651 -0.1685 -0.1653
  690MPD2     H10259   3.760   1.747  15.563 -0.4611  2.0755  2.8611
  690MPD2    H110260   4.149   1.598  15.619 -0.1697  1.0985 -0.9877
  690MPD2    H210261   3.877   1.553  15.922  4.4272 -0.2674  0.5959
  690MPD2    H310262   4.093   1.522  15.838  0.2179 -1.5006 -2.8001
  690MPD2     N10263   3.985   1.714  15.445 -0.2926 -0.2317 -0.9752
  690MPD2    H510264   3.912   1.767  15.399 -1.0608 -0.4401  0.0028
  690MPD2    N110265   3.656   1.652  15.786 -0.1391 -0.5875 -0.3312
  690MPD2    H710266   3.591   1.703  15.727 -0.5428 -2.0092 -1.1323
  691TMC3    C110267   3.455   1.575  15.904 -0.2438 -0.4085  0.3174
  691TMC3    C210268   3.375   1.654  15.827  0.1785  0.0450  0.2710
  691TMC3    C310269   3.245   1.628  15.830 -0.2582  0.4045 -0.3433
  691TMC3    C410270   3.405   1.486  15.993 -0.1546  0.2594 -0.1300
  691TMC3    C510271   3.272   1.458  15.989  0.4959  0.2423 -0.2954
  691TMC3    C610272   3.187   1.534  15.911  0.4079  0.1731 -0.6837
  691TMC3     C10273   3.603   1.574  15.885  0.1162  0.1645  0.5360
  691TMC3     O10274   3.659   1.479  15.944  0.2648  0.6103  0.3570
  691TMC3     H10275   3.410   1.741  15.772 -0.3004  0.3369  0.4224
  691TMC3    H110276   3.472   1.425  16.051 -1.4505  1.1677  2.3064
  691TMC3    H210277   3.079   1.541  15.915  0.3207 -1.4435 -0.3763
  691TMC3    C710278   3.238   1.337  16.058  0.2179 -0.1060 -0.5250
  691TMC3    C810279   3.182   1.676  15.707  1.2793 -0.3311 -0.3059
  691TMC3    O110280   3.323   1.288  16.132  0.3157 -0.2266  0.3249
  691TMC3    O210281   3.258   1.668  15.610  0.2234 -0.2417  0.2161
  692TMC3    C110282   0.049   2.539  15.456 -0.5767  0.2478 -0.1520
  692TMC3    C210283   0.110   2.632  15.535  0.4304  0.2142  0.5611
  692TMC3    C310284   0.224   2.606  15.599  0.1380  0.4699 -0.0599
  692TMC3    C410285   0.093   2.413  15.446 -0.1023  0.0166  0.3588
  692TMC3    C510286   0.201   2.383  15.523 -0.1813 -0.2432 -0.4731
  692TMC3    C610287   0.262   2.473  15.607  0.1884  1.0552 -0.4814
  692TMC3     C10288   4.667   2.593  15.382  0.3146  0.1369  0.3212
  692TMC3     O10289   4.635   2.702  15.415 -0.2105  0.2398  0.5845
  692TMC3     H10290   0.098   2.731  15.494 -2.7825 -0.0639  0.8538
  692TMC3    H110291   0.040   2.335  15.394 -1.9853  1.8604 -0.5149
  692TMC3    H210292   0.361   2.447  15.645 -0.2668  0.8808  0.5870
  692TMC3    C710293   0.235   2.239  15.507  0.1026  0.2122 -0.1515
  692TMC3    C810294   0.259   2.688  15.712 -0.4366  0.4942  0.7419
  692TMC3    O110295   0.185   2.178  15.415  0.0586 -0.2716 -0.0373
  692TMC3    O210296   0.341   2.643  15.790 -0.1709 -0.2919 -0.5973
  693MPD2     C10297   4.574   0.919  10.568  0.1940 -0.2576 -0.1113
  693MPD2    C110298   4.515   0.881  10.688  0.4418  0.3055  0.1662
  693MPD2    C210299   4.573   0.779  10.763 -0.4823  0.4467 -0.8236
  693MPD2    C310300   4.699   0.723  10.727 -0.4332 -0.4508 -0.2350
  693MPD2    C410301   0.033   0.778  10.619 -0.1017  0.9305  0.4589
  693MPD2    C510302   4.704   0.876  10.543  0.0391  0.2076  0.6040
  693MPD2     H10303   4.516   0.735  10.844  1.4766 -0.0921  0.2652
  693MPD2    H110304   0.131   0.742  10.589 -0.4662  0.4249 -0.1147
  693MPD2    H210305   4.542   1.003  10.508  2.5532 -0.3894 -1.5301
  693MPD2    H310306   0.020   0.917  10.456 -0.2195  0.5069  0.5946
  693MPD2     N10307   0.022   0.618  10.804 -0.7298  0.3373  0.4612
  693MPD2    H510308   0.117   0.587  10.786 -1.5035 -2.1162  0.5011
  693MPD2    N110309   4.394   0.943  10.726  0.5230  0.1292 -0.2026
  693MPD2    H710310   4.363   1.021  10.670 -1.2900 -0.6117 -0.2352
  694TMC3    C110311   4.212   1.014  10.866 -0.0409 -0.8646  0.3138
  694TMC3    C210312   4.130   1.011  10.758  0.1194  0.3375  0.3571
  694TMC3    C310313   3.996   1.028  10.793 -0.2145  0.2812 -0.7120
  694TMC3    C410314   4.169   1.042  10.991 -0.6018 -0.5241 -0.3183
  694TMC3    C510315   4.040   1.081  11.009 -0.3283 -0.0699 -0.5113
  694TMC3    C610316   3.945   1.063  10.913  0.1117  0.1299  0.4639
  694TMC3     C10317   4.334   0.938  10.853 -0.0001 -0.0810  0.0758
  694TMC3     O10318   4.387   0.895  10.949 -0.3631 -0.2239 -0.2820
  694TMC3     H10319   4.159   0.984  10.657  0.5488 -1.1985  0.8919
  694TMC3    H110320   4.239   1.050  11.074  0.2379  0.5766 -1.1330
  694TMC3    H210321   3.840   1.085  10.929 -0.3821 -1.9136  0.0460
  694TMC3    C710322   3.983   1.061  11.145 -0.5916  0.4709  0.3165
  694TMC3    C810323   3.904   0.962  10.704  0.2397 -0.2126  0.1399
  694TMC3    O110324   3.859   1.072  11.145  0.0029 -0.2404 -0.1087
  694TMC3    O210325   3.811   0.913  10.762 -0.2189  0.6477 -0.4076
  695MPD2     C10326   0.999   2.251  13.234 -0.5411 -0.5593  0.6923
  695MPD2    C110327   0.913   2.272  13.343 -0.4851  0.0578 -0.2536
  695MPD2    C210328   0.794   2.339  13.333 -0.4151  0.0934  0.3391
  695MPD2    C310329   0.757   2.394  13.210 -0.2991 -0.0531 -0.8754
  695MPD2    C410330   0.839   2.375  13.097 -0.2347  0.7800 -0.2802
  695MPD2    C510331   0.952   2.302  13.114  0.0540 -0.0079  0.3308
  695MPD2     H10332   0.726   2.330  13.417 -0.9380 -0.6753 -0.1772
  695MPD2    H110333   0.819   2.419  13.000 -0.4302 -1.2113 -1.1424
  695MPD2    H210334   1.096   2.205  13.234  0.5965  1.8046  0.1042
  695MPD2    H310335   1.019   2.282  13.032  0.2254 -2.9858  1.1878
  695MPD2     N10336   0.629   2.453  13.197  0.4889 -0.2071  0.8823
  695MPD2    H510337   0.566   2.456  13.276 -0.3243  1.5908  0.1751
  695MPD2    N110338   0.935   2.228  13.476 -0.5604 -0.0727 -0.0842
  695MPD2    H710339   0.878   2.263  13.551 -0.1863 -2.8572  1.5144
  696TMC3    C110340   0.433   2.549  13.111  0.2979  0.2926 -0.3094
  696TMC3    C210341   0.363   2.472  13.205  0.2096 -0.3108  1.2003
  696TMC3    C310342   0.250   2.519  13.261  0.3610  0.0834 -0.6233
  696TMC3    C410343   0.385   2.671  13.077 -0.4780  0.1541  0.0999
  696TMC3    C510344   0.277   2.718  13.140 -0.1393 -0.5097 -0.6866
  696TMC3    C610345   0.205   2.646  13.231 -0.5438  0.4784  0.3076
  696TMC3     C10346   0.575   2.530  13.092  0.2471  0.1042 -0.2993
  696TMC3     O10347   0.612   2.542  12.975  0.3798  0.1257  0.5771
  696TMC3     H10348   0.386   2.369  13.227 -0.1463 -0.8403 -0.8886
  696TMC3    H110349   0.447   2.734  13.015 -1.1497 -0.9940 -1.7564
  696TMC3    H210350   0.118   2.690  13.279  0.6416 -0.3103  3.1932
  696TMC3    C710351   0.255   2.860  13.148 -0.1707  0.3829  0.7709
  696TMC3    C810352   0.218   2.456  13.387 -0.3740 -0.0283  0.2011
  696TMC3    O110353   0.280   2.927  13.046 -0.1284  0.0312  0.4356
  696TMC3    O210354   0.306   2.399  13.450 -0.3962 -0.2827 -0.3407
  697MPD2     C10355   4.566   4.296  15.666  0.0152 -0.1212  0.5176
  697MPD2    C110356   4.612   4.249  15.549  0.0728 -0.6151 -0.4121
  697MPD2    C210357   4.694   4.328  15.467  0.0421 -0.6314 -0.4374
  697MPD2    C310358   4.719   4.458  15.502 -0.1522 -0.0409  0.1763
  697MPD2    C410359   4.677   4.503  15.625 -0.0969 -0.0713  0.0791
  697MPD2    C510360   4.600   4.424  15.703  0.1981  0.7381  0.1909
  697MPD2     H10361   0.007   4.286  15.379 -0.2414 -0.4406 -0.6815
  697MPD2    H110362   4.694   4.604  15.662 -0.1753 -0.0698  0.1123
  697MPD2    H210363   4.509   4.235  15.734 -0.5034  0.4378  0.5836
  697MPD2    H310364   4.575   4.461  15.802  0.8233 -0.7898  0.9147
  697MPD2     N10365   0.066   4.533  15.419 -0.0299 -0.7782  0.3973
  697MPD2    H510366   0.093   4.481  15.337  3.5730 -0.5854  1.4279
  697MPD2    N110367   4.596   4.113  15.506  0.1849 -0.5506  0.5131
  697MPD2    H710368   4.649   4.089  15.422 -1.5511  0.4720 -0.8643
  698TMC3    C110369   0.163   4.728  15.317  0.2678  0.4859 -0.0148
  698TMC3    C210370   0.275   0.056  15.350 -1.0077 -0.4701 -0.0845
  698TMC3    C310371   0.386   0.057  15.262  0.3236  0.0465 -0.2504
  698TMC3    C410372   0.161   4.652  15.204  1.2314  0.7481 -0.0149
  698TMC3    C510373   0.264   4.653  15.114 -0.1289  0.0580  0.1448
  698TMC3    C610374   0.377   4.733  15.138  0.1883  0.0439  0.0614
  698TMC3     C10375   0.092   4.669  15.427  0.1034  0.4477  0.4492
  698TMC3     O10376   0.042   0.009  15.510  0.1042  0.1911  0.2411
  698TMC3     H10377   0.280   0.093  15.452 -1.1626  0.3363 -0.3753
  698TMC3    H110378   0.064   4.610  15.179  0.8960  2.3311 -1.3052
  698TMC3    H210379   0.463   4.727  15.073 -0.5809  1.0926 -1.0555
  698TMC3    C710380   0.241   4.599  14.974  0.8477  0.3669  0.2995
  698TMC3    C810381   0.493   0.144  15.299  0.6439  0.1120  0.0031
  698TMC3    O110382   0.128   4.561  14.951  0.0067 -0.2658  0.6952
  698TMC3    O210383   0.492   0.178  15.416 -0.2241  0.1559  0.5955
  699TMC3    C110384   0.183   2.713  12.784 -0.6941 -0.4057 -0.1030
  699TMC3    C210385   0.231   2.586  12.818  0.0174 -0.5608  0.3683
  699TMC3    C310386   0.134   2.493  12.858 -0.6896 -0.7232 -0.1206
  699TMC3    C410387   0.045   2.744  12.797 -0.6541  0.1351  0.4215
  699TMC3    C510388   4.699   2.649  12.830  0.4344 -0.4113 -0.0119
  699TMC3    C610389   0.001   2.520  12.859  0.2770  0.5465  0.2775
  699TMC3     C10390   0.259   2.802  12.695  0.3406  0.4059 -0.0717
  699TMC3     O10391   0.211   2.910  12.663  0.2287  0.1630  0.3770
  699TMC3     H10392   0.337   2.561  12.822  0.2304  0.4893  1.4275
  699TMC3    H110393   0.014   2.840  12.755 -2.0911  0.0094  1.1795
  699TMC3    H210394   4.669   2.436  12.872  2.5003 -1.4182 -0.9935
  699TMC3    C710395   4.561   2.694  12.849  0.0341  0.2055  0.8186
  699TMC3    C810396   0.179   2.380  12.939  0.1494  1.1223  0.2145
  699TMC3    O110397   4.540   2.811  12.872  0.3065 -0.1092 -0.6717
  699TMC3    O210398   0.091   2.327  12.999  0.0896 -0.3002 -0.1769
  700TMC3    C110399   3.589   0.531  16.968 -0.0467  0.1336 -0.3508
  700TMC3    C210400   3.615   0.393  16.960 -0.0211  0.4896 -0.0377
  700TMC3    C310401   3.669   0.335  17.071 -0.3484  0.2870  0.3015
  700TMC3    C410402   3.633   0.595  17.080  0.0232 -0.2596  0.8644
  700TMC3    C510403   3.693   0.529  17.186  0.0405 -0.2023  0.3980
  700TMC3    C610404   3.725   0.396  17.179  0.2279  0.0073  0.0192
  700TMC3     C10405   3.598   0.602  16.844 -0.4381 -0.2633  0.8198
  700TMC3     O10406   3.555   0.546  16.747  0.4333 -0.3996  0.0528
  700TMC3     H10407   3.598   0.333  16.871 -0.1963 -1.4843  1.3359
  700TMC3    H110408   3.616   0.702  17.088  0.5266  0.0532 -2.1970
  700TMC3    H210409   3.759   0.327  17.256  0.9213 -0.3601 -0.6156
  700TMC3    C710410   3.722   0.597  17.313  0.3228 -0.4365 -0.5433
  700TMC3    C810411   3.731   0.201  17.054  0.3173 -0.2238 -0.0091
  700TMC3    O110412   3.817   0.574  17.389  0.0865 -0.0412 -0.7673
  700TMC3    O210413   3.853   0.200  17.068 -0.2773  0.5412 -0.1531
  701TMC3    C110414   3.848   3.650  15.216 -0.8606  0.1054  0.3410
  701TMC3    C210415   3.880   3.580  15.099  0.7640 -0.4241  0.8326
  701TMC3    C310416   4.004   3.606  15.051  0.1458 -0.8319  0.1170
  701TMC3    C410417   3.928   3.739  15.279 -0.5899  0.2386  0.7386
  701TMC3    C510418   4.045   3.765  15.211 -0.5900 -0.4650 -0.4087
  701TMC3    C610419   4.092   3.696  15.102  0.5987 -0.1062  0.6397
  701TMC3     C10420   3.718   3.645  15.272  0.3830 -0.3930  0.2594
  701TMC3     O10421   3.674   3.738  15.333 -0.2204  0.1762  0.1304
  701TMC3     H10422   3.817   3.504  15.053  2.0221 -0.8658 -0.1431
  701TMC3    H110423   3.889   3.792  15.364 -0.9570 -1.7113  1.7969
  701TMC3    H210424   4.197   3.705  15.078  0.4377 -3.0874 -1.2157
  701TMC3    C710425   4.135   3.861  15.277 -0.4489 -0.5221  0.3456
  701TMC3    C810426   4.060   3.533  14.936 -0.0433  0.2746 -0.2162
  701TMC3    O110427   4.231   3.912  15.225  0.3578  0.5284  0.2496
  701TMC3    O210428   4.178   3.523  14.914  0.5075 -0.2524  0.3794
  702MPD2     C10429   3.164   1.102  10.084  0.0021 -0.2577 -0.3754
  702MPD2    C110430   3.225   1.130  10.197 -0.0399  0.2778  0.6850
  702MPD2    C210431   3.356   1.178  10.189 -0.3475  0.0611  0.2178
  702MPD2    C310432   3.417   1.197  10.065  0.4659  0.3322 -0.0821
  702MPD2    C410433   3.353   1.162   9.945  0.2997  0.7984  0.3668
  702MPD2    C510434   3.227   1.110   9.958 -0.3923  0.4371 -0.1951
  702MPD2     H10435   3.398   1.212  10.283 -0.1277 -3.0136  1.2278
  702MPD2    H110436   3.398   1.168   9.846 -1.6008  0.8943 -0.5011
  702MPD2    H210437   3.060   1.074  10.072 -0.8238  2.5557  0.3344
  702MPD2    H310438   3.172   1.082   9.869  0.3628 -0.5809 -0.3472
  702MPD2     N10439   3.538   1.275  10.055 -0.1110  0.2866 -0.0598
  702MPD2    H510440   3.574   1.290   9.961 -0.3460  0.8840 -0.0527
  702MPD2    N110441   3.160   1.129  10.319 -0.2062  0.8647 -0.3320
  702MPD2    H710442   3.208   1.166  10.400  1.5596 -2.4753  0.1386
  703TMC3    C110443   3.677   1.449  10.117  0.6021 -0.2594  0.8129
  703TMC3    C210444   3.585   1.541  10.079 -0.2121 -0.5111 -0.5896
  703TMC3    C310445   3.565   1.663  10.143 -0.0143  0.2104 -0.7784
  703TMC3    C410446   3.773   1.495  10.203 -0.2641 -0.3170  0.5450
  703TMC3    C510447   3.762   1.622  10.257  0.4485  0.5899 -0.5941
  703TMC3    C610448   3.661   1.713  10.225  0.3919  0.4336 -0.2942
  703TMC3     C10449   3.614   1.324  10.158 -0.0159  0.0262  0.0277
  703TMC3     O10450   3.604   1.315  10.278  0.3964 -0.3176 -0.1224
  703TMC3     H10451   3.519   1.515   9.997 -1.3945  0.8187 -0.0548
  703TMC3    H110452   3.853   1.432  10.241  0.4114 -0.0695 -0.4654
  703TMC3    H210453   3.655   1.812  10.269  2.4882  0.9447 -1.1691
  703TMC3    C710454   3.878   1.681  10.325 -0.4618  0.3423 -0.3599
  703TMC3    C810455   3.426   1.695  10.182 -0.2402  0.2800  0.3183
  703TMC3    O110456   3.992   1.642  10.307 -0.4099  0.0438  0.2360
  703TMC3    O210457   3.410   1.767  10.278  0.3256  0.1079 -0.0333
  704TMC3    C110458   1.769   3.506  13.006 -0.5094  0.3068 -0.2331
  704TMC3    C210459   1.874   3.473  12.927  0.8032 -0.8146 -0.5287
  704TMC3    C310460   1.890   3.343  12.882  0.7220 -0.3736  0.1153
  704TMC3    C410461   1.691   3.415  13.069 -0.6542 -0.3051 -0.2427
  704TMC3    C510462   1.712   3.286  13.033  0.6904  0.4086 -0.2323
  704TMC3    C610463   1.808   3.250  12.944 -0.3804  0.2684 -0.2668
  704TMC3     C10464   1.693   3.625  12.975 -0.0082  0.0438  0.3665
  704TMC3     O10465   1.646   3.689  13.066  0.0596  0.9300  0.3546
  704TMC3     H10466   1.932   3.556  12.889 -0.9529  1.0922  0.9614
  704TMC3    H110467   1.601   3.450  13.119  0.2395 -1.0687  1.9001
  704TMC3    H210468   1.822   3.145  12.921 -0.5999  0.2612 -0.3617
  704TMC3    C710469   1.612   3.188  13.057  0.3286  0.4205 -0.9012
  704TMC3    C810470   1.876   3.328  12.740  0.1515 -0.0770 -0.0262
  704TMC3    O110471   1.579   3.125  12.957  0.3985  0.3142 -0.2885
  704TMC3    O210472   1.788   3.254  12.699 -0.1249 -0.4542 -0.0731
  705MPD2     C10473   0.193   2.654  16.578 -0.5116 -0.3849 -0.1619
  705MPD2    C110474   0.155   2.622  16.447  0.4915  0.1016  0.4639
  705MPD2    C210475   0.020   2.598  16.418 -0.2930  0.5410  0.3891
  705MPD2    C310476   4.654   2.616  16.512  0.4990  0.5953 -0.4066
  705MPD2    C410477   4.697   2.658  16.641 -0.6397 -0.0037 -0.3474
  705MPD2    C510478   0.091   2.678  16.668 -0.4395  0.4316 -0.0278
  705MPD2     H10479   4.728   2.569  16.316  0.6884  0.2672  0.2187
  705MPD2    H110480   4.623   2.675  16.718  0.6892 -1.1925  1.2102
  705MPD2    H210481   0.298   2.660  16.603 -1.0213 -1.2922  2.1853
  705MPD2    H310482   0.126   2.698  16.769 -0.4122  0.3240 -0.0165
  705MPD2     N10483   4.522   2.592  16.472 -0.5279  0.3723  0.5316
  705MPD2    H510484   4.509   2.561  16.376  0.2704  0.0082  0.5392
  705MPD2    N110485   0.241   2.603  16.336 -0.1203  0.0128  0.1304
  705MPD2    H710486   0.210   2.633  16.244 -3.2666  1.0062  1.4894
  706TMC3    C110487   0.671   2.510  16.161 -0.7248 -1.0192 -0.2564
  706TMC3    C210488   0.677   2.634  16.096 -0.1173 -0.6303  0.1534
  706TMC3    C310489   0.571   2.722  16.111 -0.2861  0.3686  0.4121
  706TMC3    C410490   0.564   2.476  16.232 -0.3408 -0.2952 -0.8375
  706TMC3    C510491   0.459   2.568  16.250 -0.4933 -0.5254 -1.0677
  706TMC3    C610492   0.456   2.686  16.183  0.0004  0.2755  0.0100
  706TMC3     C10493   0.750   2.406  16.094  0.7596 -0.3485  0.2166
  706TMC3     O10494   0.798   2.429  15.985  0.6811 -0.0871 -1.0610
  706TMC3     H10495   0.766   2.664  16.043  0.7612 -3.4264  0.0185
  706TMC3    H110496   0.541   2.387  16.290  0.6620 -0.6875 -1.0308
  706TMC3    H210497   0.378   2.760  16.195  0.3967  0.8622 -0.9983
  706TMC3    C710498   0.369   2.552  16.365 -0.0534  0.5326 -0.8993
  706TMC3    C810499   0.588   2.860  16.085  0.4155  0.7159 -0.0939
  706TMC3    O110500   0.404   2.506  16.470 -0.1558 -0.0480  0.5379
  706TMC3    O210501   0.527   2.936  16.158  0.0766  0.0681  0.3816
  707TMC3    C110502   2.137   1.404   1.384  0.1078 -0.5828 -0.2735
  707TMC3    C210503   2.229   1.417   1.478 -0.1533 -0.2669  0.1512
  707TMC3    C310504   2.248   1.316   1.561  0.1655  0.6892  0.1354
  707TMC3    C410505   2.064   1.291   1.366  0.8280 -0.2952 -0.2227
  707TMC3    C510506   2.090   1.183   1.452  0.1216  0.5407 -0.0017
  707TMC3    C610507   2.183   1.200   1.555  0.0727  0.1714  0.0695
  707TMC3     C10508   2.159   1.497   1.276  0.3962  0.2507 -0.2713
  707TMC3     O10509   2.263   1.560   1.270 -0.0458 -0.1889 -0.9107
  707TMC3     H10510   2.283   1.511   1.484  0.5639 -0.7372  0.9702
  707TMC3    H110511   2.015   1.281   1.270 -1.4114 -2.5129  1.1542
  707TMC3    H210512   2.206   1.117   1.621  2.4280  0.3623 -0.4936
  707TMC3    C710513   2.028   1.055   1.437  0.2019  0.8338  0.5835
  707TMC3    C810514   2.365   1.319   1.646  0.4746  0.7997  0.3443
  707TMC3    O110515   2.081   0.972   1.513  0.0720 -0.0848 -0.5006
  707TMC3    O210516   2.378   1.411   1.722  0.2298 -0.1004  0.2654
  708MPD2     C10517   3.895   0.478  13.708 -0.2709 -0.2877  0.5306
  708MPD2    C110518   3.833   0.580  13.777 -0.4535 -0.5775  0.5535
  708MPD2    C210519   3.801   0.572  13.909 -1.4553  0.2003  0.3885
  708MPD2    C310520   3.842   0.455  13.978  0.6813 -0.0274 -1.3658
  708MPD2    C410521   3.921   0.359  13.920  0.7563 -0.2324  0.5012
  708MPD2    C510522   3.947   0.373  13.788  0.3326  0.3608 -0.2921
  708MPD2     H10523   3.733   0.648  13.946 -2.6148 -0.1531 -1.0330
  708MPD2    H110524   3.956   0.277  13.982  1.2562 -1.1210 -0.9404
  708MPD2    H210525   3.926   0.486  13.604  2.0153  0.0608  1.2313
  708MPD2    H310526   4.009   0.300  13.738  1.8419  0.5094  1.3357
  708MPD2     N10527   3.807   0.433  14.113  0.0260  0.4939  0.6958
  708MPD2    H510528   3.832   0.350  14.165  0.2380  1.2072  1.7388
  708MPD2    N110529   3.780   0.693  13.713  0.2963 -0.3061  0.1151
  708MPD2    H710530   3.728   0.762  13.767  2.0182  0.8211  0.3173
  709TMC3    C110531   3.716   0.839  13.545  0.4778 -0.5241 -0.4707
  709TMC3    C210532   3.613   0.795  13.468 -0.1909  0.2465  0.1920
  709TMC3    C310533   3.486   0.841  13.482 -0.5026  0.6638  0.4224
  709TMC3    C410534   3.690   0.913  13.655  0.0160  0.0724  0.8683
  709TMC3    C510535   3.560   0.948  13.678  1.0359 -0.1510 -0.1094
  709TMC3    C610536   3.455   0.916  13.590  0.7556  0.0514 -0.0801
  709TMC3     C10537   3.789   0.719  13.579  0.4870  0.6497 -0.0385
  709TMC3     O10538   3.819   0.647  13.485 -0.1117  0.0934  0.0626
  709TMC3     H10539   3.630   0.726  13.385  0.8927 -0.7163  1.2148
  709TMC3    H110540   3.766   0.956  13.719  0.0984  2.7886 -1.0728
  709TMC3    H210541   3.353   0.948  13.608 -0.0744 -1.9218 -1.2467
  709TMC3    C710542   3.538   0.940  13.819  0.6649  0.2239  0.4510
  709TMC3    C810543   3.387   0.762  13.416  0.6682  0.4732 -0.8166
  709TMC3    O110544   3.633   0.912  13.889 -0.6521  0.3446  0.0175
  709TMC3    O210545   3.294   0.720  13.484  0.3724 -0.4441 -0.1633
  710TMC3    C110546   4.090   2.150   0.409  0.3685  0.3992  0.6306
  710TMC3    C210547   4.173   2.238   0.358 -1.3205 -0.6352  0.0622
  710TMC3    C310548   4.293   2.191   0.316  0.5350  0.1583  0.0169
  710TMC3    C410549   4.114   2.022   0.443  0.0817  0.2431  0.1163
  710TMC3    C510550   4.248   1.991   0.427 -0.1481 -0.5513 -0.0950
  710TMC3    C610551   4.337   2.071   0.361  0.2214 -0.7874  0.0137
  710TMC3     C10552   3.949   2.184   0.420 -0.0475  0.3533 -0.0248
  710TMC3     O10553   3.854   2.111   0.395  0.2415  0.0937  0.2295
  710TMC3     H10554   4.133   2.330   0.318 -1.9757 -0.0892  2.0023
  710TMC3    H110555   4.040   1.957   0.489  1.1379  0.0719  1.5546
  710TMC3    H210556   4.422   2.023   0.314 -0.7892 -1.1673 -1.4321
  710TMC3    C710557   4.284   1.850   0.462  0.1490 -0.0550 -0.1381
  710TMC3    C810558   4.384   2.262   0.224 -0.3821 -0.8085 -0.0919
  710TMC3    O110559   4.191   1.771   0.482 -0.0142 -0.1674 -0.6873
  710TMC3    O210560   4.487   2.205   0.193 -0.4125  0.3534 -0.2523
  711TMC3    C110561   4.672   3.290  14.641 -0.2137  0.1749  1.0187
  711TMC3    C210562   4.644   3.365  14.748 -0.3158 -0.0571 -0.0494
  711TMC3    C310563   4.730   3.365  14.854 -0.0108  0.0250  0.6201
  711TMC3    C410564   0.053   3.214  14.628  0.3010  0.2747 -0.5488
  711TMC3    C510565   0.135   3.209  14.742  0.4687  0.3825 -0.0501
  711TMC3    C610566   0.116   3.299  14.847  0.3887 -1.0919  0.1136
  711TMC3     C10567   4.560   3.208  14.613  0.5801  0.1846  0.5866
  711TMC3     O10568   4.571   3.128  14.519 -0.1735 -0.0979 -0.2813
  711TMC3     H10569   4.563   3.437  14.743 -0.4568 -0.2923 -1.1864
  711TMC3    H110570   0.066   3.146  14.544  3.1455  5.4167 -4.2715
  711TMC3    H210571   0.186   3.279  14.927 -0.1736 -0.4509  0.7582
  711TMC3    C710572   0.139   3.080  14.802  0.0906 -0.4464 -0.0827
  711TMC3    C810573   4.650   3.355  14.977 -0.2063 -0.5033  0.2219
  711TMC3    O110574   0.179   3.069  14.918  0.0788 -0.0490 -0.4969
  711TMC3    O210575   4.529   3.347  14.968  0.4515 -0.8766 -0.0893
  712MPD2     C10576   1.420   3.722  14.112 -0.1307 -0.2018  0.4329
  712MPD2    C110577   1.330   3.765  14.024  0.2238 -0.4112 -0.4666
  712MPD2    C210578   1.320   3.899  13.984  0.7945 -0.4179  0.0619
  712MPD2    C310579   1.421   3.983  14.025  0.2134  0.3199  0.0595
  712MPD2    C410580   1.527   3.930  14.092 -0.3072 -0.5354  0.5283
  712MPD2    C510581   1.521   3.803  14.154 -0.5387 -0.6629  0.1804
  712MPD2     H10582   1.246   3.937  13.915  1.6204 -0.0486 -0.6344
  712MPD2    H110583   1.608   3.996  14.121  0.5772 -0.0230 -3.0953
  712MPD2    H210584   1.420   3.621  14.153  2.2472 -1.0360 -1.6282
  712MPD2    H310585   1.603   3.774  14.219  1.2694 -0.9755 -2.2220
  712MPD2     N10586   1.428   4.113  13.980  0.0416  0.0163 -0.3356
  712MPD2    H510587   1.514   4.162  14.002  0.4080 -0.1572 -1.4035
  712MPD2    N110588   1.230   3.680  13.965  0.2274 -0.4266 -0.0446
  712MPD2    H710589   1.169   3.715  13.892 -1.2940  0.8613  1.8738
  713TMC3    C110590   1.377   4.284  13.828 -0.2417  0.3636 -0.3067
  713TMC3    C210591   1.511   4.287  13.792  0.0512  0.1985 -0.5842
  713TMC3    C310592   1.556   4.398  13.737  0.4484  0.0862 -0.8708
  713TMC3    C410593   1.288   4.390  13.809  0.6641  0.5524  0.2434
  713TMC3    C510594   1.342   4.500  13.754  0.5480 -0.3848  0.1242
  713TMC3    C610595   1.474   4.505  13.710 -0.1700  0.5874 -0.0017
  713TMC3     C10596   1.331   4.173  13.906  0.2661  0.1085 -0.1371
  713TMC3     O10597   1.209   4.155  13.903 -0.2623  0.7616 -0.1473
  713TMC3     H10598   1.570   4.196  13.795 -3.3081 -1.9575  0.3670
  713TMC3    H110599   1.186   4.390  13.845  0.9626  2.9651  1.0802
  713TMC3    H210600   1.512   4.593  13.658 -1.9167  1.8958  0.9426
  713TMC3    C710601   1.251   4.613  13.740 -0.3132 -0.0551  0.6507
  713TMC3    C810602   1.696   4.422  13.718 -0.5589 -0.1377 -0.0570
  713TMC3    O110603   1.152   4.621  13.811 -0.4680 -0.1774  0.2998
  713TMC3    O210604   1.729   4.537  13.693 -0.7681 -0.2480 -0.0234
  714MPD2     C10605   2.797   3.794   0.919  0.0379 -0.8130 -0.7838
  714MPD2    C110606   2.791   3.656   0.931  0.3911  0.2633 -0.7477
  714MPD2    C210607   2.671   3.599   0.901  0.4328  0.1210 -1.0657
  714MPD2    C310608   2.567   3.672   0.850  0.2681 -0.8955  0.1369
  714MPD2    C410609   2.588   3.806   0.820  0.0693  0.5816 -0.0835
  714MPD2    C510610   2.705   3.867   0.859 -0.5385 -0.2305  0.6301
  714MPD2     H10611   2.654   3.492   0.909  4.4922 -0.3418  0.7480
  714MPD2    H110612   2.511   3.860   0.765 -1.2059 -0.2989  0.8134
  714MPD2    H210613   2.880   3.848   0.963 -0.6366  0.3730 -0.9589
  714MPD2    H310614   2.710   3.973   0.838 -0.5207  0.0881  2.2262
  714MPD2     N10615   2.449   3.601   0.805  0.2475  0.6854  0.2015
  714MPD2    H510616   2.447   3.504   0.835 -0.7990  1.4747  2.6724
  714MPD2    N110617   2.897   3.590   0.998 -0.5796  0.8350  0.4075
  714MPD2    H710618   2.968   3.651   1.036  1.0851 -0.5249 -0.5324
  715TMC3    C110619   3.028   3.409   1.088 -0.7392 -0.1150 -0.2756
  715TMC3    C210620   3.067   3.278   1.080 -0.7816 -0.4872  0.1032
  715TMC3    C310621   3.189   3.236   1.125 -0.1992  0.5832 -0.5163
  715TMC3    C410622   3.112   3.499   1.154 -0.2897 -0.3417  0.4672
  715TMC3    C510623   3.226   3.451   1.218  0.2055 -0.1007 -0.1647
  715TMC3    C610624   3.272   3.323   1.194  0.2322 -0.3382  0.4708
  715TMC3     C10625   2.917   3.451   0.995 -0.2568  0.4864 -0.2234
  715TMC3     O10626   2.847   3.367   0.940  0.8940 -0.7934  0.7939
  715TMC3     H10627   3.004   3.216   1.018 -3.2123  2.7357 -0.6729
  715TMC3    H110628   3.058   3.587   1.187 -1.2930 -0.4466 -0.8919
  715TMC3    H210629   3.362   3.286   1.243  0.7589  0.3697  0.0351
  715TMC3    C710630   3.320   3.537   1.290  0.2369  0.1412  0.1266
  715TMC3    C810631   3.235   3.108   1.079 -0.5517 -0.2177  0.6029
  715TMC3    O110632   3.425   3.476   1.315 -0.2736 -0.3050  0.2700
  715TMC3    O210633   3.144   3.029   1.044 -0.1625 -0.4748 -0.4651
  716MPD2     C10634   3.362   1.269   9.544  0.2329 -0.6105 -0.2326
  716MPD2    C110635   3.491   1.234   9.505  0.0276  0.6831 -0.7725
  716MPD2    C210636   3.517   1.107   9.453  0.4165 -0.9688  0.4613
  716MPD2    C310637   3.410   1.024   9.429  0.2504 -0.1584  0.5508
  716MPD2    C410638   3.277   1.063   9.463  0.1126 -0.0497 -0.1638
  716MPD2    C510639   3.255   1.185   9.522 -0.2148  0.8902  0.0111
  716MPD2     H10640   3.609   1.069   9.410  0.4415 -1.0426  0.5834
  716MPD2    H110641   3.192   0.997   9.449 -0.3390  0.2092  1.4031
  716MPD2    H210642   3.346   1.361   9.598  1.2736 -0.1000 -0.7908
  716MPD2    H310643   3.156   1.215   9.555 -0.5421 -1.3167  1.0590
  716MPD2     N10644   3.436   0.891   9.384 -0.3799  0.1269 -0.3616
  716MPD2    H510645   3.532   0.857   9.379 -0.7794 -0.5617 -3.2079
  716MPD2    N110646   3.591   1.334   9.515  0.1010 -0.4213 -0.3306
  716MPD2    H710647   3.558   1.427   9.536  2.9319  0.1454  1.6266
  717TMC3    C110648   3.387   0.663   9.334  0.2718  0.0175  0.2864
  717TMC3    C210649   3.314   0.576   9.264 -0.5495  0.3919 -0.1081
  717TMC3    C310650   3.356   0.446   9.260  0.7445 -0.6929  0.2380
  717TMC3    C410651   3.497   0.632   9.414 -0.3317  0.0413  0.6965
  717TMC3    C510652   3.526   0.499   9.415 -0.1719  0.3614  0.1003
  717TMC3    C610653   3.457   0.403   9.340  0.1476  0.1734 -0.0217
  717TMC3     C10654   3.345   0.805   9.338  0.1675  0.1057 -0.8787
  717TMC3     O10655   3.232   0.823   9.300 -0.4379 -0.3286  0.1897
  717TMC3     H10656   3.219   0.603   9.218 -0.1747 -1.1603 -1.7899
  717TMC3    H110657   3.542   0.697   9.489  1.3194  1.5577 -1.5946
  717TMC3    H210658   3.471   0.297   9.353 -0.0101  0.1451 -0.0768
  717TMC3    C710659   3.585   0.464   9.544 -0.3570 -0.0859 -0.3733
  717TMC3    C810660   3.263   0.349   9.206  0.2709 -0.2700 -0.0652
  717TMC3    O110661   3.574   0.545   9.638  0.0099 -0.3680 -0.4620
  717TMC3    O210662   3.146   0.382   9.204 -0.0451  0.1107  0.0897
  718MPD2     C10663   2.731   0.191  13.051 -0.0688  0.1598  0.0881
  718MPD2    C110664   2.670   0.179  12.929 -0.3917 -0.4171 -0.4378
  718MPD2    C210665   2.633   0.056  12.892 -0.4358  0.1932  0.0246
  718MPD2    C310666   2.679   4.680  12.960 -0.4036  0.8760  1.1126
  718MPD2    C410667   2.757   4.694  13.072  0.2474 -0.1350  0.0752
  718MPD2    C510668   2.767   0.083  13.126 -0.0671  0.4203 -0.0320
  718MPD2     H10669   2.575   0.044  12.802  0.2207 -0.6190 -0.2928
  718MPD2    H110670   2.793   4.603  13.120 -0.3354 -0.6630 -0.4761
  718MPD2    H210671   2.772   0.286  13.087  1.2648 -0.6980  0.8450
  718MPD2    H310672   2.828   0.111  13.210 -0.8870 -0.5152  0.8763
  718MPD2     N10673   2.631   4.561  12.907 -0.2792 -0.4624 -0.2150
  718MPD2    H510674   2.564   4.584  12.834  1.3765  2.1830 -0.9091
  718MPD2    N110675   2.649   0.296  12.852  0.6723 -0.3977 -0.4121
  718MPD2    H710676   2.712   0.375  12.867  1.0814 -0.9238  0.6364
  719TMC3    C110677   2.578   0.432  12.672 -0.3034  0.4139 -0.7597
  719TMC3    C210678   2.483   0.442  12.578  0.5891  0.1653 -0.1912
  719TMC3    C310679   2.524   0.445  12.447 -1.0177  0.2942  0.1790
  719TMC3    C410680   2.708   0.475  12.642 -0.2242  0.2282  0.1692
  719TMC3    C510681   2.739   0.492  12.507  0.3575 -0.1281 -0.6360
  719TMC3    C610682   2.645   0.486  12.409  0.3700 -0.4016  0.2626
  719TMC3     C10683   2.557   0.314  12.751  0.0165 -0.8546  0.3117
  719TMC3     O10684   2.462   0.246  12.716 -0.3285 -0.1053  0.2475
  719TMC3     H10685   2.380   0.412  12.597  0.2315  1.2739 -0.3965
  719TMC3    H110686   2.788   0.463  12.714  0.8424 -0.6475 -1.1569
  719TMC3    H210687   2.676   0.477  12.306  3.4116  2.3070  0.9293
  719TMC3    C710688   2.823   0.382  12.480 -0.5067  0.0831 -0.1465
  719TMC3    C810689   2.462   0.343  12.359 -0.0277  0.0473 -0.5201
  719TMC3    O110690   2.785   0.300  12.397  0.1888 -0.1127 -0.3747
  719TMC3    O210691   2.471   0.357  12.241 -0.5312  0.4868  0.3463
  720MPD2     C10692   1.305   1.314  14.039  0.1879  0.1499 -0.4935
  720MPD2    C110693   1.407   1.363  13.960 -0.0050 -0.2091 -0.2981
  720MPD2    C210694   1.526   1.403  14.010 -0.1815  0.3748  0.3054
  720MPD2    C310695   1.553   1.397  14.148  0.1284 -0.2684 -0.5028
  720MPD2    C410696   1.459   1.330  14.225  0.2478  0.2361  0.0960
  720MPD2    C510697   1.337   1.293  14.172  0.5036  0.2585 -0.5227
  720MPD2     H10698   1.599   1.452  13.946 -0.5022 -0.7769 -0.9412
  720MPD2    H110699   1.476   1.311  14.331  0.9303  0.6585  0.0606
  720MPD2    H210700   1.215   1.277  13.991  0.1117 -1.6643  1.0483
  720MPD2    H310701   1.265   1.238  14.232  2.0001 -0.9682  0.1641
  720MPD2     N10702   1.665   1.452  14.197 -0.7614 -0.3190  0.1365
  720MPD2    H510703   1.732   1.489  14.130 -1.5597  2.7060  1.0306
  720MPD2    N110704   1.385   1.377  13.820  0.0614  0.5272  0.6706
  720MPD2    H710705   1.459   1.411  13.759 -1.0935 -0.1114 -1.0838
  721TMC3    C110706   1.827   1.523  14.364 -1.0281  0.2595 -0.0952
  721TMC3    C210707   1.838   1.576  14.489 -0.3858  0.3465  0.2872
  721TMC3    C310708   1.966   1.586  14.534  0.3073  0.9725  0.4734
  721TMC3    C410709   1.935   1.490  14.289 -0.2340 -0.5262 -0.8460
  721TMC3    C510710   2.059   1.525  14.330  0.6023  0.2354  0.4538
  721TMC3    C610711   2.076   1.561  14.456  0.2319 -0.1743  0.2292
  721TMC3     C10712   1.688   1.474  14.333  0.7809  0.1145  0.0299
  721TMC3     O10713   1.612   1.464  14.428  0.3436  0.5436  0.0236
  721TMC3     H10714   1.748   1.608  14.540 -0.5800  0.8234 -0.3655
  721TMC3    H110715   1.925   1.454  14.187 -1.4485 -3.5857  0.3435
  721TMC3    H210716   2.176   1.577  14.495  0.2981  2.6801 -1.0648
  721TMC3    C710717   2.177   1.469  14.266  0.0197 -0.2042 -0.4259
  721TMC3    C810718   1.981   1.636  14.670 -0.0544  0.4373  0.3345
  721TMC3    O110719   2.275   1.543  14.255  0.1851 -0.1874  0.0715
  721TMC3    O210720   2.093   1.671  14.707  0.1777 -0.0782 -0.6274
  722MPD2     C10721   0.280   4.594  13.231  0.1662  0.0700  0.5266
  722MPD2    C110722   0.242   4.721  13.273 -0.4915  0.3614 -0.0377
  722MPD2    C210723   0.116   0.027  13.237 -0.9203 -0.4701  1.0658
  722MPD2    C310724   0.031   4.689  13.155  0.2145  0.0643 -0.2034
  722MPD2    C410725   0.068   4.561  13.126 -0.5814 -0.0809 -0.5454
  722MPD2    C510726   0.193   4.515  13.160  0.6352  0.4332  0.1868
  722MPD2     H10727   0.083   0.125  13.271 -0.1264  0.4571 -0.8766
  722MPD2    H110728   0.008   4.492  13.067 -0.1114  0.7139 -1.9560
  722MPD2    H210729   0.377   4.553  13.256  0.0795  0.4152  1.4129
  722MPD2    H310730   0.238   4.424  13.120 -0.1094  0.2690 -0.2780
  722MPD2     N10731   4.646   0.019  13.110  0.3162 -0.2041 -0.2757
  722MPD2    H510732   4.629   0.116  13.136 -0.4423 -0.5663  0.5660
  722MPD2    N110733   0.321   0.078  13.347 -0.1755 -0.0311  0.3920
  722MPD2    H710734   0.279   0.170  13.353 -2.1784 -1.0102  1.3339
  723TMC3    C110735   4.443   0.040  12.982  0.3781 -0.1532  0.0076
  723TMC3    C210736   4.324   4.715  12.938 -0.6454  0.1596 -0.5318
  723TMC3    C310737   4.221   0.057  12.891 -0.5185  0.7399 -0.4346
  723TMC3    C410738   4.468   0.173  12.958  0.7163  0.6009 -0.3516
  723TMC3    C510739   4.357   0.249  12.914  0.5443 -0.0202 -0.8707
  723TMC3    C610740   4.238   0.191  12.880  0.3756 -0.6242 -0.2076
  723TMC3     C10741   4.553   4.689  13.030  0.3475 -0.6066 -0.8189
  723TMC3     O10742   4.535   4.563  13.018 -0.1390  0.2715 -0.1309
  723TMC3     H10743   4.317   4.607  12.937  0.9826  0.0335  1.1593
  723TMC3    H110744   4.564   0.224  12.963  0.5229  0.6134  3.3242
  723TMC3    H210745   4.166   0.252  12.827 -0.8839 -1.0149  1.0401
  723TMC3    C710746   4.385   0.386  12.876  0.0006  0.1058 -0.3768
  723TMC3    C810747   4.085   0.015  12.884  0.9835  0.2645  0.4823
  723TMC3    O110748   4.487   0.427  12.818  0.1484  0.8305  0.3707
  723TMC3    O210749   3.984   0.091  12.888  0.1418 -0.8658 -0.5413
  724TMC3    C110750   0.224   2.983  10.789  0.2292  0.4031  0.2682
  724TMC3    C210751   0.167   2.914  10.684  0.0129  0.1911  0.3276
  724TMC3    C310752   0.182   2.976  10.559  0.8266  0.0034  0.9785
  724TMC3    C410753   0.268   3.112  10.782 -1.2989 -0.0216 -0.0556
  724TMC3    C510754   0.275   3.167  10.659 -0.4788 -0.1925 -0.1801
  724TMC3    C610755   0.234   3.098  10.545 -0.1682 -0.1848  0.1675
  724TMC3     C10756   0.207   2.930  10.924  0.6717  0.3141 -0.0741
  724TMC3     O10757   0.171   3.003  11.014 -0.1908  0.1522 -0.3318
  724TMC3     H10758   0.142   2.810  10.703  0.5173  0.5221  2.7693
  724TMC3    H110759   0.293   3.174  10.868  1.6080  0.0698 -0.9522
  724TMC3    H210760   0.259   3.130  10.445  1.2437 -0.6168  0.3783
  724TMC3    C710761   0.319   3.302  10.643 -0.0227  0.3670  0.1179
  724TMC3    C810762   0.139   2.901  10.440 -1.0897  0.2093 -0.7966
  724TMC3    O110763   0.385   3.346  10.735 -0.2227 -0.1334 -0.2271
  724TMC3    O210764   0.168   2.781  10.451  0.0271  0.1389  0.4782
  725TMC3    C110765   2.140   1.457  12.573  0.0292 -0.4660 -0.3095
  725TMC3    C210766   2.138   1.469  12.433  0.1095  0.2578 -0.4165
  725TMC3    C310767   2.085   1.363  12.362  0.0309  0.3120 -0.6192
  725TMC3    C410768   2.085   1.345  12.635  0.6541 -0.4590  0.0454
  725TMC3    C510769   2.037   1.249  12.557 -0.1207  0.7286 -0.3995
  725TMC3    C610770   2.030   1.262  12.421 -0.1865  1.0306 -0.3399
  725TMC3     C10771   2.232   1.543  12.643 -0.0269 -0.0785 -0.4871
  725TMC3     O10772   2.278   1.636  12.582  0.4137  0.4559  0.4667
  725TMC3     H10773   2.195   1.545  12.381 -0.5771  1.0554 -0.0017
  725TMC3    H110774   2.080   1.328  12.742 -1.8150  1.3978  0.2209
  725TMC3    H210775   1.997   1.174  12.369  2.0850 -0.3629  0.5886
  725TMC3    C710776   1.980   1.137  12.620 -0.3227  0.6694  0.0114
  725TMC3    C810777   2.129   1.335  12.227  0.3015 -1.2008  0.2647
  725TMC3    O110778   1.887   1.163  12.696  0.4761 -0.4149  0.4643
  725TMC3    O210779   2.139   1.218  12.200  0.3496 -0.3832 -0.9949
  726MPD2     C10780   4.211   3.819  10.577 -0.1757  0.0878  0.5310
  726MPD2    C110781   4.261   3.815  10.449  0.5786  0.1132 -0.1912
  726MPD2    C210782   4.239   3.699  10.374 -0.0892 -0.3815  0.1480
  726MPD2    C310783   4.168   3.589  10.431  0.3921  0.1940  0.2536
  726MPD2    C410784   4.114   3.604  10.556  0.0202 -0.1174 -0.3349
  726MPD2    C510785   4.131   3.715  10.626 -0.3130 -0.3610  0.3171
  726MPD2     H10786   4.270   3.694  10.270 -2.0450  0.8495 -0.5134
  726MPD2    H110787   4.058   3.521  10.598 -1.5134  0.7629 -0.6504
  726MPD2    H210788   4.221   3.911  10.634 -0.9239  0.9269 -0.7015
  726MPD2    H310789   4.091   3.727  10.726  3.5076  0.5036  1.7547
  726MPD2     N10790   4.142   3.466  10.362  0.1437  0.2742  0.1429
  726MPD2    H510791   4.067   3.410  10.401 -0.2087  0.6848  0.0632
  726MPD2    N110792   4.324   3.927  10.386  0.6101 -0.5994  0.2683
  726MPD2    H710793   4.332   3.927  10.285 -1.6267  0.6931  0.0898
  727TMC3    C110794   4.445   4.137  10.369  0.2729 -0.0431 -0.2300
  727TMC3    C210795   4.512   4.240  10.435 -0.4196 -0.1722 -0.3629
  727TMC3    C310796   4.551   4.346  10.367  0.4667  0.2437  0.1210
  727TMC3    C410797   4.413   4.150  10.236 -0.1155 -0.2726 -0.5371
  727TMC3    C510798   4.436   4.267  10.170  0.1019  0.4628  0.8325
  727TMC3    C610799   4.509   4.367  10.234 -0.3094 -0.0406  0.1533
  727TMC3     C10800   4.385   4.028  10.455  0.5921 -0.2328  0.2285
  727TMC3     O10801   4.397   4.040  10.576  1.2823  0.0995  0.1743
  727TMC3     H10802   4.554   4.224  10.534 -3.2454 -0.7245  0.7252
  727TMC3    H110803   4.365   4.070  10.181 -2.2028  0.2170  0.5629
  727TMC3    H210804   4.539   4.457  10.181 -1.0455  0.4606  0.5845
  727TMC3    C710805   4.394   4.281  10.029  0.1339  0.7183  0.0762
  727TMC3    C810806   4.644   4.438  10.424  0.5031 -0.3919  0.0259
  727TMC3    O110807   4.442   4.378   9.970 -0.2821 -0.1230  0.5916
  727TMC3    O210808   4.725   4.386  10.504  0.6149 -0.1441 -0.7863
  728TMC3    C110809   4.111   1.747  15.242 -0.1498 -0.0767  0.4275
  728TMC3    C210810   4.229   1.803  15.205 -0.6240 -0.1170 -0.0854
  728TMC3    C310811   4.237   1.881  15.093  0.4891  0.0950  0.1147
  728TMC3    C410812   3.996   1.775  15.165  0.6660  1.0031 -0.1210
  728TMC3    C510813   4.005   1.852  15.049  0.2720 -0.4114 -0.0274
  728TMC3    C610814   4.126   1.900  15.012 -0.0589 -0.2257 -0.7368
  728TMC3     C10815   4.100   1.687  15.373 -0.6693  0.8682 -0.3784
  728TMC3     O10816   4.197   1.629  15.416 -0.2024  0.1228 -0.2832
  728TMC3     H10817   4.315   1.788  15.269  0.0917  1.9139 -0.5871
  728TMC3    H110818   3.903   1.727  15.192  1.9127 -1.7112 -0.7001
  728TMC3    H210819   4.149   1.960  14.925  0.0894  1.1770  0.2793
  728TMC3    C710820   3.881   1.872  14.962  0.3220 -0.6486  0.4525
  728TMC3    C810821   4.371   1.929  15.056 -0.0233 -0.2009 -0.8265
  728TMC3    O110822   3.768   1.874  15.009 -0.0594 -0.3454 -0.4054
  728TMC3    O210823   4.464   1.887  15.124  0.9417 -0.7204  0.1356
  729MPD2     C10824   0.946   2.789  16.367 -0.6314  0.6842  0.1789
  729MPD2    C110825   1.063   2.849  16.398  0.4194  0.3731  0.3588
  729MPD2    C210826   1.090   2.886  16.531  0.3913 -0.2791  0.1958
  729MPD2    C310827   1.002   2.855  16.633  0.5635 -0.3142  0.2818
  729MPD2    C410828   0.886   2.786  16.597  0.8570 -0.2503 -0.0457
  729MPD2    C510829   0.863   2.756  16.468  0.0388 -0.2114  0.2647
  729MPD2     H10830   1.165   2.959  16.560 -1.6660  1.5853  0.8107
  729MPD2    H110831   0.810   2.763  16.671 -0.2405 -0.6425 -1.3072
  729MPD2    H210832   0.920   2.769  16.263 -2.5914 -3.2312  1.3759
  729MPD2    H310833   0.768   2.709  16.447  0.6910 -1.2853 -0.2784
  729MPD2     N10834   1.026   2.885  16.773  0.1347 -0.3404 -0.8111
  729MPD2    H510835   0.955   2.854  16.838  1.0746  1.5877  1.1168
  729MPD2    N110836   1.146   2.880  16.287  0.1369  0.2065  0.1008
  729MPD2    H710837   1.105   2.880  16.195 -3.2953 -0.2380  1.6406
  730TMC3    C110838   1.133   2.974  16.961 -0.0470 -0.5395  0.1218
  730TMC3    C210839   1.254   2.994  17.016  0.5329 -0.1217  0.2627
  730TMC3    C310840   1.255   3.097  17.104  0.4920 -0.2440 -0.9077
  730TMC3    C410841   1.016   3.018  17.006  0.1756 -0.2001  0.3458
  730TMC3    C510842   1.015   3.103  17.106 -0.0211  0.0847 -0.2132
  730TMC3    C610843   1.138   3.145  17.152 -0.1696  0.4072 -0.4620
  730TMC3     C10844   1.146   2.937  16.819 -0.1746  0.4133 -0.5006
  730TMC3     O10845   1.258   2.952  16.769 -0.1573 -0.2641 -0.1163
  730TMC3     H10846   1.343   2.948  16.973  0.4458  0.6589 -0.7449
  730TMC3    H110847   0.921   3.000  16.957  1.9968 -2.1499 -2.5248
  730TMC3    H210848   1.147   3.237  17.208  1.8893 -1.5463  2.4283
  730TMC3    C710849   0.929   3.218  17.083  0.2240  0.2434  0.1773
  730TMC3    C810850   1.339   3.203  17.039 -0.5076  0.3182 -0.3171
  730TMC3    O110851   0.921   3.244  16.962  0.2074 -0.5815 -0.2106
  730TMC3    O210852   1.400   3.176  16.940 -0.1210  0.4430 -0.1793
  731MPD2     C10853   1.828   1.174  12.136 -0.0729 -0.0712  0.2752
  731MPD2    C110854   1.842   1.045  12.177  0.3541 -0.7093 -0.5138
  731MPD2    C210855   1.790   1.010  12.300 -0.4773  0.7263 -0.2125
  731MPD2    C310856   1.716   1.103  12.368  0.6000 -0.3328  0.1389
  731MPD2    C410857   1.714   1.238  12.328 -0.9684 -0.2547 -0.7436
  731MPD2    C510858   1.769   1.269  12.213  0.4551  0.3937 -0.1345
  731MPD2     H10859   1.792   0.905  12.327 -0.0316  0.6976 -0.3494
  731MPD2    H110860   1.661   1.314  12.385 -2.0134 -0.8973 -0.8506
  731MPD2    H210861   1.878   1.216  12.049 -1.3792 -0.7382 -0.8031
  731MPD2    H310862   1.762   1.372  12.179  2.1790  0.6601  0.3131
  731MPD2     N10863   1.660   1.064  12.492 -0.3312  0.3618  0.1011
  731MPD2    H510864   1.694   0.977  12.530 -0.7262 -0.5007 -1.5383
  731MPD2    N110865   1.909   0.956  12.095 -0.1160 -0.4332  0.3112
  731MPD2    H710866   1.942   0.994  12.006  0.2383  1.5772  1.3032
  732TMC3    C110867   1.986   0.760  12.004 -0.2573 -0.6987 -0.4205
  732TMC3    C210868   1.935   0.637  11.973  0.3548 -0.0332 -0.2938
  732TMC3    C310869   1.923   0.599  11.841 -0.3545 -0.5765  0.2420
  732TMC3    C410870   2.032   0.844  11.903 -0.1799 -0.0155  0.3815
  732TMC3    C510871   2.047   0.784  11.781  0.2405 -0.0837 -0.6631
  732TMC3    C610872   1.992   0.667  11.741  0.5913  0.0233 -0.5405
  732TMC3     C10873   1.940   0.823  12.119 -0.1584 -0.7459 -0.2942
  732TMC3     O10874   1.908   0.759  12.215  0.0868 -0.2821 -0.2038
  732TMC3     H10875   1.893   0.570  12.047  1.7589  0.0446  0.5684
  732TMC3    H110876   2.071   0.945  11.914 -1.8245  0.8976 -2.1823
  732TMC3    H210877   2.002   0.629  11.640 -0.7273 -2.9231  0.4553
  732TMC3    C710878   2.159   0.824  11.699 -0.1978  0.4468 -0.0494
  732TMC3    C810879   1.782   0.583  11.794 -0.5699 -0.1217  0.3060
  732TMC3    O110880   2.154   0.795  11.584 -0.4795  0.1230  0.3684
  732TMC3    O210881   1.760   0.595  11.676 -0.1804 -0.2556  0.2039
  733TMC3    C110882   2.470   4.142  12.818 -0.6654  0.1060 -0.1960
  733TMC3    C210883   2.551   4.219  12.901 -0.3209  0.5495 -0.6414
  733TMC3    C310884   2.605   4.344  12.856 -0.5136 -0.2597  0.0837
  733TMC3    C410885   2.433   4.193  12.698  0.1907  0.5445 -0.4074
  733TMC3    C510886   2.463   4.324  12.670 -0.0806  0.0376  0.1586
  733TMC3    C610887   2.554   4.401  12.744  0.2969  0.2997 -0.1769
  733TMC3     C10888   2.374   4.040  12.865 -0.2126  0.4751 -0.3957
  733TMC3     O10889   2.274   4.019  12.800  0.4871  0.1435 -0.0636
  733TMC3     H10890   2.561   4.196  13.006  1.0842  0.2260 -0.8550
  733TMC3    H110891   2.382   4.133  12.624 -0.3658  0.3579  0.1340
  733TMC3    H210892   2.601   4.486  12.695  0.5825  0.5859  0.5876
  733TMC3    C710893   2.413   4.378  12.538  0.1217 -0.6796 -0.0014
  733TMC3    C810894   2.644   4.438  12.955 -1.2119  0.7231 -0.4748
  733TMC3    O110895   2.370   4.299  12.456 -0.2308 -0.6128 -0.5085
  733TMC3    O210896   2.666   4.402  13.071 -0.0583 -0.0330 -0.0958
  734MPD2     C10897   4.260   1.501  12.503  0.8111 -0.1041  0.5185
  734MPD2    C110898   4.252   1.429  12.381 -0.2825  0.4886  0.3609
  734MPD2    C210899   4.277   1.502  12.264  0.2341 -0.2821  0.1216
  734MPD2    C310900   4.333   1.632  12.270 -0.3261 -1.0969  0.1345
  734MPD2    C410901   4.353   1.696  12.390  0.3817 -0.2632  0.4582
  734MPD2    C510902   4.310   1.631  12.507  0.7817  0.6291 -0.2491
  734MPD2     H10903   4.263   1.452  12.169 -0.2579  0.8961 -0.4270
  734MPD2    H110904   4.395   1.796  12.387  0.4294 -0.2905  0.1792
  734MPD2    H210905   4.239   1.462  12.602 -0.1204  1.3607  0.9091
  734MPD2    H310906   4.316   1.675  12.606  1.0873 -0.1651  0.0839
  734MPD2     N10907   4.380   1.687  12.147 -0.3513 -0.1996  0.2037
  734MPD2    H510908   4.344   1.634  12.068  1.4440  1.5949 -1.8335
  734MPD2    N110909   4.226   1.287  12.388  0.1445  0.3790 -0.4369
  734MPD2    H710910   4.222   1.239  12.477  0.6973  2.1087  0.5197
  735TMC3    C110911   4.257   1.069  12.298 -0.7554  0.0555  0.0021
  735TMC3    C210912   4.266   1.011  12.167 -0.1210  0.2485 -0.4881
  735TMC3    C310913   4.377   0.945  12.116 -0.2298 -0.4194  0.3381
  735TMC3    C410914   4.367   1.062  12.376 -0.4418 -0.3928  0.1941
  735TMC3    C510915   4.483   1.016  12.317 -0.3709  0.7653 -0.1653
  735TMC3    C610916   4.491   0.961  12.193 -0.1258  0.0746  0.6258
  735TMC3     C10917   4.220   1.206  12.271  0.3126 -0.3982 -0.4507
  735TMC3     O10918   4.219   1.238  12.152 -0.1604 -0.0818  0.6869
  735TMC3     H10919   4.188   1.000  12.092  0.0786  1.0997 -0.8202
  735TMC3    H110920   4.360   1.103  12.476 -0.2540  0.4706 -0.1500
  735TMC3    H210921   4.583   0.919  12.154  0.0226 -1.4973  2.6189
  735TMC3    C710922   4.609   1.085  12.359 -0.7583 -0.3092  0.0229
  735TMC3    C810923   4.390   0.952  11.970 -0.7779 -0.1735  0.8327
  735TMC3    O110924   4.711   1.044  12.302  0.2103  0.1232 -0.2411
  735TMC3    O210925   4.478   0.891  11.912  0.1916  0.6788  0.0082
  736MPD2     C10926   4.663   1.413  12.535  1.0056 -0.4939 -0.2927
  736MPD2    C110927   4.698   1.294  12.472 -0.3500  0.3068  0.7822
  736MPD2    C210928   0.095   1.275  12.439  0.7178 -0.0587 -0.2284
  736MPD2    C310929   0.190   1.377  12.445 -0.1592  0.4308  0.3344
  736MPD2    C410930   0.142   1.499  12.495  0.1750  0.0389 -0.4290
  736MPD2    C510931   0.020   1.507  12.545  0.0887  0.6377  0.7478
  736MPD2     H10932   0.120   1.173  12.409  1.0961  0.2732 -1.0465
  736MPD2    H110933   0.210   1.584  12.499 -1.7144  1.5578 -0.9698
  736MPD2    H210934   4.558   1.430  12.558  0.5785 -1.4239 -1.5410
  736MPD2    H310935   4.728   1.599  12.596 -3.3193 -1.0165  1.9110
  736MPD2     N10936   0.322   1.370  12.388  0.1716 -0.3388 -0.6453
  736MPD2    H510937   0.380   1.452  12.380  0.5999 -0.6087 -0.2921
  736MPD2    N110938   4.594   1.201  12.438  0.5621 -1.2890  0.3273
  736MPD2    H710939   4.498   1.216  12.467  0.9809 -1.9768  2.0914
  737TMC3    C110940   0.502   1.272  12.292 -0.3427  0.0318 -0.8651
  737TMC3    C210941   0.571   1.390  12.318 -0.3082  0.7939 -0.1917
  737TMC3    C310942   0.665   1.430  12.228  0.0714  0.0836 -0.0245
  737TMC3    C410943   0.535   1.198  12.186  0.3960 -0.6751  0.0820
  737TMC3    C510944   0.619   1.254  12.090  1.1215 -0.6720 -0.2432
  737TMC3    C610945   0.691   1.368  12.113 -0.0170  0.7708  0.3236
  737TMC3     C10946   0.375   1.250  12.352  0.0540  0.0226  0.1063
  737TMC3     O10947   0.315   1.143  12.337  0.0258  0.2402  0.1085
  737TMC3     H10948   0.583   1.435  12.416  0.7248 -3.2558  1.5450
  737TMC3    H110949   0.483   1.106  12.163  1.8461 -1.1629 -1.2701
  737TMC3    H210950   0.771   1.396  12.046  2.1804 -0.3495  2.4638
  737TMC3    C710951   0.622   1.182  11.962 -0.1098  0.1170  0.3794
  737TMC3    C810952   0.718   1.560  12.234  0.6849  0.6111  0.0034
  737TMC3    O110953   0.587   1.066  11.963 -0.3538 -0.4770  0.7486
  737TMC3    O210954   0.765   1.591  12.343  0.0802 -0.3228  0.0647
  738MPD2     C10955   0.747   0.294  15.317  0.3218 -0.4381 -0.2914
  738MPD2    C110956   0.696   0.248  15.200  0.6512 -0.0875 -0.3121
  738MPD2    C210957   0.765   0.282  15.082 -0.6112 -0.4536  0.0122
  738MPD2    C310958   0.869   0.375  15.085 -0.6757 -0.1049 -0.0592
  738MPD2    C410959   0.912   0.423  15.210  0.6005 -0.0130 -0.1973
  738MPD2    C510960   0.852   0.382  15.323  0.5978  0.9029 -0.1851
  738MPD2     H10961   0.720   0.257  14.987  0.7463 -1.9921 -0.2309
  738MPD2    H110962   0.998   0.487  15.227  0.8547 -0.3624 -0.1769
  738MPD2    H210963   0.694   0.272  15.408 -0.3343  0.0676 -0.5456
  738MPD2    H310964   0.892   0.407  15.421 -0.0114  0.0598  0.2789
  738MPD2     N10965   0.945   0.406  14.971 -0.3190  0.5034  0.5585
  738MPD2    H510966   1.001   0.490  14.979  0.7970 -0.1267 -0.6592
  738MPD2    N110967   0.565   0.186  15.188 -0.5313 -0.1980  0.1185
  738MPD2    H710968   0.521   0.168  15.098 -0.2113  1.9050 -0.4547
  739TMC3    C110969   1.032   0.398  14.759  0.6084 -0.0305  0.2420
  739TMC3    C210970   0.956   0.418  14.648 -0.2656 -0.3188 -0.1041
  739TMC3    C310971   0.977   0.532  14.576  0.2113 -0.4777  0.1489
  739TMC3    C410972   1.125   0.487  14.804  0.1782 -0.4423 -0.0268
  739TMC3    C510973   1.150   0.588  14.716 -0.0329  0.3457  0.0645
  739TMC3    C610974   1.093   0.605  14.593  0.1644 -0.5044  0.7127
  739TMC3     C10975   0.948   0.327  14.862  0.1273 -0.4685  0.3197
  739TMC3     O10976   0.896   0.221  14.835 -0.4938 -0.0946 -0.9186
  739TMC3     H10977   0.866   0.358  14.639  0.8206 -2.0118  0.2458
  739TMC3    H110978   1.185   0.458  14.889  1.5050  0.5989 -0.6191
  739TMC3    H210979   1.094   0.703  14.547  1.0835 -0.8778 -0.0635
  739TMC3    C710980   1.259   0.681  14.740  0.3236 -0.6194 -0.0612
  739TMC3    C810981   0.890   0.550  14.465  0.1090 -0.8527 -1.4353
  739TMC3    O110982   1.344   0.702  14.652 -0.1880  0.0129  0.5821
  739TMC3    O210983   0.775   0.516  14.469 -0.0105 -0.4317 -0.5199
  740TMC3    C110984   1.101   1.863  14.311  0.0122  0.0929 -0.0316
  740TMC3    C210985   1.117   1.882  14.442  0.1379  0.0015  0.1468
  740TMC3    C310986   1.241   1.888  14.496 -0.3024 -0.5133 -0.4431
  740TMC3    C410987   1.209   1.841  14.228  0.0742  0.1117  0.3265
  740TMC3    C510988   1.327   1.821  14.287 -0.2654 -0.0634 -1.0829
  740TMC3    C610989   1.345   1.850  14.421  0.5725  0.3565  0.4066
  740TMC3     C10990   0.971   1.883  14.261 -0.4351 -0.0408 -0.4532
  740TMC3     O10991   0.961   1.954  14.167 -0.0769  0.6455  0.0440
  740TMC3     H10992   1.033   1.907  14.506 -0.6789  1.1288 -1.3614
  740TMC3    H110993   1.199   1.840  14.120 -0.6767 -1.2630  0.4043
  740TMC3    H210994   1.443   1.851  14.468  1.4957 -1.4971 -1.5030
  740TMC3    C710995   1.456   1.796  14.221 -0.0732 -1.1371 -0.3199
  740TMC3    C810996   1.263   1.943  14.626  0.3324 -0.4062  0.2770
  740TMC3    O110997   1.559   1.834  14.280  0.2883  0.2435 -0.1736
  740TMC3    O210998   1.356   1.899  14.691  0.4179 -0.0849  0.0036
  741TMC3    C110999   0.781   1.086  14.174 -0.4433 -0.3710  0.5243
  741TMC3    C211000   0.669   1.011  14.162  0.4095  0.8945 -0.3151
  741TMC3    C311001   0.641   0.916  14.255  0.3658  0.3412  0.1061
  741TMC3    C411002   0.869   1.065  14.276 -0.1465 -0.4401 -1.0447
  741TMC3    C511003   0.836   0.971  14.368  0.1897 -0.3101 -0.2981
  741TMC3    C611004   0.724   0.894  14.366  0.3272  0.2187  0.3256
  741TMC3     C11005   0.824   1.167  14.064  0.2257 -0.7292  0.1119
  741TMC3     O11006   0.943   1.188  14.049  0.3036 -0.0543  0.4849
  741TMC3     H11007   0.613   1.020  14.070  1.1794 -0.2991 -0.8997
  741TMC3    H111008   0.950   1.137  14.285  0.6036 -1.3344 -0.6232
  741TMC3    H211009   0.699   0.832  14.451 -0.0994  0.4596  0.3727
  741TMC3    C711010   0.929   0.956  14.471 -0.0321  0.0715  0.3168
  741TMC3    C811011   0.510   0.856  14.247  0.4178 -0.6015  0.3902
  741TMC3    O111012   0.893   0.931  14.583 -0.0881 -0.4846 -0.3185
  741TMC3    O211013   0.432   0.897  14.163  0.5497  0.1841 -0.4528
  742TMC3    C111014   0.358   4.085  15.323 -0.1402 -0.2467  0.0878
  742TMC3    C211015   0.297   4.104  15.211 -0.3986  0.2455 -0.2218
  742TMC3    C311016   0.374   4.117  15.100  0.3879  0.2305  0.3316
  742TMC3    C411017   0.495   4.095  15.345  0.1831  0.0416  0.2510
  742TMC3    C511018   0.573   4.106  15.225 -0.0447 -0.1677  0.6176
  742TMC3    C611019   0.518   4.114  15.102 -1.3110  0.5107 -0.0843
  742TMC3     C11020   0.276   4.058  15.443 -0.1072 -0.7965  0.2791
  742TMC3     O11021   0.160   4.092  15.435  0.8008  0.0100 -0.3516
  742TMC3     H11022   0.194   4.073  15.198 -0.3376  0.5563 -1.4801
  742TMC3    H111023   0.543   4.088  15.442 -0.0527  0.4641  0.3954
  742TMC3    H211024   0.583   4.104  15.015  0.1537 -0.5299  1.1379
  742TMC3    C711025   0.713   4.148  15.223 -0.0572  0.1763 -0.6957
  742TMC3    C811026   0.321   4.054  14.981  0.0635  0.5465  0.7262
  742TMC3    O111027   0.779   4.133  15.119  0.2277  0.5059  0.6263
  742TMC3    O211028   0.405   4.005  14.906 -0.2769 -0.9690  0.2253
  743MPD2     C11029   3.438   0.911   1.763 -0.7862 -0.4515 -0.7031
  743MPD2    C111030   3.399   0.880   1.638  0.4237  0.1628 -0.0645
  743MPD2    C211031   3.486   0.897   1.531  0.4805  0.2846 -0.5220
  743MPD2    C311032   3.615   0.933   1.553  0.9659 -0.0528  1.0115
  743MPD2    C411033   3.657   0.970   1.681  0.1789  0.4098  0.4035
  743MPD2    C511034   3.567   0.949   1.785  0.0129  0.3913 -0.2133
  743MPD2     H11035   3.441   0.889   1.433 -1.2883 -0.8768  0.3989
  743MPD2    H111036   3.758   1.005   1.701 -0.0420  0.2110  1.8439
  743MPD2    H211037   3.371   0.924   1.847  0.2992  0.4820  0.0092
  743MPD2    H311038   3.605   0.973   1.883  1.4868  0.7229 -0.8593
  743MPD2     N11039   3.699   0.934   1.442 -0.3147  0.2312 -0.3865
  743MPD2    H511040   3.662   0.882   1.363 -1.4748  0.9894 -0.3425
  743MPD2    N111041   3.274   0.826   1.617  0.4309 -0.4417  0.3609
  743MPD2    H711042   3.216   0.821   1.700  1.5618  1.5308  1.2819
  744TMC3    C111043   3.107   0.703   1.514  0.2374  0.2016  0.3397
  744TMC3    C211044   3.009   0.756   1.586  0.1259  0.1364 -0.3447
  744TMC3    C311045   2.883   0.708   1.569  0.4232  0.2024 -0.0624
  744TMC3    C411046   3.088   0.603   1.422  0.0091 -0.0983  0.0373
  744TMC3    C511047   2.962   0.593   1.380  0.3021  0.2026 -0.0693
  744TMC3    C611048   2.852   0.626   1.463  0.5392 -0.2514  0.3091
  744TMC3     C11049   3.227   0.780   1.497  0.0794 -0.3818  0.0107
  744TMC3     O11050   3.291   0.754   1.395 -0.3913 -0.1632 -0.0105
  744TMC3     H11051   3.032   0.836   1.655 -0.2082 -0.2051  0.1737
  744TMC3    H111052   3.180   0.569   1.374 -0.3583 -0.1971 -0.5952
  744TMC3    H211053   2.753   0.592   1.432  0.3931 -0.5333  1.0856
  744TMC3    C711054   2.940   0.581   1.238  0.3406  0.1134  0.2864
  744TMC3    C811055   2.775   0.792   1.607  0.9658  1.2219  0.0200
  744TMC3    O111056   2.835   0.634   1.197 -0.7906 -0.0796 -0.0773
  744TMC3    O211057   2.683   0.793   1.528  0.6724  1.0167  0.5831
  745TMC3    C111058   1.095   3.487  13.925 -0.5526  0.3943 -0.0817
  745TMC3    C211059   0.971   3.528  13.960  0.3325  0.3251  0.0347
  745TMC3    C311060   0.871   3.507  13.869 -0.3813 -1.0774  0.3777
  745TMC3    C411061   1.126   3.440  13.796 -0.1320  0.8319 -0.8191
  745TMC3    C511062   1.024   3.440  13.704 -0.4226  0.3103 -0.1566
  745TMC3    C611063   0.893   3.466  13.742  0.3625 -0.2015 -0.2107
  745TMC3     C11064   1.198   3.557  14.003  0.4139  0.1552  0.5800
  745TMC3     O11065   1.243   3.495  14.097  0.4598 -0.4048  0.3572
  745TMC3     H11066   0.947   3.550  14.063  0.7080  2.6874 -0.3967
  745TMC3    H111067   1.229   3.444  13.764 -0.4538  0.8191 -1.8616
  745TMC3    H211068   0.815   3.464  13.667 -0.5717 -0.4220  0.7790
  745TMC3    C711069   1.059   3.428  13.570  0.3797  1.0727  0.2908
  745TMC3    C811070   0.771   3.610  13.869 -0.6355 -0.4242 -0.1587
  745TMC3    O111071   0.986   3.359  13.498  0.4622  0.1445  0.1959
  745TMC3    O211072   0.676   3.604  13.791 -0.3635  0.7819  0.3086
  746TMC3    C111073   3.002   1.193  10.684 -0.7921 -0.5611 -0.0066
  746TMC3    C211074   3.032   1.197  10.552 -0.1038  0.4039  0.0116
  746TMC3    C311075   2.987   1.097  10.472  0.4358  0.3757 -0.6134
  746TMC3    C411076   2.950   1.081  10.745  0.0517  0.0362 -0.4858
  746TMC3    C511077   2.900   0.983  10.659  0.0239 -0.0664  0.0717
  746TMC3    C611078   2.916   0.991  10.525  0.7331  0.0850  0.4382
  746TMC3     C11079   3.064   1.287  10.777  0.4229 -0.2244  0.0926
  746TMC3     O11080   3.044   1.278  10.899 -0.1712 -0.1619 -0.2354
  746TMC3     H11081   3.072   1.286  10.504  2.3150 -2.3085 -3.0441
  746TMC3    H111082   2.922   1.083  10.850  2.1730 -1.3460  0.1203
  746TMC3    H211083   2.870   0.917  10.460 -1.2984  1.5441  0.2267
  746TMC3    C711084   2.791   0.897  10.702  0.1579 -0.6856 -0.3017
  746TMC3    C811085   3.035   1.081  10.341  0.4949 -0.1670  0.0023
  746TMC3    O111086   2.717   0.855  10.614 -0.1972 -0.4312  0.4305
  746TMC3    O211087   2.964   1.017  10.263  0.4724  0.6871  0.1999
  747TMC3    C111088   0.909   1.569  10.989  0.1755  0.7391 -0.4513
  747TMC3    C211089   0.841   1.484  11.068 -0.1872  0.3201 -0.7015
  747TMC3    C311090   0.878   1.458  11.196  0.0777 -0.0703 -0.2060
  747TMC3    C411091   1.030   1.621  11.031 -0.8103 -0.3315  0.6117
  747TMC3    C511092   1.072   1.592  11.159 -0.1336  0.4003  0.1567
  747TMC3    C611093   0.993   1.516  11.244  0.1360  0.9220  0.1665
  747TMC3     C11094   0.899   1.562  10.839 -0.6402  0.5423  0.5586
  747TMC3     O11095   0.944   1.655  10.777  0.2813  0.5326 -0.4358
  747TMC3     H11096   0.746   1.449  11.030 -0.8850 -1.2702  2.5118
  747TMC3    H111097   1.086   1.686  10.964  0.3955 -0.0384  1.9048
  747TMC3    H211098   1.036   1.472  11.333  1.5423 -0.1760 -1.0372
  747TMC3    C711099   1.216   1.574  11.182  0.3714 -0.4683  0.3781
  747TMC3    C811100   0.804   1.353  11.269  0.4547  0.6342 -0.4011
  747TMC3    O111101   1.252   1.578  11.299 -0.4521  0.0005  0.5066
  747TMC3    O211102   0.728   1.290  11.196  0.0330  0.0114  0.3688
  748MPD2     C11103   1.929   2.082   0.665  0.2859  0.5457  0.3778
  748MPD2    C111104   1.958   2.105   0.798  0.0073 -0.3755 -0.2762
  748MPD2    C211105   2.060   2.194   0.832  0.7022 -0.3702 -0.6501
  748MPD2    C311106   2.137   2.246   0.729 -0.0749  0.0715  0.0429
  748MPD2    C411107   2.115   2.211   0.597  0.3124 -0.1945  0.1821
  748MPD2    C511108   2.009   2.126   0.569 -0.1876 -0.3435  0.3039
  748MPD2     H11109   2.093   2.220   0.932  4.0023 -1.4784 -1.4614
  748MPD2    H111110   2.178   2.228   0.510  1.9292  1.6974  1.7142
  748MPD2    H211111   1.843   2.020   0.641 -2.0778  3.5556  0.9948
  748MPD2    H311112   1.986   2.094   0.468 -0.9855  0.0227  0.3695
  748MPD2     N11113   2.239   2.338   0.763 -0.5857  0.1006  0.2166
  748MPD2    H511114   2.238   2.361   0.862  0.5424  2.8705 -0.4094
  748MPD2    N111115   1.888   2.031   0.898  0.3031 -0.8488  0.2053
  748MPD2    H711116   1.809   1.975   0.868  0.9731 -2.2818  1.0998
  749TMC3    C111117   2.414   2.488   0.731  0.1021 -0.2083  0.7238
  749TMC3    C211118   2.473   2.460   0.848  0.5941  0.2301  0.5152
  749TMC3    C311119   2.583   2.543   0.885 -0.3360 -0.1664  0.2447
  749TMC3    C411120   2.440   2.604   0.660 -0.4730  0.3305 -0.4025
  749TMC3    C511121   2.533   2.692   0.713 -0.5844  0.3823 -0.3471
  749TMC3    C611122   2.610   2.656   0.826 -0.4554 -0.0003 -0.7713
  749TMC3     C11123   2.322   2.397   0.670  0.0764 -0.1780 -0.4861
  749TMC3     O11124   2.335   2.395   0.546 -0.0717  0.3214 -0.4352
  749TMC3     H11125   2.445   2.373   0.905  1.0591  0.1996  0.6973
  749TMC3    H111126   2.386   2.627   0.569  0.4177 -1.4121 -1.3742
  749TMC3    H211127   2.684   2.727   0.861  0.5496  0.3010 -3.5040
  749TMC3    C711128   2.557   2.824   0.660 -1.1626 -0.0960 -0.3256
  749TMC3    C811129   2.653   2.508   1.004  0.9703  0.8058  0.0684
  749TMC3    O111130   2.605   2.911   0.738 -0.1006  0.1847  0.5073
  749TMC3    O211131   2.657   2.595   1.094 -0.6128 -0.0665 -0.3205
  750MPD2     C11132   3.297   3.223  11.359 -0.0001 -0.4290 -0.0727
  750MPD2    C111133   3.269   3.130  11.452 -0.0507  1.0053  0.0667
  750MPD2    C211134   3.294   2.991  11.426 -0.3995  0.2465 -1.5005
  750MPD2    C311135   3.347   2.961  11.301 -0.4664 -0.8865 -0.3571
  750MPD2    C411136   3.383   3.062  11.214  1.1315 -0.3745 -0.8290
  750MPD2    C511137   3.355   3.195  11.244 -0.0757 -0.4116 -1.1023
  750MPD2     H11138   3.277   2.912  11.498  1.5868  0.7339 -0.4978
  750MPD2    H111139   3.430   3.053  11.116  0.1682 -0.4077 -1.2798
  750MPD2    H211140   3.272   3.328  11.370 -1.2806 -0.7112 -0.2003
  750MPD2    H311141   3.370   3.279  11.178  0.4977  0.7808  0.5317
  750MPD2     N11142   3.374   2.831  11.246  0.0189 -0.2195  0.3507
  750MPD2    H511143   3.411   2.828  11.152 -0.2682 -0.5847  0.2489
  750MPD2    N111144   3.206   3.175  11.573 -0.3259  0.4440 -0.0175
  750MPD2    H711145   3.176   3.272  11.570  2.6201  1.3867  1.0657
  751TMC3    C111146   3.339   2.596  11.230 -0.3035  0.2475  0.8946
  751TMC3    C211147   3.271   2.489  11.282 -0.2703 -0.8524  0.3535
  751TMC3    C311148   3.294   2.364  11.218 -0.7859  0.3510 -0.4200
  751TMC3    C411149   3.423   2.584  11.121  0.5898  0.0103  0.2186
  751TMC3    C511150   3.442   2.462  11.062 -0.1536  0.9790 -0.2439
  751TMC3    C611151   3.380   2.354  11.110  0.3640  0.4901 -0.3309
  751TMC3     C11152   3.335   2.716  11.313 -0.5361 -0.2357 -0.3155
  751TMC3     O11153   3.285   2.697  11.421 -0.0793 -0.3253 -0.6832
  751TMC3     H11154   3.196   2.506  11.358 -0.7349 -2.1816  0.1931
  751TMC3    H111155   3.489   2.669  11.105  2.3798 -1.3456  0.4502
  751TMC3    H211156   3.417   2.260  11.071 -2.1179 -0.4728 -0.3166
  751TMC3    C711157   3.503   2.451  10.928 -0.5253  0.2880 -0.3617
  751TMC3    C811158   3.191   2.269  11.204  0.2204 -0.2546 -0.6450
  751TMC3    O111159   3.599   2.527  10.895  0.4218  0.1561 -0.3115
  751TMC3    O211160   3.169   2.245  11.089 -0.0603 -0.2918 -0.0570
  752TMC3    C111161   1.720   3.469  17.073  0.3242  0.4008  0.6956
  752TMC3    C211162   1.714   3.353  17.137 -0.5700  0.3733  0.7353
  752TMC3    C311163   1.660   3.352  17.263 -0.2621  0.0645  0.0366
  752TMC3    C411164   1.687   3.583  17.135  0.6226  0.0676  0.4045
  752TMC3    C511165   1.638   3.576  17.263  0.5998  0.6267 -0.7327
  752TMC3    C611166   1.620   3.463  17.326  0.2811  0.5725 -0.1911
  752TMC3     C11167   1.775   3.480  16.936  0.2464  0.1231 -0.8830
  752TMC3     O11168   1.845   3.576  16.917 -0.5990  0.3255 -0.3966
  752TMC3     H11169   1.736   3.261  17.083 -1.9553 -0.1669  1.0897
  752TMC3    H111170   1.686   3.679  17.085 -2.3285 -0.3211 -0.2610
  752TMC3    H211171   1.556   3.456  17.413  1.4449  1.1904  0.7074
  752TMC3    C711172   1.615   3.696  17.336  0.2254  0.3807 -0.0819
  752TMC3    C811173   1.632   3.217  17.314 -0.2262  0.0664 -0.6931
  752TMC3    O111174   1.532   3.694  17.427  0.2309  0.5452 -0.0198
  752TMC3    O211175   1.649   3.124  17.237  0.3009  0.4414 -0.1169
  753TMC3    C111176   4.145   3.854  13.438  0.0131 -0.5286 -0.5626
  753TMC3    C211177   4.230   3.833  13.543  0.4911 -0.8537  0.4743
  753TMC3    C311178   4.325   3.741  13.518 -0.1403  0.2343  1.2018
  753TMC3    C411179   4.160   3.790  13.315 -0.4588  0.2024  0.1453
  753TMC3    C511180   4.251   3.687  13.304  0.6333 -0.1806  0.6641
  753TMC3    C611181   4.342   3.667  13.406 -0.2543 -0.4268  0.4520
  753TMC3     C11182   4.088   3.983  13.431 -1.0825  0.2039  1.0469
  753TMC3     O11183   4.003   4.010  13.512 -0.3435 -0.0351  0.1275
  753TMC3     H11184   4.204   3.873  13.641  0.2934  1.0590 -0.3743
  753TMC3    H111185   4.101   3.825  13.231 -0.0449 -1.7654 -0.9808
  753TMC3    H211186   4.414   3.587  13.391  1.2458  1.3136 -1.4768
  753TMC3    C711187   4.252   3.596  13.191 -0.2179  0.1057 -0.0890
  753TMC3    C811188   4.412   3.719  13.625  0.1554 -0.0101  0.0361
  753TMC3    O111189   4.355   3.535  13.165  0.9281  0.6638  0.5028
  753TMC3    O211190   4.453   3.602  13.625 -0.5693  0.5273 -0.1344
  754MPD2     C11191   3.366   2.381  13.167 -0.1057  0.0550 -0.2742
  754MPD2    C111192   3.326   2.249  13.177  0.0748 -0.1515 -0.6856
  754MPD2    C211193   3.199   2.215  13.127  0.1051 -0.4315 -0.1871
  754MPD2    C311194   3.121   2.311  13.074 -0.3221  0.2181  0.1011
  754MPD2    C411195   3.157   2.449  13.079  0.2007 -0.3704 -0.1045
  754MPD2    C511196   3.285   2.478  13.123  1.0176  0.9868  0.3880
  754MPD2     H11197   3.161   2.114  13.126  0.1297 -0.4293 -1.7189
  754MPD2    H111198   3.088   2.523  13.041  0.8843  0.0007 -0.6285
  754MPD2    H211199   3.463   2.406  13.210  0.4160  0.3269 -1.6028
  754MPD2    H311200   3.322   2.580  13.124  2.7771  0.3311  1.5017
  754MPD2     N11201   2.996   2.279  13.012  0.2787  0.0013  0.4397
  754MPD2    H511202   2.932   2.353  12.984 -0.3586  0.1179  2.1995
  754MPD2    N111203   3.399   2.158  13.255 -0.0647 -0.4665  0.5268
  754MPD2    H711204   3.479   2.194  13.306  0.6526  0.3388 -1.1701
  755MPD2     C11205   2.393   2.802  13.202  0.1488 -0.8201  1.0868
  755MPD2    C111206   2.341   2.677  13.211 -0.2080 -1.1499  0.1436
  755MPD2    C211207   2.396   2.576  13.138  0.4260 -0.2076  0.4853
  755MPD2    C311208   2.491   2.604  13.049 -0.3790  0.5560 -0.0891
  755MPD2    C411209   2.533   2.730  13.031  0.5021 -0.7832 -0.7235
  755MPD2    C511210   2.484   2.829  13.107 -0.0743  0.1753  0.1221
  755MPD2     H11211   2.365   2.475  13.161 -2.8877  0.5511 -0.5794
  755MPD2    H111212   2.619   2.756  12.971  1.8788 -0.5345  1.3449
  755MPD2    H211213   2.376   2.886  13.269  0.0795  0.3160 -0.3450
  755MPD2    H311214   2.520   2.930  13.094 -0.5340  0.3617  0.2913
  755MPD2     N11215   2.551   2.501  12.973 -0.3512  0.1178 -0.1178
  755MPD2    H511216   2.640   2.525  12.931  0.9312 -0.9864  1.9700
  755MPD2    N111217   2.229   2.642  13.292  0.7747 -0.0554  0.3847
  755MPD2    H711218   2.190   2.549  13.278  2.3482 -1.2499  3.9656
  756MPD2     C11219   2.530   3.303   9.743 -0.1415  0.7151  0.6844
  756MPD2    C111220   2.533   3.347   9.870 -0.0431  0.1505  0.3918
  756MPD2    C211221   2.426   3.421   9.917 -0.4029  0.1836  0.3179
  756MPD2    C311222   2.322   3.457   9.830  0.2154 -0.3463 -0.2160
  756MPD2    C411223   2.330   3.420   9.696  0.0294  0.2446 -0.2755
  756MPD2    C511224   2.433   3.342   9.650 -0.3812 -0.4104 -0.1493
  756MPD2     H11225   2.440   3.445  10.022  0.2255  1.6351 -0.0958
  756MPD2    H111226   2.258   3.445   9.618 -1.6471 -1.6405  0.6507
  756MPD2    H211227   2.605   3.239   9.699  0.3895 -0.6754  3.6412
  756MPD2    H311228   2.443   3.316   9.546 -1.3946  2.6145 -1.0068
  756MPD2     N11229   2.216   3.519   9.894  0.3437  0.5914  0.1942
  756MPD2    H511230   2.233   3.555   9.987 -1.6879 -2.4052  1.7273
  756MPD2    N111231   2.641   3.325   9.952  0.1897  0.9618  0.0268
  756MPD2    H711232   2.634   3.347  10.051 -2.9909  0.8519 -0.1648
  757MPD2     C11233   1.476   3.180  10.288 -0.3903  0.3035 -0.1141
  757MPD2    C111234   1.565   3.144  10.187  0.1531 -0.1623 -0.3109
  757MPD2    C211235   1.635   3.245  10.123 -0.3066  0.1892 -0.6662
  757MPD2    C311236   1.619   3.374  10.176 -0.3780 -0.7383 -0.1259
  757MPD2    C411237   1.543   3.412  10.278 -0.7453 -0.8054  0.5749
  757MPD2    C511238   1.474   3.310  10.335  0.3392 -0.6217 -0.8719
  757MPD2     H11239   1.705   3.229  10.042  0.9597 -1.1402  0.6835
  757MPD2    H111240   1.531   3.515  10.311 -1.7532 -1.0774  1.0160
  757MPD2    H211241   1.416   3.109  10.345  0.3241  0.7756  1.2211
  757MPD2    H311242   1.391   3.342  10.397 -0.6300 -1.4237 -1.7760
  757MPD2     N11243   1.716   3.464  10.120  0.2187  1.2332  0.4383
  757MPD2    H511244   1.773   3.424  10.046  1.8092  0.2321  2.2223
  757MPD2    N111245   1.572   3.012  10.145 -0.3848 -0.5144 -0.0778
  757MPD2    H711246   1.507   2.948  10.189 -0.3231 -0.1824  0.5033
  758MPD2     C11247   2.638   2.742  15.841  0.3327 -0.3450  0.1817
  758MPD2    C111248   2.686   2.650  15.941 -0.5167 -0.2346 -0.3319
  758MPD2    C211249   2.604   2.621  16.044 -0.1393 -0.2413  0.0623
  758MPD2    C311250   2.479   2.679  16.054 -0.1743 -0.2163  0.2970
  758MPD2    C411251   2.435   2.774  15.964 -0.2017  0.7186  0.2096
  758MPD2    C511252   2.517   2.805  15.859 -0.8277 -0.9741 -0.3777
  758MPD2     H11253   2.639   2.548  16.116 -1.2056 -0.8970 -0.0705
  758MPD2    H111254   2.344   2.831  15.981 -0.8900  0.6011 -2.9146
  758MPD2    H211255   2.694   2.770  15.753 -0.5052 -1.3618 -0.6872
  758MPD2    H311256   2.483   2.874  15.783  2.0849 -0.3102 -1.0609
  758MPD2     N11257   2.400   2.643  16.164 -0.1620  0.1191  0.0354
  758MPD2    H511258   2.437   2.592  16.244  2.2747  0.3105 -0.9806
  758MPD2    N111259   2.827   2.602  15.942 -0.6857  0.6239  0.4695
  758MPD2    H711260   2.882   2.631  15.862 -0.0367  0.7944  0.9730
  759MPD2     C11261   1.090   0.453  10.105 -0.4725  0.7876 -0.0429
  759MPD2    C111262   1.163   0.350  10.172 -0.2560  0.5629  0.1375
  759MPD2    C211263   1.277   0.299  10.109 -0.1495  0.1873  0.0871
  759MPD2    C311264   1.318   0.345   9.985  0.1678 -0.2688 -0.4897
  759MPD2    C411265   1.245   0.442   9.919 -0.5838 -0.2946  0.1146
  759MPD2    C511266   1.137   0.500   9.981  0.3627  0.0388  0.3327
  759MPD2     H11267   1.332   0.215  10.150  0.8498  0.2845 -1.0626
  759MPD2    H111268   1.267   0.481   9.820  2.3491 -0.5944  0.6523
  759MPD2    H211269   0.993   0.486  10.140  0.4286  3.4445 -0.0383
  759MPD2    H311270   1.085   0.569   9.916 -2.0458 -1.6418  0.4574
  759MPD2     N11271   1.430   0.287   9.919 -1.0973  0.1888 -0.0914
  759MPD2    H511272   1.484   0.212   9.962  1.0851  1.6937 -0.2175
  759MPD2    N111273   1.116   0.280  10.287 -0.2476 -0.0792 -0.5421
  759MPD2    H711274   1.167   0.200  10.324  1.3561  0.5472 -1.4008
  760MPD2     C11275   2.003   2.392  12.145 -0.6284  0.5138 -0.5958
  760MPD2    C111276   1.956   2.425  12.019  0.8823  1.0912  0.5086
  760MPD2    C211277   2.016   2.353  11.916  0.2619 -0.2961  0.1725
  760MPD2    C311278   2.116   2.256  11.927  0.5241 -0.3551 -0.5140
  760MPD2    C411279   2.156   2.243  12.061 -0.1356  0.4265  0.7603
  760MPD2    C511280   2.108   2.307  12.167  0.7711 -0.1492  0.8484
  760MPD2     H11281   1.977   2.369  11.817 -0.0239  0.4942  0.4169
  760MPD2    H111282   2.245   2.186  12.086 -0.0658  1.2908  2.4986
  760MPD2    H211283   1.971   2.445  12.234 -2.4519 -2.0815  0.2972
  760MPD2    H311284   2.160   2.291  12.260  0.2153  0.7149  1.3099
  760MPD2     N11285   2.175   2.179  11.822  0.3936  0.2012 -0.6148
  760MPD2    H511286   2.244   2.112  11.852 -1.7394 -1.5998  0.2591
  760MPD2    N111287   1.849   2.514  12.009  0.1489 -0.2839  0.3831
  760MPD2    H711288   1.836   2.579  12.086  1.6303 -0.9318  1.1712
  761MPD2     C11289   2.917   1.867  11.337 -0.1087  0.4220 -0.0580
  761MPD2    C111290   2.956   1.906  11.208  0.6006 -0.1808  0.1571
  761MPD2    C211291   3.021   2.032  11.208  0.0097  0.1178 -0.4286
  761MPD2    C311292   3.049   2.103  11.327 -0.4297  0.3396  0.1548
  761MPD2    C411293   3.001   2.062  11.445  0.3203  0.5361  0.1147
  761MPD2    C511294   2.927   1.943  11.443 -0.1636  0.3656  0.1084
  761MPD2     H11295   3.042   2.076  11.111  1.9865 -0.6377 -0.3363
  761MPD2    H111296   3.013   2.120  11.535  0.1023  0.0321  0.4647
  761MPD2    H211297   2.844   1.789  11.356  0.5062 -0.2655 -0.4890
  761MPD2    H311298   2.887   1.899  11.534  1.0213 -0.3885  0.2664
  761MPD2     N11299   3.122   2.230  11.318  0.0736  0.8133 -0.5849
  761MPD2    H511300   3.132   2.287  11.402 -1.6812 -0.1206  0.2516
  761MPD2    N111301   2.930   1.821  11.094  0.3553 -0.1028  0.1303
  761MPD2    H711302   2.876   1.737  11.111  0.2204  0.3163  1.7929
  762MPD2     C11303   2.980   1.460  10.261 -0.5536  0.3365 -0.9907
  762MPD2    C111304   3.028   1.568  10.321 -0.5338  0.1125  0.5311
  762MPD2    C211305   3.155   1.612  10.283  0.0087 -0.3396  0.1407
  762MPD2    C311306   3.218   1.557  10.174  0.2296  0.0235  0.8209
  762MPD2    C411307   3.162   1.450  10.102 -0.7523  0.1495 -0.4573
  762MPD2    C511308   3.052   1.402  10.156  0.0648  0.0122  0.7909
  762MPD2     H11309   3.177   1.707  10.332 -2.6183  0.5298 -0.3516
  762MPD2    H111310   3.216   1.401  10.022  1.7718 -0.8170  1.8491
  762MPD2    H211311   2.887   1.421  10.302  0.8416 -1.1764  0.7172
  762MPD2    H311312   3.005   1.316  10.109 -1.3644  0.5633  1.2254
  762MPD2     N11313   3.348   1.597  10.130 -0.3368 -0.1342  0.0378
  762MPD2    H511314   3.389   1.534  10.062 -1.3877 -0.0737 -0.6532
  762MPD2    N111315   2.956   1.612  10.431  0.6168 -0.0881  0.3782
  762MPD2    H711316   2.865   1.571  10.450  0.9318  0.1795  2.5307
  763MPD2     C11317   4.689   2.567  15.923 -0.0915 -0.0022  0.5543
  763MPD2    C111318   4.570   2.559  15.844  0.0330 -0.6869  0.0572
  763MPD2    C211319   4.484   2.668  15.853  0.7004 -0.1372  0.0450
  763MPD2    C311320   4.508   2.758  15.965 -0.6271 -0.3657 -0.0134
  763MPD2    C411321   4.613   2.744  16.050  0.8495  1.3299 -0.1133
  763MPD2    C511322   4.701   2.639  16.036  0.2156 -0.2522  0.0601
  763MPD2     H11323   4.407   2.685  15.779  1.3762 -2.3223 -1.1424
  763MPD2    H111324   4.648   2.814  16.125 -2.3925  2.6777  0.1259
  763MPD2    H211325   0.038   2.499  15.913 -0.3905 -0.4297  0.9819
  763MPD2    H311326   0.067   2.636  16.078 -0.8814  0.6650  2.6955
  763MPD2     N11327   4.439   2.872  15.986 -0.5477 -0.5712  0.1645
  763MPD2    H511328   4.471   2.934  16.060  2.0185  0.4198 -1.7810
  763MPD2    N111329   4.563   2.467  15.735  0.3657 -0.5279 -0.1829
  763MPD2    H711330   4.477   2.473  15.681 -0.7174  0.7097  1.6355
  764MPD2     C11331   2.204   4.088   0.082  0.1665 -0.4481  0.8125
  764MPD2    C111332   2.102   4.157   0.017  0.7018 -0.8589 -0.0964
  764MPD2    C211333   1.992   4.204   0.085 -0.4012  0.1916  0.2795
  764MPD2    C311334   1.971   4.176   0.218 -0.0210 -0.9459  0.1905
  764MPD2    C411335   2.071   4.109   0.285  0.0543 -0.2209  0.4239
  764MPD2    C511336   2.185   4.069   0.219 -0.6911 -0.0669  0.9938
  764MPD2     H11337   1.909   4.252   0.034 -1.4415  1.9016  3.5807
  764MPD2    H111338   2.077   4.098   0.393  1.7457  0.0310  0.3577
  764MPD2    H211339   2.292   4.049   0.031  0.1467  1.0056 -0.3379
  764MPD2    H311340   2.261   4.016   0.275 -0.4826 -0.6622  0.1626
  764MPD2     N11341   1.855   4.228   0.279 -0.8836  0.2814 -0.3210
  764MPD2    H511342   1.782   4.260   0.217 -0.5007 -2.3134 -2.1490
  764MPD2    N111343   2.109   4.181  17.620  0.4633  0.2892  0.6066
  764MPD2    H711344   2.044   4.249  17.581  1.0844  0.1502 -0.6989
  765MPD2     C11345   2.933   2.040  15.470  0.2694  0.2128 -0.5542
  765MPD2    C111346   2.898   2.045  15.604  0.3766  0.2362 -0.0555
  765MPD2    C211347   2.939   1.946  15.687 -0.1346 -0.1038  0.0793
  765MPD2    C311348   3.030   1.849  15.640 -0.2188  0.1889  0.2915
  765MPD2    C411349   3.060   1.845  15.511  0.4137  0.3943  1.0682
  765MPD2    C511350   3.008   1.936  15.428  0.5679 -0.4910  0.2322
  765MPD2     H11351   2.910   1.949  15.791  0.4866 -0.9674  0.2709
  765MPD2    H111352   3.118   1.764  15.468 -2.8476 -0.5565 -1.5493
  765MPD2    H211353   2.910   2.123  15.405 -0.7646  1.2258  1.1176
  765MPD2    H311354   3.034   1.921  15.324 -1.6692 -1.3881 -0.2062
  765MPD2     N11355   3.080   1.760  15.731 -0.7463 -0.3069  0.9627
  765MPD2    H511356   3.041   1.771  15.824 -0.5010  3.6148  0.5917
  765MPD2    N111357   2.827   2.172  15.645 -0.2709  0.3383  0.3760
  765MPD2    H711358   2.823   2.240  15.571 -0.4509 -0.8992 -0.7615
  766MPD2     C11359   2.181   2.122  15.871  0.5580  0.0188 -0.0800
  766MPD2    C111360   2.312   2.111  15.836  0.0877 -0.6701  0.0530
  766MPD2    C211361   2.370   1.986  15.804  0.2729 -0.1982 -0.4406
  766MPD2    C311362   2.287   1.875  15.793  0.0145  0.3428 -0.4171
  766MPD2    C411363   2.155   1.883  15.818 -0.0013  0.8802  0.3147
  766MPD2    C511364   2.102   2.010  15.857 -0.2509  0.6485  0.8164
  766MPD2     H11365   2.476   1.977  15.784  0.5864 -1.0094  1.5090
  766MPD2    H111366   2.090   1.797  15.811  0.5974  0.3945  0.8130
  766MPD2    H211367   2.141   2.219  15.897 -2.1511 -0.6949 -1.4909
  766MPD2    H311368   1.997   2.024  15.877 -0.7135 -0.4040 -0.8705
  766MPD2     N11369   2.334   1.754  15.745 -0.0292  0.1420 -0.4081
  766MPD2    H511370   2.270   1.682  15.716 -1.1562  0.7869  0.4542
  766MPD2    N111371   2.400   2.219  15.833  0.0570 -0.4420  0.3986
  766MPD2    H711372   2.498   2.194  15.819  0.1513  0.8837 -1.2821
  767MPD2     C11373   1.665   2.159  15.058 -0.2893 -0.1136 -0.0774
  767MPD2    C111374   1.786   2.213  15.023  0.2226 -0.0815  0.4284
  767MPD2    C211375   1.842   2.180  14.906 -0.0367 -0.0760 -0.1877
  767MPD2    C311376   1.787   2.085  14.823  0.1466  0.3637  0.6345
  767MPD2    C411377   1.670   2.022  14.863  0.1681 -0.1682  0.0054
  767MPD2    C511378   1.612   2.067  14.978  0.1318  0.1456  0.0480
  767MPD2     H11379   1.931   2.235  14.876 -0.5870  1.9908  1.8788
  767MPD2    H111380   1.626   1.942  14.805 -0.3164  0.0307  0.1021
  767MPD2    H211381   1.620   2.193  15.151  0.5810  1.8131 -0.3647
  767MPD2    H311382   1.517   2.026  15.010  0.2470 -0.3319 -0.2202
  767MPD2     N11383   1.857   2.048  14.706 -0.1187 -0.4947 -0.0905
  767MPD2    H511384   1.944   2.096  14.686  0.2341 -0.3605  1.7715
  767MPD2    N111385   1.848   2.301  15.108  0.0749  0.2593 -0.0893
  767MPD2    H711386   1.801   2.308  15.199 -1.8980  1.0775 -1.1623
  768MPD2     C11387   2.131   4.620  10.836 -0.2204 -0.5975 -0.3646
  768MPD2    C111388   2.174   4.734  10.893  0.4543 -0.2281  0.3271
  768MPD2    C211389   2.284   4.724  10.975 -0.5537 -0.1684  0.2167
  768MPD2    C311390   2.346   4.605  11.004 -0.1150 -0.1495  0.0538
  768MPD2    C411391   2.295   4.491  10.945 -0.1780 -0.0992  0.4942
  768MPD2    C511392   2.185   4.502  10.863  0.3902  0.0253 -0.1830
  768MPD2     H11393   2.321   0.087  11.006  0.5362 -0.4738 -0.1082
  768MPD2    H111394   2.340   4.393  10.954  2.6232  0.9457 -2.2456
  768MPD2    H211395   2.059   4.619  10.754 -1.3561  0.1200  0.6207
  768MPD2    H311396   2.157   4.413  10.807  0.6910 -0.4027  0.3504
  768MPD2     N11397   2.461   4.602  11.085 -0.6089  0.0372  0.4809
  768MPD2    H511398   2.502   4.690  11.115 -1.5509  0.7695 -0.3956
  768MPD2    N111399   2.131   0.131  10.861  0.3080  0.2671 -0.2993
  768MPD2    H711400   2.192   0.202  10.900  1.1587 -1.0672  0.8149
  769MPD2     C11401   3.951   3.184  14.571 -0.5687  0.0514 -0.1425
  769MPD2    C111402   3.835   3.231  14.628  0.8415 -0.6164 -0.6436
  769MPD2    C211403   3.847   3.334  14.720 -0.4088  0.1208  0.3145
  769MPD2    C311404   3.967   3.381  14.760 -0.0401 -0.2476  0.1273
  769MPD2    C411405   4.083   3.341  14.695 -0.2592  0.5968  0.1017
  769MPD2    C511406   4.071   3.237  14.603 -0.1075  0.3431 -0.0855
  769MPD2     H11407   3.766   3.388  14.768 -1.4490 -0.3453 -0.9078
  769MPD2    H111408   4.178   3.381  14.726  0.0663 -0.1370  0.0358
  769MPD2    H211409   3.949   3.108  14.494 -0.7189  0.5751 -0.6610
  769MPD2    H311410   4.154   3.199  14.545  1.4161  1.3184  1.4414
  769MPD2     N11411   3.961   3.463  14.873  0.2889  0.0687 -0.2959
  769MPD2    H511412   3.867   3.472  14.910  1.0489 -0.2068  1.6630
  769MPD2    N111413   3.707   3.175  14.589 -0.1609  0.7081 -0.2725
  769MPD2    H711414   3.706   3.116  14.507 -2.8491 -0.6578  0.7242
  770MPD2     C11415   2.859   2.769  15.014 -0.3730  0.3375  0.9237
  770MPD2    C111416   2.949   2.697  14.939 -0.6256  0.4144 -0.2826
  770MPD2    C211417   3.034   2.772  14.853  0.8394 -0.1092  0.5439
  770MPD2    C311418   3.027   2.913  14.845  0.1143 -0.2754 -0.0321
  770MPD2    C411419   2.931   2.979  14.915  0.8996 -0.3145  0.1127
  770MPD2    C511420   2.850   2.905  15.002  0.2866  0.3686 -0.4241
  770MPD2     H11421   3.109   2.724  14.790 -0.9640 -1.9963 -0.1724
  770MPD2    H111422   2.911   3.085  14.907 -0.3101 -0.5362  0.1969
  770MPD2    H211423   2.792   2.719  15.082  0.0672  0.2154  1.2629
  770MPD2    H311424   2.790   2.958  15.076  1.4174  2.3435 -0.9321
  770MPD2     N11425   3.130   2.973  14.775 -0.6297 -0.8149 -0.4951
  770MPD2    H511426   3.210   2.922  14.741  0.3508  0.6133 -0.3604
  770MPD2    N111427   2.943   2.555  14.937 -0.4300 -0.0895  0.6338
  770MPD2    H711428   2.873   2.511  14.997 -0.6487 -0.0466  0.4106
  771MPD2     C11429   4.681   1.217  13.450  0.1768 -1.0185 -0.1499
  771MPD2    C111430   4.616   1.335  13.439 -0.9763  0.5807  0.3309
  771MPD2    C211431   4.477   1.336  13.424 -0.2623 -0.1691 -0.8522
  771MPD2    C311432   4.408   1.215  13.419  0.4684 -0.2671  0.0699
  771MPD2    C411433   4.475   1.095  13.437  0.2070 -0.2770  0.1089
  771MPD2    C511434   4.605   1.099  13.446  0.0796  0.3484  0.5592
  771MPD2     H11435   4.428   1.431  13.403 -1.3492  0.0981  2.8842
  771MPD2    H111436   4.430   0.996  13.436 -0.2047 -0.0892 -0.8306
  771MPD2    H211437   0.055   1.217  13.450  0.1733 -1.1752  1.0514
  771MPD2    H311438   4.659   1.006  13.455  1.7419  1.3303  0.6463
  771MPD2     N11439   4.269   1.207  13.385 -0.4106 -0.2754 -0.7505
  771MPD2    H511440   4.215   1.292  13.375 -3.4986 -2.3622 -1.9553
  771MPD2    N111441   4.672   1.464  13.453 -0.5036 -0.2850 -1.1389
  771MPD2    H711442   4.614   1.547  13.451  2.4264  1.8497  0.9308
  772MPD2     C11443   4.510   2.073  13.770  0.5829 -0.1743 -0.5201
  772MPD2    C111444   4.487   1.949  13.710 -0.5253 -0.4197 -0.3337
  772MPD2    C211445   4.357   1.885  13.735 -0.3786  0.4851  0.2329
  772MPD2    C311446   4.262   1.944  13.818  0.4631  0.4934  0.1557
  772MPD2    C411447   4.299   2.064  13.873 -0.3204  0.1289  0.2413
  772MPD2    C511448   4.420   2.125  13.854  0.3959 -0.1081 -0.0014
  772MPD2     H11449   4.333   1.786  13.697  1.6065 -0.6427  1.9171
  772MPD2    H111450   4.228   2.125  13.927  1.6623  1.2324  1.5889
  772MPD2    H211451   4.602   2.123  13.740  1.6273 -2.8779 -1.8131
  772MPD2    H311452   4.442   2.224  13.892  1.1009 -1.5481  3.3979
  772MPD2     N11453   4.134   1.877  13.843  0.0185  0.5392 -0.0515
  772MPD2    H511454   4.077   1.936  13.903 -1.7791 -1.9493  0.6807
  772MPD2    N111455   4.578   1.884  13.624  0.0431  0.6094  0.0072
  772MPD2    H711456   4.536   1.806  13.574  2.1942 -0.6866  0.2256
  773MPD2     C11457   3.233   2.929   0.299 -0.0061  0.1488 -0.5140
  773MPD2    C111458   3.123   2.869   0.241 -0.1289 -0.0739  0.6775
  773MPD2    C211459   3.094   2.735   0.271 -0.4715  0.4091  0.0303
  773MPD2    C311460   3.176   2.657   0.350  0.4175 -0.0321 -0.0760
  773MPD2    C411461   3.301   2.710   0.392 -0.4135 -0.3948  1.1829
  773MPD2    C511462   3.319   2.847   0.368  0.0576 -0.0782  0.3955
  773MPD2     H11463   3.005   2.694   0.226  0.9954  0.1286 -2.6539
  773MPD2    H111464   3.374   2.648   0.443  1.3093  0.7971  0.1698
  773MPD2    H211465   3.263   3.033   0.287  1.3487 -0.0213  1.3478
  773MPD2    H311466   3.411   2.887   0.407  0.4820 -0.6423 -0.0241
  773MPD2     N11467   3.141   2.521   0.386  0.4183 -0.1606 -0.5000
  773MPD2    H511468   3.075   2.468   0.330 -1.6447  1.0279  0.8134
  773MPD2    N111469   3.048   2.935   0.141  0.0813  0.3796  0.1965
  773MPD2    H711470   2.963   2.887   0.113 -0.8430  1.8543  0.4695
  774MPD2     C11471   2.963   1.363  13.535  0.2297  0.0452 -0.0940
  774MPD2    C111472   2.988   1.460  13.639  0.4760  0.2848 -0.3763
  774MPD2    C211473   3.098   1.534  13.621  0.1489  0.5005 -0.3598
  774MPD2    C311474   3.185   1.520  13.513 -0.3961 -0.0667  0.0683
  774MPD2    C411475   3.159   1.424  13.412 -0.0934 -0.7157  0.2825
  774MPD2    C511476   3.043   1.352  13.425 -0.5305  0.2322 -0.4799
  774MPD2     H11477   3.124   1.601  13.703 -2.8561 -0.2044  1.1553
  774MPD2    H111478   3.234   1.421  13.334 -0.8856  0.1709 -0.5195
  774MPD2    H211479   2.875   1.300  13.531 -0.2226  0.7246 -0.8092
  774MPD2    H311480   3.014   1.291  13.340 -0.9140 -0.0550 -0.1383
  774MPD2     N11481   3.307   1.599  13.526  0.0302  0.0314  0.0870
  774MPD2    H511482   3.302   1.669  13.599  1.3747  1.3910 -1.1485
  774MPD2    N111483   2.904   1.457  13.759 -0.1716 -0.4835 -0.1449
  774MPD2    H711484   2.829   1.389  13.758 -0.9543  0.3651  1.0139
  775MPD2     C11485   3.984   3.272  15.255 -0.1832 -0.1707  0.2878
  775MPD2    C111486   3.978   3.349  15.371 -0.1054  0.0877  0.2367
  775MPD2    C211487   4.076   3.449  15.388  0.7470 -0.6404  0.2998
  775MPD2    C311488   4.191   3.455  15.310  0.5198  0.4298 -0.1511
  775MPD2    C411489   4.204   3.366  15.206  0.3185 -0.2658 -0.6413
  775MPD2    C511490   4.101   3.274  15.192 -0.1464 -0.2485  0.2792
  775MPD2     H11491   4.072   3.509  15.478  0.8587 -1.2903  0.7425
  775MPD2    H111492   4.295   3.370  15.147  0.6990  1.1776  0.0584
  775MPD2    H211493   3.906   3.203  15.224  0.2759 -0.6693  0.2367
  775MPD2    H311494   4.112   3.203  15.110  0.0894  0.3077 -0.1799
  775MPD2     N11495   4.298   3.547  15.331  0.7283  0.2097  0.6650
  775MPD2    H511496   4.357   3.561  15.250  0.3836  0.8090  0.5139
  775MPD2    N111497   3.864   3.339  15.460 -0.0869  0.7450 -0.3126
  775MPD2    H711498   3.792   3.271  15.438  0.4232 -0.1397  0.7522
  776MPD2     C11499   2.530   3.542  11.909  0.7230 -0.0094 -0.1815
  776MPD2    C111500   2.645   3.548  11.832  0.0505  0.1507  0.1208
  776MPD2    C211501   2.654   3.632  11.723  0.0260 -0.6054 -0.0872
  776MPD2    C311502   2.550   3.722  11.686 -0.1042  0.5170  0.3124
  776MPD2    C411503   2.433   3.711  11.763 -0.5507 -0.4471  0.5584
  776MPD2    C511504   2.427   3.627  11.873 -0.1796  0.0411 -0.3056
  776MPD2     H11505   2.751   3.633  11.674  0.7502 -1.5893  1.3209
  776MPD2    H111506   2.344   3.770  11.739  0.7005  0.1735 -2.5755
  776MPD2    H211507   2.516   3.468  11.988  0.1309 -1.8415 -2.0035
  776MPD2    H311508   2.329   3.622  11.920  0.1020  0.4077  0.3231
  776MPD2     N11509   2.551   3.804  11.572  0.3324  0.3584  0.2312
  776MPD2    H511510   2.461   3.851  11.559  1.3318  1.7166 -1.7881
  776MPD2    N111511   2.748   3.459  11.867 -0.5849  0.2054 -0.0557
  776MPD2    H711512   2.731   3.379  11.928 -1.5958  0.0968 -0.4877
  777MPD2     C11513   2.666   1.479   0.541 -0.4580  0.0356 -0.2948
  777MPD2    C111514   2.722   1.414   0.652  0.4258  0.3008  0.1889
  777MPD2    C211515   2.719   1.272   0.650  0.5646 -0.9418  0.5156
  777MPD2    C311516   2.651   1.204   0.547  0.0249  0.2993  0.8617
  777MPD2    C411517   2.582   1.265   0.446  0.4049  0.6590 -0.3994
  777MPD2    C511518   2.600   1.403   0.441  0.1946  0.2197 -0.4441
  777MPD2     H11519   2.758   1.210   0.729 -0.6516 -1.0056  1.0730
  777MPD2    H111520   2.531   1.214   0.365  3.0382 -2.5248 -0.0340
  777MPD2    H211521   2.683   1.586   0.534 -0.9814 -0.0135 -2.3299
  777MPD2    H311522   2.569   1.467   0.360  1.2207 -0.5968 -1.4848
  777MPD2     N11523   2.658   1.061   0.552 -0.3856  0.0864 -0.3084
  777MPD2    H511524   2.710   1.022   0.630  0.2735  3.6035  1.0187
  777MPD2    N111525   2.780   1.480   0.757  0.1419 -0.1894  0.1851
  777MPD2    H711526   2.777   1.581   0.746 -0.2544 -0.3658 -1.3711
  778MPD2     C11527   4.703   1.634  14.471 -0.1219 -0.4067 -0.0004
  778MPD2    C111528   0.000   1.502  14.433  0.3601  0.1194  0.7227
  778MPD2    C211529   0.117   1.476  14.359 -0.0557  0.6235 -0.3273
  778MPD2    C311530   0.190   1.585  14.314  0.4610 -0.0664 -0.1301
  778MPD2    C411531   0.158   1.712  14.355 -0.5952 -0.2718 -0.3729
  778MPD2    C511532   0.047   1.734  14.431 -0.1534 -0.2162 -0.2564
  778MPD2     H11533   0.155   1.381  14.324 -1.0308 -0.4567  1.5313
  778MPD2    H111534   0.219   1.798  14.332  0.2331 -0.8528 -0.3512
  778MPD2    H211535   4.615   1.656  14.531 -0.0480 -0.4139  0.1118
  778MPD2    H311536   0.029   1.836  14.462  0.2849  0.0200 -0.7859
  778MPD2     N11537   0.300   1.561  14.224  0.1291  0.2543  0.1211
  778MPD2    H511538   0.338   1.467  14.217 -4.4188 -1.6166  0.4121
  778MPD2    N111539   4.659   1.386  14.469 -0.2037 -0.4703 -0.1782
  778MPD2    H711540   4.670   1.296  14.423 -1.4355 -1.1649  0.8656
  779MPD2     C11541   4.314   0.021  13.850  0.5655 -0.6081 -0.0638
  779MPD2    C111542   4.379   0.038  13.974  0.1364 -0.1866  0.7180
  779MPD2    C211543   4.407   0.167  14.011  0.1430  0.5446 -0.0047
  779MPD2    C311544   4.379   0.274  13.928  0.1822 -0.6260  0.2924
  779MPD2    C411545   4.320   0.254  13.807  0.7766 -0.1931  0.2103
  779MPD2    C511546   4.290   0.128  13.771 -0.5959 -0.3444 -0.5035
  779MPD2     H11547   4.460   0.188  14.103 -0.2120  0.7514  0.1531
  779MPD2    H111548   4.305   0.334  13.736 -1.5120 -1.0343 -0.2680
  779MPD2    H211549   4.285   4.659  13.809  1.7687 -2.0090  2.3883
  779MPD2    H311550   4.237   0.115  13.676  0.2337  0.8775 -1.1280
  779MPD2     N11551   4.429   0.399  13.957 -0.5320 -0.0273  0.3136
  779MPD2    H511552   4.477   0.407  14.046  0.5911 -2.6915 -0.0538
  779MPD2    N111553   4.422   4.655  14.045 -0.5447 -0.0340 -0.5403
  779MPD2    H711554   4.420   4.571  13.988  1.0604  0.2980 -1.0837
  780MPD2     C11555   4.137   0.178   0.788 -0.3935  0.0841  0.0512
  780MPD2    C111556   4.010   0.221   0.774 -0.3583 -0.6498 -0.3875
  780MPD2    C211557   3.976   0.293   0.662  0.1103  0.0191 -0.6030
  780MPD2    C311558   4.075   0.340   0.579 -0.3698 -0.6514  0.0586
  780MPD2    C411559   4.205   0.308   0.597  0.0632 -0.2004 -0.0221
  780MPD2    C511560   4.231   0.223   0.700 -0.3925  0.4479  0.4509
  780MPD2     H11561   3.872   0.300   0.630 -0.3061 -3.8755 -0.1337
  780MPD2    H111562   4.284   0.347   0.532 -1.0492  1.9833 -0.0740
  780MPD2    H211563   4.163   0.127   0.880  1.3200  0.4521 -0.2404
  780MPD2    H311564   4.333   0.190   0.716 -1.1662 -1.7971  0.7323
  780MPD2     N11565   4.021   0.410   0.466  0.1019 -0.9908 -0.0676
  780MPD2    H511566   3.920   0.421   0.459  0.3762  1.0660 -0.7875
  780MPD2    N111567   3.922   0.176   0.874  0.0574  0.1692  0.2692
  780MPD2    H711568   3.956   0.116   0.949 -1.8942 -3.1757 -1.5859
  781MPD2     C11569   1.694   2.090  11.822  0.2838  0.8228  0.3481
  781MPD2    C111570   1.648   1.966  11.867  0.4609 -0.4714 -0.2836
  781MPD2    C211571   1.695   1.846  11.817  0.3666  0.8213  0.3079
  781MPD2    C311572   1.788   1.847  11.712 -0.2334 -0.1760 -0.5112
  781MPD2    C411573   1.833   1.969  11.672  0.3164 -0.1476  0.6090
  781MPD2    C511574   1.784   2.088  11.720  0.4535 -0.5193  0.1725
  781MPD2     H11575   1.649   1.757  11.858  0.5708  0.1907 -0.7996
  781MPD2    H111576   1.922   1.979  11.610 -1.6823 -1.0667 -2.3913
  781MPD2    H211577   1.658   2.188  11.849 -0.0773  0.2479  1.9951
  781MPD2    H311578   1.813   2.186  11.684  0.2864 -1.1630 -1.6906
  781MPD2     N11579   1.836   1.725  11.658  0.3100  0.1981  0.4023
  781MPD2    H511580   1.897   1.734  11.578  0.1431 -1.2713  0.1177
  781MPD2    N111581   1.553   1.962  11.972 -0.7015  0.7575  0.1336
  781MPD2    H711582   1.505   1.873  11.983  1.7786 -1.0776 -4.1599
  782MPD2     C11583   4.055   2.575   9.851 -0.4471  0.6096  0.4364
  782MPD2    C111584   4.139   2.557   9.960 -0.9599  0.1734 -0.5554
  782MPD2    C211585   4.212   2.660   9.996 -0.0431 -0.0734 -0.3704
  782MPD2    C311586   4.189   2.786   9.935  0.2016 -0.3974  0.0557
  782MPD2    C411587   4.103   2.805   9.825  0.7197 -0.4407  0.0792
  782MPD2    C511588   4.036   2.696   9.783 -0.1224  0.2883 -0.3569
  782MPD2     H11589   4.265   2.655  10.090  0.1345  0.2204 -0.4552
  782MPD2    H111590   4.103   2.896   9.766 -1.0280 -0.2601  0.3622
  782MPD2    H211591   3.996   2.489   9.822  2.2403 -0.8289 -0.7802
  782MPD2    H311592   3.971   2.712   9.698  1.5084 -0.2643 -1.7236
  782MPD2     N11593   4.260   2.890   9.995  0.1142  0.0975 -0.1033
  782MPD2    H511594   4.309   2.859  10.078  1.4286 -0.3076 -1.0369
  782MPD2    N111595   4.129   2.435  10.035 -0.1918  0.0217 -0.1228
  782MPD2    H711596   4.051   2.375  10.010  0.4355 -0.6278 -0.5180
  783MPD2     C11597   3.379   2.243  10.661  0.2200 -0.6499  0.0049
  783MPD2    C111598   3.475   2.309  10.735  0.4310  0.7690 -0.5919
  783MPD2    C211599   3.596   2.311  10.689  0.1807  0.1288  0.3449
  783MPD2    C311600   3.632   2.261  10.568  0.4394 -0.2127  0.0529
  783MPD2    C411601   3.536   2.203  10.490  0.0094 -0.1429  0.2443
  783MPD2    C511602   3.412   2.185  10.545  0.1158  0.0863 -0.2587
  783MPD2     H11603   3.671   2.370  10.741 -0.9337  0.5953  1.4349
  783MPD2    H111604   3.546   2.156  10.393 -1.6687 -0.4763  0.2249
  783MPD2    H211605   3.279   2.228  10.701  0.6843  0.3227  1.5332
  783MPD2    H311606   3.334   2.135  10.489  1.0739 -3.2652  1.3478
  783MPD2     N11607   3.765   2.278  10.527  0.5123  0.2024  0.0710
  783MPD2    H511608   3.823   2.320  10.600 -0.2591  1.5100 -0.0728
  783MPD2    N111609   3.444   2.353  10.865  0.7177  0.3507  0.0176
  783MPD2    H711610   3.356   2.316  10.899  0.2282 -0.2212 -1.8825
  784MPD2     C11611   0.914   2.965   0.613 -0.4661  0.4537  0.1718
  784MPD2    C111612   0.921   3.089   0.674 -0.4165 -0.0624 -0.1067
  784MPD2    C211613   0.833   3.185   0.626 -0.1074 -0.0790 -0.7036
  784MPD2    C311614   0.735   3.152   0.527  0.3202 -0.8362  0.2636
  784MPD2    C411615   0.739   3.026   0.473 -0.2358 -0.0990  0.3944
  784MPD2    C511616   0.822   2.933   0.520 -0.1635  0.1276  0.1423
  784MPD2     H11617   0.822   3.275   0.685 -2.6330 -0.4315 -0.6297
  784MPD2    H111618   0.676   3.002   0.387  0.9527  0.2227 -0.5642
  784MPD2    H211619   0.983   2.890   0.649  0.0760  1.3552  1.0146
  784MPD2    H311620   0.819   2.832   0.480  2.0260  0.5553 -1.1131
  784MPD2     N11621   0.645   3.256   0.489 -0.0673  0.3010  0.0093
  784MPD2    H511622   0.656   3.350   0.526 -0.9329  0.5438 -0.3535
  784MPD2    N111623   1.028   3.130   0.759 -0.2147  0.1446  0.6359
  784MPD2    H711624   1.024   3.223   0.799  0.3458 -1.2622  4.0004
  785MPD2     C11625   2.116   0.851   9.970 -0.3627 -0.3552 -0.7478
  785MPD2    C111626   2.097   0.851  10.109 -0.1692 -0.6560  0.1030
  785MPD2    C211627   1.993   0.773  10.160  0.4099 -0.3208  0.2421
  785MPD2    C311628   1.909   0.699  10.078 -0.3724 -0.0157  0.7021
  785MPD2    C411629   1.937   0.690   9.940  0.5493 -0.7326 -0.0179
  785MPD2    C511630   2.040   0.767   9.888 -0.0986 -0.5442  1.1850
  785MPD2     H11631   1.968   0.789  10.264 -1.0189 -0.1282 -0.1304
  785MPD2    H111632   1.878   0.628   9.873  1.4206 -2.5620  0.9171
  785MPD2    H211633   2.192   0.906   9.915  1.3526 -1.2786  0.7012
  785MPD2    H311634   2.047   0.762   9.780  2.1475 -1.4232  1.3721
  785MPD2     N11635   1.791   0.642  10.145 -0.2196  0.1741 -0.0774
  785MPD2    H511636   1.790   0.677  10.241  2.2828  1.7586 -0.6139
  785MPD2    N111637   2.169   0.937  10.197 -0.4953 -0.4342 -0.1546
  785MPD2    H711638   2.126   0.935  10.290 -1.0670 -2.2904 -0.4541
  786MPD2     C11639   0.007   4.101  14.576 -0.2827 -0.1117  0.2226
  786MPD2    C111640   0.120   4.021  14.598 -0.6765  0.1069 -0.1862
  786MPD2    C211641   0.179   4.012  14.725  0.9593 -0.2873  1.0658
  786MPD2    C311642   0.129   4.094  14.829  0.8041  0.5707  0.4163
  786MPD2    C411643   0.014   4.170  14.807 -0.1044  0.4796  0.2490
  786MPD2    C511644   4.694   4.176  14.681  0.3494 -0.2254  1.0791
  786MPD2     H11645   0.262   3.943  14.736 -0.3553 -2.1441 -0.8849
  786MPD2    H111646   4.708   4.228  14.889  0.0025  1.0982 -0.1381
  786MPD2    H211647   4.693   4.114  14.480  0.5297 -0.3659 -0.2186
  786MPD2    H311648   4.601   4.231  14.668 -0.2215 -1.2705  0.6666
  786MPD2     N11649   0.196   4.102  14.957 -0.3647  0.1614  0.4378
  786MPD2    H511650   0.151   4.161  15.026 -1.2433 -0.9086  0.7742
  786MPD2    N111651   0.181   3.955  14.492 -0.2397  0.3220 -0.2469
  786MPD2    H711652   0.277   3.924  14.506  0.6743  2.4800 -1.7202
  787MPD2     C11653   0.642   3.630  14.648  0.2640  0.3745  0.2531
  787MPD2    C111654   0.612   3.564  14.530  0.0825 -0.5268 -0.4065
  787MPD2    C211655   0.681   3.449  14.500 -1.0526 -0.2511  0.5137
  787MPD2    C311656   0.785   3.404  14.584  0.3132  0.0902  0.2088
  787MPD2    C411657   0.811   3.469  14.700  0.5164 -0.5318 -0.1503
  787MPD2    C511658   0.741   3.584  14.732 -0.1430 -0.0663 -0.5150
  787MPD2     H11659   0.666   3.401  14.404 -0.4057  0.9205 -0.1641
  787MPD2    H111660   0.883   3.430  14.772  0.3470  1.2298  0.9812
  787MPD2    H211661   0.593   3.719  14.683 -2.0060 -0.3109 -1.1925
  787MPD2    H311662   0.774   3.638  14.820 -2.6767 -0.9252  0.9441
  787MPD2     N11663   0.878   3.295  14.557  0.2144  0.1765 -0.1035
  787MPD2    H511664   0.956   3.278  14.620 -0.5207  0.0893  0.7911
  787MPD2    N111665   0.519   3.627  14.444  0.6046 -0.0712 -0.0467
  787MPD2    H711666   0.491   3.719  14.477  0.8078 -0.6129  1.6539
  788MPD2     C11667   1.683   3.284   1.018  0.2096  0.1886 -0.5849
  788MPD2    C111668   1.651   3.221   0.900  0.7768  0.2683 -0.1846
  788MPD2    C211669   1.555   3.282   0.814  0.5433 -0.2430 -0.2229
  788MPD2    C311670   1.500   3.409   0.845 -0.3467 -0.2276  0.4496
  788MPD2    C411671   1.543   3.472   0.963  0.1103  0.4768  0.1587
  788MPD2    C511672   1.632   3.409   1.047 -0.5110 -0.0396 -0.1374
  788MPD2     H11673   1.528   3.224   0.726  0.3797 -0.9428  0.2918
  788MPD2    H111674   1.512   3.573   0.988  0.2382  0.5050  0.2059
  788MPD2    H211675   1.752   3.248   1.094 -0.8611 -0.2444  0.1909
  788MPD2    H311676   1.660   3.465   1.136  1.1160 -2.0158  0.5902
  788MPD2     N11677   1.403   3.478   0.767  1.1720 -0.3432 -0.3055
  788MPD2    H511678   1.386   3.577   0.782  2.3909 -0.0717 -0.7146
  788MPD2    N111679   1.696   3.093   0.871  0.0350  0.2033  0.6612
  788MPD2    H711680   1.666   3.056   0.782 -1.0083  1.3476  0.5347
  789MPD2     C11681   2.410   2.100  16.360  0.7780 -0.0592  0.1353
  789MPD2    C111682   2.368   2.104  16.490 -0.1576  0.4170  0.3281
  789MPD2    C211683   2.242   2.159  16.520  1.1435  0.7100  0.1661
  789MPD2    C311684   2.160   2.196  16.416 -0.6894  0.0304  0.3622
  789MPD2    C411685   2.198   2.186  16.289 -0.3030  0.0271 -0.3040
  789MPD2    C511686   2.321   2.142  16.263 -0.4960 -0.3151  0.0532
  789MPD2     H11687   2.207   2.158  16.623  1.4316  3.6780  0.3028
  789MPD2    H111688   2.133   2.219  16.209  0.4007  0.5076 -0.6692
  789MPD2    H211689   2.503   2.059  16.321 -0.2969 -0.3900 -2.0796
  789MPD2    H311690   2.355   2.152  16.161  1.6999 -0.1865  0.7749
  789MPD2     N11691   2.033   2.256  16.434 -0.3606  0.2246  0.5143
  789MPD2    H511692   1.976   2.275  16.352  1.6476  1.7796 -0.5393
  789MPD2    N111693   2.452   2.078  16.601 -0.2230 -0.1807 -0.0824
  789MPD2    H711694   2.407   2.066  16.691 -0.5182 -1.2062 -0.3712
  790MPD2     C11695   3.477   3.672  13.501 -0.3406 -0.3002  0.3911
  790MPD2    C111696   3.527   3.599  13.393 -0.0666 -0.0477  0.4237
  790MPD2    C211697   3.438   3.552  13.296  0.1711 -0.2432 -0.4458
  790MPD2    C311698   3.303   3.585  13.299  0.2935  0.1210  0.5446
  790MPD2    C411699   3.254   3.657  13.404 -0.7781 -0.3255 -0.4071
  790MPD2    C511700   3.344   3.697  13.506 -0.3684 -0.2113  0.2731
  790MPD2     H11701   3.474   3.479  13.223  1.1808  0.9240 -1.1209
  790MPD2    H111702   3.149   3.678  13.417 -0.8101 -1.2661  0.8867
  790MPD2    H211703   3.549   3.711  13.572  0.0846 -1.4049  0.5761
  790MPD2    H311704   3.296   3.760  13.580  0.9184 -1.4557  2.1516
  790MPD2     N11705   3.229   3.535  13.191 -0.6520  0.0188 -0.2857
  790MPD2    H511706   3.283   3.484  13.121 -3.4113 -0.9137 -1.7405
  790MPD2    N111707   3.669   3.572  13.399 -0.4218 -0.0753  0.6685
  790MPD2    H711708   3.717   3.614  13.478 -1.4355 -0.2056  1.3431
  791MPD2     C11709   2.418   3.467  13.068 -0.2414 -0.8224 -0.2753
  791MPD2    C111710   2.510   3.375  13.027  0.7425  0.4222 -0.3082
  791MPD2    C211711   2.470   3.246  12.998  0.1039 -0.0470 -0.2081
  791MPD2    C311712   2.336   3.213  13.008  0.2858  0.1448 -0.4128
  791MPD2    C411713   2.241   3.308  13.045  0.2131 -0.1888  0.4137
  791MPD2    C511714   2.280   3.434  13.073  0.0761 -0.2873 -0.2937
  791MPD2     H11715   2.533   3.162  12.971 -0.5371 -1.0188  1.2880
  791MPD2    H111716   2.136   3.282  13.051  0.8687 -2.1334  3.3934
  791MPD2    H211717   2.447   3.568  13.095  0.4557 -1.3378  0.8936
  791MPD2    H311718   2.217   3.507  13.122  0.7009 -0.0674  0.1843
  791MPD2     N11719   2.303   3.080  12.982 -0.2913 -0.2683 -0.1939
  791MPD2    H511720   2.375   3.022  12.939  0.4258 -0.0130  0.6749
  791MPD2    N111721   2.647   3.407  13.010 -0.3060  0.2215 -0.2228
  791MPD2    H711722   2.673   3.496  13.052 -0.1486  0.5281 -0.9719
  792MPD2     C11723   3.065   3.981  10.901  0.4148  0.0890  0.3715
  792MPD2    C111724   3.129   3.905  10.999 -0.6268 -0.2791  0.3931
  792MPD2    C211725   3.062   3.817  11.072  0.3207 -0.1711 -0.8836
  792MPD2    C311726   2.917   3.806  11.058 -0.7121 -0.7674  0.2023
  792MPD2    C411727   2.859   3.874  10.956  0.3678  0.6354 -0.0507
  792MPD2    C511728   2.935   3.957  10.884 -0.1782  0.6027 -0.8103
  792MPD2     H11729   3.112   3.746  11.137 -0.1075  1.0282  0.7568
  792MPD2    H111730   2.753   3.858  10.937  0.6043 -0.1063 -0.7503
  792MPD2    H211731   3.103   4.068  10.851 -1.2397  0.1700 -0.7669
  792MPD2    H311732   2.875   4.020  10.819  1.4674  1.6561 -1.3180
  792MPD2     N11733   2.837   3.707  11.126 -0.0338  0.4889  0.4151
  792MPD2    H511734   2.748   3.691  11.082 -1.4810 -0.3804  3.6292
  792MPD2    N111735   3.268   3.939  11.026 -0.1297  0.1226  0.5409
  792MPD2    H711736   3.309   4.022  10.984 -0.1904 -0.9033 -1.5846
  793MPD2     C11737   2.609   3.042  10.629 -0.1816 -0.1083  0.2618
  793MPD2    C111738   2.706   3.140  10.626  0.3152 -0.0815  0.3327
  793MPD2    C211739   2.734   3.213  10.741  0.6201 -0.4190  1.2276
  793MPD2    C311740   2.658   3.197  10.858  0.2177  0.3112  0.7052
  793MPD2    C411741   2.560   3.100  10.850 -0.6780  0.3806 -0.9647
  793MPD2    C511742   2.536   3.021  10.738  0.2657 -0.5038 -0.0344
  793MPD2     H11743   2.804   3.295  10.733  1.5170 -1.5488 -2.7763
  793MPD2    H111744   2.501   3.068  10.935  3.3013 -2.8627  0.5772
  793MPD2    H211745   2.580   2.982  10.543 -2.2086  2.1931 -0.6697
  793MPD2    H311746   2.450   2.956  10.733 -1.8517  1.9639  4.1502
  793MPD2     N11747   2.677   3.280  10.967  0.4537 -0.8504  0.7073
  793MPD2    H511748   2.755   3.346  10.966  0.5587 -1.0146 -1.5837
  793MPD2    N111749   2.775   3.174  10.510 -0.4588  0.3761 -0.2869
  793MPD2    H711750   2.857   3.232  10.524 -2.3127  3.1382 -0.7306
  794MPD2     C11751   3.071   3.235  17.128  0.3473 -0.3052  0.0127
  794MPD2    C111752   2.949   3.256  17.187 -0.0244 -0.2248  0.9963
  794MPD2    C211753   2.841   3.255  17.106 -0.0196  0.1870 -0.5495
  794MPD2    C311754   2.846   3.224  16.970 -0.3753  0.5297  0.3474
  794MPD2    C411755   2.963   3.196  16.915 -0.6216  0.2539 -0.1749
  794MPD2    C511756   3.070   3.199  16.995  0.1482  0.3572 -0.0892
  794MPD2     H11757   2.746   3.265  17.156  1.2294  3.1862  1.1956
  794MPD2    H111758   2.972   3.177  16.809 -1.8890  0.6084 -0.3414
  794MPD2    H211759   3.162   3.236  17.187  0.8613  1.2357 -0.8243
  794MPD2    H311760   3.166   3.180  16.947 -0.8169 -1.3895 -1.3156
  794MPD2     N11761   2.736   3.229  16.878  0.5078 -0.3907  0.6148
  794MPD2    H511762   2.753   3.222  16.778 -0.2530  0.9766  0.3932
  794MPD2    N111763   2.928   3.274  17.320  0.5595  0.5410  0.2670
  794MPD2    H711764   2.834   3.285  17.357  0.1553 -2.7858  0.2659
  795MPD2     C11765   1.083   0.278  13.481 -0.0602 -0.0686  0.0514
  795MPD2    C111766   1.015   0.208  13.574 -0.4196 -0.2521 -0.7703
  795MPD2    C211767   1.096   0.106  13.633  0.2665  0.4423  0.2703
  795MPD2    C311768   1.231   0.086  13.598 -0.0069  0.2454  0.1216
  795MPD2    C411769   1.289   0.167  13.511 -0.2886  0.1442 -0.1087
  795MPD2    C511770   1.219   0.266  13.445 -0.0568 -0.1150  0.4669
  795MPD2     H11771   1.046   0.040  13.703  2.6039 -1.7502 -0.1230
  795MPD2    H111772   1.396   0.175  13.501 -0.1996 -1.0029 -0.0830
  795MPD2    H211773   1.030   0.346  13.415  0.2157  0.7796  0.6999
  795MPD2    H311774   1.270   0.318  13.365  1.7517 -3.6049 -0.6519
  795MPD2     N11775   1.297   4.704  13.648  0.5632 -0.1837 -0.5452
  795MPD2    H511776   1.378   4.683  13.592 -0.0448  2.2076 -2.3477
  795MPD2    N111777   0.874   0.209  13.598  0.0129  0.2747 -0.2274
  795MPD2    H711778   0.837   0.134  13.656  1.6595  0.1952  0.7286
  796MPD2     C11779   0.434   1.796  15.657  0.0819 -0.6474  0.3217
  796MPD2    C111780   0.477   1.888  15.746  0.7818 -0.3093  0.0500
  796MPD2    C211781   0.456   2.020  15.717 -0.1492  0.1583 -0.0919
  796MPD2    C311782   0.379   2.055  15.603 -0.0687  0.0888  0.4589
  796MPD2    C411783   0.350   1.961  15.511  0.0582 -0.0050 -0.2841
  796MPD2    C511784   0.365   1.829  15.546 -0.1837 -0.2686 -0.1133
  796MPD2     H11785   0.488   2.094  15.790  0.9059  2.2823 -2.6970
  796MPD2    H111786   0.292   1.972  15.420  1.3130 -1.0899 -1.2297
  796MPD2    H211787   0.441   1.690  15.679 -0.0462 -0.5793  0.6735
  796MPD2    H311788   0.323   1.750  15.484  2.6954 -0.2773 -2.0897
  796MPD2     N11789   0.336   2.195  15.595  0.1548 -0.3627  0.8127
  796MPD2    H511790   0.388   2.259  15.653  0.0912  0.6988 -0.3206
  796MPD2    N111791   0.522   1.829  15.867 -0.0469  0.2189  0.3935
  796MPD2    H711792   0.536   1.729  15.867  1.2568  0.4014 -1.0354
  797MPD2     C11793   1.197   1.629  17.626  0.0387  0.3802 -0.6031
  797MPD2    C111794   1.281   1.732  17.593  0.4541  0.0940  0.2230
  797MPD2    C211795   1.303   1.760  17.459  0.6706 -0.0125  0.3626
  797MPD2    C311796   1.228   1.701  17.352 -0.0348 -0.2971 -0.3190
  797MPD2    C411797   1.132   1.609  17.391 -0.1195  0.6104 -0.1106
  797MPD2    C511798   1.125   1.574  17.524  0.0268 -0.0668 -0.5515
  797MPD2     H11799   1.371   1.840  17.430  0.1837  0.3401  0.1934
  797MPD2    H111800   1.063   1.563  17.321  0.8347 -3.1722  1.4248
  797MPD2    H211801   1.166   1.596  17.724  2.2082  1.4875  0.4481
  797MPD2    H311802   1.047   1.506  17.553 -1.7890  1.7122 -1.2581
  797MPD2     N11803   1.239   1.753  17.225 -0.1993  0.3294  0.2031
  797MPD2    H511804   1.319   1.815  17.211  1.7471 -2.7922 -2.6414
  797MPD2    N111805   1.356   1.807  17.681  0.0129 -0.5931 -0.4247
  797MPD2    H711806   1.434   1.851  17.632  0.7535 -1.6791 -0.2233
  798MPD2     C11807   1.524   2.361  17.228 -0.1877  0.5641  0.2445
  798MPD2    C111808   1.482   2.234  17.253 -0.0953 -0.4969 -0.6828
  798MPD2    C211809   1.486   2.175  17.375  0.2367 -0.3792 -0.0165
  798MPD2    C311810   1.545   2.241  17.482  0.0293  0.3709  0.6690
  798MPD2    C411811   1.597   2.364  17.461  0.5627  0.6843  0.0297
  798MPD2    C511812   1.576   2.422  17.337  0.3868  0.1346 -0.3187
  798MPD2     H11813   1.451   2.072  17.383 -2.4326  0.4939 -0.7345
  798MPD2    H111814   1.652   2.419  17.537 -0.7538 -0.2374  1.6376
  798MPD2    H211815   1.514   2.406  17.130  0.6100 -0.9194 -0.5211
  798MPD2    H311816   1.625   2.518  17.320  0.4394 -0.0563 -1.2852
  798MPD2     N11817   1.545   2.174  17.610  0.3672  0.2134  0.6792
  798MPD2    H511818   1.512   2.078  17.605  3.4838 -0.7194 -1.7450
  798MPD2    N111819   1.442   2.160  17.139  0.4410 -0.4969  0.3198
  798MPD2    H711820   1.429   2.210  17.052  0.2341  1.2535  1.3632
  799MPD2     C11821   0.451   3.034  14.701  0.3709  0.2353  0.4252
  799MPD2    C111822   0.405   2.956  14.600  0.5514 -0.2977  0.5095
  799MPD2    C211823   0.380   3.009  14.479 -0.6302 -0.2678 -0.5264
  799MPD2    C311824   0.409   3.139  14.452 -1.3351  0.6654 -0.3260
  799MPD2    C411825   0.464   3.219  14.546  0.2721 -0.6500 -0.2011
  799MPD2    C511826   0.468   3.170  14.677 -0.6448  0.1255  0.1603
  799MPD2     H11827   0.349   2.941  14.400 -1.9667 -1.2778  0.8744
  799MPD2    H111828   0.492   3.319  14.514  0.7656 -0.6371  0.2584
  799MPD2    H211829   0.471   2.993  14.799  0.3615  1.5097  0.9582
  799MPD2    H311830   0.501   3.236  14.756  0.1703  0.8193 -0.7698
  799MPD2     N11831   0.392   3.194  14.328 -0.5744  0.3859 -0.2974
  799MPD2    H511832   0.443   3.280  14.313 -1.1023  1.0822  1.9158
  799MPD2    N111833   0.378   2.826  14.608  0.2397  0.0957 -0.6712
  799MPD2    H711834   0.343   2.787  14.521 -0.2919  0.8138 -0.7788
  800MPD2     C11835   0.683   4.097  14.015  0.6071 -0.0315 -0.4025
  800MPD2    C111836   0.796   4.055  14.080  0.3378  0.0076  0.3501
  800MPD2    C211837   0.849   3.927  14.043  0.0003 -0.0358  0.8060
  800MPD2    C311838   0.771   3.841  13.965  0.5510 -0.3476  0.0062
  800MPD2    C411839   0.649   3.884  13.912  0.3174 -0.7004  0.1619
  800MPD2    C511840   0.608   4.013  13.938 -0.0322 -0.1929  0.0767
  800MPD2     H11841   0.945   3.892  14.080  0.9955  0.2245 -1.5752
  800MPD2    H111842   0.581   3.814  13.865 -0.9948 -0.7957  2.2084
  800MPD2    H211843   0.646   4.199  14.027 -0.4274 -0.1342 -2.8623
  800MPD2    H311844   0.506   4.040  13.915  0.1125 -1.6525 -2.3717
  800MPD2     N11845   0.823   3.714  13.941  0.2723  0.2262  0.1144
  800MPD2    H511846   0.905   3.688  13.994 -0.9835  0.4069  2.1747
  800MPD2    N111847   0.870   4.146  14.166  0.6392  0.3925  0.5335
  800MPD2    H711848   0.848   4.245  14.155 -0.4756  0.1596  0.7132
  801MPD2     C11849   1.060   0.085  14.059 -0.0797  0.2549  0.1077
  801MPD2    C111850   1.002   0.002  14.147 -0.1477 -0.0534  0.5540
  801MPD2    C211851   0.898   0.054  14.226  1.0038  0.1314 -0.6518
  801MPD2    C311852   0.849   0.182  14.222  0.8260  0.1720  0.3954
  801MPD2    C411853   0.905   0.262  14.132 -0.0917  0.5714  0.3588
  801MPD2    C511854   1.013   0.213  14.057  0.0825 -0.0837  0.2338
  801MPD2     H11855   0.857   4.716  14.296 -0.5823  0.6209 -1.0675
  801MPD2    H111856   0.882   0.368  14.127  1.1383  0.8333  0.2300
  801MPD2    H211857   1.138   0.051  13.992 -0.9396 -2.9262  0.7270
  801MPD2    H311858   1.072   0.290  14.009  1.6239 -2.2978 -1.4434
  801MPD2     N11859   0.750   0.231  14.315  0.1210 -0.1207 -0.0958
  801MPD2    H511860   0.708   0.321  14.299  0.9989  0.5768  1.5223
  801MPD2    N111861   1.039   4.604  14.165  0.2524  0.2115 -0.2774
  801MPD2    H711862   0.977   4.539  14.211  0.1821  0.0083 -0.6604
  802MPD2     C11863   4.686   1.459  17.605  0.3278  0.0667 -0.5011
  802MPD2    C111864   4.632   1.387  17.712 -0.8272  0.2688  0.5985
  802MPD2    C211865   4.649   1.255  17.724 -0.7558 -0.7162  0.5114
  802MPD2    C311866   4.729   1.184  17.635 -0.3826 -0.1669  0.1115
  802MPD2    C411867   0.032   1.253  17.521 -0.4542  0.3949 -0.2719
  802MPD2    C511868   0.011   1.390  17.501  0.5236 -0.4358  0.1032
  802MPD2     H11869   4.614   1.203   0.076 -1.3122 -0.6791  0.3150
  802MPD2    H111870   0.071   1.203  17.432 -1.4320  1.3017 -1.2060
  802MPD2    H211871   4.667   1.565  17.597  0.3650  0.1898  1.0640
  802MPD2    H311872   0.034   1.438  17.406  0.2745 -0.2183  0.1542
  802MPD2     N11873   0.030   1.053  17.658 -0.1537  0.0436 -0.1322
  802MPD2    H511874   4.721   1.005  17.736  0.4637  0.5586  0.5246
  802MPD2    N111875   4.542   1.439   0.070 -0.6651  0.0863 -0.3474
  802MPD2    H711876   4.500   1.377   0.138  1.9350 -2.1597 -0.7573
  803MPD2     C11877   1.324   2.791  12.169  0.5063  0.1821  0.1297
  803MPD2    C111878   1.320   2.887  12.264 -0.4705 -0.4396  0.4336
  803MPD2    C211879   1.299   2.859  12.396 -0.5020  0.1957 -0.4812
  803MPD2    C311880   1.276   2.726  12.437  0.2590 -0.1329  0.0537
  803MPD2    C411881   1.270   2.633  12.343 -0.0063  0.1746 -0.6956
  803MPD2    C511882   1.288   2.665  12.208  0.1542  0.5460 -0.2779
  803MPD2     H11883   1.314   2.932  12.475  2.2134  0.7959 -1.5667
  803MPD2    H111884   1.248   2.528  12.358 -2.8641  1.0819  1.3546
  803MPD2    H211885   1.332   2.817  12.064  2.4049  0.9600  0.4554
  803MPD2    H311886   1.275   2.598  12.125  1.7486 -0.7253  0.5000
  803MPD2     N11887   1.270   2.688  12.572  0.6946 -0.2940  0.2437
  803MPD2    H511888   1.258   2.590  12.593  0.8042  0.2257  2.7927
  803MPD2    N111889   1.343   3.022  12.242 -0.9903  0.7159 -0.5487
  803MPD2    H711890   1.342   3.081  12.324  2.2951  1.2692 -0.8709
  804MPD2     C11891   0.939   0.271  16.640 -1.2251  0.2173  0.3152
  804MPD2    C111892   0.844   0.277  16.745  0.7011 -0.6810  0.3428
  804MPD2    C211893   0.866   0.380  16.842 -0.3273  0.3427 -0.1976
  804MPD2    C311894   0.978   0.461  16.839 -0.0041  0.1675 -0.1811
  804MPD2    C411895   1.064   0.445  16.732 -0.5034  0.2687 -0.1806
  804MPD2    C511896   1.050   0.352  16.637 -0.7840  0.0604  0.1697
  804MPD2     H11897   0.787   0.390  16.915  0.3366  3.4858  0.0807
  804MPD2    H111898   1.156   0.503  16.735  0.2551 -1.0021  0.9277
  804MPD2    H211899   0.929   0.196  16.562  0.1033 -0.8774  1.2074
  804MPD2    H311900   1.114   0.357  16.550  1.5788 -2.4630  1.7767
  804MPD2     N11901   1.004   0.547  16.948 -0.4636 -0.3461  0.0227
  804MPD2    H511902   0.939   0.541  17.026 -0.3329  2.0240  0.3041
  804MPD2    N111903   0.727   0.201  16.756  0.1351 -0.5114  0.4247
  804MPD2    H711904   0.683   0.213  16.847  1.5846 -0.6421  1.1461
  805MPD2     C11905   4.552   3.318  15.261 -0.1994 -0.2208  0.0012
  805MPD2    C111906   4.662   3.392  15.221  0.3454  0.2925 -0.0228
  805MPD2    C211907   0.004   3.453  15.324 -0.7543  0.6981  0.0149
  805MPD2    C311908   4.683   3.467  15.449  0.1459  0.2223 -0.8562
  805MPD2    C411909   4.567   3.403  15.479 -0.1882 -0.1908  0.1488
  805MPD2    C511910   4.510   3.316  15.392 -0.5830  0.0554  0.2282
  805MPD2     H11911   0.099   3.495  15.293 -0.3752 -1.1914 -1.3616
  805MPD2    H111912   4.524   3.398  15.579 -1.5477 -1.1491 -0.4918
  805MPD2    H211913   4.488   3.265  15.191 -0.6900  1.5633 -0.8925
  805MPD2    H311914   4.417   3.265  15.416  0.6071 -2.1323  0.1933
  805MPD2     N11915   0.023   3.534  15.553  0.1517 -0.3507  0.2094
  805MPD2    H511916   0.114   3.567  15.524 -0.1785 -0.8820 -1.4474
  805MPD2    N111917   4.718   3.395  15.090  0.0010 -0.3101  0.4323
  805MPD2    H711918   0.073   3.441  15.081  0.3639 -0.7652  1.6978
  806MPD2     C11919   4.241   2.850   0.312 -0.4073 -0.2895 -0.1179
  806MPD2    C111920   4.360   2.783   0.301  0.1096  0.1207  0.0294
  806MPD2    C211921   4.449   2.802   0.196 -0.2616 -0.0334 -0.8780
  806MPD2    C311922   4.418   2.903   0.108  0.3899  0.0549 -0.4510
  806MPD2    C411923   4.293   2.963   0.123 -0.1564  0.1753  0.4393
  806MPD2    C511924   4.205   2.949   0.227 -0.4950  0.1767  0.6788
  806MPD2     H11925   4.539   2.744   0.179 -2.5703 -3.8883  0.1366
  806MPD2    H111926   4.256   3.037   0.053  2.3492  0.4912 -0.5203
  806MPD2    H211927   4.181   2.825   0.399 -1.6524  0.7687 -0.6735
  806MPD2    H311928   4.109   2.998   0.237  0.5960  2.3511  0.3263
  806MPD2     N11929   4.501   2.950  17.735  0.1641  0.6901  0.3550
  806MPD2    H511930   4.455   3.021  17.679 -1.0900  0.0372  0.5595
  806MPD2    N111931   4.392   2.719   0.423  0.0716 -0.5143 -0.1728
  806MPD2    H711932   4.326   2.711   0.500 -0.3214 -1.0939 -0.5682
  807MPD2     C11933   4.052   2.136   0.791  0.4582  1.1766 -0.5683
  807MPD2    C111934   4.181   2.111   0.759 -0.4653  0.0261 -0.4045
  807MPD2    C211935   4.232   1.976   0.771  0.3006 -0.0865  0.1446
  807MPD2    C311936   4.149   1.872   0.808 -1.1678 -0.5148  0.2751
  807MPD2    C411937   4.014   1.902   0.823 -0.3927 -0.3012 -0.5564
  807MPD2    C511938   3.968   2.032   0.810 -0.1650 -0.4444  0.1499
  807MPD2     H11939   4.339   1.957   0.768 -0.0209 -1.5398 -2.0823
  807MPD2    H111940   3.941   1.830   0.856 -0.6201 -0.8234 -2.1904
  807MPD2    H211941   4.018   2.239   0.788 -1.0597  0.6871 -0.4939
  807MPD2    H311942   3.867   2.063   0.834 -0.0088  2.3014 -2.7477
  807MPD2     N11943   4.203   1.748   0.846 -0.8936  0.4726 -0.1933
  807MPD2    H511944   4.304   1.748   0.859 -0.8333 -0.9128 -0.6505
  807MPD2    N111945   4.274   2.209   0.721  0.2277 -0.3970  0.8159
  807MPD2    H711946   4.368   2.172   0.712  1.1054  2.2801 -0.9291
  808MPD2     C11947   4.639   3.843   9.634 -0.7741  0.2692  0.9715
  808MPD2    C111948   4.663   3.741   9.730 -0.4848  0.0822  0.5974
  808MPD2    C211949   0.022   3.776   9.827  0.4114  0.1672 -0.2375
  808MPD2    C311950   0.090   3.898   9.823 -0.4357  0.5638 -0.6897
  808MPD2    C411951   0.064   3.996   9.728 -0.0543 -0.3876 -0.1734
  808MPD2    C511952   4.703   3.965   9.636 -0.1556 -0.0158  1.0033
  808MPD2     H11953   0.031   3.712   9.914  0.6713  1.1365  0.4492
  808MPD2    H111954   0.115   4.092   9.721 -1.0723  0.4302  3.4422
  808MPD2    H211955   4.575   3.822   9.549 -0.7700 -0.5523  1.1761
  808MPD2    H311956   4.705   4.020   9.542 -0.8810 -2.6357 -0.5399
  808MPD2     N11957   0.205   3.917   9.903  0.1853  0.4541 -0.2386
  808MPD2    H511958   0.258   4.001   9.885 -0.8321  0.4285 -3.3427
  808MPD2    N111959   4.599   3.617   9.741  0.0202 -0.1790 -0.2457
  808MPD2    H711960   4.628   3.551   9.813 -0.4912 -0.9840 -0.7705
  809MPD2     C11961   0.884   3.362   9.718 -0.2166  0.0752 -0.5742
  809MPD2    C111962   0.948   3.483   9.739 -0.1798  0.2826 -0.5793
  809MPD2    C211963   0.897   3.563   9.840 -0.5351 -0.3830  0.4202
  809MPD2    C311964   0.777   3.530   9.904  0.1530  0.5115 -0.5372
  809MPD2    C411965   0.715   3.424   9.874 -0.2210  0.1979 -0.1070
  809MPD2    C511966   0.770   3.341   9.782 -0.0394  0.5665  0.3185
  809MPD2     H11967   0.949   3.647   9.883 -0.3514  0.0299 -0.6102
  809MPD2    H111968   0.623   3.383   9.914  0.2876 -1.2852 -0.4284
  809MPD2    H211969   0.913   3.284   9.647  1.3491 -0.9062  1.1380
  809MPD2    H311970   0.718   3.250   9.753  1.2450 -0.3405  0.8663
  809MPD2     N11971   0.707   3.618   9.996  0.3955 -0.7137  0.1088
  809MPD2    H511972   0.617   3.589  10.033 -1.0689 -0.7699 -3.5336
  809MPD2    N111973   1.077   3.510   9.679 -0.5157  0.3950 -0.4088
  809MPD2    H711974   1.125   3.594   9.708  0.1196 -0.3041  0.5794
  810MPD2     C11975   0.742   3.976  10.908 -0.4140 -1.2227  0.1107
  810MPD2    C111976   0.613   4.025  10.873 -0.2151 -0.6467 -0.0073
  810MPD2    C211977   0.601   4.164  10.865 -0.1921 -0.0088 -0.6138
  810MPD2    C311978   0.708   4.248  10.904  0.7003  0.5865  0.2863
  810MPD2    C411979   0.835   4.196  10.940  0.2761 -0.0651  0.1681
  810MPD2    C511980   0.846   4.061  10.935 -0.0393 -0.3231 -0.0122
  810MPD2     H11981   0.501   4.202  10.851 -0.9542 -1.5719  0.6372
  810MPD2    H111982   0.914   4.263  10.972  1.0359 -0.6511 -0.4727
  810MPD2    H211983   0.754   3.870  10.929 -0.7488 -1.2682  0.0711
  810MPD2    H311984   0.944   4.022  10.959  0.2877  1.7017  1.8806
  810MPD2     N11985   0.698   4.388  10.899 -0.9394  0.0341  0.0662
  810MPD2    H511986   0.783   4.441  10.885 -0.9444  0.4580  1.7285
  810MPD2    N111987   0.497   3.946  10.849 -0.2887 -0.1327 -0.4691
  810MPD2    H711988   0.413   3.996  10.823 -0.6229  0.0529  0.9333
  811MPD2     C11989   4.648   3.783  10.307  0.5233  0.1491 -0.5825
  811MPD2    C111990   4.718   3.857  10.400 -0.0759  0.4677 -0.6239
  811MPD2    C211991   0.041   3.975  10.360 -0.3593  0.4526 -0.3214
  811MPD2    C311992   0.014   4.027  10.233 -0.6695 -0.1737  0.3138
  811MPD2    C411993   4.666   3.959  10.150 -0.0450  0.1667 -0.3682
  811MPD2    C511994   4.630   3.832  10.185  0.2834 -0.1709 -0.4896
  811MPD2     H11995   0.118   4.020  10.422 -0.0142 -0.2153 -0.2562
  811MPD2    H111996   4.643   3.992  10.049 -1.7885  2.4351  0.7475
  811MPD2    H211997   4.603   3.686  10.325  1.0549  0.0429  0.1741
  811MPD2    H311998   4.578   3.772  10.111 -1.7745  0.2167  0.6420
  811MPD2     N11999   0.070   4.156  10.204  0.3315 -0.0870 -0.0027
  811MPD2    H512000   0.138   4.190  10.271 -0.8039  1.4837  0.3552
  811MPD2    N112001   0.013   3.799  10.528 -0.0197 -0.1537  0.3445
  811MPD2    H712002   4.734   3.699  10.516  1.9824 -0.3153 -0.5927
  812MPD2     C12003   3.594   3.630  11.826 -0.4740 -0.5898  0.1210
  812MPD2    C112004   3.700   3.715  11.813 -0.0800 -0.0330 -0.0115
  812MPD2    C212005   3.821   3.683  11.878 -1.0032  0.6867 -0.5974
  812MPD2    C312006   3.824   3.578  11.975 -0.0388  0.3001 -0.8114
  812MPD2    C412007   3.715   3.490  11.982  0.0829 -0.1961  0.1462
  812MPD2    C512008   3.603   3.515  11.911  0.2427 -0.1165  0.1402
  812MPD2     H12009   3.910   3.742  11.859 -1.4016  2.2001  2.1577
  812MPD2    H112010   3.717   3.406  12.050  1.5351 -1.8398 -1.9363
  812MPD2    H212011   3.496   3.651  11.784 -0.4660 -0.1256  0.3395
  812MPD2    H312012   3.513   3.457  11.927  1.9052 -1.9585  2.6595
  812MPD2     N12013   3.935   3.569  12.065 -0.2009  0.0375  0.2837
  812MPD2    H512014   4.011   3.634  12.046 -1.0012  1.0497  0.5518
  812MPD2    N112015   3.677   3.831  11.739  0.2417  0.2702  0.1624
  812MPD2    H712016   3.577   3.846  11.734  0.1126  0.4392  3.2900
  813MPD2     C12017   2.685   0.850  12.652  0.2300 -0.1557  1.1103
  813MPD2    C112018   2.812   0.803  12.694  0.2911 -0.6292  0.2734
  813MPD2    C212019   2.832   0.771  12.823 -0.1254 -0.0369  0.6039
  813MPD2    C312020   2.733   0.769  12.910 -0.2233 -0.1880 -0.5558
  813MPD2    C412021   2.602   0.802  12.871  0.2134 -0.5849 -0.1725
  813MPD2    C512022   2.587   0.839  12.742 -0.1302 -0.1852  0.3960
  813MPD2     H12023   2.934   0.752  12.856  1.0996  1.1893 -2.4331
  813MPD2    H112024   2.517   0.804  12.938  0.3426 -0.1600 -0.0205
  813MPD2    H212025   2.667   0.873  12.548  1.3237 -1.7288  0.5698
  813MPD2    H312026   2.489   0.865  12.705  0.8966  1.5164 -1.1596
  813MPD2     N12027   2.774   0.764  13.045  0.5170  0.1965  1.0366
  813MPD2    H512028   2.875   0.768  13.045  0.6130 -2.6721  0.9379
  813MPD2    N112029   2.922   0.801  12.602 -0.5076 -0.3283 -0.1552
  813MPD2    H712030   2.925   0.858  12.518 -0.7446  0.6944  0.5366
  814MPD2     C12031   3.888   1.840  12.674 -0.5234 -0.3308  0.7552
  814MPD2    C112032   3.941   1.880  12.551 -0.1215 -0.1115 -0.4463
  814MPD2    C212033   3.970   2.017  12.535  0.5076 -0.1891  0.2969
  814MPD2    C312034   3.938   2.103  12.632 -0.6957  0.1524 -0.2373
  814MPD2    C412035   3.879   2.066  12.754 -1.1699  0.3594  0.1023
  814MPD2    C512036   3.854   1.927  12.770 -0.2697  0.3693 -0.2297
  814MPD2     H12037   4.009   2.058  12.442  1.5082 -1.4753  0.1553
  814MPD2    H112038   3.851   2.130  12.836  2.2842  0.5113  1.1704
  814MPD2    H212039   3.867   1.735  12.693  3.4927 -1.3886 -0.7351
  814MPD2    H312040   3.801   1.884  12.853 -0.1323  0.3159 -0.1700
  814MPD2     N12041   3.967   2.241  12.605 -0.2279 -0.6501 -0.1737
  814MPD2    H512042   4.019   2.261  12.520 -0.2468 -0.5292 -0.1562
  814MPD2    N112043   3.963   1.796  12.440 -1.0494  0.6398 -0.4037
  814MPD2    H712044   4.005   1.828  12.354 -1.5592 -1.0112 -1.2582
  815MPD2     C12045   3.875   4.042  12.046 -0.4056  0.8589  0.1888
  815MPD2    C112046   3.884   4.181  12.070  0.0578 -0.0316 -0.1334
  815MPD2    C212047   3.773   4.250  12.113  0.4769 -0.0646  0.1117
  815MPD2    C312048   3.650   4.185  12.136 -0.2746  0.2776 -0.3190
  815MPD2    C412049   3.644   4.050  12.111 -0.5373 -0.2447  0.5705
  815MPD2    C512050   3.755   3.979  12.072 -0.2986  0.1417 -0.8583
  815MPD2     H12051   3.785   4.358  12.118 -0.2286  0.1537 -2.4447
  815MPD2    H112052   3.553   3.993  12.128  0.4900 -0.7291  4.5042
  815MPD2    H212053   3.951   3.983  11.995 -0.5582  1.2311 -0.4638
  815MPD2    H312054   3.734   3.877  12.044 -0.9924  0.2445 -0.7239
  815MPD2     N12055   3.533   4.258  12.179 -0.0668  0.2006 -0.3717
  815MPD2    H512056   3.541   4.359  12.174 -1.2470  0.3647  0.8818
  815MPD2    N112057   4.004   4.246  12.015 -0.2202  0.3031 -0.4395
  815MPD2    H712058   4.063   4.185  11.958  0.3318  0.5330 -0.1092
  816MPD2     C12059   3.547   4.624  17.069 -0.0939 -0.2511  0.3488
  816MPD2    C112060   3.648   4.711  17.038 -0.2366 -0.1259  1.0284
  816MPD2    C212061   3.770   4.657  17.005  0.6321 -0.3375  0.7995
  816MPD2    C312062   3.771   4.520  16.978  0.0041 -0.0227  0.2487
  816MPD2    C412063   3.664   4.439  16.992  0.0290  0.5134 -0.3407
  816MPD2    C512064   3.553   4.490  17.047  0.4359  0.1963 -0.2687
  816MPD2     H12065   3.856   4.715  16.972  0.9632  0.2577  2.7499
  816MPD2    H112066   3.669   4.336  16.959  1.4839  0.3796  0.2841
  816MPD2    H212067   3.452   4.664  17.102 -0.8598 -0.7941 -1.1984
  816MPD2    H312068   3.471   4.419  17.056 -0.7739  1.7256  0.7639
  816MPD2     N12069   3.900   4.474  16.937 -0.7468  0.3012 -0.3259
  816MPD2    H512070   3.973   4.543  16.923  0.2561 -0.1809  2.6095
  816MPD2    N112071   3.634   0.111  17.062  0.1287 -0.4764  0.3541
  816MPD2    H712072   3.538   0.136  17.083  0.5669  0.5664  1.0970
  817MPD2     C12073   3.989   1.399   9.937  0.2174  1.0628  0.1353
  817MPD2    C112074   4.025   1.306   9.841  0.2257  0.5820 -0.4113
  817MPD2    C212075   4.137   1.337   9.768 -0.0262 -0.1175  0.9229
  817MPD2    C312076   4.209   1.450   9.789 -0.1659 -0.3527  0.0966
  817MPD2    C412077   4.171   1.540   9.885  0.3123 -0.5021 -0.0374
  817MPD2    C512078   4.059   1.514   9.957  0.0450  0.0599  0.0363
  817MPD2     H12079   4.166   1.275   9.684  2.3469  2.1352  0.0804
  817MPD2    H112080   4.226   1.634   9.893  0.5410 -0.6125 -0.3365
  817MPD2    H212081   3.901   1.373   9.994  0.5689  0.8978  0.6024
  817MPD2    H312082   4.014   1.582  10.029  0.7166 -0.9023  1.3586
  817MPD2     N12083   4.326   1.470   9.711 -0.2150 -0.2994  0.7978
  817MPD2    H512084   4.363   1.391   9.659 -1.8948  0.4377 -1.4995
  817MPD2    N112085   3.958   1.183   9.822  0.0441  0.1391 -0.1871
  817MPD2    H712086   4.010   1.106   9.780 -0.4112 -0.2707  0.0080
  818MPD2     C12087   3.000   0.747   9.596 -1.0279 -0.0338 -0.3450
  818MPD2    C112088   2.867   0.770   9.625 -0.1983 -0.2722  0.1007
  818MPD2    C212089   2.773   0.692   9.550  0.1981 -0.3745 -0.1377
  818MPD2    C312090   2.815   0.612   9.439 -0.3762 -0.7735 -0.2788
  818MPD2    C412091   2.950   0.599   9.415 -0.3366  0.4605 -0.0262
  818MPD2    C512092   3.032   0.665   9.495  0.0778 -0.1270  0.3785
  818MPD2     H12093   2.667   0.709   9.567  0.5538  0.5980  1.1423
  818MPD2    H112094   2.986   0.527   9.343 -0.7144  0.4784 -0.2341
  818MPD2    H212095   3.077   0.789   9.660 -0.3775 -2.0649  0.1900
  818MPD2    H312096   3.138   0.641   9.494 -0.5176 -2.8527  1.1815
  818MPD2     N12097   2.722   0.545   9.361  0.3127 -0.0851 -0.5770
  818MPD2    H512098   2.752   0.472   9.297  2.5266 -0.2815  0.6826
  818MPD2    N112099   2.826   0.844   9.735 -0.1315 -0.1179 -0.8241
  818MPD2    H712100   2.727   0.834   9.758  0.2348 -2.6930 -0.3587
  819MPD2     C12101   0.708   2.858  15.447 -0.6674 -0.2446  0.2060
  819MPD2    C112102   0.720   2.726  15.424  0.0384 -0.0060  0.4075
  819MPD2    C212103   0.843   2.665  15.417 -0.0344 -0.2196 -1.0642
  819MPD2    C312104   0.952   2.744  15.457  0.3446 -0.5545 -0.6162
  819MPD2    C412105   0.938   2.885  15.462 -0.0863 -0.4813 -0.0188
  819MPD2    C512106   0.813   2.941  15.461  0.8401 -0.6351  0.0249
  819MPD2     H12107   0.870   2.564  15.387  2.7413 -0.1929  1.3065
  819MPD2    H112108   1.013   2.960  15.484 -1.8164  1.0248  0.7498
  819MPD2    H212109   0.613   2.909  15.438  0.7984  1.9363 -2.8154
  819MPD2    H312110   0.796   3.047  15.473  0.2075 -0.7627  0.2960
  819MPD2     N12111   1.069   2.676  15.488 -0.2136 -0.2400  0.0324
  819MPD2    H512112   1.059   2.575  15.486 -0.6716 -0.2082  0.9614
  819MPD2    N112113   0.603   2.661  15.392 -0.7243  0.4309  0.0412
  819MPD2    H712114   0.524   2.724  15.378  0.5534  1.7631 -1.2066
  820MPD2     C12115   4.670   2.788  14.712 -0.2249 -0.2195  0.3982
  820MPD2    C112116   0.037   2.850  14.773  0.2507 -0.0581  0.1927
  820MPD2    C212117   0.101   2.788  14.873 -0.6262 -0.1343 -0.3218
  820MPD2    C312118   0.062   2.662  14.913 -0.3450 -0.4462 -0.3668
  820MPD2    C412119   4.687   2.600  14.860  0.2616 -0.2485 -0.0818
  820MPD2    C512120   4.632   2.661  14.749 -0.3280  0.2082  0.0563
  820MPD2     H12121   0.182   2.845  14.916 -0.4214 -0.6842  0.0336
  820MPD2    H112122   4.645   2.504  14.887  0.9670 -0.2595  0.9910
  820MPD2    H212123   4.626   2.835  14.625 -1.1396 -0.1801  0.8843
  820MPD2    H312124   4.560   2.606  14.689  1.4921 -1.0557 -0.9995
  820MPD2     N12125   0.138   2.594  15.012 -0.2797  0.0205  0.1808
  820MPD2    H512126   0.118   2.497  15.031  1.2907 -0.8016 -2.3548
  820MPD2    N112127   0.076   2.985  14.723 -0.3207 -0.2400 -0.0068
  820MPD2    H712128   0.033   3.015  14.636 -1.2257  0.3985  0.6644
  821MPD2     C12129   1.208   3.452  13.315 -0.3116  0.0546 -0.2496
  821MPD2    C112130   1.229   3.537  13.419  0.0549  0.0033  0.7864
  821MPD2    C212131   1.329   3.635  13.417 -0.0373  0.7000 -0.4233
  821MPD2    C312132   1.402   3.658  13.302 -0.4817 -0.0843 -0.7374
  821MPD2    C412133   1.376   3.571  13.198 -0.3876  0.1412 -0.8197
  821MPD2    C512134   1.281   3.473  13.206  0.2714  0.4358  0.1451
  821MPD2     H12135   1.342   3.710  13.494  1.2692  0.0230  0.0008
  821MPD2    H112136   1.429   3.573  13.103 -1.3104 -2.2737 -1.3614
  821MPD2    H212137   1.136   3.371  13.316  1.6717 -1.7217 -1.9655
  821MPD2    H312138   1.262   3.404  13.125  0.6951  2.2854 -1.5339
  821MPD2     N12139   1.513   3.742  13.292 -0.1214  0.3799  0.0938
  821MPD2    H512140   1.561   3.752  13.203  0.7969 -2.2978  0.3040
  821MPD2    N112141   1.149   3.528  13.541  0.7449  0.2380  0.1443
  821MPD2    H712142   1.170   3.587  13.621 -2.5501 -0.7425  1.7493
  822MPD2     C12143   1.594   4.219  15.735 -0.1802 -0.4242  0.3344
  822MPD2    C112144   1.539   4.182  15.853  0.6467  0.2800  0.4919
  822MPD2    C212145   1.447   4.265  15.917  0.1573  0.5146 -0.2472
  822MPD2    C312146   1.405   4.382  15.854 -0.4949  0.9422 -0.3554
  822MPD2    C412147   1.444   4.404  15.726 -0.2582 -0.4289  0.4075
  822MPD2    C512148   1.543   4.333  15.665  0.4735 -0.3617 -0.1583
  822MPD2     H12149   1.396   4.253  16.012 -1.6179 -0.7065 -1.3658
  822MPD2    H112150   1.414   4.495  15.674  1.5895  0.8077  1.5006
  822MPD2    H212151   1.674   4.165  15.686 -1.6157 -1.7021 -0.5526
  822MPD2    H312152   1.585   4.372  15.573  0.5118  1.4406  0.6308
  822MPD2     N12153   1.333   4.477  15.928 -0.1623 -0.4182  0.2712
  822MPD2    H512154   1.310   4.452  16.024 -1.0862 -1.4921 -0.2167
  822MPD2    N112155   1.570   4.060  15.925 -0.4325  0.0932 -0.1889
  822MPD2    H712156   1.532   4.048  16.018  1.1752 -2.5180  0.1505
  823MPD2     C12157   0.966   4.615  16.656  0.3909 -0.1543  0.0304
  823MPD2    C112158   0.993   4.532  16.548 -0.7158 -0.1339 -0.0591
  823MPD2    C212159   0.944   4.400  16.549 -0.6739  0.8826  0.1376
  823MPD2    C312160   0.869   4.352  16.656  0.0848  0.3889 -0.1738
  823MPD2    C412161   0.842   4.441  16.762  0.6816 -0.2020 -0.0540
  823MPD2    C512162   0.891   4.570  16.761 -0.0701  0.3185 -0.0922
  823MPD2     H12163   0.968   4.334  16.467  1.6451  0.9190  0.7891
  823MPD2    H112164   0.786   4.405  16.848  1.2734 -2.4138 -0.5971
  823MPD2    H212165   0.992   4.719  16.669 -0.8716  0.1489  0.1311
  823MPD2    H312166   0.873   4.628  16.851  0.0379 -0.8309  0.6668
  823MPD2     N12167   0.807   4.224  16.665 -0.6328  0.2432  0.8668
  823MPD2    H512168   0.746   4.205  16.743  0.6565  1.2819  2.1395
  823MPD2    N112169   1.057   4.591  16.441 -0.2981  0.1907  0.7433
  823MPD2    H712170   1.117   4.669  16.465 -0.9249  1.2478 -1.1163
  824MPD2     C12171   2.307   3.711  16.039  0.4265 -0.1147  0.0419
  824MPD2    C112172   2.199   3.672  15.966 -0.3150 -0.0743 -0.2996
  824MPD2    C212173   2.216   3.608  15.844  0.4023 -0.0264  0.2372
  824MPD2    C312174   2.345   3.584  15.801  0.2063  0.1570 -0.2096
  824MPD2    C412175   2.451   3.619  15.880 -0.5214  0.2712 -0.1301
  824MPD2    C512176   2.427   3.683  15.996 -0.9081  0.3625  0.0174
  824MPD2     H12177   2.129   3.597  15.781  0.3946 -0.8014  0.3821
  824MPD2    H112178   2.547   3.614  15.832 -0.5971  2.8870 -0.5628
  824MPD2    H212179   2.291   3.763  16.133 -0.1013 -1.7183  0.8410
  824MPD2    H312180   2.510   3.718  16.056 -0.7669 -0.4958  0.3234
  824MPD2     N12181   2.364   3.526  15.674 -0.2703  0.1709 -0.0711
  824MPD2    H512182   2.276   3.514  15.625 -0.4796  1.9003 -0.0984
  824MPD2    N112183   2.067   3.709  16.002  0.2452 -0.3645 -0.7594
  824MPD2    H712184   1.993   3.687  15.936 -0.2548 -1.0735  0.0434
  825MPD2     C12185   2.801   3.827  15.052 -0.3554 -0.1559  0.1410
  825MPD2    C112186   2.706   3.813  15.156  0.2138 -0.7011  0.2833
  825MPD2    C212187   2.677   3.917  15.241 -0.6292 -0.3134  0.4156
  825MPD2    C312188   2.745   4.030  15.231 -0.5931 -0.2241 -1.1390
  825MPD2    C412189   2.835   4.044  15.127 -0.2924 -0.1828 -0.0477
  825MPD2    C512190   2.868   3.947  15.037  0.0432  0.4251 -0.2337
  825MPD2     H12191   2.600   3.912  15.318  1.0277  2.2366  2.2309
  825MPD2    H112192   2.878   4.143  15.112  0.4374 -0.5413 -0.3363
  825MPD2    H212193   2.836   3.737  15.002 -0.5739  0.4256 -1.0527
  825MPD2    H312194   2.939   3.967  14.957  0.5891 -1.0648 -0.1297
  825MPD2     N12195   2.721   4.147  15.310 -0.1693 -0.3343 -0.0532
  825MPD2    H512196   2.766   4.232  15.276  1.0325 -1.2412 -0.7369
  825MPD2    N112197   2.647   3.684  15.176  0.1349  0.0232  0.0992
  825MPD2    H712198   2.687   3.607  15.123 -0.0183 -0.3666  0.5458
  826MPD2     C12199   2.269   2.454  13.702  0.1153  0.5986  0.2706
  826MPD2    C112200   2.354   2.558  13.682  0.1253 -0.0469 -0.1591
  826MPD2    C212201   2.346   2.671  13.759 -0.0559  0.0428 -0.0510
  826MPD2    C312202   2.249   2.685  13.851 -0.0432 -0.0926  0.2130
  826MPD2    C412203   2.157   2.587  13.860 -0.3286  0.9196 -0.5652
  826MPD2    C512204   2.167   2.469  13.790 -0.2473  0.1334 -0.1348
  826MPD2     H12205   2.414   2.755  13.750  0.5974 -0.3367  1.3817
  826MPD2    H112206   2.080   2.599  13.936  0.3734  0.3984  0.2335
  826MPD2    H212207   2.286   2.363  13.645 -2.3074 -0.5237  1.3389
  826MPD2    H312208   2.093   2.392  13.806 -0.6995  0.7052  0.5289
  826MPD2     N12209   2.220   2.804  13.931 -0.5829 -0.1012 -0.3967
  826MPD2    H512210   2.130   2.806  13.978  0.1801  0.8150  1.0233
  826MPD2    N112211   2.449   2.538  13.583 -0.2965  0.2621 -0.3683
  826MPD2    H712212   2.448   2.443  13.548  4.9468 -0.8706  2.6031
  827MPD2     C12213   3.465   0.227   9.904  0.1394 -0.2586 -0.1755
  827MPD2    C112214   3.360   0.248   9.991  0.0663  0.3195  0.0012
  827MPD2    C212215   3.246   0.167   9.975  0.0693  0.5299 -0.3199
  827MPD2    C312216   3.254   0.055   9.888  0.8952 -0.8327 -0.1170
  827MPD2    C412217   3.362   0.039   9.804  0.7941 -0.0102 -0.3794
  827MPD2    C512218   3.462   0.126   9.810 -0.0983  0.2054 -0.1622
  827MPD2     H12219   3.156   0.188  10.031 -0.6129  1.4584 -1.7658
  827MPD2    H112220   3.349   4.703   9.723  1.1204 -0.3956 -0.0922
  827MPD2    H212221   3.557   0.282   9.919 -0.6047  1.3777 -1.5938
  827MPD2    H312222   3.546   0.102   9.745 -1.0022 -0.4657 -1.0949
  827MPD2     N12223   3.144   4.704   9.888  0.4423  0.0070 -0.0731
  827MPD2    H512224   3.057   0.001   9.931 -0.0540  3.1919 -3.4569
  827MPD2    N112225   3.372   0.336  10.104 -0.2787 -0.0335 -0.3081
  827MPD2    H712226   3.465   0.373  10.120  0.0252 -1.2423  0.7279
  828MPD2     C12227   1.876   4.137  11.875  0.1165  0.1662  0.3681
  828MPD2    C112228   1.779   4.233  11.837 -0.4279  0.7638 -0.0940
  828MPD2    C212229   1.786   4.286  11.710 -0.0372 -0.4225 -0.8513
  828MPD2    C312230   1.879   4.244  11.616  0.4727  0.5740  0.3723
  828MPD2    C412231   1.974   4.145  11.649  0.0126 -0.4856  1.2000
  828MPD2    C512232   1.972   4.099  11.778  0.2003 -0.7039 -0.5988
  828MPD2     H12233   1.699   4.348  11.688 -0.8238 -0.8388  1.0843
  828MPD2    H112234   2.045   4.106  11.576  1.1257  0.7743  1.5998
  828MPD2    H212235   1.882   4.096  11.975 -0.4473 -0.9171 -0.0407
  828MPD2    H312236   2.052   4.030  11.800  1.4384  0.8722 -0.1308
  828MPD2     N12237   1.855   4.264  11.479  0.3603  0.3846  0.5309
  828MPD2    H512238   1.888   4.186  11.423 -0.2981  0.3353  0.2062
  828MPD2    N112239   1.678   4.272  11.929  0.0238 -0.2237 -0.5525
  828MPD2    H712240   1.606   4.331  11.888  0.8531 -0.2688 -2.0670
  829MPD2     C12241   1.005   4.549  11.579  0.2594 -0.5776 -0.2971
  829MPD2    C112242   0.942   4.454  11.653 -0.5634 -0.1369  0.6338
  829MPD2    C212243   1.024   4.402  11.758 -0.3157  0.0631 -0.0425
  829MPD2    C312244   1.152   4.449  11.788 -0.0557  0.4865 -0.3539
  829MPD2    C412245   1.203   4.541  11.710  0.4849  0.1748 -0.2129
  829MPD2    C512246   1.132   4.589  11.605  0.3683 -0.2578  0.3641
  829MPD2     H12247   0.989   4.331  11.832 -0.4619  0.4148  0.2256
  829MPD2    H112248   1.304   4.579  11.716  0.7744 -0.5286 -0.5714
  829MPD2    H212249   0.964   4.601  11.493  3.3535 -0.0764 -1.4465
  829MPD2    H312250   1.174   4.655  11.531 -0.1359 -0.9949 -0.5713
  829MPD2     N12251   1.235   4.398  11.892 -0.3755  0.4732 -0.0103
  829MPD2    H512252   1.333   4.417  11.880 -0.2125 -0.5943 -0.3494
  829MPD2    N112253   0.802   4.423  11.627 -0.7314  0.1606 -0.2105
  829MPD2    H712254   0.748   4.475  11.558 -0.5102  0.7408  0.0517
  830MPD2     C12255   1.986   2.636  15.679 -0.0843  0.7141 -0.3371
  830MPD2    C112256   1.897   2.689  15.585 -0.3307 -0.6563  0.0133
  830MPD2    C212257   1.935   2.801  15.503 -0.3075  0.3679  0.1853
  830MPD2    C312258   2.065   2.855  15.513  0.4094  0.0917 -0.4031
  830MPD2    C412259   2.161   2.791  15.595 -0.5360 -0.6143 -0.4828
  830MPD2    C512260   2.116   2.686  15.677 -0.4386  0.1172 -0.4893
  830MPD2     H12261   1.858   2.841  15.439  1.5806  2.6587 -0.6687
  830MPD2    H112262   2.260   2.835  15.599 -0.8439  0.0871 -0.6142
  830MPD2    H212263   1.963   2.547  15.737  0.5231  0.4608 -0.4833
  830MPD2    H312264   2.185   2.631  15.740 -1.1509  0.0723  0.2535
  830MPD2     N12265   2.116   2.959  15.436  0.3350 -0.3432  0.3069
  830MPD2    H512266   2.216   2.980  15.438 -0.0406  1.2577  2.1623
  830MPD2    N112267   1.766   2.634  15.589  0.4331  0.3339 -0.1684
  830MPD2    H712268   1.750   2.573  15.669  1.7197 -0.1387 -0.2679
  831MPD2     C12269   1.493   4.486  16.344 -0.2644  0.0059 -0.2198
  831MPD2    C112270   1.541   4.373  16.278 -0.1469 -0.1472  0.8708
  831MPD2    C212271   1.461   4.261  16.269 -0.2574  0.0530  0.6000
  831MPD2    C312272   1.338   4.258  16.325 -0.3596  0.2336  0.1294
  831MPD2    C412273   1.306   4.359  16.409 -0.2243  0.2483  0.2046
  831MPD2    C512274   1.382   4.471  16.412  0.1641 -0.1150  0.0196
  831MPD2     H12275   1.491   4.182  16.201 -1.0613  0.7237 -0.5448
  831MPD2    H112276   1.204   4.373  16.443  0.3315 -0.9710  2.3923
  831MPD2    H212277   1.535   4.586  16.341  0.0884 -0.1405 -0.0843
  831MPD2    H312278   1.345   4.563  16.456  2.9910  1.7748 -1.5613
  831MPD2     N12279   1.241   4.159  16.301 -0.2123  0.7643  0.6567
  831MPD2    H512280   1.155   4.164  16.355  0.2500  1.7814  1.2921
  831MPD2    N112281   1.658   4.391  16.201  0.5415  0.4317 -0.5874
  831MPD2    H712282   1.684   4.489  16.193  1.9663  0.1666  0.8271
  832MPD2     C12283   0.131   0.951  17.188 -0.3870 -0.3018  0.1947
  832MPD2    C112284   0.111   1.089  17.167 -0.7203 -0.4629 -0.3593
  832MPD2    C212285   0.010   1.124  17.080 -0.7603 -0.9894 -0.0595
  832MPD2    C312286   4.664   1.026  17.017 -0.0408 -0.5441 -0.0443
  832MPD2    C412287   4.693   0.892  17.037  0.2384 -0.5773 -0.0959
  832MPD2    C512288   0.055   0.863  17.125 -0.1071 -0.9155 -0.7521
  832MPD2     H12289   4.713   1.228  17.084 -1.5741 -1.3506  2.3801
  832MPD2    H112290   4.648   0.812  16.979 -4.6069  2.3464 -0.3525
  832MPD2    H212291   0.212   0.917  17.252 -0.2401  0.5298  0.4513
  832MPD2    H312292   0.069   0.755  17.125  1.3844 -0.7266 -0.7161
  832MPD2     N12293   4.550   1.056  16.934  0.0344  0.6355  0.3078
  832MPD2    H512294   4.504   0.978  16.889  0.5224  0.5082  0.0358
  832MPD2    N112295   0.197   1.188  17.222 -0.0372 -0.0614 -0.1827
  832MPD2    H712296   0.271   1.156  17.283 -2.0502  0.7087  2.6841
  833MPD2     C12297   2.680   2.317  12.317 -0.0865 -0.2853 -0.1274
  833MPD2    C112298   2.602   2.392  12.232 -0.0530 -0.3981  0.0542
  833MPD2    C212299   2.616   2.372  12.096 -0.1130 -0.1825 -0.1139
  833MPD2    C312300   2.722   2.292  12.049 -0.5773 -0.4232 -0.1335
  833MPD2    C412301   2.794   2.220  12.142 -0.0148  0.1861  0.2435
  833MPD2    C512302   2.783   2.241  12.277 -0.4559  0.0420  0.0951
  833MPD2     H12303   2.548   2.425  12.031  0.4104  2.3870  1.4291
  833MPD2    H112304   2.878   2.157  12.115  0.0138  0.0949  0.5512
  833MPD2    H212305   2.673   2.335  12.424 -0.3846 -1.5926  0.0728
  833MPD2    H312306   2.840   2.188  12.352 -0.1729  0.6631  0.3217
  833MPD2     N12307   2.747   2.259  11.917 -0.5018 -0.3264 -0.5454
  833MPD2    H512308   2.816   2.191  11.888 -1.4992 -2.5110  2.1604
  833MPD2    N112309   2.518   2.485  12.293  0.3279 -0.6870  0.0545
  833MPD2    H712310   2.509   2.479  12.394 -0.5161 -2.8400 -0.1514
  834MPD2     C12311   2.488   1.483  11.410 -0.5801  0.4448  0.2962
  834MPD2    C112312   2.497   1.562  11.296 -0.1572 -0.0873 -0.2164
  834MPD2    C212313   2.509   1.703  11.308  0.0788 -0.1925 -0.4584
  834MPD2    C312314   2.528   1.753  11.442 -0.3490  0.3664  0.6715
  834MPD2    C412315   2.502   1.671  11.549 -0.4564 -0.0954  0.6304
  834MPD2    C512316   2.490   1.539  11.532  0.5729 -0.4008  0.4058
  834MPD2     H12317   2.525   1.760  11.218 -0.7559  0.6897 -0.0485
  834MPD2    H112318   2.486   1.704  11.651  1.0014 -1.5581  1.3355
  834MPD2    H212319   2.450   1.382  11.403 -1.4641  0.8132 -0.2386
  834MPD2    H312320   2.481   1.472  11.617 -0.4472 -0.0139  0.6049
  834MPD2     N12321   2.552   1.889  11.452  0.6474 -0.1880 -0.3716
  834MPD2    H512322   2.553   1.939  11.364  0.2708 -1.2817 -0.9942
  834MPD2    N112323   2.469   1.489  11.172  0.3695 -0.6043 -0.5809
  834MPD2    H712324   2.461   1.388  11.176 -0.1421 -0.5390  0.0691
  835MPD2     C12325   2.216   0.025  11.364 -0.6242 -0.5817 -0.3245
  835MPD2    C112326   2.089   0.025  11.411  0.3596 -0.0435 -0.2855
  835MPD2    C212327   2.063   4.695  11.528  0.3270  0.3428 -0.0367
  835MPD2    C312328   2.161   4.638  11.607 -0.9443 -0.1111 -0.6072
  835MPD2    C412329   2.291   4.652  11.566 -0.5013 -0.5713  0.5602
  835MPD2    C512330   2.321   4.712  11.443  0.5999  0.4198  0.0766
  835MPD2     H12331   1.960   4.690  11.561  0.6954  2.6659  1.4454
  835MPD2    H112332   2.371   4.614  11.630 -2.6581 -2.1818  2.2957
  835MPD2    H212333   2.238   0.069  11.268  1.4674  1.2110  0.9833
  835MPD2    H312334   2.421   4.716  11.401 -0.5261 -1.4921 -2.7592
  835MPD2     N12335   2.145   4.597  11.740  0.0625 -0.9588  0.2904
  835MPD2    H512336   2.217   4.548  11.791  0.7183  0.6080  0.8594
  835MPD2    N112337   1.977   0.089  11.351 -0.1089  0.8650 -0.0545
  835MPD2    H712338   1.888   0.082  11.399 -0.4028  3.1331 -0.2949
  836MPD2     C12339   1.433   4.660  12.072  0.3784  0.3894 -0.2935
  836MPD2    C112340   1.527   4.635  12.173 -0.6722 -0.0716 -0.1049
  836MPD2    C212341   1.497   4.650  12.304 -0.4637 -0.0840 -0.4644
  836MPD2    C312342   1.363   4.671  12.344 -0.9221 -0.2989 -0.1330
  836MPD2    C412343   1.264   4.679  12.247 -0.2537 -0.6724  0.1162
  836MPD2    C512344   1.304   4.675  12.111 -0.3067  0.3432  0.4764
  836MPD2     H12345   1.576   4.650  12.377 -0.9346  3.3979  0.0550
  836MPD2    H112346   1.164   4.711  12.272 -0.1804  0.2375 -0.7738
  836MPD2    H212347   1.458   4.652  11.966  1.5593  0.3536 -0.0117
  836MPD2    H312348   1.230   4.700  12.036 -1.7290 -1.8979  1.1415
  836MPD2     N12349   1.324   4.686  12.479  0.0763 -0.0899  0.1125
  836MPD2    H512350   1.225   4.676  12.497  0.2302 -1.3833  0.2392
  836MPD2    N112351   1.659   4.594  12.128 -0.8283 -0.2161 -0.3794
  836MPD2    H712352   1.686   4.616  12.033 -0.1787  4.7418  0.9446
  837MPD2     C12353   0.404   0.145  10.331  0.3048  0.5018 -0.2248
  837MPD2    C112354   0.311   0.148  10.231  0.2055  0.1166 -0.0151
  837MPD2    C212355   0.284   0.271  10.177 -0.9123  1.1417  0.7671
  837MPD2    C312356   0.342   0.389  10.229 -0.2411  1.0168 -0.0127
  837MPD2    C412357   0.436   0.377  10.332 -0.0244 -1.3301  0.9758
  837MPD2    C512358   0.460   0.254  10.386  0.2607  0.5577 -0.2036
  837MPD2     H12359   0.212   0.286  10.097  1.1224 -1.0417 -1.5083
  837MPD2    H112360   0.474   0.458  10.394 -0.1739 -0.4757 -0.0565
  837MPD2    H212361   0.423   0.052  10.384 -1.0234  0.4871  0.2362
  837MPD2    H312362   0.517   0.245  10.477  1.3345 -1.4231 -1.0808
  837MPD2     N12363   0.303   0.508  10.158  0.3733  0.1464 -0.4344
  837MPD2    H512364   0.236   0.490  10.084  1.5978 -0.5479 -1.3717
  837MPD2    N112365   0.237   0.037  10.194 -0.1347 -0.6416 -0.0794
  837MPD2    H712366   0.153   0.060  10.141 -0.3690 -0.6352  0.3008
  838MPD2     C12367   4.088   3.071  11.611  0.5194 -0.2491  0.1566
  838MPD2    C112368   4.009   2.960  11.623  0.3040 -0.5427  0.6374
  838MPD2    C212369   3.963   2.921  11.749  0.2664  0.6246  0.2641
  838MPD2    C312370   4.000   2.986  11.858  0.0277  0.1662  0.9314
  838MPD2    C412371   4.087   3.091  11.845  0.0766 -0.1507  0.5349
  838MPD2    C512372   4.125   3.137  11.725  0.2316  0.4683 -0.4724
  838MPD2     H12373   3.909   2.830  11.773  1.1803 -0.5322 -2.0617
  838MPD2    H112374   4.115   3.154  11.929  0.7982 -0.0735  0.2394
  838MPD2    H212375   4.133   3.109  11.520  0.9276 -0.9527  0.0636
  838MPD2    H312376   4.179   3.231  11.721  0.5193  0.4420  2.6273
  838MPD2     N12377   3.957   2.939  11.987  0.3249 -0.3981 -0.4708
  838MPD2    H512378   3.893   2.860  11.988 -0.0917 -0.0226  1.7093
  838MPD2    N112379   3.965   2.879  11.510  0.0024  0.3979 -0.0445
  838MPD2    H712380   3.920   2.790  11.525  0.3705 -0.0727 -1.7860
  839MPD2     C12381   3.423   2.300  11.605 -0.1773 -0.4993  0.0347
  839MPD2    C112382   3.482   2.244  11.495  0.3524 -0.5843 -0.5557
  839MPD2    C212383   3.565   2.324  11.417 -0.3568  0.4003  0.1970
  839MPD2    C312384   3.583   2.459  11.447  0.9047  0.3958  0.6235
  839MPD2    C412385   3.509   2.509  11.550  0.9529 -0.4721 -0.1767
  839MPD2    C512386   3.436   2.431  11.627  0.9835 -0.2621 -0.0690
  839MPD2     H12387   3.610   2.286  11.326 -1.7696  2.4736 -1.3821
  839MPD2    H112388   3.526   2.607  11.593  0.3633  0.4918 -2.1475
  839MPD2    H212389   3.347   2.244  11.657 -0.2110  0.1945  0.7259
  839MPD2    H312390   3.375   2.472  11.707 -0.8337  1.4397 -2.3121
  839MPD2     N12391   3.673   2.543  11.386 -0.5513  0.4925 -0.0781
  839MPD2    H512392   3.661   2.640  11.413 -0.5255  0.3869  0.3154
  839MPD2    N112393   3.452   2.113  11.461 -0.0743  0.1331 -0.1383
  839MPD2    H712394   3.499   2.084  11.376 -0.3938 -0.3459 -0.1553
  840MPD2     C12395   3.674   0.900  10.268  0.0592 -0.3486 -0.7685
  840MPD2    C112396   3.682   0.827  10.377 -0.1811 -0.1176 -0.4114
  840MPD2    C212397   3.760   0.866  10.480  0.5516 -0.1658  0.2842
  840MPD2    C312398   3.826   0.983  10.478 -0.0186 -0.2816  1.1276
  840MPD2    C412399   3.811   1.065  10.368  0.3799  0.1222 -0.4950
  840MPD2    C512400   3.738   1.020  10.260  0.8319  0.4275  0.1396
  840MPD2     H12401   3.760   0.811  10.573 -0.6254 -1.1349 -0.2973
  840MPD2    H112402   3.854   1.165  10.367  1.8912 -0.4974  2.1259
  840MPD2    H212403   3.613   0.863  10.186 -1.5834 -0.7945  0.6606
  840MPD2    H312404   3.719   1.079  10.171 -1.1219 -0.7846 -0.2620
  840MPD2     N12405   3.907   1.021  10.581 -0.4645  0.3419  0.1689
  840MPD2    H512406   3.958   1.108  10.573 -0.2385  0.3337  1.4054
  840MPD2    N112407   3.600   0.716  10.378 -0.1397  0.4985 -0.0324
  840MPD2    H712408   3.530   0.720  10.305  1.1771  0.9279 -1.2645
  841MPD2     C12409   3.235   0.208  14.404  0.0361  0.5128  0.1564
  841MPD2    C112410   3.266   0.165  14.532 -0.4922 -0.4773  0.3762
  841MPD2    C212411   3.396   0.136  14.556  0.0052 -0.6809 -0.8345
  841MPD2    C312412   3.493   0.150  14.462  0.3376  0.1004 -0.4337
  841MPD2    C412413   3.465   0.214  14.339  0.0209 -0.3303  0.8190
  841MPD2    C512414   3.331   0.238  14.311 -0.5545  0.3388 -0.2116
  841MPD2     H12415   3.429   0.084  14.646 -1.0750 -0.3742 -0.2631
  841MPD2    H112416   3.534   0.231  14.257 -0.1061 -0.1302  0.7543
  841MPD2    H212417   3.130   0.221  14.379  0.5743  0.2515 -2.1824
  841MPD2    H312418   3.305   0.286  14.217 -0.1334 -0.0474 -0.5259
  841MPD2     N12419   3.626   0.112  14.490  0.5711  0.8901  0.0690
  841MPD2    H512420   3.632   0.054  14.573 -0.5343  2.2229  1.0839
  841MPD2    N112421   3.169   0.140  14.626 -0.0256  0.2554 -0.1812
  841MPD2    H712422   3.201   0.078  14.699  0.5970 -0.2796 -0.9151
  842MPD2     C12423   3.277   1.031  16.658 -0.0792  1.0762  0.4768
  842MPD2    C112424   3.139   1.051  16.655  0.2778 -0.4392  1.0476
  842MPD2    C212425   3.058   0.951  16.707  0.1644 -0.0031  0.3091
  842MPD2    C312426   3.116   0.855  16.788  0.1140  0.8196  0.1043
  842MPD2    C412427   3.251   0.857  16.815 -0.4266  0.2273 -0.9020
  842MPD2    C512428   3.337   0.938  16.736  0.2940  0.6017 -0.3456
  842MPD2     H12429   2.950   0.963  16.703  0.2112 -0.0757 -1.1231
  842MPD2    H112430   3.296   0.784  16.881 -0.3002  1.6772  0.6214
  842MPD2    H212431   3.343   1.096  16.602  1.4803 -1.4651 -0.6403
  842MPD2    H312432   3.444   0.924  16.742  0.2441  1.1992  1.9502
  842MPD2     N12433   3.037   0.760  16.859 -0.5054 -0.3788  0.5531
  842MPD2    H512434   3.081   0.714  16.938  1.9143  1.6406  0.3745
  842MPD2    N112435   3.092   1.170  16.583  0.2307 -0.1156 -0.2488
  842MPD2    H712436   3.159   1.244  16.564  1.0626 -1.0305 -0.9056
  843MPD2     C12437   1.009   2.123  17.240 -0.1311  0.7222 -0.1245
  843MPD2    C112438   0.993   2.074  17.367 -0.0156 -0.2035 -0.6121
  843MPD2    C212439   1.057   2.146  17.471  0.2969  0.8747  0.0416
  843MPD2    C312440   1.128   2.261  17.442  0.0837 -0.6486  0.9162
  843MPD2    C412441   1.143   2.308  17.313 -0.2170 -0.0831  0.5844
  843MPD2    C512442   1.085   2.234  17.211 -1.0008  0.2792  0.4243
  843MPD2     H12443   1.047   2.118  17.575  0.4048 -1.1753 -0.4891
  843MPD2    H112444   1.220   2.381  17.291 -1.0111  1.1115  1.7626
  843MPD2    H212445   0.967   2.062  17.162 -0.7149 -1.9080  2.2611
  843MPD2    H312446   1.104   2.262  17.108 -0.4711 -1.0266  0.1751
  843MPD2     N12447   1.191   2.342  17.531  0.7795  0.0729 -0.6358
  843MPD2    H512448   1.231   2.430  17.500  2.2273 -1.0345 -1.8983
  843MPD2    N112449   0.921   1.951  17.383  0.5500  0.0103  0.1043
  843MPD2    H712450   0.888   1.904  17.300 -0.0738  1.2683 -0.3686
  844MPD2     C12451   4.366   0.800  16.490  0.0877  0.2968  0.1253
  844MPD2    C112452   4.478   0.722  16.493 -0.5824  0.0985  0.3516
  844MPD2    C212453   4.607   0.774  16.523 -0.5334  0.4458  0.2170
  844MPD2    C312454   4.620   0.906  16.549 -0.5941 -0.3044 -0.5889
  844MPD2    C412455   4.506   0.984  16.547 -0.7513 -0.4208 -0.1934
  844MPD2    C512456   4.382   0.932  16.531  0.6058 -0.3053 -0.6380
  844MPD2     H12457   4.699   0.716  16.525 -0.0681  1.2130  1.3061
  844MPD2    H112458   4.499   1.086  16.584 -0.0331 -0.9772  1.4913
  844MPD2    H212459   4.266   0.773  16.458  0.6768 -0.6440 -0.9123
  844MPD2    H312460   4.304   1.006  16.534 -0.0388 -0.9824 -0.7299
  844MPD2     N12461   0.011   0.950  16.586 -0.1495  0.3457 -0.5946
  844MPD2    H512462   0.084   0.880  16.595  0.5142  1.1774  0.4286
  844MPD2    N112463   4.460   0.589  16.452 -0.3232 -0.1475  0.3569
  844MPD2    H712464   4.529   0.525  16.491 -0.1688  0.3878  0.9473
  845MPD2     C12465   0.189   1.910  16.686  0.7733  0.3060 -0.1748
  845MPD2    C112466   0.083   1.827  16.719 -1.3046  0.2367  0.5604
  845MPD2    C212467   0.115   1.690  16.716 -0.2292  0.1128  0.0428
  845MPD2    C312468   0.238   1.638  16.687 -0.2467  0.0226 -1.0416
  845MPD2    C412469   0.339   1.722  16.650 -0.5460  0.1066 -0.4099
  845MPD2    C512470   0.309   1.854  16.655 -0.8733  0.1226 -0.4068
  845MPD2     H12471   0.047   1.608  16.734  0.4094  0.3697  3.6286
  845MPD2    H112472   0.439   1.689  16.625  0.0901  2.4886 -0.9756
  845MPD2    H212473   0.171   2.015  16.672 -0.8289 -0.4455 -3.5745
  845MPD2    H312474   0.392   1.921  16.633 -1.0191  0.1781 -0.7867
  845MPD2     N12475   0.244   1.498  16.684 -0.1564  0.3831 -0.2124
  845MPD2    H512476   0.157   1.450  16.706  0.8755 -0.6206  1.6386
  845MPD2    N112477   4.699   1.883  16.761  0.3860  0.1527 -0.1441
  845MPD2    H712478   4.688   1.982  16.744 -0.1101  0.1246  0.0209
  846MPD2     C12479   1.759   1.710  13.822 -0.0888 -0.6558 -0.4435
  846MPD2    C112480   1.637   1.751  13.768 -0.3599 -0.1123 -1.1484
  846MPD2    C212481   1.531   1.776  13.860 -0.5761  0.0580  0.1338
  846MPD2    C312482   1.551   1.752  13.996  0.1379 -0.1802 -0.3134
  846MPD2    C412483   1.680   1.724  14.037  0.6335  0.2481 -0.2530
  846MPD2    C512484   1.781   1.703  13.956 -0.3716 -0.0938 -0.8149
  846MPD2     H12485   1.434   1.809  13.824 -1.7846 -4.3947 -0.7273
  846MPD2    H112486   1.710   1.724  14.141  1.6751  0.3362 -0.5585
  846MPD2    H212487   1.841   1.693  13.754  1.3023  0.8627  0.8607
  846MPD2    H312488   1.874   1.674  14.003 -0.3313  0.4869 -0.5311
  846MPD2     N12489   1.446   1.775  14.085 -0.6344  0.2642 -0.5686
  846MPD2    H512490   1.349   1.782  14.058 -0.5057 -1.4177 -1.4317
  846MPD2    N112491   1.640   1.779  13.636  0.3260 -0.1285 -0.4176
  846MPD2    H712492   1.734   1.771  13.599 -0.1535  1.8902 -2.0689
  847MPD2     C12493   1.756   2.551  14.138  0.6634 -1.5638 -0.0051
  847MPD2    C112494   1.794   2.586  14.271 -0.2614 -0.1096  0.3927
  847MPD2    C212495   1.717   2.524  14.371  0.9925 -0.8912  0.5270
  847MPD2    C312496   1.619   2.434  14.344  0.0937 -0.5103  0.4303
  847MPD2    C412497   1.594   2.406  14.214  0.0949 -0.2616 -0.4358
  847MPD2    C512498   1.664   2.456  14.111 -0.0847  0.4526 -0.4773
  847MPD2     H12499   1.744   2.547  14.473 -0.5974 -0.4137  0.8341
  847MPD2    H112500   1.516   2.341  14.175  0.8870 -1.6389  0.2785
  847MPD2    H212501   1.814   2.590  14.055  0.4382  2.0435  1.5658
  847MPD2    H312502   1.641   2.427  14.009  0.9072 -3.4704  0.4167
  847MPD2     N12503   1.532   2.374  14.436 -0.5332  0.7633 -0.0375
  847MPD2    H512504   1.445   2.331  14.407  0.1902  0.7811 -2.2397
  847MPD2    N112505   1.896   2.679  14.283 -0.0826 -0.0331  0.0292
  847MPD2    H712506   1.913   2.733  14.198  2.5794 -0.2445  0.4077
  848MPD2     C12507   4.321   1.476  16.246 -0.4389 -0.8330  0.4925
  848MPD2    C112508   4.208   1.482  16.327 -0.3670 -0.2256 -0.5208
  848MPD2    C212509   4.102   1.564  16.284 -0.7773  0.5162 -0.0970
  848MPD2    C312510   4.107   1.634  16.162 -1.0706  0.3652  0.2681
  848MPD2    C412511   4.216   1.612  16.078  0.0667 -0.4644  0.1207
  848MPD2    C512512   4.323   1.544  16.129 -0.5227  0.1785 -1.0297
  848MPD2     H12513   4.015   1.585  16.345 -0.9564  2.9064 -1.1792
  848MPD2    H112514   4.208   1.647  15.976  2.1676  2.4811  0.9862
  848MPD2    H212515   4.412   1.427  16.280 -0.7418 -1.1589  0.8329
  848MPD2    H312516   4.406   1.538  16.060  0.4274 -3.3055  0.4211
  848MPD2     N12517   4.004   1.720  16.112  0.0483  0.1003 -0.5750
  848MPD2    H512518   4.024   1.776  16.029  1.7645 -0.3265 -0.4414
  848MPD2    N112519   4.206   1.419  16.455 -0.0694  0.4743 -0.0959
  848MPD2    H712520   4.116   1.410  16.502 -0.3283  0.3755 -0.6081
  849MPD2     C12521   3.225   0.900  14.006  0.4424  0.7771 -0.1583
  849MPD2    C112522   3.365   0.883  13.981 -0.3606 -1.2740  0.0391
  849MPD2    C212523   3.444   0.825  14.074  0.4547 -0.1456  0.0893
  849MPD2    C312524   3.394   0.792  14.200 -0.8757 -0.0084 -0.2696
  849MPD2    C412525   3.260   0.822  14.229 -0.0355 -0.0693  0.1138
  849MPD2    C512526   3.176   0.872  14.127 -0.3317 -0.2975  0.3398
  849MPD2     H12527   3.550   0.805  14.060  0.9582  0.9919  2.3213
  849MPD2    H112528   3.211   0.812  14.326 -1.3305 -1.9143 -0.7353
  849MPD2    H212529   3.155   0.928  13.928  0.5034  1.5433  0.0628
  849MPD2    H312530   3.071   0.886  14.146  0.3718  3.1104  1.6966
  849MPD2     N12531   3.481   0.735  14.287  0.1007 -0.6176  0.4062
  849MPD2    H512532   3.566   0.693  14.251  0.0906 -0.1049 -0.2061
  849MPD2    N112533   3.408   0.927  13.856 -0.3218 -1.2734  0.4535
  849MPD2    H712534   3.341   0.964  13.789 -0.8869 -2.7240  0.2308
  850MPD2     C12535   1.608   3.549  14.702 -0.2932  0.0932 -0.0226
  850MPD2    C112536   1.583   3.669  14.759  0.0363  0.1974  0.3691
  850MPD2    C212537   1.684   3.760  14.788 -0.2724 -0.1013 -0.7167
  850MPD2    C312538   1.812   3.707  14.783  0.1329 -0.5496 -0.3692
  850MPD2    C412539   1.835   3.574  14.746  0.1071 -0.2646 -0.0565
  850MPD2    C512540   1.734   3.502  14.697 -0.0018 -0.4025  0.5767
  850MPD2     H12541   1.675   3.863  14.821 -0.5223 -0.4745  0.3951
  850MPD2    H112542   1.932   3.526  14.749  0.9925  1.6225  1.3785
  850MPD2    H212543   1.525   3.496  14.657  0.6410 -1.4010  0.0219
  850MPD2    H312544   1.749   3.400  14.664 -1.4028 -0.8011  1.1680
  850MPD2     N12545   1.925   3.768  14.849  0.6415  0.3373 -0.4282
  850MPD2    H512546   2.006   3.708  14.860 -0.6540 -0.9813  1.9089
  850MPD2    N112547   1.444   3.706  14.765 -0.6512 -0.0992  0.0691
  850MPD2    H712548   1.390   3.636  14.715 -3.2472  1.2115  1.0864
  851MPD2     C12549   1.807   3.871  15.480 -0.9878  0.1987  0.0367
  851MPD2    C112550   1.757   3.790  15.378 -0.1692 -0.0973 -0.3636
  851MPD2    C212551   1.826   3.684  15.327  0.3081  0.9540 -0.3928
  851MPD2    C312552   1.948   3.654  15.387 -0.5566  0.3906 -0.0892
  851MPD2    C412553   1.997   3.725  15.496  0.2435  0.0402 -0.3737
  851MPD2    C512554   1.930   3.832  15.543  0.0368 -0.4746 -0.0479
  851MPD2     H12555   1.789   3.616  15.252  1.5197 -1.4924  1.1898
  851MPD2    H112556   2.093   3.700  15.538  0.9351  1.4157 -1.1107
  851MPD2    H212557   1.743   3.947  15.523  0.7441  0.3744  2.3385
  851MPD2    H312558   1.971   3.885  15.629  1.3496 -0.9649 -0.3831
  851MPD2     N12559   2.020   3.547  15.323 -0.2414  0.0964 -0.3457
  851MPD2    H512560   1.972   3.510  15.242 -0.2238  1.5386 -1.0237
  851MPD2    N112561   1.628   3.818  15.339 -0.5039  0.6084  0.2922
  851MPD2    H712562   1.591   3.906  15.372  1.0114  1.6919 -0.8801
  852MPD2     C12563   1.114   0.948  10.129 -0.4185  0.5272 -0.1177
  852MPD2    C112564   1.252   0.962  10.124 -0.1453 -0.4608 -0.3216
  852MPD2    C212565   1.305   1.077  10.072 -0.6310  0.2922  0.1892
  852MPD2    C312566   1.221   1.176  10.018  0.0359 -0.4316  0.3093
  852MPD2    C412567   1.089   1.151  10.007  0.2363 -0.6374 -0.6113
  852MPD2    C512568   1.034   1.043  10.068 -0.4686  0.0269  0.2280
  852MPD2     H12569   1.413   1.081  10.064 -0.4591 -0.3665  2.3026
  852MPD2    H112570   1.015   1.221   9.972  1.2339 -0.2257 -1.9190
  852MPD2    H212571   1.075   0.862  10.182  2.5340 -1.2704 -0.8597
  852MPD2    H312572   0.927   1.034  10.079 -0.4543 -1.1999 -0.6149
  852MPD2     N12573   1.286   1.294   9.978  0.0461 -0.3921  0.5964
  852MPD2    H512574   1.382   1.303  10.009 -0.1059 -0.0036  0.9467
  852MPD2    N112575   1.335   0.856  10.162 -0.0780  0.1767  0.3872
  852MPD2    H712576   1.432   0.853  10.130  0.4664  2.2513  1.8257
  853MPD2     C12577   3.267   0.905  12.224 -0.2949 -0.1334 -0.7477
  853MPD2    C112578   3.193   1.013  12.189 -0.5088  0.0019  0.2204
  853MPD2    C212579   3.122   1.011  12.068  0.2217 -0.1982  0.6831
  853MPD2    C312580   3.116   0.905  11.984 -0.7386  0.3258 -0.0614
  853MPD2    C412581   3.184   0.796  12.022  0.2322  0.5654 -0.5059
  853MPD2    C512582   3.265   0.794  12.138  0.0809  0.0057  0.1517
  853MPD2     H12583   3.064   1.093  12.028 -1.6882 -0.7089  2.4004
  853MPD2    H112584   3.174   0.697  11.978  2.4737  0.1421 -0.0682
  853MPD2    H212585   3.324   0.900  12.316  0.6971  0.7301 -1.3176
  853MPD2    H312586   3.316   0.703  12.167 -0.8243 -0.0168  1.6707
  853MPD2     N12587   3.030   0.894  11.868 -0.4169  0.7265 -0.1851
  853MPD2    H512588   3.058   0.814  11.812 -1.3212 -0.0457  0.4699
  853MPD2    N112589   3.185   1.129  12.265 -0.2422 -0.0635 -0.4513
  853MPD2    H712590   3.230   1.129  12.357 -2.0709  0.2810  0.4311
  854MPD2     C12591   0.588   1.781  12.772  0.3181  0.2092  0.3397
  854MPD2    C112592   0.463   1.747  12.820 -0.3048  0.2661  0.0316
  854MPD2    C212593   0.461   1.664  12.932 -0.1617 -0.0647 -0.4102
  854MPD2    C312594   0.575   1.604  12.977  0.2063 -0.3332  0.0627
  854MPD2    C412595   0.696   1.629  12.923  0.0714  0.4621  1.2461
  854MPD2    C512596   0.699   1.724  12.829  0.6537 -0.0461  0.3647
  854MPD2     H12597   0.364   1.645  12.976 -0.9420  1.2547 -1.5827
  854MPD2    H112598   0.785   1.579  12.961  2.0440  2.0129 -1.3763
  854MPD2    H212599   0.597   1.862  12.700 -2.0903 -0.6088 -0.8700
  854MPD2    H312600   0.797   1.744  12.788 -0.2654  1.8942 -0.8851
  854MPD2     N12601   0.579   1.504  13.076  0.5418  0.0974 -0.2953
  854MPD2    H512602   0.665   1.457  13.100  0.8494  0.4499 -0.7024
  854MPD2    N112603   0.351   1.802  12.754 -0.2733  0.4388 -0.3640
  854MPD2    H712604   0.366   1.853  12.667  0.5571  0.8973  0.0516
  855MPD2     C12605   0.090   0.986  13.838 -0.5855  0.2660 -1.3462
  855MPD2    C112606   0.204   0.927  13.787  1.2517 -0.2654 -0.0708
  855MPD2    C212607   0.293   1.005  13.717  0.0528 -0.1607  0.6444
  855MPD2    C312608   0.256   1.137  13.678  0.0854 -0.4577  0.1184
  855MPD2    C412609   0.135   1.185  13.719 -0.7387 -0.1613 -1.5483
  855MPD2    C512610   0.055   1.116  13.798 -0.6703  0.1881  0.1121
  855MPD2     H12611   0.386   0.963  13.680  0.2773  2.2947 -1.6045
  855MPD2    H112612   0.107   1.285  13.690 -1.3024  0.5032  1.2605
  855MPD2    H212613   0.028   0.934  13.910  0.8875 -0.1349 -0.3630
  855MPD2    H312614   4.693   1.144  13.837 -0.7024 -0.3536  0.4209
  855MPD2     N12615   0.329   1.207  13.576 -0.4068  0.1868  0.0026
  855MPD2    H512616   0.266   1.258  13.516 -1.1243 -1.9962 -1.0616
  855MPD2    N112617   0.248   0.796  13.827  0.3312  0.0718 -0.1988
  855MPD2    H712618   0.347   0.776  13.823  0.1891 -0.6633  0.0002
  856MPD2     C12619   2.879   1.535  14.417 -0.7220 -0.1914  0.1077
  856MPD2    C112620   2.901   1.614  14.309 -0.1680 -0.3014 -0.5247
  856MPD2    C212621   2.795   1.648  14.228  0.9285  0.0990  0.5637
  856MPD2    C312622   2.666   1.602  14.248  0.4373 -0.1422 -0.3191
  856MPD2    C412623   2.647   1.510  14.353  0.4610 -0.4923 -0.6952
  856MPD2    C512624   2.754   1.480  14.434 -0.1810  0.0700  0.2061
  856MPD2     H12625   2.838   1.708  14.149 -1.4144  1.1184  0.0766
  856MPD2    H112626   2.551   1.465  14.375  1.2230 -1.8221 -0.0524
  856MPD2    H212627   2.959   1.503  14.483  0.3955 -1.6043 -1.9329
  856MPD2    H312628   2.723   1.415  14.515  0.2275  0.7193  0.8902
  856MPD2     N12629   2.561   1.650  14.165 -0.3316 -0.5662 -0.2499
  856MPD2    H512630   2.465   1.623  14.187 -0.2259 -2.4966 -2.2398
  856MPD2    N112631   3.029   1.675  14.280 -0.4275  0.1641 -0.3179
  856MPD2    H712632   3.041   1.727  14.194 -0.7142 -1.5539 -1.3934
  857MPD2     C12633   3.747   4.357  12.803  0.4619  0.3450  0.4966
  857MPD2    C112634   3.870   4.326  12.745 -0.3363  0.4882 -0.0838
  857MPD2    C212635   3.977   4.412  12.768  0.4250  0.0717  0.1084
  857MPD2    C312636   3.960   4.536  12.828  0.3287 -0.2132 -0.1772
  857MPD2    C412637   3.831   4.568  12.869 -0.3946 -0.0098 -0.2883
  857MPD2    C512638   3.733   4.476  12.866 -0.2505  0.1427  0.8998
  857MPD2     H12639   4.072   4.382  12.724  0.5920  0.9579 -0.1361
  857MPD2    H112640   3.818   4.665  12.915 -1.0827  0.2987 -1.1414
  857MPD2    H212641   3.668   4.282  12.803 -0.3114  1.1562  0.8113
  857MPD2    H312642   3.637   4.498  12.912 -0.6460  0.6584 -0.1765
  857MPD2     N12643   4.081   4.616  12.850 -0.3675  0.4975  0.0399
  857MPD2    H512644   4.173   4.578  12.832 -0.5151  0.3369 -0.3753
  857MPD2    N112645   3.895   4.213  12.665  0.1557 -0.0222  0.5608
  857MPD2    H712646   3.990   4.194  12.636 -0.4581  1.3666 -2.4017
  858MPD2     C12647   4.261   3.664  16.255 -0.1519  0.1751  0.9234
  858MPD2    C112648   4.278   3.529  16.295 -0.2028 -0.6278 -0.2153
  858MPD2    C212649   4.258   3.494  16.428  0.8942 -0.6065 -0.3673
  858MPD2    C312650   4.210   3.585  16.514  1.2248  0.2989 -0.4675
  858MPD2    C412651   4.193   3.717  16.473 -0.5362 -0.1007  0.7113
  858MPD2    C512652   4.215   3.755  16.344 -0.3342 -0.0917  0.6539
  858MPD2     H12653   4.282   3.393  16.460 -0.7081 -0.0129  2.6578
  858MPD2    H112654   4.170   3.793  16.547  1.3377  0.5335  0.6450
  858MPD2    H212655   4.274   3.696  16.153 -2.2323  0.5156  0.7642
  858MPD2    H312656   4.193   3.856  16.311  0.4859 -0.2934 -0.5057
  858MPD2     N12657   4.178   3.558  16.645 -0.0448  0.1372 -0.3307
  858MPD2    H512658   4.127   3.629  16.696  1.3414  0.4647  0.6300
  858MPD2    N112659   4.333   3.444  16.195 -0.2686 -0.0050 -0.2549
  858MPD2    H712660   4.348   3.477  16.100 -2.9792 -1.3786 -1.1708
  859MPD2     C12661   3.455   0.577  15.731  1.2635  0.2757  0.3181
  859MPD2    C112662   3.503   0.551  15.603  0.4107  0.5573  0.1258
  859MPD2    C212663   3.561   0.431  15.573  0.5463 -0.2428 -0.5380
  859MPD2    C312664   3.588   0.334  15.675  0.2152 -0.0730  0.3230
  859MPD2    C412665   3.540   0.366  15.804 -0.1739  0.2723  0.2892
  859MPD2    C512666   3.477   0.483  15.832  0.4646 -0.2240 -0.1778
  859MPD2     H12667   3.585   0.399  15.473 -1.5127 -0.3804 -0.9765
  859MPD2    H112668   3.551   0.294  15.883 -1.5839 -0.2860 -0.0243
  859MPD2    H212669   3.399   0.665  15.761 -1.8581 -2.1513  1.5926
  859MPD2    H312670   3.438   0.500  15.932 -1.6276  2.1079 -1.3885
  859MPD2     N12671   3.660   0.215  15.661 -0.3857 -0.4249  0.3157
  859MPD2    H512672   3.673   0.153  15.741  0.5926 -0.9216 -0.2240
  859MPD2    N112673   3.487   0.650  15.510  0.4101 -0.2479  0.4941
  859MPD2    H712674   3.472   0.744  15.545  0.1726  0.2285 -0.9213
  860MPD2     C12675   1.488   0.554  11.757  0.0782  0.0555 -0.0367
  860MPD2    C112676   1.552   0.588  11.873 -0.4243  0.5217  0.8598
  860MPD2    C212677   1.472   0.630  11.979 -0.4626 -0.4884 -0.5151
  860MPD2    C312678   1.336   0.637  11.966  0.1679  0.1087 -0.0114
  860MPD2    C412679   1.269   0.592  11.856  0.0097 -0.4579  0.1528
  860MPD2    C512680   1.351   0.553  11.751  0.1730 -0.6837  0.4189
  860MPD2     H12681   1.528   0.656  12.069 -1.5896 -0.4263  0.1653
  860MPD2    H112682   1.161   0.592  11.847 -0.0220 -1.2286  0.5044
  860MPD2    H212683   1.534   0.511  11.669  2.4473  1.7183  0.3647
  860MPD2    H312684   1.297   0.518  11.664  1.8217 -1.9020 -0.1076
  860MPD2     N12685   1.270   0.696  12.070 -0.3765 -0.6744  0.3796
  860MPD2    H512686   1.317   0.710  12.159 -0.2189 -1.2027  0.3827
  860MPD2    N112687   1.689   0.576  11.892 -0.5983  0.1575 -0.0060
  860MPD2    H712688   1.723   0.586  11.988 -0.4048 -0.4534 -0.0110
  861MPD2     C12689   0.251   4.028  11.092  0.3979 -0.1089 -0.3976
  861MPD2    C112690   0.141   3.964  11.147  0.4869 -0.4946 -0.5751
  861MPD2    C212691   0.014   4.006  11.109 -0.1740 -0.0617  0.0887
  861MPD2    C312692   4.725   4.106  11.021 -0.4399  0.4648  0.6355
  861MPD2    C412693   0.103   4.168  10.972  0.1661  0.0655  0.0077
  861MPD2    C512694   0.227   4.129  11.004  0.7396  0.1639  0.4764
  861MPD2     H12695   4.668   3.959  11.165  1.0596 -1.6075  0.5617
  861MPD2    H112696   0.104   4.245  10.895  2.3160 -0.0526 -0.0698
  861MPD2    H212697   0.355   4.007  11.112  0.3962  0.9946  0.7900
  861MPD2    H312698   0.313   4.180  10.963  0.4489  0.0319 -0.2856
  861MPD2     N12699   4.601   4.162  10.974  0.4071  0.1465 -0.2367
  861MPD2    H512700   4.613   4.234  10.903  0.9603 -0.1561 -0.4566
  861MPD2    N112701   0.154   3.872  11.251  0.3833 -0.1552  0.1347
  861MPD2    H712702   0.075   3.847  11.309 -1.0935  3.9661 -0.1083
  862MPD2     C12703   4.149   4.404  10.439 -0.3319  0.7472  0.4495
  862MPD2    C112704   4.174   4.304  10.531 -0.3769  0.2578  0.6351
  862MPD2    C212705   4.107   4.183  10.522 -0.7905 -0.4494 -0.1131
  862MPD2    C312706   4.024   4.160  10.408 -0.5444 -0.1105 -0.0081
  862MPD2    C412707   4.022   4.249  10.299 -0.1788 -0.0562  0.0739
  862MPD2    C512708   4.081   4.377  10.321 -0.0071  0.0630  0.5034
  862MPD2     H12709   4.115   4.115  10.606  2.0859 -1.9091 -1.5397
  862MPD2    H112710   3.979   4.227  10.202  0.5002 -1.2298  0.0502
  862MPD2    H212711   4.188   4.505  10.450  0.1929  0.6352 -0.3714
  862MPD2    H312712   4.071   4.447  10.240  1.2729 -0.7551 -0.3604
  862MPD2     N12713   3.933   4.054  10.400 -0.1469  0.0977 -0.2029
  862MPD2    H512714   3.895   4.033  10.308  0.2814  0.1548 -0.3926
  862MPD2    N112715   4.247   4.319  10.649 -0.2513  0.2293  0.7551
  862MPD2    H712716   4.260   4.239  10.711  1.5113 -0.7843 -0.8973
  863MPD2     C12717   2.278   2.237  16.881 -1.0239 -0.1613  0.0401
  863MPD2    C112718   2.349   2.331  16.814 -0.0282 -0.8416  0.3431
  863MPD2    C212719   2.486   2.339  16.847 -0.0875  0.4691  0.0951
  863MPD2    C312720   2.548   2.260  16.938  0.2024  0.0536 -0.4492
  863MPD2    C412721   2.472   2.176  17.012  0.0354  0.2948 -0.4670
  863MPD2    C512722   2.341   2.164  16.976 -0.0282 -0.0487  0.3053
  863MPD2     H12723   2.543   2.417  16.797  1.6713 -0.0133  1.3682
  863MPD2    H112724   2.513   2.109  17.086  0.7824  2.4741  1.0726
  863MPD2    H212725   2.172   2.216  16.873 -1.1883 -0.6016  3.3648
  863MPD2    H312726   2.278   2.093  17.028 -0.0554  2.0323  3.1024
  863MPD2     N12727   2.690   2.253  16.953 -0.1145 -0.0822 -0.2270
  863MPD2    H512728   2.722   2.192  17.027  0.9766 -0.8889 -1.3713
  863MPD2    N112729   2.283   2.401  16.709 -0.5465  0.1409 -0.6168
  863MPD2    H712730   2.184   2.390  16.690 -0.0593 -1.0880 -2.4004
  864MPD2     C12731   3.193   3.378  16.673  0.5358 -0.2565  0.5288
  864MPD2    C112732   3.300   3.299  16.637  0.1065  0.4814  0.8514
  864MPD2    C212733   3.405   3.357  16.562  0.8694  0.1079  0.1311
  864MPD2    C312734   3.407   3.488  16.528  0.0768  0.2817 -0.3305
  864MPD2    C412735   3.299   3.567  16.579  0.3864  0.3956  0.2083
  864MPD2    C512736   3.188   3.506  16.627 -0.1401  0.7292 -0.8063
  864MPD2     H12737   3.490   3.300  16.527  0.2146 -0.7420 -0.0820
  864MPD2    H112738   3.306   3.675  16.573  1.5064  0.3960  1.7016
  864MPD2    H212739   3.109   3.341  16.731  0.5819 -0.6742  0.3292
  864MPD2    H312740   3.111   3.580  16.645 -1.7878 -1.1325 -0.3534
  864MPD2     N12741   3.511   3.547  16.453  0.1528 -0.2328  0.2770
  864MPD2    H512742   3.503   3.648  16.445 -1.7603 -0.3304  1.0987
  864MPD2    N112743   3.304   3.166  16.682 -0.3930  0.0004  0.6348
  864MPD2    H712744   3.208   3.138  16.701 -0.3930 -0.0080  0.6229
  865MPD2     C12745   3.274   3.631  16.122 -0.5451 -0.2931  0.4177
  865MPD2    C112746   3.394   3.654  16.068 -0.0884  0.2424 -0.1117
  865MPD2    C212747   3.471   3.758  16.119  0.5846  0.2022  0.3955
  865MPD2    C312748   3.435   3.834  16.228 -0.3325  0.0473 -0.4914
  865MPD2    C412749   3.315   3.803  16.288  0.5929 -0.3636  0.4741
  865MPD2    C512750   3.234   3.703  16.236  0.0724  0.2690  0.8810
  865MPD2     H12751   3.570   3.768  16.075  0.4689  1.1029  0.3577
  865MPD2    H112752   3.286   3.858  16.377 -0.2686 -1.0196  0.5952
  865MPD2    H212753   3.209   3.554  16.082 -0.4749 -0.3210  0.3575
  865MPD2    H312754   3.139   3.685  16.285 -0.7734  1.5149 -0.3110
  865MPD2     N12755   3.518   3.934  16.280  0.9965 -0.4683 -0.0164
  865MPD2    H512756   3.476   4.015  16.325 -1.4831 -2.1043  0.6077
  865MPD2    N112757   3.435   3.567  15.966  0.8208 -0.7524  0.0966
  865MPD2    H712758   3.369   3.493  15.941 -0.7116  0.6620 -0.0600
  866MPD2     C12759   0.721   4.178  11.323  0.5894  0.0238  0.0966
  866MPD2    C112760   0.631   4.096  11.382  0.4167 -0.6501 -0.0904
  866MPD2    C212761   0.497   4.118  11.366  0.0020  0.5318 -0.0918
  866MPD2    C312762   0.446   4.231  11.302 -0.7961 -0.2527 -0.5250
  866MPD2    C412763   0.543   4.316  11.252  0.2743 -0.1614  0.7416
  866MPD2    C512764   0.678   4.298  11.262 -0.4855  0.3030  0.5120
  866MPD2     H12765   0.435   4.034  11.395  2.1233 -0.9288  0.1958
  866MPD2    H112766   0.514   4.415  11.215 -0.8786 -1.2500 -1.2895
  866MPD2    H212767   0.826   4.162  11.342  0.5791  0.6900  0.7319
  866MPD2    H312768   0.751   4.364  11.216  1.8374 -2.1104  0.6918
  866MPD2     N12769   0.312   4.270  11.290 -0.7124  0.0829 -0.4706
  866MPD2    H512770   0.293   4.360  11.248  1.7079  0.7379 -0.1899
  866MPD2    N112771   0.689   3.990  11.459  0.7360  0.3804 -0.8004
  866MPD2    H712772   0.790   3.982  11.457  0.6589 -1.6638  2.1309
  867MPD2     C12773   2.080   3.805  16.583 -0.1834  0.3918 -0.7491
  867MPD2    C112774   2.156   3.751  16.690  0.8896  0.1188  0.4850
  867MPD2    C212775   2.148   3.815  16.813 -0.2206  1.0919  0.1857
  867MPD2    C312776   2.071   3.928  16.827 -0.8859 -0.1651 -0.3428
  867MPD2    C412777   1.998   3.983  16.724 -0.5316 -0.1369  0.0335
  867MPD2    C512778   2.004   3.917  16.601  0.6586  0.1056 -0.1925
  867MPD2     H12779   2.204   3.772  16.895  3.0649  1.1531 -2.0593
  867MPD2    H112780   1.938   4.073  16.738 -0.7909 -0.0314 -1.7359
  867MPD2    H212781   2.081   3.752  16.488 -0.1585  1.9259 -1.6212
  867MPD2    H312782   1.942   3.956  16.521 -0.0291  3.4925  2.0143
  867MPD2     N12783   2.069   4.000  16.952 -0.4389 -0.3480 -0.0388
  867MPD2    H512784   2.018   4.088  16.950  0.0567 -0.0138  1.9037
  867MPD2    N112785   2.224   3.625  16.678 -0.7162 -0.0397  0.4141
  867MPD2    H712786   2.235   3.587  16.584 -1.2553 -0.5319  0.5492
  868MPD2     C12787   4.277   2.474  12.874  0.6983 -0.0504  0.0805
  868MPD2    C112788   4.352   2.582  12.904 -0.4054  0.2735 -0.2801
  868MPD2    C212789   4.307   2.670  12.993 -0.5761 -0.8429 -0.0975
  868MPD2    C312790   4.180   2.659  13.038 -0.2472 -0.0911  0.3023
  868MPD2    C412791   4.103   2.554  13.015  0.0964 -0.3998  0.3180
  868MPD2    C512792   4.152   2.458  12.929  0.4366 -0.3052 -0.1399
  868MPD2     H12793   4.368   2.753  13.026  0.6150 -1.3592 -1.0106
  868MPD2    H112794   3.999   2.539  13.044 -0.4299  1.0221 -0.8435
  868MPD2    H212795   4.312   2.397  12.807 -0.8544  0.8326 -1.7436
  868MPD2    H312796   4.088   2.376  12.899  1.8831 -0.7672 -1.9340
  868MPD2     N12797   4.135   2.765  13.123  0.5992  0.1801 -0.2886
  868MPD2    H512798   4.205   2.831  13.156 -0.5040  0.1831  1.9881
  868MPD2    N112799   4.479   2.586  12.845 -0.1060  0.1862 -0.0034
  868MPD2    H712800   4.514   2.500  12.804  0.1056 -0.4315  1.4553
  869MPD2     C12801   0.230   0.390  17.617 -0.7554  0.1806 -0.1658
  869MPD2    C112802   0.170   0.444  17.729  0.7375 -0.5843 -0.2945
  869MPD2    C212803   0.245   0.511   0.090 -0.4046 -0.1705  0.0668
  869MPD2    C312804   0.376   0.540   0.071 -0.4166  0.1352  0.0192
  869MPD2    C412805   0.434   0.474  17.700 -0.1303 -0.6800 -0.0935
  869MPD2    C512806   0.359   0.404  17.609 -0.1764 -0.3973 -0.4031
  869MPD2     H12807   0.192   0.558   0.173  0.3701  2.1383 -0.7611
  869MPD2    H112808   0.542   0.471  17.685 -0.1140 -0.3331 -0.0320
  869MPD2    H212809   0.173   0.344  17.537 -1.9900 -1.6941  1.7842
  869MPD2    H312810   0.409   0.348  17.530 -0.4878 -0.1456 -0.7788
  869MPD2     N12811   0.451   0.617   0.160  0.2823  0.1129  0.2461
  869MPD2    H512812   0.547   0.636   0.134  0.0922  0.4764 -0.1882
  869MPD2    N112813   0.027   0.461  17.711  0.0597  0.2566  0.4834
  869MPD2    H712814   4.725   0.411  17.631  1.1766  0.0045  0.1281
  870MPD2     C12815   0.753   4.376   1.486 -0.1323  0.0880  0.9010
  870MPD2    C112816   0.693   4.303   1.386  0.1572  0.1554 -0.3852
  870MPD2    C212817   0.604   4.367   1.306  0.1565  0.1739  0.2973
  870MPD2    C312818   0.578   4.504   1.312  0.3118 -0.0988  0.1695
  870MPD2    C412819   0.629   4.574   1.418 -0.4781 -0.3793  0.4399
  870MPD2    C512820   0.726   4.511   1.491  0.6385 -0.0837  0.2836
  870MPD2     H12821   0.573   4.315   1.216  1.2923  1.8173 -1.0555
  870MPD2    H112822   0.607   4.680   1.431  1.2778  0.2501 -1.6548
  870MPD2    H212823   0.827   4.339   1.555  1.7807  0.1691 -1.1083
  870MPD2    H312824   0.781   4.569   1.564  1.4771  0.7882 -1.0238
  870MPD2     N12825   0.483   4.563   1.226  0.2611 -0.4791  0.0481
  870MPD2    H512826   0.443   4.503   1.154 -1.5051 -0.4678  1.0017
  870MPD2    N112827   0.734   4.162   1.375  0.0543 -0.4683  0.0726
  870MPD2    H712828   0.783   4.134   1.460 -0.2771 -0.4639  0.2655
  871MPD2     C12829   0.714   3.578  16.128 -0.6594 -0.2645 -0.4571
  871MPD2    C112830   0.800   3.587  16.241  0.2853 -0.2700  0.0741
  871MPD2    C212831   0.923   3.516  16.233  0.4289  0.1279  0.9066
  871MPD2    C312832   0.940   3.422  16.130 -0.5234 -0.3257  0.4709
  871MPD2    C412833   0.847   3.409  16.027 -0.1866 -0.5188 -0.6117
  871MPD2    C512834   0.744   3.493  16.029 -0.0309  0.6568  0.2876
  871MPD2     H12835   0.994   3.510  16.314  0.4775  1.2534  0.9497
  871MPD2    H112836   0.866   3.341  15.945 -1.6038 -0.7351 -0.7511
  871MPD2    H212837   0.630   3.646  16.120  1.5351  2.5990  0.5959
  871MPD2    H312838   0.673   3.492  15.947 -1.2458 -0.6244  1.3613
  871MPD2     N12839   1.062   3.344  16.140 -0.0666  0.3372 -0.3753
  871MPD2    H512840   1.132   3.365  16.210  0.5227 -0.8766 -0.5997
  871MPD2    N112841   0.766   3.672  16.348 -0.3682 -0.2810 -0.0857
  871MPD2    H712842   0.688   3.728  16.317 -1.5446 -1.7287  0.2989
  872MPD2     C12843   2.449   1.035  14.184  1.0812 -0.2149 -0.1290
  872MPD2    C112844   2.475   1.172  14.158 -0.4112 -0.0796  1.6309
  872MPD2    C212845   2.388   1.272  14.186  0.5310  0.2083  0.0644
  872MPD2    C312846   2.261   1.233  14.228  0.3977 -0.1382  0.6031
  872MPD2    C412847   2.232   1.102  14.259 -0.2069  0.1410  0.1033
  872MPD2    C512848   2.332   1.005  14.241 -0.3312 -0.2300  0.2306
  872MPD2     H12849   2.418   1.375  14.171  1.3476  0.0638  0.7438
  872MPD2    H112850   2.139   1.065  14.300 -0.3002  0.1049 -0.1433
  872MPD2    H212851   2.526   0.961  14.163  3.2075  1.0554  3.1627
  872MPD2    H312852   2.317   0.899  14.259  2.5054 -0.5120  0.8412
  872MPD2     N12853   2.163   1.331  14.256  0.6006  0.2938 -0.6750
  872MPD2    H512854   2.071   1.294  14.275  0.8328  0.9825  1.7664
  872MPD2    N112855   2.601   1.211  14.100 -0.8949  0.3687 -0.2314
  872MPD2    H712856   2.613   1.311  14.096 -1.8691  0.4684 -0.6288
  873MPD2     C12857   3.128   1.761   0.788 -0.4273  0.7816 -0.3152
  873MPD2    C112858   3.222   1.671   0.824 -0.6711  0.7543  0.0305
  873MPD2    C212859   3.229   1.559   0.747 -0.0343  0.1075  0.7809
  873MPD2    C312860   3.149   1.544   0.634  0.0171  0.6025 -0.3920
  873MPD2    C412861   3.050   1.633   0.602  0.1758  0.6965 -0.2562
  873MPD2    C512862   3.045   1.745   0.677  0.4831 -1.0079 -0.4825
  873MPD2     H12863   3.320   1.502   0.759 -0.2175 -0.6127 -1.2711
  873MPD2    H112864   3.001   1.629   0.505  0.0612 -0.0246 -0.1701
  873MPD2    H212865   3.110   1.845   0.854  0.9093 -0.3950  1.5652
  873MPD2    H312866   2.978   1.824   0.645  0.3659 -1.0653 -0.3763
  873MPD2     N12867   3.162   1.431   0.540 -0.1450 -0.2816  0.2923
  873MPD2    H512868   3.104   1.432   0.457  2.8822  1.5297 -1.7962
  873MPD2    N112869   3.290   1.688   0.953 -0.1575 -0.6339 -0.0225
  873MPD2    H712870   3.277   1.776   1.003 -3.8745 -0.9266 -0.4336
  874MPD2     C12871   3.004   1.866  16.051  0.4498 -0.0483 -0.0785
  874MPD2    C112872   3.077   1.768  16.117  0.3698 -0.0356  0.4645
  874MPD2    C212873   3.219   1.781  16.120  0.8310  0.0843 -0.7644
  874MPD2    C312874   3.277   1.883  16.049 -0.0916  0.1247  0.1271
  874MPD2    C412875   3.194   1.970  15.969 -0.0326 -0.4328 -0.0308
  874MPD2    C512876   3.060   1.968  15.985 -0.0372 -0.2555 -0.4718
  874MPD2     H12877   3.286   1.711  16.169 -0.9622 -0.8963  0.2865
  874MPD2    H112878   3.239   2.052  15.913 -0.2739  0.8075  1.5663
  874MPD2    H212879   2.898   1.844  16.046  0.0496  1.9685 -0.1762
  874MPD2    H312880   3.005   2.045  15.931  1.4963  0.3385 -1.1861
  874MPD2     N12881   3.419   1.884  16.053  0.1868  0.4055 -0.2111
  874MPD2    H512882   3.463   1.817  16.115 -1.1002 -0.8204 -0.6127
  874MPD2    N112883   3.011   1.669  16.183 -0.0245 -0.1691  0.2111
  874MPD2    H712884   2.910   1.678  16.169  0.3271  2.2175 -0.7089
  875MPD2     C12885   0.350   4.531  14.475  0.1127 -0.2461  0.3137
  875MPD2    C112886   0.227   4.515  14.545  0.0742 -0.1494 -0.0064
  875MPD2    C212887   0.225   4.534  14.685 -0.1137 -0.5342  0.6074
  875MPD2    C312888   0.341   4.566  14.755 -0.8244  0.3142 -0.1779
  875MPD2    C412889   0.464   4.576  14.686  0.3779  0.1211 -0.5430
  875MPD2    C512890   0.460   4.553  14.552 -0.7328  0.6536 -0.2569
  875MPD2     H12891   0.128   4.515  14.729 -0.3600  0.5571  0.5376
  875MPD2    H112892   0.556   4.614  14.728  0.7890 -0.0292 -1.3044
  875MPD2    H212893   0.358   4.529  14.367  2.0150  2.2655  0.4016
  875MPD2    H312894   0.548   4.577  14.493 -0.4328 -0.5705 -0.2922
  875MPD2     N12895   0.353   4.586  14.896 -0.3034  0.2915  0.4440
  875MPD2    H512896   0.442   4.617  14.935 -0.2957 -0.1697  0.7932
  875MPD2    N112897   0.108   4.486  14.471  0.5239  0.2839  0.0630
  875MPD2    H712898   0.015   4.508  14.504  0.6537  0.8120  0.0756
  876MPD2     C12899   3.587   1.118  16.100  0.2543  0.2885  1.0038
  876MPD2    C112900   3.674   1.050  16.012  0.2023  0.3463 -0.3085
  876MPD2    C212901   3.691   0.912  16.016  0.3235  0.5020 -1.0567
  876MPD2    C312902   3.622   0.841  16.110  0.7645  0.4110 -0.3059
  876MPD2    C412903   3.533   0.902  16.195 -0.3217  0.1939  0.2847
  876MPD2    C512904   3.514   1.042  16.181 -0.5236  0.6674 -0.5950
  876MPD2     H12905   3.751   0.860  15.942  0.5393 -0.0079 -0.5296
  876MPD2    H112906   3.473   0.853  16.271 -0.6584 -1.4878 -1.0747
  876MPD2    H212907   3.572   1.225  16.095  0.2781  0.3531  2.2201
  876MPD2    H312908   3.439   1.091  16.241  0.5347 -2.1014  2.9659
  876MPD2     N12909   3.654   0.702  16.105  0.1811 -0.1083 -0.5884
  876MPD2    H512910   3.709   0.671  16.025  0.0993 -0.2740 -0.5812
  876MPD2    N112911   3.745   1.132  15.921 -0.6153  0.0663  0.5459
  876MPD2    H712912   3.707   1.224  15.905  3.0021  1.7558  1.7800
  877MPD2     C12913   3.610   1.511  15.245 -0.1404 -0.4604  0.3235
  877MPD2    C112914   3.745   1.469  15.251 -0.0171  0.4376 -0.4403
  877MPD2    C212915   3.831   1.471  15.142 -0.0324  0.1080 -0.8201
  877MPD2    C312916   3.775   1.511  15.021 -1.0221  0.2960  0.2011
  877MPD2    C412917   3.647   1.557  15.019  0.2721  0.4741 -0.3240
  877MPD2    C512918   3.563   1.564  15.127 -0.3759  0.4104  0.0531
  877MPD2     H12919   3.931   1.431  15.159  0.3372  0.4842 -2.0413
  877MPD2    H112920   3.610   1.601  14.927 -0.1555  2.4334  0.7688
  877MPD2    H212921   3.540   1.514  15.327 -0.0111  3.4163  0.2954
  877MPD2    H312922   3.465   1.609  15.112  0.1882  1.9439  1.0282
  877MPD2     N12923   3.838   1.524  14.899  0.1065 -0.5733 -0.1092
  877MPD2    H512924   3.786   1.542  14.814 -1.1995 -0.5059  0.7129
  877MPD2    N112925   3.798   1.406  15.366  0.2440 -0.0116  0.0521
  877MPD2    H712926   3.894   1.376  15.372 -0.0214 -0.7103  0.8894
  878MPD2     C12927   3.148   0.584  12.999  0.1058 -0.4609 -0.9760
  878MPD2    C112928   3.274   0.607  12.965 -0.2794  1.0936  0.5496
  878MPD2    C212929   3.362   0.659  13.057  0.3564  0.1987  0.5784
  878MPD2    C312930   3.322   0.677  13.192 -0.1985  0.2459 -0.3579
  878MPD2    C412931   3.197   0.624  13.231  0.3265  0.0178  0.0920
  878MPD2    C512932   3.114   0.587  13.133 -1.2476  0.0842  0.1010
  878MPD2     H12933   3.462   0.694  13.035 -0.2514  0.2368 -2.1183
  878MPD2    H112934   3.146   0.630  13.327  0.5707 -1.4442  0.3046
  878MPD2    H212935   3.075   0.542  12.930  1.2324 -0.7048 -2.0095
  878MPD2    H312936   3.017   0.549  13.164 -1.1394  0.4081  0.8461
  878MPD2     N12937   3.412   0.734  13.288  0.1229 -0.4328 -0.2500
  878MPD2    H512938   3.498   0.778  13.257 -0.1547 -0.9287 -1.7357
  878MPD2    N112939   3.295   0.598  12.830  0.1948  0.0142  0.0720
  878MPD2    H712940   3.211   0.590  12.774  0.0800  2.0213 -0.0642
  879MPD2     C12941   3.525   1.334  17.332  0.0518  0.0249 -0.2878
  879MPD2    C112942   3.506   1.477  17.324  0.3251  0.2987 -0.0202
  879MPD2    C212943   3.423   1.524  17.221 -0.1233 -0.5323 -0.1738
  879MPD2    C312944   3.373   1.437  17.120  0.5798  0.5830 -0.1227
  879MPD2    C412945   3.388   1.302  17.136 -0.2486  0.0146  0.1582
  879MPD2    C512946   3.463   1.255  17.236 -0.0317  0.5109 -0.1728
  879MPD2     H12947   3.400   1.629  17.225 -2.2069 -1.0460  1.1820
  879MPD2    H112948   3.347   1.234  17.061  0.0912 -0.1313  0.1035
  879MPD2    H212949   3.589   1.282  17.402 -2.2421 -2.6701 -0.2092
  879MPD2    H312950   3.476   1.147  17.233 -1.3724  0.2275  3.9173
  879MPD2     N12951   3.307   1.486  17.006 -0.2432  0.2365 -0.4173
  879MPD2    H512952   3.270   1.416  16.944  1.3044 -0.4293 -0.5718
  879MPD2    N112953   3.579   1.558  17.417 -0.6100  0.2159  0.3729
  879MPD2    H712954   3.640   1.511  17.483 -0.4389 -0.9901 -0.6625
  880MPD2     C12955   0.024   3.868  17.581  0.2592  0.2399 -0.3820
  880MPD2    C112956   0.060   3.937  17.696  0.8356  0.1087  0.2058
  880MPD2    C212957   0.096   3.856   0.072 -0.1633  0.1845 -0.3662
  880MPD2    C312958   0.120   3.715   0.060  0.3957  0.1243  0.0990
  880MPD2    C412959   0.109   3.661  17.672 -0.5450 -0.1651  0.2081
  880MPD2    C512960   0.060   3.733  17.565 -0.2380  0.1570  0.7807
  880MPD2     H12961   0.116   3.898   0.170 -2.0211  0.3279 -0.0542
  880MPD2    H112962   0.138   3.557  17.658  0.5724  0.1313  0.2800
  880MPD2    H212963   4.722   3.915  17.491 -2.1045 -0.6419  0.1311
  880MPD2    H312964   0.034   3.687  17.470  1.7289  0.7904 -0.0620
  880MPD2     N12965   0.182   3.646   0.166  0.4698 -0.8802 -0.1459
  880MPD2    H512966   0.231   3.705   0.232 -0.8240 -0.6394  0.6004
  880MPD2    N112967   0.055   4.075  17.706  0.0399  0.0004  0.2287
  880MPD2    H712968   0.010   4.129  17.633  2.9065  1.8534 -0.1548
  881MPD2     C12969   0.330   0.178  17.227  0.7265  0.0943 -0.4037
  881MPD2    C112970   0.382   0.052  17.225 -0.7378  0.2278 -0.1430
  881MPD2    C212971   0.338   4.691  17.318  0.7785  0.0027 -0.2715
  881MPD2    C312972   0.247   4.724  17.412 -0.2214  0.3588 -0.0864
  881MPD2    C412973   0.200   0.117  17.414 -0.0043  0.2799 -0.6170
  881MPD2    C512974   0.237   0.214  17.322  0.5886  0.5327  0.3040
  881MPD2     H12975   0.382   4.592  17.327  1.1392  0.1038 -0.8924
  881MPD2    H112976   0.139   0.146  17.499  0.6854  1.6884 -0.5939
  881MPD2    H212977   0.338   0.255  17.151 -1.1226  1.7593  1.0706
  881MPD2    H312978   0.179   0.306  17.318 -1.3093 -0.6065  1.4652
  881MPD2     N12979   0.211   4.639  17.515 -0.3953  0.1214 -0.1679
  881MPD2    H512980   0.142   4.675  17.580 -1.1600 -0.0068 -0.9047
  881MPD2    N112981   0.448   0.019  17.103 -0.5332 -0.0483 -0.6092
  881MPD2    H712982   0.459   0.093  17.034 -0.3196 -1.1898 -1.8153
  882MPD2     C12983   3.750   1.248  14.241  0.5851  0.1454  0.6809
  882MPD2    C112984   3.727   1.343  14.341 -0.4578  0.6861  0.3044
  882MPD2    C212985   3.607   1.339  14.402  0.2731 -0.0976 -0.0764
  882MPD2    C312986   3.515   1.243  14.366 -0.0157 -0.5541  0.9693
  882MPD2    C412987   3.543   1.143  14.268 -0.2412 -0.0130  0.0592
  882MPD2    C512988   3.658   1.158  14.197 -0.7339  0.1610 -0.5469
  882MPD2     H12989   3.574   1.419  14.467 -0.8385 -0.4669 -0.1765
  882MPD2    H112990   3.468   1.068  14.247 -0.9953  0.4533  1.0950
  882MPD2    H212991   3.838   1.255  14.178  0.3142 -2.1060  0.0440
  882MPD2    H312992   3.668   1.100  14.106 -0.6435 -1.0872  0.2634
  882MPD2     N12993   3.389   1.236  14.420  0.0299 -0.1167 -0.3196
  882MPD2    H512994   3.323   1.183  14.364  0.3199  0.0944 -0.8534
  882MPD2    N112995   3.825   1.439  14.385 -0.5708  0.2004 -0.5847
  882MPD2    H712996   3.918   1.429  14.345 -0.3804  0.4541 -0.1964
  883MPD2     C12997   1.081   1.500  16.704 -0.5077 -0.1377  0.5584
  883MPD2    C112998   1.172   1.531  16.596 -0.0381  0.0169  0.3976
  883MPD2    C212999   1.281   1.450  16.575  0.6991  0.3922  0.3427
  883MPD2    C313000   1.309   1.342  16.663 -0.4240 -0.4531  0.7947
  883MPD2    C413001   1.210   1.303  16.750 -0.0103 -0.0679 -0.1268
  883MPD2    C513002   1.101   1.381  16.775  0.3462  0.2114 -0.0471
  883MPD2     H13003   1.363   1.489  16.514  0.3307  0.8220  0.1221
  883MPD2    H113004   1.222   1.210  16.804 -0.3071 -0.3050 -0.4686
  883MPD2    H213005   0.998   1.566  16.726  0.6997  1.0866  1.3889
  883MPD2    H313006   1.019   1.345  16.837  0.9463 -0.1094  0.5598
  883MPD2     N13007   1.445   1.293  16.661 -0.4418  0.2574 -0.6314
  883MPD2    H513008   1.516   1.331  16.599 -0.2782  0.3087 -0.4156
  883MPD2    N113009   1.167   1.647  16.519 -0.1569  0.0033 -0.4988
  883MPD2    H713010   1.221   1.643  16.433  1.8031  0.0912  0.7121
  884MPD2     C13011   2.611   2.084  15.372 -0.2203  0.0413 -0.1463
  884MPD2    C113012   2.611   2.188  15.275 -0.0032  0.9268 -0.4242
  884MPD2    C213013   2.515   2.287  15.277 -0.2525 -0.2642 -0.2970
  884MPD2    C313014   2.404   2.271  15.360  1.0247  0.9169 -0.2235
  884MPD2    C413015   2.405   2.171  15.449  0.4648  0.1782  0.4637
  884MPD2    C513016   2.509   2.080  15.463  0.2259  0.5450 -0.5034
  884MPD2     H13017   2.511   2.360  15.197 -1.6832 -0.0340 -0.0083
  884MPD2    H113018   2.320   2.166  15.516 -0.7006  0.4168 -1.0068
  884MPD2    H213019   2.683   2.003  15.371  0.4826  0.6648 -0.0177
  884MPD2    H313020   2.513   1.997  15.532  0.9063  1.8310  1.0183
  884MPD2     N13021   2.306   2.373  15.344 -0.5386 -0.1557 -0.0162
  884MPD2    H513022   2.325   2.446  15.276  1.7001 -0.4589  0.2770
  884MPD2    N113023   2.717   2.212  15.180  0.1653  0.1548  0.6531
  884MPD2    H713024   2.720   2.306  15.140 -1.9675 -0.3493 -0.6833
  885MPD2     C13025   0.633   2.748   0.280 -0.3493 -0.4614  0.6600
  885MPD2    C113026   0.727   2.650   0.250  0.3618 -0.6391 -0.2385
  885MPD2    C213027   0.759   2.631   0.114  0.2403 -0.1282 -0.8608
  885MPD2    C313028   0.706   2.705   0.009 -0.4352  0.2262 -0.0813
  885MPD2    C413029   0.610   2.800   0.044  0.1778 -0.7043  0.2196
  885MPD2    C513030   0.581   2.825   0.176 -0.3632 -0.1915 -0.1917
  885MPD2     H13031   0.838   2.558   0.101 -0.1080 -0.8649  1.1788
  885MPD2    H113032   0.557   2.862  17.709 -3.3942 -1.2384  2.3792
  885MPD2    H213033   0.601   2.775   0.380  1.5015 -1.4035  1.5088
  885MPD2    H313034   0.499   2.894   0.195  1.5515  1.5481  1.8536
  885MPD2     N13035   0.747   2.686  17.613  0.4352 -0.0114 -0.5745
  885MPD2    H513036   0.810   2.608  17.596  1.4916  0.7538 -0.2123
  885MPD2    N113037   0.776   2.580   0.363 -0.7204 -0.9668  0.3424
  885MPD2    H713038   0.723   2.597   0.448 -0.0784 -0.1611  0.5857
  886MPD2     C13039   2.179   1.067  15.625 -0.1615 -0.4732 -0.0940
  886MPD2    C113040   2.312   1.070  15.646 -0.6521 -0.5454  0.2522
  886MPD2    C213041   2.394   1.160  15.577 -0.3957  0.4024 -0.3817
  886MPD2    C313042   2.335   1.244  15.485 -0.2824  0.5081 -0.2037
  886MPD2    C413043   2.197   1.253  15.481  0.5528  0.4001 -0.2282
  886MPD2    C513044   2.121   1.167  15.552  0.0988  1.2829  1.3709
  886MPD2     H13045   2.500   1.140  15.593 -0.7856 -0.8454  0.6527
  886MPD2    H113046   2.147   1.324  15.416  0.4213  0.6145  0.1116
  886MPD2    H213047   2.116   1.006  15.688  0.1999  1.3420  2.0167
  886MPD2    H313048   2.013   1.175  15.548  0.1495  0.0290 -1.9679
  886MPD2     N13049   2.401   1.316  15.394  0.9561 -0.2865  0.5541
  886MPD2    H513050   2.341   1.346  15.318 -0.4752 -1.2522  1.3196
  886MPD2    N113051   2.378   0.977  15.725  0.3520  0.1283  0.0732
  886MPD2    H713052   2.479   0.971  15.717  0.2386  0.9414 -2.1918
  887MPD2     C13053   2.934   0.969  16.221 -0.2096 -0.2647 -0.6029
  887MPD2    C113054   2.883   1.012  16.103 -0.0729  0.0366  0.2483
  887MPD2    C213055   2.942   1.119  16.039 -0.4605  0.0509  0.0202
  887MPD2    C313056   3.057   1.174  16.092  0.9533 -0.0940 -0.0844
  887MPD2    C413057   3.112   1.122  16.209  0.1830  0.3816 -0.1019
  887MPD2    C513058   3.052   1.016  16.272 -0.1819  0.3331  0.1340
  887MPD2     H13059   2.894   1.163  15.952  0.5043 -0.6160 -0.8427
  887MPD2    H113060   3.206   1.153  16.253 -0.4172  0.7488  0.9219
  887MPD2    H213061   2.886   0.896  16.286 -1.9300 -0.1600 -1.7629
  887MPD2    H313062   3.091   0.967  16.361 -0.9480  1.8425  1.3167
  887MPD2     N13063   3.117   1.277  16.020  0.4639  0.4175  0.0120
  887MPD2    H513064   3.077   1.303  15.930 -0.3644 -0.3087  0.1674
  887MPD2    N113065   2.772   0.941  16.044 -0.6959  0.1145 -0.3166
  887MPD2    H713066   2.737   0.976  15.955  0.5062  2.2353  0.0473
  888MPD2     C13067   4.641   0.815  14.613  0.1153 -0.5229  0.1397
  888MPD2    C113068   4.639   0.864  14.747  0.4876 -0.3738 -0.5673
  888MPD2    C213069   4.698   0.987  14.786 -0.0235 -0.3635 -0.3821
  888MPD2    C313070   0.026   1.068  14.690 -0.2079 -0.0391  0.1400
  888MPD2    C413071   0.043   1.013  14.563  0.6628 -0.8540 -0.0398
  888MPD2    C513072   4.729   0.883  14.533 -0.6635  0.3947 -0.4917
  888MPD2     H13073   4.697   1.019  14.890  0.8708 -1.9425  0.1121
  888MPD2    H113074   0.092   1.066  14.482 -0.8349  1.7453  0.7777
  888MPD2    H213075   4.618   0.715  14.581  1.6571 -1.0296  0.6161
  888MPD2    H313076   0.004   0.844  14.432  0.3491 -1.1294  0.1963
  888MPD2     N13077   0.083   1.191  14.725  0.3161  0.0204 -0.3631
  888MPD2    H513078   0.062   1.220  14.820  1.2615 -2.0120  0.4653
  888MPD2    N113079   4.550   0.806  14.840 -0.2181 -0.0107 -0.3615
  888MPD2    H713080   4.570   0.827  14.938 -2.6685  2.3232 -0.3624
  889MPD2     C13081   4.310   0.660  12.769 -0.7129  0.4348  0.5917
  889MPD2    C113082   4.258   0.602  12.878  0.0728  0.1433  0.0166
  889MPD2    C213083   4.155   0.668  12.934  0.1027  0.0159  0.6933
  889MPD2    C313084   4.138   0.810  12.917 -0.0540 -0.1230 -1.0875
  889MPD2    C413085   4.211   0.872  12.819  0.0453 -0.0861  1.2171
  889MPD2    C513086   4.295   0.797  12.745 -0.3829  0.1403 -0.0176
  889MPD2     H13087   4.111   0.631  13.026 -1.9777  1.4158  0.2827
  889MPD2    H113088   4.176   0.971  12.792 -1.8541 -1.1122 -0.1325
  889MPD2    H213089   4.386   0.606  12.714 -0.5183  0.1364  1.1629
  889MPD2    H313090   4.344   0.845  12.661  2.1810 -1.6342  0.4435
  889MPD2     N13091   4.037   0.877  12.989  0.8071  0.2146 -0.1720
  889MPD2    H513092   3.979   0.819  13.049  0.0896  2.9456  1.7622
  889MPD2    N113093   4.280   0.466  12.908 -0.4965 -0.2959 -0.3949
  889MPD2    H713094   4.218   0.423  12.975  1.2376 -2.2210 -0.0288
  890MPD2     C13095   3.721   2.130  14.538 -0.3973  0.0724  0.0770
  890MPD2    C113096   3.861   2.132  14.544  0.1116  0.5571  0.2877
  890MPD2    C213097   3.918   2.051  14.642  0.2685  0.1219 -0.4366
  890MPD2    C313098   3.844   1.985  14.737  0.5425  0.0544  0.1126
  890MPD2    C413099   3.710   1.988  14.736  0.3840  0.5661  0.2855
  890MPD2    C513100   3.647   2.053  14.633 -0.3873 -0.3247  0.7320
  890MPD2     H13101   4.025   2.036  14.642  0.3149  0.4597  0.1114
  890MPD2    H113102   3.651   1.947  14.817  0.5431 -0.8916 -0.3455
  890MPD2    H213103   3.671   2.194  14.466 -0.6186  0.0020  0.1684
  890MPD2    H313104   3.538   2.058  14.636 -0.5996 -3.7677 -0.8149
  890MPD2     N13105   3.919   1.924  14.842  0.7414 -0.4833 -0.2618
  890MPD2    H513106   4.020   1.927  14.837  0.9053 -3.2000  1.3192
  890MPD2    N113107   3.939   2.222  14.466  0.0699 -0.1478  0.3651
  890MPD2    H713108   3.891   2.297  14.416 -0.1840 -1.1276 -0.8553
  891MPD2     C13109   1.546   0.459  16.678 -0.4148 -0.2539  0.2291
  891MPD2    C113110   1.559   0.591  16.705 -0.1034  0.6419 -1.1597
  891MPD2    C213111   1.653   0.624  16.795 -0.0164  0.3570  0.6127
  891MPD2    C313112   1.740   0.534  16.859  0.1138  0.4340  0.2585
  891MPD2    C413113   1.730   0.404  16.831  0.9054  0.6007  0.1433
  891MPD2    C513114   1.626   0.367  16.746 -0.6385 -0.0315  0.3813
  891MPD2     H13115   1.663   0.728  16.823 -2.0012  0.9876 -1.0948
  891MPD2    H113116   1.795   0.326  16.868  1.3180  0.7436 -0.2655
  891MPD2    H213117   1.463   0.430  16.614 -1.5948 -0.5730  1.9202
  891MPD2    H313118   1.615   0.260  16.730  0.1839 -0.1469  0.5961
  891MPD2     N13119   1.836   0.588  16.945  0.4570 -0.0761 -0.7655
  891MPD2    H513120   1.841   0.688  16.964 -3.6430 -0.1133  0.4036
  891MPD2    N113121   1.467   0.691  16.659  0.1528  0.1310  0.0477
  891MPD2    H713122   1.397   0.662  16.592 -0.5090  4.4171 -1.1611
  892MPD2     C13123   3.071   1.546  15.299 -0.2780 -0.2517  0.3377
  892MPD2    C113124   2.964   1.573  15.221  0.3939 -0.5675  0.3045
  892MPD2    C213125   2.967   1.530  15.089 -0.0981  0.3433 -0.6330
  892MPD2    C313126   3.078   1.473  15.038 -0.5561  0.2117  1.2483
  892MPD2    C413127   3.193   1.475  15.113  0.0120 -0.1598 -0.0982
  892MPD2    C513128   3.193   1.514  15.243  0.0935  0.8350 -0.8153
  892MPD2     H13129   2.881   1.539  15.024 -1.1050 -1.4997  0.4390
  892MPD2    H113130   3.290   1.442  15.078 -0.6090 -0.4655 -1.4962
  892MPD2    H213131   3.064   1.568  15.405  0.8047  0.2547  0.3096
  892MPD2    H313132   3.284   1.521  15.301 -1.3256  2.1997  1.2569
  892MPD2     N13133   3.087   1.415  14.912 -0.1650 -0.1242 -0.4026
  892MPD2    H513134   3.172   1.361  14.902  1.6019  2.5223  0.3757
  892MPD2    N113135   2.837   1.621  15.273  0.3573  0.2332  0.2358
  892MPD2    H713136   2.770   1.658  15.206 -1.0087 -0.0228  1.4604
  893MPD2     C13137   3.793   0.545   1.411 -0.2475  0.2309  0.7168
  893MPD2    C113138   3.811   0.553   1.276  0.6796  0.7447  0.1467
  893MPD2    C213139   3.704   0.590   1.193 -0.0896  0.9065 -0.1655
  893MPD2    C313140   3.586   0.624   1.246 -0.0596 -0.1761 -0.1701
  893MPD2    C413141   3.570   0.608   1.389 -0.0135 -0.0393 -0.0930
  893MPD2    C513142   3.675   0.575   1.471  0.6219 -0.1433  0.3343
  893MPD2     H13143   3.722   0.608   1.088 -1.4139 -1.9556 -0.8785
  893MPD2    H113144   3.480   0.636   1.442  1.0903  0.6593  1.4121
  893MPD2    H213145   3.881   0.524   1.471  0.6189  3.5675  0.6504
  893MPD2    H313146   3.659   0.577   1.578  0.3665  0.3940  0.2834
  893MPD2     N13147   3.482   0.682   1.173 -0.2731  0.2273  0.3289
  893MPD2    H513148   3.401   0.710   1.227 -0.3193 -0.1987  0.4805
  893MPD2    N113149   3.933   0.503   1.230 -0.0041 -0.2369  0.4842
  893MPD2    H713150   3.983   0.439   1.291  1.1359  1.0390  0.8876
  894MPD2     C13151   2.167   2.715   0.827  0.7031 -0.1202 -0.4359
  894MPD2    C113152   2.143   2.763   0.950 -0.1514  0.1021 -0.2026
  894MPD2    C213153   2.139   2.900   0.959 -0.1563 -0.9697  0.5908
  894MPD2    C313154   2.162   2.977   0.849  0.9294 -0.1939 -0.1031
  894MPD2    C413155   2.193   2.926   0.724 -0.9023 -0.6443 -0.2964
  894MPD2    C513156   2.200   2.791   0.718 -0.7447  0.8308 -0.0545
  894MPD2     H13157   2.097   2.938   1.051  1.3536 -2.1358  1.7657
  894MPD2    H113158   2.211   2.980   0.631  1.5196 -0.8511  0.0519
  894MPD2    H213159   2.149   2.613   0.795  0.7514 -0.5538  0.9069
  894MPD2    H313160   2.202   2.742   0.621  1.2536  0.8978 -0.0621
  894MPD2     N13161   2.142   3.112   0.868  0.1671  0.7922  0.2639
  894MPD2    H513162   2.110   3.151   0.956  2.3580  0.1825  1.3388
  894MPD2    N113163   2.108   2.689   1.056 -0.7325  0.3723  0.3555
  894MPD2    H713164   2.075   2.738   1.139  3.2639  3.4922  0.1121
  895MPD2     C13165   2.068   0.825  13.884 -0.1626 -0.8626  0.4407
  895MPD2    C113166   1.999   0.708  13.848  0.3021  0.0304  0.6052
  895MPD2    C213167   2.053   0.582  13.884  0.1301 -0.1585  0.1212
  895MPD2    C313168   2.188   0.580  13.910  0.6579 -0.6120 -0.2467
  895MPD2    C413169   2.255   0.694  13.931  0.5436 -0.0719  0.4817
  895MPD2    C513170   2.193   0.818  13.920 -0.0228 -0.4028 -0.3138
  895MPD2     H13171   2.003   0.493  13.850 -1.1243  1.4114 -2.1561
  895MPD2    H113172   2.359   0.696  13.962  0.7720 -0.7199 -0.2434
  895MPD2    H213173   2.016   0.920  13.890 -1.1762 -1.3661 -0.3239
  895MPD2    H313174   2.252   0.905  13.945  0.5248 -0.9211  0.1651
  895MPD2     N13175   2.264   0.461  13.918  0.3378  0.2031  0.4175
  895MPD2    H513176   2.364   0.475  13.926  0.5728 -0.0866 -1.9170
  895MPD2    N113177   1.866   0.707  13.795  1.0090 -0.5326  0.1566
  895MPD2    H713178   1.812   0.621  13.790 -0.8187  0.5568  1.3732
  896MPD2     C13179   4.338   3.719   1.214  0.3589  0.0961  0.7230
  896MPD2    C113180   4.288   3.639   1.111  0.0626 -0.0707  0.4641
  896MPD2    C213181   4.160   3.663   1.073 -0.6708 -0.1934  0.8226
  896MPD2    C313182   4.084   3.767   1.131 -0.5662  0.0008 -0.3210
  896MPD2    C413183   4.146   3.857   1.210  0.4795 -0.3089 -0.0526
  896MPD2    C513184   4.266   3.822   1.262  0.5101 -0.9160  0.2111
  896MPD2     H13185   4.110   3.595   1.005 -0.5808 -1.3129  1.8594
  896MPD2    H113186   4.091   3.934   1.262  0.0876 -0.2967 -0.4780
  896MPD2    H213187   4.430   3.684   1.259  0.8433  0.0194 -0.3181
  896MPD2    H313188   4.297   3.876   1.351 -0.2261  1.8022 -1.1622
  896MPD2     N13189   3.949   3.777   1.092  0.1089  0.9059  0.0793
  896MPD2    H513190   3.913   3.686   1.063 -1.0073  2.3451 -2.9645
  896MPD2    N113191   4.377   3.550   1.046 -0.1907  0.6990 -0.4390
  896MPD2    H713192   4.477   3.549   1.063 -0.4851 -2.9842  1.1028
  897MPD2     C13193   0.808   0.630  10.928  0.0004 -0.2486  0.6185
  897MPD2    C113194   0.732   0.588  10.824 -0.3818  1.0080 -0.0807
  897MPD2    C213195   0.608   0.540  10.855 -0.3417 -0.3203  0.2900
  897MPD2    C313196   0.573   0.509  10.983 -0.2870 -0.9240 -0.0645
  897MPD2    C413197   0.646   0.550  11.089 -0.7428  0.7886  0.3249
  897MPD2    C513198   0.767   0.605  11.052  0.0299 -0.6980 -0.3086
  897MPD2     H13199   0.544   0.502  10.776 -1.5506  1.3855  0.4484
  897MPD2    H113200   0.616   0.559  11.193 -0.0188  0.3862  0.5626
  897MPD2    H213201   0.904   0.677  10.909  0.1393 -0.9436 -0.4326
  897MPD2    H313202   0.822   0.655  11.131 -3.4253  0.6255  1.2432
  897MPD2     N13203   0.433   0.473  10.999 -0.0756 -0.1173  0.4041
  897MPD2    H513204   0.381   0.471  10.912 -1.2040 -0.4403  1.0878
  897MPD2    N113205   0.770   0.631  10.695 -0.3058 -0.1113 -0.2629
  897MPD2    H713206   0.844   0.698  10.678 -1.4076  0.7335 -1.7911
  898MPD2     C13207   1.531   1.320   0.172  0.1493  0.1515  0.3552
  898MPD2    C113208   1.662   1.288   0.207 -0.6728 -0.3133 -0.5617
  898MPD2    C213209   1.757   1.383   0.186 -0.5193 -0.7298 -0.4164
  898MPD2    C313210   1.726   1.502   0.113 -0.4339  0.8080 -0.5155
  898MPD2    C413211   1.594   1.530   0.079  0.0381 -0.4768  1.1885
  898MPD2    C513212   1.496   1.444   0.112 -0.7059  0.4760  0.9749
  898MPD2     H13213   1.856   1.376   0.229 -1.2700 -1.9597  1.0935
  898MPD2    H113214   1.568   1.617   0.019 -0.9755 -2.4756 -1.2526
  898MPD2    H213215   1.455   1.243   0.176 -0.4173  0.6213 -1.1883
  898MPD2    H313216   1.400   1.467   0.067  0.1211  1.4415 -0.3070
  898MPD2     N13217   1.835   1.592   0.090 -0.0056  0.2009 -0.4295
  898MPD2    H513218   1.925   1.555   0.119 -0.7782 -1.2818  0.1199
  898MPD2    N113219   1.703   1.178   0.281  0.0731  0.1848  0.5557
  898MPD2    H713220   1.803   1.160   0.288  0.1298 -0.4761 -1.7610
  899MPD2     C13221   3.050   2.053  17.522 -0.2951 -0.1393 -0.6767
  899MPD2    C113222   2.944   2.126  17.471 -0.0304  1.2828 -0.0019
  899MPD2    C213223   2.829   2.163  17.545 -0.0777  0.3432 -0.2318
  899MPD2    C313224   2.822   2.114  17.673  0.2318 -0.2665  0.4175
  899MPD2    C413225   2.931   2.047  17.729 -0.3283  0.1579 -0.3119
  899MPD2    C513226   3.045   2.021  17.654 -0.3543 -0.2806 -0.2587
  899MPD2     H13227   2.750   2.220  17.498  0.4584  1.5185  0.2965
  899MPD2    H113228   2.920   2.016   0.095  0.1035 -0.9273 -0.5968
  899MPD2    H213229   3.148   2.035  17.480  0.0001  1.0038 -0.4948
  899MPD2    H313230   3.129   1.970  17.698  0.0698 -0.4694 -1.2831
  899MPD2     N13231   2.714   2.137   0.026 -0.0670 -0.0789  0.4778
  899MPD2    H513232   2.725   2.093   0.117 -1.0810  1.1297  1.1825
  899MPD2    N113233   2.961   2.182  17.339 -0.2105 -0.5206  0.8323
  899MPD2    H713234   2.893   2.245  17.298  0.9746 -1.0022 -1.9337
  900MPD2     C13235   2.970   3.278  12.424  0.1819  0.1430 -0.2967
  900MPD2    C113236   2.866   3.198  12.473 -0.0162  0.5419  0.2902
  900MPD2    C213237   2.739   3.226  12.443  0.3701  0.3903  0.7003
  900MPD2    C313238   2.710   3.346  12.379 -0.7771 -0.4871  0.1298
  900MPD2    C413239   2.813   3.424  12.330 -0.9690 -0.4656  0.1411
  900MPD2    C513240   2.946   3.383  12.344  0.4367  0.2362 -0.3867
  900MPD2     H13241   2.659   3.170  12.489  0.1642  0.0240 -0.1095
  900MPD2    H113242   2.797   3.518  12.279  1.9190 -0.0823 -0.0898
  900MPD2    H213243   3.073   3.254  12.447  0.0052 -1.6326 -1.4252
  900MPD2    H313244   3.030   3.448  12.323  0.0098  1.0111  0.2559
  900MPD2     N13245   2.571   3.368  12.360 -0.2588 -0.4919 -0.0688
  900MPD2    H513246   2.510   3.303  12.410  1.2969 -2.0922 -0.2528
  900MPD2    N113247   2.916   3.095  12.556 -0.0403  0.4224 -0.4282
  900MPD2    H713248   3.017   3.096  12.570 -0.0949 -0.6810  0.0044
  901MPD2     C13249   2.930   2.051  12.595 -0.3680 -0.3753 -0.2290
  901MPD2    C113250   3.047   2.102  12.630 -0.2023 -0.2240 -0.6021
  901MPD2    C213251   3.060   2.226  12.669 -0.0210 -0.1210  0.0884
  901MPD2    C313252   2.957   2.317  12.680  0.4135 -0.7947  0.0388
  901MPD2    C413253   2.832   2.270  12.651 -0.0102 -0.4530 -0.3566
  901MPD2    C513254   2.823   2.139  12.617 -1.2020 -0.1665 -0.6610
  901MPD2     H13255   3.153   2.248  12.720 -0.6392  2.7699  0.0128
  901MPD2    H113256   2.741   2.328  12.645 -0.0104 -0.5330 -1.0606
  901MPD2    H213257   2.919   1.956  12.544 -0.0403  0.3375 -1.6267
  901MPD2    H313258   2.725   2.107  12.587 -0.9206 -1.4319 -0.2228
  901MPD2     N13259   2.986   2.448  12.711  0.8881  0.2784 -0.3789
  901MPD2    H513260   3.080   2.486  12.718 -0.0509  2.9354 -1.8586
  901MPD2    N113261   3.158   2.009  12.613 -0.4977  0.9180 -0.4028
  901MPD2    H713262   3.137   1.911  12.597 -0.4624  1.1077 -1.5975
  902MPD2     C13263   2.145   0.835  12.463 -0.4595 -0.4736  0.4967
  902MPD2    C113264   2.131   0.967  12.507  0.3877 -0.0935  0.0230
  902MPD2    C213265   2.251   1.039  12.500 -0.0604  0.2291 -0.4258
  902MPD2    C313266   2.367   0.994  12.435  0.5477  0.1647 -0.1644
  902MPD2    C413267   2.377   0.867  12.384 -0.4495 -0.2556  1.2246
  902MPD2    C513268   2.268   0.789  12.411  0.4211 -0.1436  0.0627
  902MPD2     H13269   2.259   1.139  12.543  1.8454  0.7402 -2.0082
  902MPD2    H113270   2.471   0.825  12.350  0.2222  1.7943  0.5263
  902MPD2    H213271   2.068   0.758  12.463 -0.5373 -0.4044 -0.7101
  902MPD2    H313272   2.276   0.688  12.373  1.1663 -0.6158  1.4901
  902MPD2     N13273   2.481   1.074  12.417  0.4318 -0.0176 -0.0888
  902MPD2    H513274   2.547   1.045  12.346  0.5190  1.2412 -0.5224
  902MPD2    N113275   2.015   1.013  12.574 -0.3309  0.1315 -0.0560
  902MPD2    H713276   1.941   0.947  12.591  0.8636 -1.1633  0.1130
  903MPD2     C13277   2.539   1.178  11.674 -1.1233  0.1710 -0.6738
  903MPD2    C113278   2.508   1.140  11.805 -0.0382 -0.0502  0.3106
  903MPD2    C213279   2.428   1.028  11.833 -0.3731 -0.0571 -0.0594
  903MPD2    C313280   2.361   0.968  11.732 -0.2122 -0.4819  0.2352
  903MPD2    C413281   2.389   1.009  11.597 -0.0205  0.1453 -0.7000
  903MPD2    C513282   2.473   1.117  11.569  0.1745 -0.2378  0.6456
  903MPD2     H13283   2.417   0.993  11.935 -0.6250  1.2130  0.3493
  903MPD2    H113284   2.344   0.938  11.528  0.2962 -0.2069 -0.5449
  903MPD2    H213285   2.603   1.265  11.664 -1.3266  0.2422 -1.3765
  903MPD2    H313286   2.492   1.158  11.470  2.7297 -0.9454  0.8403
  903MPD2     N13287   2.255   0.879  11.774 -0.5278  0.1892 -0.2038
  903MPD2    H513288   2.240   0.870  11.874  0.7574 -0.0472 -0.0409
  903MPD2    N113289   2.576   1.213  11.911 -0.5886 -0.0974  0.1310
  903MPD2    H713290   2.648   1.283  11.900 -1.8161  1.3449  1.1531
  904MPD2     C13291   2.206   4.632  14.236  0.1589 -0.1984  0.0650
  904MPD2    C113292   2.173   0.033  14.223 -0.0222 -0.3926  0.1424
  904MPD2    C213293   2.268   0.129  14.239  0.1196 -0.2717 -0.2354
  904MPD2    C313294   2.395   0.106  14.288  0.1014  0.6257 -0.6173
  904MPD2    C413295   2.419   4.709  14.305 -0.2705 -0.0903 -0.5741
  904MPD2    C513296   2.336   4.601  14.272 -0.1431 -0.3803 -0.8281
  904MPD2     H13297   2.238   0.233  14.228 -0.0008 -0.1355  1.4004
  904MPD2    H113298   2.518   4.672  14.330  0.1137  0.3929 -1.4054
  904MPD2    H213299   2.136   4.555  14.205  3.0518 -1.7863 -2.5284
  904MPD2    H313300   2.361   4.497  14.283 -0.2462 -0.3896 -0.6755
  904MPD2     N13301   2.494   0.202  14.318  0.1320 -0.9655  0.5878
  904MPD2    H513302   2.581   0.171  14.360 -0.0638 -1.1590  0.8511
  904MPD2    N113303   2.045   0.077  14.163  0.2262  0.2147 -0.0070
  904MPD2    H713304   2.028   0.177  14.156  1.4408  0.4330  0.2149
  905MPD2     C13305   2.004   4.617  13.491 -0.4811 -0.1361  0.1532
  905MPD2    C113306   2.024   4.730  13.573  0.1145 -0.0806 -0.1483
  905MPD2    C213307   2.146   0.059  13.575  0.3761  0.0904 -0.2445
  905MPD2    C313308   2.249   0.009  13.491  0.3930  0.3423 -0.0898
  905MPD2    C413309   2.228   4.629  13.417  0.1185  0.3331 -0.5478
  905MPD2    C513310   2.103   4.575  13.409  0.4056  0.0484  0.4504
  905MPD2     H13311   2.160   0.150  13.632  0.9528 -0.5549  0.6422
  905MPD2    H113312   2.307   4.590  13.354 -0.0990  0.4073 -0.8660
  905MPD2    H213313   1.912   4.561  13.496 -0.3857 -0.4060 -0.9992
  905MPD2    H313314   2.093   4.487  13.346  2.6305 -0.0008  0.1815
  905MPD2     N13315   2.373   0.082  13.471  0.0273  0.0763  0.2226
  905MPD2    H513316   2.419   0.061  13.383 -0.9926 -0.6452 -0.1435
  905MPD2    N113317   1.920   0.017  13.667 -0.6323 -0.4937  0.2154
  905MPD2    H713318   1.835   4.695  13.668 -2.0743  1.6450 -1.5790
  906MPD2     C13319   4.122   1.022  11.478  0.0007  0.1085  0.3046
  906MPD2    C113320   4.025   1.006  11.380  0.0727 -0.2964 -0.2380
  906MPD2    C213321   3.904   0.940  11.408  0.0250 -0.0307  0.3189
  906MPD2    C313322   3.887   0.891  11.536 -0.3691  0.0180  0.2741
  906MPD2    C413323   3.988   0.917  11.630 -0.5756 -0.1050 -0.3785
  906MPD2    C513324   4.104   0.975  11.601 -0.0422 -0.4518  0.0704
  906MPD2     H13325   3.845   0.909  11.323  1.0011 -0.4741 -0.2024
  906MPD2    H113326   3.986   0.882  11.732  0.3040 -0.0898 -0.3616
  906MPD2    H213327   4.220   1.060  11.453 -0.1299  0.7765  0.7814
  906MPD2    H313328   4.179   0.987  11.678 -0.8616 -2.7834  1.2382
  906MPD2     N13329   3.763   0.823  11.572  0.7578 -0.0368 -0.5963
  906MPD2    H513330   3.755   0.788  11.667  0.9796  0.0585 -0.5410
  906MPD2    N113331   4.066   1.037  11.247 -0.1714 -0.0645  0.1377
  906MPD2    H713332   4.166   1.046  11.236 -0.3891  0.9405 -1.0171
  907MPD2     C13333   2.382   4.458  16.048 -0.6268  0.3567  0.0123
  907MPD2    C113334   2.477   4.371  15.998 -1.0912  0.3937  0.1003
  907MPD2    C213335   2.553   4.301  16.087 -0.5063 -0.1415 -0.0574
  907MPD2    C313336   2.548   4.326  16.224 -0.4083  0.2164  0.8669
  907MPD2    C413337   2.454   4.416  16.269 -0.2654 -0.0692 -0.1633
  907MPD2    C513338   2.369   4.479  16.182  0.1013 -0.5812 -0.2056
  907MPD2     H13339   2.638   4.236  16.065  1.0103  1.3168  1.5514
  907MPD2    H113340   2.451   4.452  16.371 -1.0868 -1.7769  0.4185
  907MPD2    H213341   2.314   4.527  15.999 -0.9581  0.8587  1.1880
  907MPD2    H313342   2.301   4.557  16.213 -0.2345 -1.5570  1.5296
  907MPD2     N13343   2.635   4.254  16.303 -0.4508 -0.1061 -0.4732
  907MPD2    H513344   2.693   4.185  16.257 -0.3468  0.9871 -1.9856
  907MPD2    N113345   2.505   4.358  15.863  0.6449  0.1468 -0.2001
  907MPD2    H713346   2.585   4.299  15.841 -0.9305 -1.7101 -1.0055
  908MPD2     C13347   0.666   0.247   9.772 -0.2182 -0.0686  0.1861
  908MPD2    C113348   0.740   0.203   9.879  0.6286  0.1354 -0.2498
  908MPD2    C213349   0.758   0.289   9.987  0.2210  0.4131 -0.2355
  908MPD2    C313350   0.716   0.416   9.979  0.3344  0.2129  0.6906
  908MPD2    C413351   0.647   0.456   9.869  0.0246 -0.3192  0.6016
  908MPD2    C513352   0.621   0.374   9.763 -0.4151  0.0509 -0.1133
  908MPD2     H13353   0.798   0.253  10.081  0.6082 -0.6051 -0.7803
  908MPD2    H113354   0.603   0.555   9.864  0.5698 -0.1564 -1.0089
  908MPD2    H213355   0.639   0.176   9.696 -2.0042  2.5152 -1.5963
  908MPD2    H313356   0.556   0.405   9.682 -0.4219  0.6888  0.1336
  908MPD2     N13357   0.743   0.500  10.094 -1.0342  0.4893  0.7790
  908MPD2    H513358   0.791   0.464  10.176 -0.0079 -0.2185 -0.1214
  908MPD2    N113359   0.786   0.066   9.873  0.1839 -0.4608 -0.3095
  908MPD2    H713360   0.752   0.009   9.797 -0.5909  0.5394 -0.7151
  909MPD2     C13361   1.579   2.529  11.463  0.2819  0.6932  0.5139
  909MPD2    C113362   1.520   2.647  11.422 -0.4806 -0.6853 -0.7181
  909MPD2    C213363   1.419   2.705  11.496 -0.1630  0.9331  0.3394
  909MPD2    C313364   1.384   2.659  11.621  0.5153 -1.0187 -0.5236
  909MPD2    C413365   1.444   2.545  11.663  0.4332  0.5619 -0.1702
  909MPD2    C513366   1.541   2.481  11.587 -0.1329  0.1919  0.4519
  909MPD2     H13367   1.371   2.799  11.473 -0.9962  0.2317 -0.7546
  909MPD2    H113368   1.404   2.495  11.751  1.1250  1.8330  0.8729
  909MPD2    H213369   1.659   2.472  11.416 -0.8563 -0.0658 -0.4759
  909MPD2    H313370   1.576   2.387  11.629 -4.0166 -1.3107  0.3455
  909MPD2     N13371   1.276   2.722  11.688  0.4431  0.3699  0.3346
  909MPD2    H513372   1.245   2.809  11.645  0.4357 -0.0981 -0.6184
  909MPD2    N113373   1.563   2.720  11.314 -0.3710 -0.2117 -0.2153
  909MPD2    H713374   1.505   2.798  11.283  1.5194  0.1265 -2.8915
  910MPD2     C13375   1.991   0.401  16.581  0.0070 -0.4575 -0.7833
  910MPD2    C113376   2.069   0.310  16.502 -0.1234 -1.2411 -0.0551
  910MPD2    C213377   2.042   0.301  16.363 -0.0470 -0.1850  0.6338
  910MPD2    C313378   1.955   0.392  16.311  0.1349  0.8423 -0.2255
  910MPD2    C413379   1.880   0.480  16.387  0.5662  0.3831 -0.0137
  910MPD2    C513380   1.909   0.488  16.520 -0.2490  0.5278 -0.3674
  910MPD2     H13381   2.098   0.224  16.312  0.7596  0.6522  0.2683
  910MPD2    H113382   1.812   0.555  16.349 -1.0549 -0.1404  1.8497
  910MPD2    H213383   1.992   0.403  16.690 -0.3994  0.1384 -0.7940
  910MPD2    H313384   1.850   0.554  16.583 -0.8550 -0.1337 -0.2477
  910MPD2     N13385   1.931   0.395  16.168  0.5758  0.0511 -0.5161
  910MPD2    H513386   1.845   0.439  16.136  0.9159  1.7757  0.9518
  910MPD2    N113387   2.146   0.206  16.560 -0.2206 -0.1933 -0.0973
  910MPD2    H713388   2.180   0.133  16.499  1.5259  2.4626 -2.3029
  911MPD2     C13389   0.044   0.558  16.161  0.6286  0.3861 -0.2384
  911MPD2    C113390   0.104   0.657  16.236  0.1444 -0.7171 -0.5132
  911MPD2    C213391   0.042   0.785  16.245  0.7237  0.3526 -0.2503
  911MPD2    C313392   4.670   0.822  16.157  0.0336  0.4858 -0.8690
  911MPD2    C413393   4.632   0.721  16.061 -0.4779 -0.1000  0.6114
  911MPD2    C513394   4.682   0.595  16.068 -0.0376 -0.2266 -0.2549
  911MPD2     H13395   0.075   0.861  16.314  1.6475  0.8062 -1.2029
  911MPD2    H113396   4.566   0.745  15.978 -1.7793  0.5797  1.8534
  911MPD2    H213397   0.087   0.458  16.161 -0.2984 -0.0100 -0.3159
  911MPD2    H313398   4.642   0.520  16.001 -0.0100  0.1462 -0.6917
  911MPD2     N13399   4.616   0.950  16.144 -0.0579 -0.0133 -0.1886
  911MPD2    H513400   4.538   0.952  16.079  0.0906  0.5568 -0.3510
  911MPD2    N113401   0.213   0.614  16.310  0.6955  0.1940  0.0826
  911MPD2    H713402   0.257   0.525  16.290  1.9794  0.9007 -0.2374
  912MPD2     C13403   4.311   0.859  15.714 -0.2260 -0.0779  0.1852
  912MPD2    C113404   4.298   0.883  15.848  0.3086 -0.1654  0.1031
  912MPD2    C213405   4.299   0.780  15.936 -0.1787 -0.2221 -0.0378
  912MPD2    C313406   4.304   0.648  15.893  0.3206  0.3037  0.5324
  912MPD2    C413407   4.313   0.622  15.760  0.0454 -0.1812  0.0260
  912MPD2    C513408   4.319   0.727  15.672  0.3093 -0.2403 -0.0587
  912MPD2     H13409   4.319   0.793  16.041 -0.4769  1.6543 -0.1998
  912MPD2    H113410   4.335   0.525  15.718 -0.0296 -0.3473  0.3712
  912MPD2    H213411   4.317   0.941  15.643  0.7126 -0.2035  0.1187
  912MPD2    H313412   4.336   0.701  15.568 -2.6010 -0.6482 -0.4548
  912MPD2     N13413   4.301   0.548  15.995 -0.1367 -0.1575  0.5701
  912MPD2    H513414   4.286   0.586  16.088  3.0549  1.0471  0.6031
  912MPD2    N113415   4.304   1.017  15.895 -0.9093 -0.5751 -0.2206
  912MPD2    H713416   4.342   1.091  15.837  0.8432  0.6546  2.4790
  913MPD2     C13417   0.511   1.690   9.932 -0.4788 -0.3440  0.5939
  913MPD2    C113418   0.566   1.770  10.036 -0.1450 -0.0568 -0.6199
  913MPD2    C213419   0.661   1.867  10.005  0.0812  0.6175 -0.4790
  913MPD2    C313420   0.717   1.872   9.880 -0.2276 -0.2011 -0.0390
  913MPD2    C413421   0.671   1.780   9.779 -0.5486 -0.8025  0.0600
  913MPD2    C513422   0.562   1.702   9.801  0.5059 -0.0819  0.0141
  913MPD2     H13423   0.713   1.915  10.087  1.9204 -2.0497 -0.0726
  913MPD2    H113424   0.703   1.785   9.675 -0.7890  1.3159  0.0952
  913MPD2    H213425   0.427   1.625   9.954 -0.9169  0.7388  2.1143
  913MPD2    H313426   0.524   1.652   9.713 -1.2451  0.5504  0.4139
  913MPD2     N13427   0.827   1.959   9.846 -0.2623 -0.4900  0.4623
  913MPD2    H513428   0.869   1.953   9.754  1.5206 -1.5260  1.3543
  913MPD2    N113429   0.522   1.733  10.164 -0.2827  0.1531 -0.3635
  913MPD2    H713430   0.445   1.667  10.172 -0.9501  1.0194  0.3401
  914MPD2     C13431   3.859   2.348  12.059 -0.0444 -0.4342 -0.3245
  914MPD2    C113432   3.815   2.397  12.179 -0.8152  0.4960 -0.7151
  914MPD2    C213433   3.759   2.307  12.271  0.2788  0.8588  0.4545
  914MPD2    C313434   3.752   2.171  12.242 -0.1388  0.4193  0.3025
  914MPD2    C413435   3.816   2.124  12.132 -0.1002  0.2339  0.4023
  914MPD2    C513436   3.855   2.212  12.037  0.0183 -0.0023 -0.1757
  914MPD2     H13437   3.711   2.341  12.363  0.4771  0.4424  0.7095
  914MPD2    H113438   3.830   2.020  12.103 -0.2083 -0.3611  2.4974
  914MPD2    H213439   3.904   2.415  11.986  0.9000 -2.2568 -1.4146
  914MPD2    H313440   3.905   2.172  11.950  1.6106 -4.0556  2.6008
  914MPD2     N13441   3.686   2.088  12.342 -0.9418 -0.5400 -0.2154
  914MPD2    H513442   3.653   2.140  12.422 -1.4864 -0.9304 -0.1815
  914MPD2    N113443   3.823   2.531  12.201 -0.5969  0.2254 -0.5662
  914MPD2    H713444   3.852   2.595  12.128  1.4966 -0.1654 -0.0665
  915MPD2     C13445   0.892   1.929  16.036 -0.5198 -0.9698 -0.4714
  915MPD2    C113446   0.848   2.020  15.944  0.0740  0.2419 -0.1783
  915MPD2    C213447   0.812   2.146  15.991  0.1692 -0.0538  0.4683
  915MPD2    C313448   0.812   2.169  16.130 -0.0612 -0.1439 -0.4678
  915MPD2    C413449   0.840   2.067  16.221  0.4324  0.1486 -0.0274
  915MPD2    C513450   0.887   1.950  16.173 -0.4267 -0.4675 -0.0569
  915MPD2     H13451   0.774   2.221  15.922  2.0126  1.3813  1.0054
  915MPD2    H113452   0.832   2.090  16.327 -0.9251  1.8386 -0.4792
  915MPD2    H213453   0.930   1.835  15.998  0.7861 -0.5847 -0.1128
  915MPD2    H313454   0.914   1.871  16.242  0.2976 -1.5884 -1.6278
  915MPD2     N13455   0.755   2.295  16.175  0.4847 -0.2049 -0.3571
  915MPD2    H513456   0.727   2.309  16.272 -0.5938 -0.7204 -0.5953
  915MPD2    N113457   0.839   1.984  15.805  0.4647 -0.7359  0.3191
  915MPD2    H713458   0.865   1.888  15.783  1.5317 -0.2218 -0.6802
  916MPD2     C13459   3.935   0.483  15.619 -0.3925 -0.0736 -0.3485
  916MPD2    C113460   3.981   0.396  15.717 -0.1289  0.0530  0.8652
  916MPD2    C213461   4.072   0.294  15.685 -0.3224 -0.3404 -0.4065
  916MPD2    C313462   4.112   0.274  15.558 -0.1489 -0.3229 -0.4654
  916MPD2    C413463   4.071   0.364  15.462  0.5911 -0.2226 -0.0991
  916MPD2    C513464   3.983   0.468  15.492  0.2716 -0.2917  0.3102
  916MPD2     H13465   4.101   0.223  15.761 -0.3243 -0.8653 -0.8955
  916MPD2    H113466   4.076   0.349  15.355 -0.0433 -0.5041 -0.0866
  916MPD2    H213467   3.866   0.564  15.637 -1.5760 -0.9943 -0.7514
  916MPD2    H313468   3.948   0.533  15.413  1.7312  2.2493  1.7750
  916MPD2     N13469   4.216   0.179  15.539  0.2066 -0.3507  0.4146
  916MPD2    H513470   4.256   0.119  15.611  2.5106  1.1677  0.3907
  916MPD2    N113471   3.935   0.411  15.850 -0.7063 -0.3395  0.2857
  916MPD2    H713472   3.872   0.490  15.858 -0.3833 -0.0025 -0.4752
  917MPD2     C13473   4.160   2.421  11.128  0.3855 -0.1231  0.0187
  917MPD2    C113474   4.176   2.533  11.212  0.2836  0.3065  0.2260
  917MPD2    C213475   4.207   2.656  11.154 -0.8298 -0.1274  0.2050
  917MPD2    C313476   4.212   2.664  11.021  0.5769  0.0517  0.6691
  917MPD2    C413477   4.200   2.552  10.937  0.8601 -0.3571 -0.1358
  917MPD2    C513478   4.174   2.427  10.991 -0.2439 -0.3336 -0.0178
  917MPD2     H13479   4.214   2.742  11.220 -0.3012  0.3467 -0.4807
  917MPD2    H113480   4.205   2.564  10.830  2.0048 -0.6412 -0.1120
  917MPD2    H213481   4.144   2.321  11.168 -1.8700 -0.3229 -1.3765
  917MPD2    H313482   4.167   2.335  10.934  0.5577 -1.6155  1.9551
  917MPD2     N13483   4.259   2.782  10.956 -0.1328  0.4809 -0.4645
  917MPD2    H513484   4.265   2.775  10.855 -1.5061 -1.6287 -0.3998
  917MPD2    N113485   4.171   2.513  11.355  0.5394 -0.5883 -0.4012
  917MPD2    H713486   4.142   2.419  11.381 -1.0665  0.6798  2.4388
  918MPD2     C13487   4.455   3.029  12.208  0.4447 -0.1949  0.5525
  918MPD2    C113488   4.501   3.031  12.077 -0.1466 -0.1324  0.2806
  918MPD2    C213489   4.426   2.973  11.978 -0.3953 -0.2322  0.0356
  918MPD2    C313490   4.322   2.888  12.017 -0.0735 -0.0181  0.2690
  918MPD2    C413491   4.278   2.889  12.150 -0.0427  0.0208  0.3754
  918MPD2    C513492   4.342   2.964  12.243  0.1135  0.7651  0.1635
  918MPD2     H13493   4.462   2.963  11.877 -1.4931  0.5027 -0.4379
  918MPD2    H113494   4.202   2.820  12.183 -0.1203  0.6026  1.4136
  918MPD2    H213495   4.514   3.066  12.291  0.3418  2.4011 -0.5217
  918MPD2    H313496   4.327   2.950  12.349 -0.1717 -2.6849 -0.3283
  918MPD2     N13497   4.275   2.801  11.915  0.8357 -0.3395 -0.5548
  918MPD2    H513498   4.317   2.819  11.824  0.0779 -1.1007 -1.0610
  918MPD2    N113499   4.621   3.093  12.056 -0.0849 -0.0533 -0.3239
  918MPD2    H713500   4.665   3.130  12.139 -1.1368  1.0197 -0.2438
  919MPD2     C13501   0.843   1.824  12.176 -0.2915 -0.7336 -0.8446
  919MPD2    C113502   0.770   1.758  12.085  0.4560  0.1785  0.4037
  919MPD2    C213503   0.741   1.808  11.962  0.6280 -0.2914 -0.1165
  919MPD2    C313504   0.770   1.938  11.931 -0.1743 -0.0342  0.0841
  919MPD2    C413505   0.844   2.012  12.021  0.2643 -0.4924 -0.8750
  919MPD2    C513506   0.875   1.953  12.143  0.9254 -0.1420  0.0323
  919MPD2     H13507   0.689   1.744  11.891  0.1711 -0.6729  0.5686
  919MPD2    H113508   0.874   2.115  12.007 -0.4791 -0.1479  0.0811
  919MPD2    H213509   0.863   1.777  12.271 -0.0906  0.2337 -0.4119
  919MPD2    H313510   0.909   2.027  12.215 -2.2973 -0.0455  1.4775
  919MPD2     N13511   0.722   2.016  11.822 -0.4844  1.3023 -0.3212
  919MPD2    H513512   0.740   2.115  11.810  0.1134  1.3243  0.8107
  919MPD2    N113513   0.713   1.633  12.115 -0.1224 -0.0058 -0.0870
  919MPD2    H713514   0.664   1.603  12.031 -2.4765  0.5506  1.0794
  920MPD2     C13515   4.587   1.974  11.183  0.5965  0.5064 -0.1855
  920MPD2    C113516   4.698   1.996  11.103 -1.2574 -0.3358 -0.2595
  920MPD2    C213517   0.080   2.046  11.157  0.0978  0.0069  0.0111
  920MPD2    C313518   0.094   2.058  11.293  0.2080  0.4787 -0.2293
  920MPD2    C413519   4.720   2.036  11.369  0.3108 -0.3815  0.4229
  920MPD2    C513520   4.606   1.989  11.320 -0.1850 -0.2611  0.1154
  920MPD2     H13521   0.177   2.048  11.108  1.2890  1.0723  2.3652
  920MPD2    H113522   4.725   2.041  11.477  2.3895  0.5493  0.2885
  920MPD2    H213523   4.491   1.956  11.135 -0.7406 -0.2941  2.8387
  920MPD2    H313524   4.529   1.970  11.394 -1.3567  2.4625 -0.4398
  920MPD2     N13525   0.233   2.073  11.340  0.2014  0.0945  0.1354
  920MPD2    H513526   0.306   2.063  11.271 -0.3740 -1.1071 -0.2845
  920MPD2    N113527   4.696   1.992  10.960 -0.1061  0.4692 -0.0444
  920MPD2    H713528   0.037   2.040  10.914  1.1932 -0.9896  0.5717
  921MPD2     C13529   0.880   0.888  17.017  0.0033  0.2129  0.3334
  921MPD2    C113530   0.896   0.890  16.881  0.9265  0.1578  0.4696
  921MPD2    C213531   0.811   0.815  16.804  0.2188  0.9726  0.1920
  921MPD2    C313532   0.712   0.738  16.863  0.7810  0.1196 -0.7508
  921MPD2    C413533   0.692   0.742  17.002 -0.0521  0.5350 -0.4555
  921MPD2    C513534   0.778   0.821  17.071 -0.5424 -0.4677  0.2224
  921MPD2     H13535   0.824   0.798  16.697  1.1997 -0.9957  0.6179
  921MPD2    H113536   0.607   0.696  17.051  0.7802 -0.2286  0.2737
  921MPD2    H213537   0.944   0.949  17.080  1.3781  0.7866 -1.6538
  921MPD2    H313538   0.758   0.829  17.177  2.7690  0.9612  0.7532
  921MPD2     N13539   0.623   0.657  16.790  0.2045  0.0755 -0.3728
  921MPD2    H513540   0.540   0.624  16.838 -0.2540  1.2874 -0.3321
  921MPD2    N113541   1.003   0.961  16.821 -0.7765  1.0586  0.4516
  921MPD2    H713542   1.087   0.960  16.879 -0.8511 -0.1891  0.5221
  922MPD2     C13543   1.422   3.699  16.924 -0.3915 -0.9545 -0.4310
  922MPD2    C113544   1.383   3.695  17.053  0.1262  0.1997 -0.7358
  922MPD2    C213545   1.344   3.573  17.113  0.4351  0.8255  0.1250
  922MPD2    C313546   1.353   3.458  17.036 -0.1322 -0.3816 -0.6091
  922MPD2    C413547   1.387   3.468  16.903  0.2486 -0.0841  0.3936
  922MPD2    C513548   1.414   3.588  16.844  0.0021  0.3178  0.3151
  922MPD2     H13549   1.328   3.568  17.220  0.0167 -1.5149 -0.0331
  922MPD2    H113550   1.399   3.386  16.832 -0.7056  1.0153 -1.0299
  922MPD2    H213551   1.446   3.791  16.873  0.3917 -0.2724  1.1454
  922MPD2    H313552   1.423   3.582  16.736 -2.8577  1.1477  0.0192
  922MPD2     N13553   1.327   3.327  17.100  0.7212 -0.0873  0.0232
  922MPD2    H513554   1.301   3.331  17.198  0.8670 -1.0419  0.1017
  922MPD2    N113555   1.365   3.814  17.124 -0.5935 -0.0101  0.4200
  922MPD2    H713556   1.333   3.790  17.217 -0.5567 -0.3285  0.3487
  923MPD2     C13557   3.166   4.628   9.006 -0.0457  0.2444  0.2757
  923MPD2    C113558   3.086   4.708   9.085  0.7373  0.0902  0.1017
  923MPD2    C213559   3.130   0.089   9.139 -0.3652 -0.9138 -0.1763
  923MPD2    C313560   3.271   0.117   9.133 -0.2592  0.0669  0.1882
  923MPD2    C413561   3.355   0.023   9.070 -0.2285 -0.6733  0.1423
  923MPD2    C513562   3.303   4.654   8.992 -0.0632 -0.6363  0.2920
  923MPD2     H13563   3.071   0.157   9.199 -0.8549 -2.0196  0.5956
  923MPD2    H113564   3.463   0.037   9.067 -0.4889  0.7264 -3.0174
  923MPD2    H213565   3.123   4.540   8.960  0.2385  0.7691 -0.9987
  923MPD2    H313566   3.355   4.578   8.934  1.2298  1.1307 -0.8749
  923MPD2     N13567   3.326   0.232   9.178 -0.0649 -0.3968 -0.4944
  923MPD2    H513568   3.425   0.248   9.165  0.2701 -2.2293 -0.2489
  923MPD2    N113569   2.952   4.663   9.099 -0.0326 -0.0340  0.2364
  923MPD2    H713570   2.930   4.580   9.043  0.2757 -1.0536  1.6226
  924MPD2     C13571   2.747   3.454  16.199 -0.4517 -0.2951 -0.4270
  924MPD2    C113572   2.801   3.485  16.328  0.0600 -0.6658  0.4135
  924MPD2    C213573   2.846   3.613  16.350  0.3541  0.3049  0.1259
  924MPD2    C313574   2.824   3.715  16.254 -0.3770  0.2090 -0.5686
  924MPD2    C413575   2.763   3.678  16.139  0.1473 -0.0014  0.2693
  924MPD2    C513576   2.740   3.548  16.102  0.1562 -0.1073  0.0976
  924MPD2     H13577   2.893   3.637  16.445 -0.6444 -1.7859  1.1384
  924MPD2    H113578   2.743   3.750  16.061 -0.7756  1.7980  2.1648
  924MPD2    H213579   2.714   3.352  16.186  1.2497 -0.9119  0.0145
  924MPD2    H313580   2.690   3.518  16.010  1.2103  0.3624 -0.6313
  924MPD2     N13581   2.856   3.848  16.279 -0.4380 -0.5836 -0.1317
  924MPD2    H513582   2.805   3.911  16.218  0.4381  2.4758  2.2624
  924MPD2    N113583   2.802   3.388  16.430  0.1909  0.8007  0.4120
  924MPD2    H713584   2.805   3.291  16.401 -1.9131  0.8527  0.0432
  925MPD2     C13585   1.928   1.760  14.930  0.2202  0.0930 -0.2952
  925MPD2    C113586   1.840   1.668  14.876  1.1313 -0.4141 -0.4639
  925MPD2    C213587   1.720   1.635  14.934 -0.1241 -0.1467  0.4418
  925MPD2    C313588   1.693   1.700  15.052  0.1473 -0.2055  0.3616
  925MPD2    C413589   1.769   1.797  15.099  0.1146  0.1650  0.2743
  925MPD2    C513590   1.887   1.829  15.038 -0.3926 -0.0665  0.4878
  925MPD2     H13591   1.646   1.563  14.899 -1.6796  2.5346 -1.7580
  925MPD2    H113592   1.732   1.852  15.185  1.4263  0.8310  0.4051
  925MPD2    H213593   2.022   1.793  14.887  0.7583 -0.8047  0.1894
  925MPD2    H313594   1.948   1.908  15.081  0.0214  0.1959 -0.6001
  925MPD2     N13595   1.574   1.675  15.123 -0.0062 -0.4266 -0.5440
  925MPD2    H513596   1.539   1.742  15.191  1.5139  0.4838 -0.6467
  925MPD2    N113597   1.868   1.614  14.752 -0.1551 -0.9022 -0.3044
  925MPD2    H713598   1.782   1.580  14.709 -1.2314 -0.5094  1.5352
  926MPD2     C13599   0.880   4.412  13.571  0.4287 -0.3607 -0.1658
  926MPD2    C113600   0.775   4.483  13.515 -0.0138  0.1893  0.1615
  926MPD2    C213601   0.800   4.589  13.426 -0.0077  0.7993 -0.3003
  926MPD2    C313602   0.932   4.616  13.392  0.0029  0.1415  0.6615
  926MPD2    C413603   1.035   4.539  13.446  0.4491 -0.1633  0.6664
  926MPD2    C513604   1.008   4.435  13.532 -0.1076 -0.1045  0.0520
  926MPD2     H13605   0.712   4.638  13.388 -0.9840  0.4565  1.5217
  926MPD2    H113606   1.139   4.557  13.421 -0.5933  2.1496 -1.9738
  926MPD2    H213607   0.861   4.328  13.636  2.1579 -0.6225  0.0211
  926MPD2    H313608   1.095   4.378  13.563  0.5118 -1.2063 -3.6598
  926MPD2     N13609   0.977   4.719  13.307  1.1915 -0.3628  0.1349
  926MPD2    H513610   1.076   0.003  13.311  0.8031  2.1863 -2.5107
  926MPD2    N113611   0.643   4.465  13.559  0.8062 -0.0618  1.0170
  926MPD2    H713612   0.577   4.517  13.502 -0.6151 -1.2461  1.5904
  927MPD2     C13613   4.315   2.550   0.002 -0.1970  0.3773 -0.3741
  927MPD2    C113614   4.393   2.467   0.075 -0.4191  0.8052  0.5708
  927MPD2    C213615   4.528   2.461   0.055  0.7642  0.2075  0.3819
  927MPD2    C313616   4.593   2.537  17.694  0.0829  0.4285  0.6142
  927MPD2    C413617   4.514   2.611  17.610 -0.0274 -0.5857 -0.1487
  927MPD2    C513618   4.371   2.612  17.632 -0.1371  0.2869  0.2321
  927MPD2     H13619   4.587   2.386   0.107 -0.1495 -1.0725 -0.4170
  927MPD2    H113620   4.553   2.667  17.527 -0.6246  0.9835  0.6239
  927MPD2    H213621   4.207   2.541  17.734 -0.3652  1.7710  0.6952
  927MPD2    H313622   4.312   2.662  17.555 -0.2641  0.5810  0.5211
  927MPD2     N13623   4.730   2.518  17.665  0.6022  0.0778  0.5904
  927MPD2    H513624   0.050   2.467  17.734  2.4677 -1.2059 -1.8634
  927MPD2    N113625   4.330   2.374   0.166  0.2284  0.2172  0.4554
  927MPD2    H713626   4.233   2.395   0.187  0.0410  0.5029 -0.7035
  928MPD2     C13627   3.178   0.450   0.993  1.0984  0.2602 -0.6704
  928MPD2    C113628   3.061   0.497   1.039 -0.0184 -0.4244  0.3638
  928MPD2    C213629   2.962   0.529   0.947 -0.4423 -0.0203  1.0010
  928MPD2    C313630   2.987   0.510   0.811 -0.4069 -0.3025 -1.2400
  928MPD2    C413631   3.109   0.451   0.773 -0.6832  0.4062 -0.8044
  928MPD2    C513632   3.209   0.429   0.865 -0.5014 -0.1355 -0.2626
  928MPD2     H13633   2.862   0.555   0.980 -1.2656  0.1181 -1.5918
  928MPD2    H113634   3.128   0.431   0.668  2.3235  0.3168 -0.2395
  928MPD2    H213635   3.255   0.426   1.065  0.9818 -1.7695 -1.2370
  928MPD2    H313636   3.296   0.373   0.832 -0.7256 -2.0122  2.3776
  928MPD2     N13637   2.902   0.552   0.708  0.2829  0.0378  0.1495
  928MPD2    H513638   2.925   0.529   0.612  1.1213  0.6954  0.1867
  928MPD2    N113639   3.046   0.516   1.175 -0.5418  0.5937 -0.6192
  928MPD2    H713640   3.117   0.476   1.236 -0.0773  1.6388 -0.4735
  929MPD2     C13641   3.225   0.341   9.657 -0.4832 -0.6643 -0.1617
  929MPD2    C113642   3.113   0.398   9.712 -0.7615 -0.0744 -0.0994
  929MPD2    C213643   2.991   0.357   9.666  0.3594  0.1892 -0.2039
  929MPD2    C313644   2.979   0.270   9.556  1.5983  0.0152  0.8963
  929MPD2    C413645   3.095   0.220   9.489 -0.7248  0.2225  0.2608
  929MPD2    C513646   3.217   0.256   9.546  0.3489  0.3694  0.3431
  929MPD2     H13647   2.898   0.402   9.699 -1.9948 -4.1717 -0.7550
  929MPD2    H113648   3.088   0.150   9.406 -0.5674  1.7836 -1.0701
  929MPD2    H213649   3.328   0.359   9.687 -0.7190 -1.0495  0.8777
  929MPD2    H313650   3.306   0.208   9.505 -0.2158 -1.5257  1.3417
  929MPD2     N13651   2.855   0.234   9.495 -0.1777  0.3773 -0.4747
  929MPD2    H513652   2.866   0.189   9.405 -3.3935  1.4803 -1.4193
  929MPD2    N113653   3.134   0.484   9.818  0.0102 -0.3085 -0.5091
  929MPD2    H713654   3.227   0.494   9.857  0.1579 -2.8963 -0.2406
  930MPD2     C13655   4.728   2.594  13.821  0.7461 -0.7205 -0.1840
  930MPD2    C113656   0.121   2.612  13.781  0.4564  0.3689 -0.0837
  930MPD2    C213657   0.161   2.576  13.652  0.4646 -0.2016 -0.1447
  930MPD2    C313658   0.069   2.534  13.562 -0.3922 -0.2430  0.7556
  930MPD2    C413659   4.669   2.527  13.596 -0.3532 -0.6458  0.5877
  930MPD2    C513660   4.635   2.554  13.731 -0.1375  0.4494  0.6277
  930MPD2     H13661   0.266   2.555  13.632  1.1436  1.1774  1.9504
  930MPD2    H113662   4.586   2.511  13.529 -0.9566 -0.4519  1.2910
  930MPD2    H213663   4.690   2.637  13.914  1.7902 -0.9557  0.3491
  930MPD2    H313664   4.535   2.568  13.770 -0.0485 -0.5903  1.2269
  930MPD2     N13665   0.097   2.496  13.428  0.3261 -0.1119  0.0913
  930MPD2    H513666   0.027   2.513  13.357  1.2086 -2.3795 -1.3292
  930MPD2    N113667   0.206   2.674  13.873 -0.0366 -0.0333 -0.4781
  930MPD2    H713668   0.160   2.686  13.962  0.8049  0.9688 -0.1806
  931MPD2     C13669   4.623   1.713   0.440 -0.5497 -0.0611 -0.1612
  931MPD2    C113670   4.489   1.707   0.471 -0.3723  1.1006 -0.4168
  931MPD2    C213671   4.429   1.586   0.496 -0.4712  0.6578  0.0086
  931MPD2    C313672   4.501   1.465   0.503 -0.1589 -0.0481 -0.9504
  931MPD2    C413673   4.640   1.482   0.476  0.1780 -0.0357 -0.6487
  931MPD2    C513674   4.700   1.600   0.450 -0.1625  0.0984  0.2968
  931MPD2     H13675   4.322   1.586   0.508 -0.5314  0.5673 -0.5217
  931MPD2    H113676   4.699   1.393   0.497 -1.4801 -1.0849 -0.4447
  931MPD2    H213677   4.672   1.809   0.433  0.7349 -0.6433  0.8511
  931MPD2    H313678   0.073   1.606   0.441 -0.1841 -1.7642 -1.3971
  931MPD2     N13679   4.445   1.343   0.537 -0.6044  0.0109 -0.3765
  931MPD2    H513680   4.509   1.265   0.538 -1.7108 -0.9165 -1.7721
  931MPD2    N113681   4.421   1.833   0.456 -0.1760  0.0460  0.0352
  931MPD2    H713682   4.473   1.916   0.431  0.9813 -0.3581  1.0938
  932MPD2     C13683   2.163   0.847  10.950 -0.1977  0.4312  0.1613
  932MPD2    C113684   2.221   0.928  11.046 -0.1617 -0.0641 -0.0613
  932MPD2    C213685   2.288   0.874  11.153  0.5365 -0.4782 -0.5095
  932MPD2    C313686   2.292   0.737  11.165 -0.0714 -0.0775 -0.0679
  932MPD2    C413687   2.211   0.664  11.082  0.4324  0.4512  0.2522
  932MPD2    C513688   2.149   0.713  10.972  0.0323 -0.6493  0.4660
  932MPD2     H13689   2.327   0.940  11.230  0.4450  1.2058 -1.9015
  932MPD2    H113690   2.216   0.556  11.089  0.7896  0.4018 -0.8069
  932MPD2    H213691   2.113   0.892  10.865 -0.3869  0.1902  0.1461
  932MPD2    H313692   2.113   0.645  10.896 -0.2837  0.6422 -0.5533
  932MPD2     N13693   2.360   0.673  11.276  0.0331  0.2779  0.5807
  932MPD2    H513694   2.334   0.576  11.284  0.2805  0.3990  2.7234
  932MPD2    N113695   2.232   1.068  11.025  0.1206 -0.6586 -0.4099
  932MPD2    H713696   2.265   1.122  11.104  0.9277 -0.8740 -0.6015
  933MPD2     C13697   2.751   1.069   1.863  0.5214 -0.3871 -0.4135
  933MPD2    C113698   2.717   0.999   1.745  0.2937  0.9200 -0.3453
  933MPD2    C213699   2.606   1.035   1.679  0.0769  0.6448 -0.2538
  933MPD2    C313700   2.541   1.154   1.710  0.5212 -0.2458  0.0898
  933MPD2    C413701   2.583   1.229   1.815  0.0868  0.1784 -0.7077
  933MPD2    C513702   2.683   1.190   1.895  0.5575 -0.3005  0.9156
  933MPD2     H13703   2.554   0.983   1.599  1.2127 -1.2935  0.2656
  933MPD2    H113704   2.550   1.329   1.842 -0.3251  0.0411 -0.6995
  933MPD2    H213705   2.839   1.033   1.915 -0.4339 -1.0536  0.7166
  933MPD2    H313706   2.725   1.246   1.977  0.1520  0.2120  0.7717
  933MPD2     N13707   2.434   1.196   1.632  0.4813  0.0609 -0.3764
  933MPD2    H513708   2.408   1.140   1.551 -1.8639  2.2745 -1.1510
  933MPD2    N113709   2.797   0.890   1.706  0.7403  0.1803  0.6717
  933MPD2    H713710   2.863   0.865   1.779  0.5681  2.5076  1.6079
  934MPD2     C13711   3.498   4.003   1.419  0.3574  0.4038  0.5134
  934MPD2    C113712   3.560   3.879   1.418 -0.0914 -0.6322  0.5673
  934MPD2    C213713   3.489   3.766   1.389 -1.1383 -0.6986  0.1501
  934MPD2    C313714   3.353   3.778   1.367 -0.1427  0.0233  0.0026
  934MPD2    C413715   3.289   3.892   1.382 -0.3724 -0.5727  0.0805
  934MPD2    C513716   3.361   4.006   1.398 -0.5676  0.1960  0.5613
  934MPD2     H13717   3.537   3.669   1.380  0.1120  0.0920 -1.6754
  934MPD2    H113718   3.186   3.900   1.350 -0.9643 -1.2824  1.8100
  934MPD2    H213719   3.549   4.097   1.436 -1.2616  1.0826  1.6094
  934MPD2    H313720   3.301   4.097   1.401  0.8736  1.2155 -1.0347
  934MPD2     N13721   3.277   3.666   1.316  1.2167  0.2102  0.7728
  934MPD2    H513722   3.180   3.692   1.300  1.3402  1.2839  1.7809
  934MPD2    N113723   3.700   3.851   1.446 -0.0153 -0.0624 -0.0419
  934MPD2    H713724   3.728   3.755   1.432 -0.4805  0.3955 -4.1383
  935MPD2     C13725   3.594   2.737   1.078 -0.7435 -0.5767 -0.2093
  935MPD2    C113726   3.464   2.735   1.022 -0.4846 -0.9388  0.2338
  935MPD2    C213727   3.395   2.854   1.027  0.1064 -0.2855  0.2906
  935MPD2    C313728   3.450   2.965   1.084  0.7029 -0.5488 -0.1696
  935MPD2    C413729   3.574   2.959   1.148  0.4380 -0.4100 -0.2391
  935MPD2    C513730   3.645   2.845   1.141  0.3410  0.6415 -0.6912
  935MPD2     H13731   3.294   2.855   0.988  0.3154  0.3788 -0.2458
  935MPD2    H113732   3.617   3.050   1.189 -0.8741 -0.5285  1.4383
  935MPD2    H213733   3.659   2.650   1.074 -0.5717 -0.4071 -1.1632
  935MPD2    H313734   3.738   2.840   1.196 -0.1806 -1.1568  0.0158
  935MPD2     N13735   3.376   3.090   1.091 -0.4766 -1.1925 -0.2052
  935MPD2    H513736   3.420   3.162   1.146 -0.5806 -1.8058  0.6877
  935MPD2    N113737   3.401   2.624   0.958  0.1676  0.3380 -0.4267
  935MPD2    H713738   3.309   2.652   0.926 -0.0347  0.1627 -0.0018
  936MPD2     C13739   2.394   4.581  12.311 -0.5839  0.3856  0.5431
  936MPD2    C113740   2.395   4.613  12.442  0.0902  0.4747  0.2554
  936MPD2    C213741   2.394   0.011  12.483 -0.1372 -0.0068  0.0115
  936MPD2    C313742   2.396   0.112  12.390 -0.2409  0.1597  0.1256
  936MPD2    C413743   2.399   0.071  12.254 -0.4395 -0.7624 -0.2093
  936MPD2    C513744   2.398   4.675  12.214 -0.1616 -0.5642  0.4019
  936MPD2     H13745   2.415   0.032  12.588 -0.2386 -0.6315  0.1566
  936MPD2    H113746   2.405   0.140  12.170  0.6542  2.1602  2.2404
  936MPD2    H213747   2.386   4.477  12.284 -0.0241  0.8873 -1.5624
  936MPD2    H313748   2.392   4.645  12.110 -1.2085 -2.0222  0.8745
  936MPD2     N13749   2.411   0.245  12.436 -0.4508  0.4897  0.1820
  936MPD2    H513750   2.422   0.248  12.537  0.6763 -1.8319  0.1545
  936MPD2    N113751   2.406   4.515  12.542  0.1448 -0.5351 -0.1352
  936MPD2    H713752   2.395   4.550  12.637  0.9923  2.5433 -1.1724
  937MPD2     C13753   0.633   1.109  11.674  0.0350  0.4331  0.2574
  937MPD2    C113754   0.690   1.226  11.720  0.0101  0.1420 -0.2802
  937MPD2    C213755   0.752   1.307  11.629  0.7699  0.1757 -0.6430
  937MPD2    C313756   0.755   1.271  11.495 -0.1784  0.3547  0.7252
  937MPD2    C413757   0.700   1.154  11.452 -0.6028 -0.9311 -0.6123
  937MPD2    C513758   0.645   1.075  11.543  0.6764 -0.3880  0.6011
  937MPD2     H13759   0.781   1.404  11.665 -3.2230  0.9223  0.5990
  937MPD2    H113760   0.714   1.112  11.353 -0.5073 -0.3431 -0.8462
  937MPD2    H213761   0.570   1.053  11.742  1.8424 -0.4166  1.2312
  937MPD2    H313762   0.584   0.991  11.511 -0.1437  0.8828 -1.1642
  937MPD2     N13763   0.810   1.365  11.406  0.0700  0.3438  0.0762
  937MPD2    H513764   0.854   1.446  11.449  1.1954 -0.9048  1.2949
  937MPD2    N113765   0.665   1.263  11.856  0.3078  0.5856  0.0606
  937MPD2    H713766   0.699   1.357  11.878 -1.0130  0.9148  0.6720
  938MPD2     C13767   2.503   3.193   0.309  0.4781 -0.6622 -0.4201
  938MPD2    C113768   2.535   3.201   0.439 -0.6352 -0.4046 -0.6140
  938MPD2    C213769   2.541   3.083   0.517  0.5941 -0.2375  0.8826
  938MPD2    C313770   2.511   2.961   0.458 -0.3884  0.1967 -0.3432
  938MPD2    C413771   2.482   2.962   0.323  0.8829  0.3442  0.0619
  938MPD2    C513772   2.473   3.074   0.251  0.1329  0.1933 -0.5259
  938MPD2     H13773   2.550   3.094   0.624 -0.6097  0.2653  0.9290
  938MPD2    H113774   2.451   2.869   0.277  0.8905  0.8388 -0.9441
  938MPD2    H213775   2.494   3.274   0.238  2.2337 -0.1043 -0.0074
  938MPD2    H313776   2.437   3.068   0.149  2.9540 -0.4732 -1.4861
  938MPD2     N13777   2.509   2.836   0.534 -0.4285  0.0334 -0.2636
  938MPD2    H513778   2.478   2.755   0.482  1.5833  0.3829 -1.9715
  938MPD2    N113779   2.576   3.325   0.499 -0.0243  0.7563 -0.4430
  938MPD2    H713780   2.638   3.314   0.579  0.6218  0.2780 -1.0178
  939MPD2     C13781   4.104   3.236   0.647  0.6449  0.0371 -0.0132
  939MPD2    C113782   4.019   3.342   0.609  0.4489  0.7193  0.0666
  939MPD2    C213783   3.899   3.312   0.544 -0.7238  0.5814 -0.2890
  939MPD2    C313784   3.870   3.188   0.499  0.1958  0.3936 -0.6285
  939MPD2    C413785   3.950   3.090   0.537 -0.2042  0.3037  0.8517
  939MPD2    C513786   4.063   3.110   0.618 -0.1472  0.4072  0.9693
  939MPD2     H13787   3.833   3.390   0.508 -0.3971  0.8652 -0.2713
  939MPD2    H113788   3.921   2.988   0.514  2.3764 -0.0081 -0.9518
  939MPD2    H213789   4.200   3.253   0.696  0.9847 -1.5858 -0.1234
  939MPD2    H313790   4.123   3.025   0.649  4.0279  3.0500  0.2136
  939MPD2     N13791   3.748   3.167   0.427 -0.1392  0.1406  0.3845
  939MPD2    H513792   3.695   3.249   0.401 -2.1361 -2.4954 -3.8553
  939MPD2    N113793   4.058   3.469   0.656  0.1727 -0.4848  0.1400
  939MPD2    H713794   4.147   3.489   0.702  0.2355  0.6335 -0.4653
  940MPD2     C13795   3.250   4.141  13.836  0.3764 -0.0096 -0.0401
  940MPD2    C113796   3.149   4.145  13.739 -0.2167 -0.1730 -0.1251
  940MPD2    C213797   3.167   4.100  13.610 -0.1723 -0.0812 -0.3341
  940MPD2    C313798   3.291   4.050  13.573 -0.9441  0.0965  0.2630
  940MPD2    C413799   3.377   4.014  13.684  0.3413 -0.0594 -0.3913
  940MPD2    C513800   3.362   4.066  13.808  0.2329  0.3993  0.3864
  940MPD2     H13801   3.084   4.120  13.543 -0.3750  0.7744  0.1721
  940MPD2    H113802   3.477   3.980  13.659  1.5478  0.8947  3.2889
  940MPD2    H213803   3.237   4.173  13.939  0.3787 -2.0997  0.6232
  940MPD2    H313804   3.438   4.045  13.882  1.1166  0.6073 -0.4571
  940MPD2     N13805   3.330   4.021  13.444 -0.2579  1.3920 -0.1660
  940MPD2    H513806   3.421   3.977  13.436 -2.0657 -2.2230 -0.8469
  940MPD2    N113807   3.029   4.210  13.761  0.6440  0.3416 -0.1122
  940MPD2    H713808   2.959   4.199  13.688 -1.0769  0.3319  1.5474
  941MPD2     C13809   2.269   3.846  10.434  0.0680  0.1142  0.7180
  941MPD2    C113810   2.322   3.760  10.343 -0.2858 -0.5834 -0.1047
  941MPD2    C213811   2.249   3.641  10.334 -0.1739  0.3515 -0.0486
  941MPD2    C313812   2.141   3.603  10.412  0.3461  0.0373 -0.3628
  941MPD2    C413813   2.100   3.697  10.512  0.0180 -0.0139 -0.1456
  941MPD2    C513814   2.164   3.813  10.516  0.1209  0.1604  0.0784
  941MPD2     H13815   2.292   3.574  10.260 -0.9316 -0.0421 -0.1404
  941MPD2    H113816   2.020   3.684  10.584  0.4762  0.2287  0.3983
  941MPD2    H213817   2.310   3.945  10.442  2.4000 -0.8728  0.9634
  941MPD2    H313818   2.129   3.897  10.574 -1.6521  1.1860 -2.4779
  941MPD2     N13819   2.069   3.479  10.404 -0.1882  0.2302  0.3487
  941MPD2    H513820   1.996   3.473  10.475 -0.2580 -0.1654  0.2411
  941MPD2    N113821   2.436   3.790  10.261 -0.2808 -0.0895  0.2617
  941MPD2    H713822   2.472   3.722  10.195  1.7673  0.0930  1.1848
  942MPD2     C13823   2.760   4.619   9.574 -0.3833  0.1207  0.1061
  942MPD2    C113824   2.726   4.503   9.502  0.5147 -0.0820  0.0414
  942MPD2    C213825   2.827   4.423   9.447 -0.4650  0.3699 -0.1086
  942MPD2    C313826   2.955   4.452   9.471 -0.0298  0.1861 -0.3146
  942MPD2    C413827   2.989   4.572   9.536  0.0536 -0.1915 -0.1177
  942MPD2    C513828   2.891   4.652   9.583  0.7326 -0.8129 -0.0809
  942MPD2     H13829   2.798   4.331   9.398  0.8668 -0.5125  0.7694
  942MPD2    H113830   3.094   4.598   9.549 -0.2342  0.2946  1.2832
  942MPD2    H213831   2.690   4.680   9.630  0.5596  1.5925 -0.3223
  942MPD2    H313832   2.921   4.731   9.651  2.8962 -0.5854 -1.2963
  942MPD2     N13833   3.058   4.368   9.434 -0.6454 -0.4447 -0.1297
  942MPD2    H513834   3.149   4.396   9.470  0.3718  0.0317 -3.0815
  942MPD2    N113835   2.587   4.452   9.506  0.9267 -0.1066  0.4855
  942MPD2    H713836   2.575   4.358   9.469 -1.0205  0.7391 -0.9985
  943MPD2     C13837   1.418   3.825  10.049  0.2438  0.0063 -0.8389
  943MPD2    C113838   1.314   3.731  10.075  0.6241 -0.2316 -1.0639
  943MPD2    C213839   1.199   3.771  10.143  0.7521  0.0439 -0.2972
  943MPD2    C313840   1.191   3.906  10.182  0.1636 -0.6129  0.1270
  943MPD2    C413841   1.287   3.993  10.143 -0.3042 -0.7222 -0.8731
  943MPD2    C513842   1.392   3.956  10.068  0.5759 -0.2093  0.1200
  943MPD2     H13843   1.124   3.696  10.163 -0.1315  0.9485 -0.2378
  943MPD2    H113844   1.284   4.101  10.146  2.8464 -0.5914 -1.9116
  943MPD2    H213845   1.505   3.803   9.989  0.2188  0.8291 -1.1655
  943MPD2    H313846   1.467   4.032  10.047  0.0073 -0.0007 -1.1850
  943MPD2     N13847   1.083   3.950  10.266 -0.2742 -0.3668  0.2022
  943MPD2    H513848   1.084   4.051  10.274 -2.3167 -0.2361 -1.1404
  943MPD2    N113849   1.336   3.599  10.023  0.1182 -0.4624 -0.5540
  943MPD2    H713850   1.429   3.592   9.982  0.9892  3.5852  0.6912
  944MPD2     C13851   1.286   2.101  11.666  0.4861 -0.3167  0.3343
  944MPD2    C113852   1.343   2.173  11.559  0.1270 -1.0372 -0.6614
  944MPD2    C213853   1.278   2.283  11.513  0.5249 -0.1297  0.8032
  944MPD2    C313854   1.157   2.329  11.564 -0.5453  0.4299  0.0761
  944MPD2    C413855   1.109   2.257  11.668  0.3685  0.4141  0.1354
  944MPD2    C513856   1.167   2.149  11.721  0.3876 -0.1587 -0.3755
  944MPD2     H13857   1.322   2.342  11.433  0.0933 -0.4870  0.3081
  944MPD2    H113858   1.024   2.292  11.727  0.4006  1.5643 -0.5069
  944MPD2    H213859   1.344   2.022  11.711  0.3266 -0.0678  0.9824
  944MPD2    H313860   1.109   2.095  11.795 -1.8306 -0.1670 -2.1266
  944MPD2     N13861   1.097   2.437  11.496  0.4905 -0.0172  0.5417
  944MPD2    H513862   1.154   2.483  11.427 -0.5620  1.8842  0.9306
  944MPD2    N113863   1.471   2.132  11.509 -0.5568  0.4164 -0.5704
  944MPD2    H713864   1.521   2.051  11.545 -0.6078  0.0677 -1.2851
    1TMC1    C113865   4.342   4.185  14.828  0.3412 -0.4522  0.5824
    1TMC1    C213866   4.417   4.209  14.936 -0.0462 -0.0650 -0.3585
    1TMC1    C313867   4.425   4.103  15.029  0.1618 -0.4105  0.6416
    1TMC1    C413868   4.297   4.064  14.798 -0.1836  0.3813 -0.3646
    1TMC1    C513869   4.329   3.958  14.874 -0.0057 -0.1326 -0.2751
    1TMC1    C613870   4.389   3.975  14.992  0.3248 -0.1409 -0.5999
    1TMC1     C13871   4.321   4.290  14.739  0.3912 -0.0543 -0.5181
    1TMC1     O13872   4.372   4.393  14.775  0.3805 -0.1448  0.1000
    1TMC1     H13873   4.477   4.297  14.956 -0.2030 -0.3372  1.3066
    1TMC1    H113874   4.231   4.044  14.714 -0.7447  0.1863  0.1157
    1TMC1    H213875   4.427   3.886  15.040 -2.0608 -0.0451  1.4794
    1TMC1    C713876   4.285   3.831  14.820 -0.1541 -0.0178  0.1108
    1TMC1    C813877   4.507   4.125  15.144 -0.0761  0.3000 -0.1629
    1TMC1    O113878   4.364   3.759  14.765 -0.2151  0.2645  0.2301
    1TMC1    O213879   4.604   4.200  15.147  0.4497 -0.3365  0.8414
    1TMC1    O313880   4.149   3.841  14.790 -0.3536  0.2163  0.3291
    1TMC1    H313881   4.110   3.912  14.846 -1.0202 -0.3096  0.5224
    1TMC1    O513882   4.471   4.039  15.239  0.2710  0.5305 -0.1169
    1TMC1    H513883   4.386   3.993  15.224  0.3343 -0.1528  1.5885
    2MPD2     C13884   4.195   4.520  14.303  0.5874 -0.1115  0.4728
    2MPD2    C113885   4.196   4.385  14.279  1.2399 -0.6401 -0.1227
    2MPD2    C213886   4.244   4.300  14.373 -0.3987  0.3694  0.1978
    2MPD2    C313887   4.276   4.348  14.506 -0.1706 -0.9766  0.2884
    2MPD2    C413888   4.269   4.483  14.532  0.3021 -0.1938 -0.3915
    2MPD2    C513889   4.231   4.564  14.427 -0.2521 -0.5519  0.3591
    2MPD2     H13890   4.259   4.194  14.359 -0.8059  0.3449 -0.0570
    2MPD2    H113891   4.291   4.527  14.628  3.0376  0.0551 -1.1157
    2MPD2    H213892   4.177   4.598  14.230 -0.8990 -1.4400 -0.5552
    2MPD2    H313893   4.224   4.667  14.458 -0.1946 -0.9350  1.6203
    2MPD2     N13894   4.293   4.256  14.610  0.6566 -0.1883 -0.1119
    2MPD2    H513895   4.285   4.158  14.586  0.4312 -0.8562  2.7657
    2MPD2    N113896   4.138   4.350  14.147  0.0115 -0.6595  0.4741
    2MPD2    H713897   4.106   4.423  14.084 -1.2859  0.5828  2.5200
    3TMC2    C113898   4.072   4.193  13.985  0.8066  0.3788 -0.1952
    3TMC2    C213899   3.963   4.122  13.951  0.2066 -0.4719  0.2555
    3TMC2    C313900   3.905   4.145  13.825 -0.8192  0.0021  0.3886
    3TMC2    C413901   4.128   4.283  13.898  0.2223  0.2354 -0.1508
    3TMC2    C513902   4.072   4.295  13.774 -0.2267 -0.1191  0.6252
    3TMC2    C613903   3.948   4.243  13.741 -0.0233 -0.0661 -0.3469
    3TMC2     C13904   4.101   4.219  14.119  0.1071 -0.3820 -0.3910
    3TMC2     O13905   4.077   4.126  14.191  0.9128 -0.5513 -0.4379
    3TMC2     H13906   3.916   4.059  14.025  0.1001 -2.7722 -1.7490
    3TMC2    H113907   4.221   4.333  13.922  0.2784 -2.1297  4.5792
    3TMC2    H213908   3.911   4.246  13.639 -0.9520 -1.9548 -0.0565
    3TMC2    C713909   4.134   4.391  13.688  0.4698 -0.2804 -0.1231
    3TMC2    C813910   3.788   4.063  13.788  0.8231  0.0560  0.5188
    3TMC2    O113911   4.245   4.365  13.646 -0.3650  0.0320 -0.1780
    3TMC2    O213912   3.688   4.121  13.750 -0.0991 -0.2093 -0.2107
    3TMC2    O513913   3.789   3.941  13.849 -0.5156  0.5060  0.9035
    3TMC2    H513914   3.884   3.925  13.870 -0.8298 -0.4603  1.5510
    4TMC2    C113915   3.477   0.357  13.481  0.6129 -0.1795 -0.7259
    4TMC2    C213916   3.477   0.387  13.345  1.3585 -0.1083 -0.3675
    4TMC2    C313917   3.598   0.364  13.277 -0.6000 -0.1929 -0.1314
    4TMC2    C413918   3.589   0.320  13.550  0.1004 -0.5833  0.9447
    4TMC2    C513919   3.711   0.302  13.481 -0.7989  0.7553 -0.2307
    4TMC2    C613920   3.709   0.318  13.341 -0.0456 -0.0231  0.2598
    4TMC2     C13921   3.357   0.335  13.552  0.0854 -0.4349  0.2046
    4TMC2     O13922   3.365   0.320  13.672 -0.0061  0.0672 -0.2725
    4TMC2     H13923   3.393   0.427  13.289  0.0660 -2.1597  0.1417
    4TMC2    H113924   3.590   0.300  13.657 -0.1813 -0.6544  0.9335
    4TMC2    H213925   3.797   0.302  13.280 -1.3597 -0.6513 -1.4439
    4TMC2    C713926   3.788   0.199  13.543 -0.1172  0.1619  0.1917
    4TMC2    C813927   3.611   0.442  13.156  0.1948  0.0064 -0.2548
    4TMC2    O113928   3.742   0.124  13.632  0.1600 -0.4806 -0.1994
    4TMC2    O213929   3.709   0.510  13.141  0.3872  0.2040  0.4269
    4TMC2    O513930   3.562   0.363  13.062  0.1038 -0.0540  0.2302
    4TMC2    H513931   3.515   0.286  13.101 -1.4094  0.6007 -0.2652
    5MPD2     C13932   2.859   0.240  13.608  0.0934 -0.0256 -0.4855
    5MPD2    C113933   2.878   0.303  13.493  0.5017  0.0687 -0.4208
    5MPD2    C213934   3.007   0.336  13.446 -0.2424  0.2187 -0.0090
    5MPD2    C313935   3.119   0.292  13.521 -0.1810  0.0854 -0.2421
    5MPD2    C413936   3.100   0.225  13.643  0.2109 -0.0203 -0.5693
    5MPD2    C513937   2.971   0.198  13.680 -0.5357 -0.8041 -0.2941
    5MPD2     H13938   3.017   0.388  13.352  1.5981 -1.2381 -0.6278
    5MPD2    H113939   3.183   0.207  13.709 -1.1151 -1.5954  0.6631
    5MPD2    H213940   2.761   0.227  13.652  1.0754 -2.3139  0.9953
    5MPD2    H313941   2.957   0.159  13.780 -0.7742  1.7289  0.6447
    5MPD2     N13942   3.246   0.328  13.468 -0.0556  0.1133 -0.4637
    5MPD2    H513943   3.256   0.348  13.369 -0.3987  1.5829 -0.2097
    5MPD2    N113944   2.761   0.340  13.428  0.1925 -0.3545  0.2228
    5MPD2    H713945   2.677   0.304  13.473 -1.0687 -0.3455 -2.1253
    6MPD1     C13946   2.534   2.067  13.228  0.3923  0.4375  0.8030
    6MPD1    C113947   2.402   2.037  13.206  0.6835  0.1951  0.5137
    6MPD1    C213948   2.353   1.909  13.240  0.7241  0.1182 -0.7646
    6MPD1    C313949   2.440   1.811  13.270 -0.7275 -0.1757 -1.3274
    6MPD1    C413950   2.574   1.843  13.281  0.0907  0.6013  0.1551
    6MPD1    C513951   2.624   1.974  13.270 -0.5915  0.1910 -0.2650
    6MPD1     H13952   2.245   1.893  13.242  0.9268 -0.6951  2.7790
    6MPD1    H113953   2.649   1.772  13.314 -1.4861 -1.3212 -0.3978
    6MPD1    H213954   2.563   2.171  13.224 -0.1865  0.5264 -1.4298
    6MPD1    H313955   2.728   2.001  13.281 -0.2030 -1.6462  0.4995
    6MPD1     N13956   2.392   1.675  13.278  0.1744  0.2571 -0.4708
    6MPD1    H513957   2.447   1.607  13.330 -0.0672 -0.1523 -0.7481
    6MPD1    N113958   2.309   2.143  13.182  0.4388  0.0417  0.1945
    6MPD1    H613959   2.221   2.103  13.151 -0.4485  2.5878 -0.6154
    6MPD1    H713960   2.336   2.219  13.119  0.6932 -0.0208  0.2268
    7MPD2     C13961   2.417   1.051  13.715  0.6794 -0.3654 -0.3392
    7MPD2    C113962   2.374   1.025  13.586 -0.4729 -0.0609  0.3325
    7MPD2    C213963   2.381   0.898  13.543  0.1522 -0.7180  0.3594
    7MPD2    C313964   2.437   0.790  13.614  0.3250 -0.4072 -0.7871
    7MPD2    C413965   2.496   0.821  13.735 -0.5478 -0.5544 -0.0606
    7MPD2    C513966   2.472   0.949  13.785 -0.1557 -0.1656  0.3662
    7MPD2     H13967   2.349   0.875  13.442 -0.3613  0.6441  0.2207
    7MPD2    H113968   2.550   0.746  13.792 -0.4906  0.0326  0.6505
    7MPD2    H213969   2.409   1.150  13.760 -1.8346 -1.0228  0.6281
    7MPD2    H313970   2.502   0.979  13.885  2.0257  1.1446 -0.6929
    7MPD2     N13971   2.433   0.655  13.571  0.6674 -0.2097 -0.6352
    7MPD2    H513972   2.476   0.584  13.629  2.2239  0.6520 -0.7283
    7MPD2    N113973   2.330   1.119  13.495 -0.2841  0.1691 -0.3365
    7MPD2    H713974   2.316   1.088  13.399  0.6552 -0.1365 -0.3811
    8TMC3    C113975   2.409   0.486  13.411 -0.1316  0.3237 -0.4782
    8TMC3    C213976   2.549   0.476  13.417  0.9625 -0.1009 -0.0752
    8TMC3    C313977   2.617   0.459  13.295 -0.5408 -0.0228 -0.0451
    8TMC3    C413978   2.349   0.466  13.292 -0.1104 -0.0527  0.1015
    8TMC3    C513979   2.423   0.451  13.175 -0.3727 -0.3017  0.9443
    8TMC3    C613980   2.556   0.449  13.175 -0.6457  0.1238  0.4512
    8TMC3     C13981   2.360   0.612  13.462  0.3204  0.1024  0.1886
    8TMC3     O13982   2.286   0.677  13.387  0.0463  0.2304  0.5027
    8TMC3     H13983   2.602   0.482  13.511  0.2414 -1.9207  0.4346
    8TMC3    H113984   2.240   0.462  13.290 -0.2066  2.4805  0.7746
    8TMC3    H213985   2.608   0.428  13.082 -0.3787  1.1906  0.3547
    8TMC3    C713986   2.363   0.520  13.062 -0.7154  0.6566  0.6811
    8TMC3    C813987   2.755   0.421  13.313  0.2113  0.8696 -0.4321
    8TMC3    O113988   2.390   0.471  12.954 -0.2369  0.3694 -0.3647
    8TMC3    O213989   2.835   0.460  13.233  0.0331  0.1729  0.0945
    9TMC3    C113990   2.233   1.494  13.263  0.3377  0.3699 -0.2104
    9TMC3    C213991   2.167   1.417  13.171 -0.1590  0.3974  0.2312
    9TMC3    C313992   2.148   1.284  13.197  1.0188  0.2146  0.4353
    9TMC3    C413993   2.289   1.441  13.372  0.0118 -0.6016 -0.0687
    9TMC3    C513994   2.250   1.310  13.403  0.4603  0.1073  0.4102
    9TMC3    C613995   2.177   1.236  13.319 -0.2310 -0.1338  0.3362
    9TMC3     C13996   2.269   1.629  13.225  0.8950 -0.1464  0.0740
    9TMC3     O13997   2.197   1.680  13.136  0.0945  0.0514 -0.1647
    9TMC3     H13998   2.128   1.463  13.081  3.4754  2.4816 -0.2314
    9TMC3    H113999   2.330   1.503  13.452 -1.6852 -0.6622  0.8447
    9TMC3    H214000   2.135   1.142  13.353  0.5039 -1.0268 -1.2275
    9TMC3    C714001   2.318   1.253  13.517  0.5099 -0.5066  0.0775
    9TMC3    C814002   2.132   1.206  13.075 -0.2613 -0.7152  0.3591
    9TMC3    O114003   2.353   1.322  13.611  0.0998 -0.1836  0.7899
    9TMC3    O214004   2.140   1.262  12.965 -0.3043  0.0558 -1.0728
   10MPD2     C14005   2.278   0.750  12.880  0.2752 -0.6231  0.0640
   10MPD2    C114006   2.260   0.744  13.017  0.2653 -0.1673  0.2412
   10MPD2    C214007   2.199   0.851  13.081  0.4690  0.7777 -0.1728
   10MPD2    C314008   2.168   0.969  13.019  0.4283 -0.2267 -0.1826
   10MPD2    C414009   2.190   0.976  12.886  0.4935 -0.9562 -0.2113
   10MPD2    C514010   2.250   0.869  12.820 -0.1609  0.1873 -0.0719
   10MPD2     H14011   2.187   0.846  13.189  0.4795 -0.3719 -0.2207
   10MPD2    H114012   2.160   1.065  12.832 -2.8478 -0.6886  2.0621
   10MPD2    H214013   2.320   0.669  12.822  0.3984 -1.2315  1.0038
   10MPD2    H314014   2.272   0.867  12.714 -0.1476  2.6117 -0.1070
   10MPD2     N14015   2.125   1.074  13.103 -0.5088  0.2971 -0.3926
   10MPD2    H514016   2.108   1.049  13.200  1.7147  2.0862  0.4466
   10MPD2    N114017   2.303   0.633  13.102  0.5658  0.2458  0.4044
   10MPD2    H714018   2.295   0.651  13.201  0.5169  0.1216  0.4224
   11MPD2     C14019   4.198   4.620  13.511 -0.3091 -0.8553  0.0141
   11MPD2    C114020   4.085   4.608  13.586  0.6097 -0.2000  0.0007
   11MPD2    C214021   3.994   4.714  13.584  0.4240 -0.2909  0.7873
   11MPD2    C314022   4.012   0.094  13.508 -0.1515  0.2839 -0.2177
   11MPD2    C414023   4.129   0.105  13.434 -0.2088  0.3047 -0.4457
   11MPD2    C514024   4.222   4.733  13.436 -0.3234 -0.2948 -0.4825
   11MPD2     H14025   3.897   4.702  13.631 -0.9755  0.1641 -1.9585
   11MPD2    H114026   4.151   0.189  13.369 -1.1825  2.3122  1.8228
   11MPD2    H214027   4.278   4.547  13.504 -0.5108 -1.1553  0.9128
   11MPD2    H314028   4.313   0.010  13.377 -0.3344  0.7166 -0.3023
   11MPD2     N14029   3.912   0.190  13.484 -0.1488 -0.5037  0.6121
   11MPD2    H514030   3.933   0.264  13.418 -1.1092  0.1640  1.0581
   11MPD2    N114031   4.051   4.500  13.663  0.0913  0.0943  0.0327
   11MPD2    H714032   3.962   4.501  13.713 -0.8724  0.1066 -1.6697
    1MPD1     C14033   0.999   1.183  17.252  0.3584  0.1095  0.1033
    1MPD1    C114034   1.028   1.096  17.352  0.3118  0.7207  0.1852
    1MPD1    C214035   1.145   1.113  17.420  0.3832 -0.8908  0.1883
    1MPD1    C314036   1.231   1.218  17.393 -0.8799 -0.6532  0.2023
    1MPD1    C414037   1.192   1.311  17.295 -0.4149  0.3926  0.3275
    1MPD1    C514038   1.078   1.295  17.232 -0.0905  0.0530  0.1897
    1MPD1     H14039   1.172   1.045  17.500  1.4913 -2.4950 -1.5416
    1MPD1    H114040   1.251   1.397  17.265 -0.5648  0.6822  0.8690
    1MPD1    H214041   0.906   1.180  17.196  0.5657 -1.2875 -0.1821
    1MPD1    H314042   1.049   1.373  17.163 -1.8403 -0.2582  0.5513
    1MPD1     N14043   1.356   1.236  17.459  0.1991 -0.2935  0.7337
    1MPD1    H514044   1.415   1.312  17.428  0.9625 -1.5769 -0.9584
    1MPD1    N114045   0.945   0.984  17.378 -0.1513 -0.8498  0.4015
    1MPD1    H614046   0.958   0.958  17.476  0.3644  0.5570  0.7101
    1MPD1    H714047   0.845   0.999  17.370  0.2189  1.6811  0.3887
    2MPD1     C14048   1.929   1.845  17.341  0.0394  0.3511  0.0047
    2MPD1    C114049   1.794   1.820  17.327  0.1540 -0.1148  0.4279
    2MPD1    C214050   1.749   1.695  17.359  0.4606  0.1932 -0.0232
    2MPD1    C314051   1.833   1.596  17.411 -0.7296  0.3988 -0.4099
    2MPD1    C414052   1.970   1.616  17.412  0.5286 -0.3218  0.9282
    2MPD1    C514053   2.015   1.745  17.389  0.6491  0.0241 -0.9045
    2MPD1     H14054   1.642   1.679  17.348  0.6681 -0.2512 -1.4084
    2MPD1    H114055   2.044   1.539  17.431  1.8821  1.0629  1.2272
    2MPD1    H214056   1.971   1.943  17.327  0.3734  0.2408  0.2306
    2MPD1    H314057   2.118   1.778  17.384  1.2955 -1.6788  1.3192
    2MPD1     N14058   1.766   1.478  17.455  0.7115 -0.3702  0.1900
    2MPD1    H514059   1.665   1.475  17.448  0.6330  2.7424 -0.0093
    2MPD1    N114060   1.715   1.923  17.304  0.1371 -0.1383 -0.0878
    2MPD1    H614061   1.763   1.992  17.246 -0.0646  0.6903  0.7317
    2MPD1    H714062   1.646   1.891  17.235  1.1704 -0.7363 -0.8372
    3TMC3    C114063   1.746   1.259  17.557 -0.2262 -0.2152 -0.0820
    3TMC3    C214064   1.807   1.156  17.630  0.5265 -0.8387  0.1351
    3TMC3    C314065   1.721   1.058  17.678 -0.6450  0.2793  0.1744
    3TMC3    C414066   1.611   1.270  17.552  0.6624  0.4515 -0.0064
    3TMC3    C514067   1.532   1.171  17.613  0.0172 -0.2584 -0.3077
    3TMC3    C614068   1.583   1.059  17.671  0.0568  0.8432 -0.8570
    3TMC3     C14069   1.832   1.369  17.514  1.1533 -0.2811  0.2365
    3TMC3     O14070   1.951   1.349  17.536 -0.1670  0.3241  0.3753
    3TMC3     H14071   1.914   1.142  17.622  0.5721  0.4686 -1.7085
    3TMC3    H114072   1.562   1.360  17.517 -2.7514 -1.2597  0.3354
    3TMC3    H214073   1.526   0.970  17.693 -0.1882  1.2587  0.1861
    3TMC3    C714074   1.397   1.153  17.570 -0.7256 -0.0517 -0.3928
    3TMC3    C814075   1.766   0.922  17.705 -0.0441 -0.7429 -0.1058
    3TMC3    O114076   1.325   1.088  17.644 -0.0027 -0.1989 -0.1339
    3TMC3    O214077   1.687   0.823  17.697 -0.4905 -0.3285 -0.8414
    4MPD1     C14078   2.115   0.587   0.147 -0.4809  0.2102  0.7446
    4MPD1    C114079   2.158   0.713   0.192 -0.0655  0.0859 -0.0758
    4MPD1    C214080   2.079   0.825   0.147 -0.0564 -0.3074  0.3875
    4MPD1    C314081   1.964   0.811   0.074  0.4468  0.4391  0.1864
    4MPD1    C414082   1.923   0.687   0.037 -0.3485 -0.5635  0.0335
    4MPD1    C514083   2.000   0.583   0.070  0.2131 -0.3915 -0.1755
    4MPD1     H14084   2.110   0.926   0.174  0.6373 -1.4036  3.7483
    4MPD1    H114085   1.843   0.663  17.705  0.3224  0.2759 -1.0399
    4MPD1    H214086   2.174   0.499   0.168  1.4043  1.0200 -1.1704
    4MPD1    H314087   1.973   0.488   0.024 -2.9031  0.8148 -0.8117
    4MPD1     N14088   1.888   0.924   0.034  0.3899  0.4306 -0.7141
    4MPD1    H514089   1.937   1.011   0.050 -1.0053  0.6504  2.6019
    4MPD1    N114090   2.289   0.733   0.242  0.1431  0.4970  0.2752
    4MPD1    H614091   2.296   0.817   0.299  0.9459  0.6343 -0.0253
    4MPD1    H714092   2.319   0.650   0.292  0.2918 -0.7309 -1.8533
    1TCq1    O114093   3.211   0.259  13.125  0.5118 -0.2045 -0.1389
    1TCq1    C114094   3.119   0.232  13.028 -0.2559 -0.0408 -0.9793
    1TCq1    O214095   3.013   0.287  13.007 -0.1588 -0.1285 -0.7710
    1TCq1    C214096   3.125   0.087  13.017  0.3961 -0.6342  0.3257
    1TCq1    C314097   3.158   0.009  13.126 -0.7782 -0.5575 -0.0577
    1TCq1    C414098   3.162   4.603  13.118  0.4496  0.6591 -0.6247
    1TCq1    C514099   3.081   4.538  13.025 -0.4862 -0.1782  0.3924
    1TCq1    C614100   3.025   4.623  12.921 -0.3506  0.3137  0.7553
    1TCq1    C714101   3.055   0.022  12.912  0.1270  0.0636 -0.5621
    1TCq1    C814102   2.953   4.553  12.812 -0.3042 -0.2949  0.0742
    1TCq1    O414103   2.951   4.432  12.812 -0.3623 -0.0779  0.0732
    1TCq1    C914104   3.176   4.532  13.238  0.9616  0.5372 -0.1549
    1TCq1    O514105   3.185   4.603  13.343 -0.1850 -0.3150  0.0730
    1TCq1    O614106   3.179   4.404  13.229 -0.2107 -0.3942  0.4794
    1TCq1    H114107   3.294   0.206  13.127 -0.3547 -1.4624  2.5416
    1TCq1    H214108   3.224   0.039  13.207  1.3733  1.4345 -2.5228
    1TCq1    H314109   3.044   4.438  13.042  0.9014 -0.6727  0.4780
    1TCq1    H414110   3.014   0.089  12.837  2.0886 -2.7071 -4.1425
    2MPD1     C14111   2.737   4.538  12.347 -0.3777  0.9581 -0.3928
    2MPD1    C114112   2.750   4.673  12.388 -0.0796  0.0694  0.1057
    2MPD1    C214113   2.815   4.699  12.509 -0.3486 -0.0125  0.2224
    2MPD1    C314114   2.856   4.591  12.587 -0.2862 -0.0918 -0.2289
    2MPD1    C414115   2.838   4.457  12.549 -0.5766  0.1075 -0.0681
    2MPD1    C514116   2.781   4.434  12.426  0.3679 -0.4039  0.2570
    2MPD1     H14117   2.837   0.063  12.546 -0.7773  0.2157 -0.1280
    2MPD1    H114118   2.877   4.371  12.602  0.3734  1.1334  0.8983
    2MPD1    H214119   2.716   4.519  12.242 -2.2721  1.7438 -0.1532
    2MPD1    H314120   2.781   4.331  12.393  2.2346  0.5540 -2.7974
    2MPD1     N14121   2.929   4.638  12.707  0.3203  0.2402 -0.0984
    2MPD1    H514122   2.960   4.733  12.726  0.8817 -0.1182  0.8114
    2MPD1    N114123   2.744   0.041  12.295  0.4186 -0.5557  0.4205
    2MPD1    H614124   2.654   0.031  12.249  0.6304  1.1796 -0.3749
    2MPD1    H714125   2.744   0.135  12.336 -1.2249  1.0842 -3.3444
    1TMC1    C114126   1.266   4.654   0.983 -1.0754 -0.1600  0.4302
    1TMC1    C214127   1.259   4.587   0.869  0.1194 -0.5840  0.1777
    1TMC1    C314128   1.307   4.462   0.872  0.4987  0.2424  0.0490
    1TMC1    C414129   1.332   4.604   1.093 -0.4405  0.0108 -0.1064
    1TMC1    C514130   1.383   4.473   1.085 -0.1851  0.2181  0.6542
    1TMC1    C614131   1.368   4.399   0.972 -0.2908 -0.8425  0.5733
    1TMC1     C14132   1.226   0.068   0.972 -0.2215 -0.0242 -0.3450
    1TMC1     O14133   1.201   0.115   0.859  0.2443  0.2461  0.3188
    1TMC1     H14134   1.217   4.638   0.783 -0.4497 -1.0742  0.1649
    1TMC1    H114135   1.344   4.663   1.183 -0.3853 -0.0436 -0.0786
    1TMC1    H214136   1.425   4.308   0.962 -0.7105 -1.3828  2.9352
    1TMC1    C714137   1.499   4.434   1.166  0.4608 -0.4282 -1.3682
    1TMC1    C814138   1.275   4.387   0.754 -0.2240  0.0148 -0.5266
    1TMC1    O114139   1.567   4.512   1.228 -0.2502 -0.1372  0.1220
    1TMC1    O214140   1.277   4.261   0.759  0.2007  0.1896 -0.0315
    1TMC1    O314141   1.510   4.296   1.165  0.0807  0.0453 -0.2982
    1TMC1    H314142   1.427   4.252   1.138  0.6116 -0.9936 -0.2292
    1TMC1    O514143   1.284   4.459   0.643 -0.8740  0.4811 -0.7294
    1TMC1    H514144   1.311   4.553   0.647  0.1368  0.0537  2.4813
    2MPD1     C14145   1.079   0.507   1.170  0.1204  1.1393 -0.1103
    2MPD1    C114146   1.164   0.442   1.258 -0.3764 -0.3064 -0.1748
    2MPD1    C214147   1.212   0.323   1.224 -0.3858 -0.0620  0.1883
    2MPD1    C314148   1.181   0.265   1.108  0.4421 -0.2324  0.3375
    2MPD1    C414149   1.119   0.342   1.006  0.4315  0.0740  0.7403
    2MPD1    C514150   1.069   0.459   1.048 -0.6932  0.2199  0.0936
    2MPD1     H14151   1.255   0.271   1.309  1.0742  0.1871 -0.3951
    2MPD1    H114152   1.101   0.301   0.908  1.0070 -0.5016  0.8774
    2MPD1    H214153   1.021   0.596   1.189  1.9446  2.3770 -0.4333
    2MPD1    H314154   1.017   0.529   0.984  0.0308 -0.8982 -1.7224
    2MPD1     N14155   1.219   0.130   1.093 -0.1024  0.2879 -0.8239
    2MPD1    H514156   1.254   0.079   1.172 -0.8982  1.4377  0.2713
    2MPD1    N114157   1.175   0.488   1.391 -0.1423 -0.3386  0.1371
    2MPD1    H614158   1.258   0.460   1.442  0.8300  2.9360  0.3302
    2MPD1    H714159   1.178   0.590   1.398  0.9053 -0.3128 -0.7813
    1MPD1     C14160   4.662   1.471  12.153 -0.2124  0.0532  0.4824
    1MPD1    C114161   4.620   1.391  12.052 -0.0913  0.7138 -0.6963
    1MPD1    C214162   4.684   1.411  11.933  0.5252  0.2054  0.2917
    1MPD1    C314163   0.040   1.512  11.912  0.2842 -0.3274 -0.2744
    1MPD1    C414164   0.067   1.595  12.012  0.6045 -0.8730  0.6172
    1MPD1    C514165   0.021   1.567  12.136  0.4962  0.5721  0.0517
    1MPD1     H14166   4.684   1.336  11.855 -1.5374 -0.0529  0.5447
    1MPD1    H114167   0.151   1.662  12.001  0.5571 -0.6958  1.3726
    1MPD1    H214168   4.642   1.459  12.259  0.8220  1.1399  0.7994
    1MPD1    H314169   0.053   1.631  12.217  2.6391 -0.5400  0.0867
    1MPD1     N14170   0.096   1.519  11.783  0.3758 -0.4112  0.0662
    1MPD1    H514171   0.079   1.438  11.724  1.5899  0.1830 -1.1111
    1MPD1    N114172   4.540   1.279  12.080  0.6829  0.3640  0.1273
    1MPD1    H614173   4.498   1.246  11.994 -0.5788  1.4006  0.3339
    1MPD1    H714174   4.460   1.295  12.142 -0.0629 -1.1433 -0.4457
    2MPD1     C14175   3.384   0.998  11.660 -0.2612 -0.0706 -0.0351
    2MPD1    C114176   3.312   0.997  11.545  1.4788 -0.1572  0.1087
    2MPD1    C214177   3.359   1.076  11.447  0.2495 -0.1595  0.6164
    2MPD1    C314178   3.481   1.146  11.452  0.0209 -0.0152  0.0203
    2MPD1    C414179   3.559   1.126  11.558 -0.8275  0.3662 -0.3433
    2MPD1    C514180   3.506   1.065  11.668  0.5323  0.3766 -0.0010
    2MPD1     H14181   3.294   1.081  11.360 -0.8122 -2.2751  1.2753
    2MPD1    H114182   3.661   1.164  11.561 -1.8352  2.9656  1.3363
    2MPD1    H214183   3.349   0.947  11.749  0.1914  2.4548  1.5986
    2MPD1    H314184   3.574   1.044  11.750 -0.3955 -0.3712  0.5850
    2MPD1     N14185   3.520   1.233  11.349  0.3638 -0.0545  0.0721
    2MPD1    H514186   3.615   1.268  11.341  0.0850  0.7033  0.0070
    2MPD1    N114187   3.186   0.941  11.542  0.3486  0.6814 -0.4119
    2MPD1    H614188   3.188   0.851  11.590 -2.4538  0.1127 -1.3696
    2MPD1    H714189   3.147   0.923  11.450  0.9886  2.6222 -1.0648
    3MPD1     C14190   3.319   0.862  10.530 -0.4714 -0.2358 -0.3695
    3MPD1    C114191   3.261   0.862  10.654 -0.4901  0.5151 -0.4223
    3MPD1    C214192   3.309   0.967  10.739 -0.1429 -1.1750 -0.6080
    3MPD1    C314193   3.397   1.066  10.695  0.0927 -0.4434  0.3164
    3MPD1    C414194   3.444   1.067  10.567  0.0307 -0.1691 -0.3329
    3MPD1    C514195   3.400   0.965  10.485 -0.1529  0.0739  0.2131
    3MPD1     H14196   3.288   0.966  10.845 -0.5596  0.1533 -0.6768
    3MPD1    H114197   3.499   1.147  10.518 -0.2243  1.0581  1.3774
    3MPD1    H214198   3.319   0.778  10.461  2.4789 -0.2221 -0.4185
    3MPD1    H314199   3.450   0.966  10.389 -0.8256  1.2251 -0.1337
    3MPD1     N14200   3.438   1.158  10.791  0.6452  0.1432  0.2830
    3MPD1    H514201   3.407   1.144  10.887  0.0085  0.1731  0.0754
    3MPD1    N114202   3.188   0.755  10.707  0.3832 -0.1382  0.7559
    3MPD1    H614203   3.141   0.773  10.796 -0.2242  2.3307 -0.0696
    3MPD1    H714204   3.118   0.734  10.637  0.4201  1.8160  0.1320
    4MPD2     C14205   0.306   1.724  11.026 -0.3293  0.0696  0.6457
    4MPD2    C114206   0.295   1.605  11.095  0.8862 -0.1161  0.2996
    4MPD2    C214207   0.239   1.494  11.049 -0.0641  0.2547  0.0074
    4MPD2    C314208   0.190   1.504  10.915 -0.6069 -0.6605 -0.5782
    4MPD2    C414209   0.182   1.617  10.850  0.3669  0.5744 -0.0972
    4MPD2    C514210   0.238   1.728  10.907 -0.3899 -0.9449 -1.0290
    4MPD2     H14211   0.235   1.401  11.105  1.9765 -0.3954 -0.9100
    4MPD2    H114212   0.157   1.618  10.745  1.5125 -1.0965 -0.3715
    4MPD2    H214213   0.343   1.820  11.062 -0.5436  0.6195 -0.6125
    4MPD2    H314214   0.244   1.819  10.847  2.6300 -0.1223  0.5227
    4MPD2     N14215   0.136   1.388  10.860  0.5148  0.3453  0.5871
    4MPD2    H514216   0.144   1.307  10.921  0.7612  1.0183  1.4462
    4MPD2    N114217   0.334   1.597  11.225 -0.4309 -0.9051 -0.2445
    4MPD2    H714218   0.329   1.506  11.270 -2.0218 -1.6151 -1.8614
    5TMC3    C114219   0.396   1.635  11.437  0.1009  0.4779 -0.2550
    5TMC3    C214220   0.314   1.676  11.537  0.3045  0.2435  0.3836
    5TMC3    C314221   0.258   1.580  11.615  0.6009 -0.5706  0.6604
    5TMC3    C414222   0.436   1.505  11.425  0.3221 -0.4155  0.9922
    5TMC3    C514223   0.380   1.412  11.509 -0.4647  0.2509 -0.1836
    5TMC3    C614224   0.297   1.449  11.609  0.3489  0.0894  0.0570
    5TMC3     C14225   0.373   1.697  11.308 -0.0351  0.2618 -0.2649
    5TMC3     O14226   0.376   1.822  11.292  0.5512  0.1890  0.0353
    5TMC3     H14227   0.288   1.782  11.532  1.1902  0.4681  0.6808
    5TMC3    H114228   0.506   1.478  11.347  0.3870  0.9248  0.5775
    5TMC3    H214229   0.242   1.376  11.667 -0.4534  1.3326  0.8621
    5TMC3    C714230   0.335   1.294  11.438  0.6858 -0.1131 -0.2670
    5TMC3    C814231   0.184   1.624  11.735  0.2167  0.2347  0.0112
    5TMC3    O114232   0.346   1.306  11.313  0.9466  0.1286 -0.4321
    5TMC3    O214233   0.201   1.732  11.791  0.4975 -0.0973  1.0807
    6TMC3    C114234   3.516   1.326  11.126  0.4408  0.3934 -0.6050
    6TMC3    C214235   3.462   1.313  11.001  0.3200  0.3819  0.5249
    6TMC3    C314236   3.543   1.336  10.892  0.2306  0.2617 -0.1065
    6TMC3    C414237   3.649   1.344  11.144  0.6353 -0.4983  0.0544
    6TMC3    C514238   3.727   1.371  11.035  0.6215  0.0507  0.2520
    6TMC3    C614239   3.672   1.363  10.909  0.1045  0.5441 -0.4475
    6TMC3     C14240   3.441   1.262  11.235 -0.6795  0.2044 -0.3360
    6TMC3     O14241   3.323   1.246  11.201 -0.3900  0.3125 -0.0216
    6TMC3     H14242   3.355   1.311  10.983  0.8546 -0.0664 -2.7278
    6TMC3    H114243   3.687   1.368  11.243  1.6286  0.3819 -0.5532
    6TMC3    H214244   3.737   1.365  10.823  1.0518  2.7701  0.3091
    6TMC3    C714245   3.872   1.409  11.051 -0.3249 -0.4377 -0.4725
    6TMC3    C814246   3.508   1.272  10.769  0.0194  0.2798  0.7746
    6TMC3    O114247   3.941   1.443  10.955  1.0791 -0.2998 -0.1541
    6TMC3    O214248   3.549   1.313  10.665  0.1093 -0.3300 -0.1997
    7MPD2     C14249   4.730   0.909  11.372 -0.1308  0.3031  0.5487
    7MPD2    C114250   0.058   0.996  11.295  0.5623  0.9474 -0.3457
    7MPD2    C214251   0.157   1.080  11.344  0.6161 -0.7430  0.3442
    7MPD2    C314252   0.187   1.090  11.476  0.1053  0.1598  0.3996
    7MPD2    C414253   0.113   1.004  11.563  0.8191  0.4571 -0.0558
    7MPD2    C514254   0.027   0.910  11.511 -1.1122  0.6173 -0.5271
    7MPD2     H14255   0.198   1.152  11.273 -1.9121 -0.2241 -0.5944
    7MPD2    H114256   0.142   1.009  11.667 -1.0510  1.4719  0.4253
    7MPD2    H214257   4.658   0.835  11.339  1.5510 -0.2831 -1.8100
    7MPD2    H314258   4.716   0.836  11.577 -0.3103 -0.5849 -1.3305
    7MPD2     N14259   0.279   1.190  11.518 -0.2038  0.5282 -0.1612
    7MPD2    H514260   0.301   1.197  11.616 -0.4956  0.2838 -0.0797
    7MPD2    N114261   0.005   1.011  11.160  0.1837 -0.1338  0.6111
    7MPD2    H714262   4.669   0.943  11.134  0.7032 -1.7125  3.2802
    8TMC3    C114263   4.710   1.119  10.949  0.5272  0.4832 -0.7350
    8TMC3    C214264   4.578   1.153  10.968 -0.0561 -0.1157 -0.7702
    8TMC3    C314265   4.519   1.240  10.882  0.0082  0.2025  0.8263
    8TMC3    C414266   0.045   1.170  10.842 -0.2107 -0.3115  0.0787
    8TMC3    C514267   4.714   1.262  10.759 -0.4673 -0.1006 -0.1351
    8TMC3    C614268   4.587   1.298  10.775 -0.1149 -0.6161  0.1052
    8TMC3     C14269   0.054   1.106  11.069  1.0384 -0.0460 -0.4405
    8TMC3     O14270   0.164   1.154  11.072 -0.5824  0.0961  0.1605
    8TMC3     H14271   4.525   1.122  11.058 -1.5298  3.0219 -0.5382
    8TMC3    H114272   0.150   1.150  10.826 -0.5781 -3.4827  1.6562
    8TMC3    H214273   4.537   1.379  10.724 -0.4899 -0.5590  0.5609
    8TMC3    C714274   0.053   1.380  10.749  0.0860  0.0004 -0.2278
    8TMC3    C814275   4.399   1.310  10.936 -0.4284  0.3219  0.2986
    8TMC3    O114276   0.008   1.471  10.682 -1.0967  0.2131  0.0847
    8TMC3    O214277   4.313   1.328  10.853 -0.3059 -0.0125  0.1665
    9MPD2     C14278   4.319   1.357  11.296  0.4564  0.0427  0.3931
    9MPD2    C114279   4.296   1.352  11.163 -0.1770 -0.1924 -0.0972
    9MPD2    C214280   4.157   1.367  11.120  0.1099 -0.4932 -0.7025
    9MPD2    C314281   4.056   1.382  11.212  0.7593  0.1750  0.1895
    9MPD2    C414282   4.089   1.384  11.346  0.1248  0.3084 -0.0384
    9MPD2    C514283   4.217   1.372  11.389 -0.8978  0.0921 -0.3844
    9MPD2     H14284   4.128   1.361  11.015  1.4996 -0.6676 -1.0661
    9MPD2    H114285   4.011   1.370  11.420 -1.5139  3.4225 -1.1749
    9MPD2    H214286   4.413   1.336  11.346  0.3457  1.3093  1.1311
    9MPD2    H314287   4.231   1.334  11.490  1.4193 -1.3992 -1.2799
    9MPD2     N14288   3.921   1.387  11.180 -0.1831  0.5327 -0.3947
    9MPD2    H514289   3.860   1.376  11.261 -0.4361 -2.2934 -0.9741
    9MPD2    N114290   4.402   1.324  11.074 -0.3438  0.4413 -0.7472
    9MPD2    H714291   4.490   1.298  11.119 -1.4336  1.1520  1.7913
    1MPD1     C14292   4.023   0.423  16.455  0.3839 -0.1315  0.0376
    1MPD1    C114293   3.891   0.458  16.473  0.3400 -0.8046 -0.4252
    1MPD1    C214294   3.797   0.364  16.510  0.0976 -0.5679 -0.4124
    1MPD1    C314295   3.834   0.227  16.525  0.0768  0.5610 -0.7442
    1MPD1    C414296   3.964   0.187  16.502  0.7701 -1.0674  0.1642
    1MPD1    C514297   4.052   0.287  16.465 -0.7065  0.3375  0.2764
    1MPD1     H14298   3.697   0.401  16.531  0.1273 -1.1759  0.8178
    1MPD1    H114299   3.990   0.082  16.502 -1.9010 -1.7140  0.3707
    1MPD1    H214300   4.107   0.491  16.443 -0.4026  0.7881 -0.1719
    1MPD1    H314301   4.156   0.261  16.446 -0.4923  0.9415  0.6326
    1MPD1     N14302   3.749   0.132  16.576 -0.4123 -0.6184  0.0912
    1MPD1    H514303   3.800   0.046  16.596  2.0238  0.3456 -2.0592
    1MPD1    N114304   3.865   0.590  16.485  0.6295  0.3034  0.5339
    1MPD1    H614305   3.932   0.650  16.437  0.0276 -0.9036 -1.8126
    1MPD1    H714306   3.765   0.609  16.480  1.0136  1.6768 -2.1117
    2TMC2    C114307   3.523   4.533  16.685 -0.2599 -0.1936  0.0832
    2TMC2    C214308   3.394   4.554  16.723 -0.0732  0.3301 -0.6378
    2TMC2    C314309   3.353   4.680  16.755 -0.0218 -0.1748  0.2592
    2TMC2    C414310   3.596   4.637  16.644  0.2760  0.5620  0.0266
    2TMC2    C514311   3.550   0.026  16.657 -0.9258  0.0300 -0.7125
    2TMC2    C614312   3.435   0.053  16.723  0.2684 -0.1633  0.2293
    2TMC2     C14313   3.547   4.407  16.617  0.4065 -0.1689 -0.5471
    2TMC2     O14314   3.457   4.326  16.616  0.2157 -0.0516  0.0016
    2TMC2     H14315   3.337   4.472  16.765  1.7014 -0.1797  0.7755
    2TMC2    H114316   3.686   4.613  16.589  1.2305  1.8120  1.0427
    2TMC2    H214317   3.391   0.151  16.731  0.8905 -0.2022  4.0568
    2TMC2    C714318   3.613   0.149  16.605 -0.8230 -0.4655  0.6982
    2TMC2    C814319   3.230   4.707  16.828 -0.8138  0.6630  1.3749
    2TMC2    O114320   3.541   0.247  16.589 -0.1998  0.3328  0.2078
    2TMC2    O214321   3.213   0.073  16.897  0.0763 -1.0269  0.2642
    2TMC2    O514322   3.141   4.607  16.813  0.3400  0.4956  0.0293
    2TMC2    H514323   3.166   4.527  16.762 -0.6158  0.1513  0.0860
    3MPD1     C14324   3.904   4.045  16.545 -0.2480  0.1368 -0.2354
    3MPD1    C114325   3.966   4.167  16.545 -0.7987 -0.2883  0.4714
    3MPD1    C214326   3.881   4.270  16.555 -0.7417  0.2321  0.8916
    3MPD1    C314327   3.744   4.261  16.574 -0.0527  0.0770  0.2590
    3MPD1    C414328   3.689   4.141  16.592 -0.2665  0.3589  0.7410
    3MPD1    C514329   3.772   4.033  16.583 -1.1791  0.1021  0.8968
    3MPD1     H14330   3.930   4.366  16.564  0.6056 -0.4592  0.9381
    3MPD1    H114331   3.583   4.124  16.611  0.0058 -0.1060  1.8049
    3MPD1    H214332   3.968   3.958  16.543 -0.1440  0.2099 -0.0827
    3MPD1    H314333   3.733   3.933  16.597  0.0153 -0.6943 -1.4050
    3MPD1     N14334   3.684   4.383  16.600  0.3269  0.0843  0.2898
    3MPD1    H514335   3.747   4.462  16.605 -1.4517  1.3327  2.7987
    3MPD1    N114336   4.093   4.180  16.487 -0.2296 -0.6423  0.1241
    3MPD1    H614337   4.139   4.269  16.499  0.1340 -0.4690 -2.5044
    3MPD1    H714338   4.164   4.117  16.522  2.5187  2.6652  0.4572
    1TMC1    C114339   2.507   3.275  13.385 -0.0339  0.2046  0.9056
    1TMC1    C214340   2.531   3.380  13.462 -0.2485  0.1012  0.1801
    1TMC1    C314341   2.424   3.444  13.514  0.9445  0.0128 -0.0610
    1TMC1    C414342   2.380   3.238  13.355  0.2275 -0.1544 -0.0996
    1TMC1    C514343   2.276   3.310  13.410 -0.7576 -0.0613 -0.0967
    1TMC1    C614344   2.296   3.409  13.502 -0.0921 -0.2648  0.2939
    1TMC1     C14345   2.612   3.194  13.320 -0.2501 -0.5232  0.1900
    1TMC1     O14346   2.584   3.102  13.249  0.2657 -0.0749 -0.0553
    1TMC1     H14347   2.630   3.416  13.488  0.1320 -0.0256 -1.1249
    1TMC1    H114348   2.367   3.160  13.281 -3.4298  1.0390 -0.7199
    1TMC1    H214349   2.214   3.461  13.551 -0.7536  2.5602 -3.7738
    1TMC1    C714350   2.144   3.253  13.408 -0.3077  0.6059 -0.0193
    1TMC1    C814351   2.448   3.564  13.604  0.1011 -0.4918 -0.3979
    1TMC1    O114352   2.044   3.311  13.370  0.3921 -0.2749 -0.4037
    1TMC1    O214353   2.374   3.663  13.611 -0.1985 -0.1753 -0.3026
    1TMC1    O314354   2.153   3.123  13.449 -0.8629  0.0654 -0.2121
    1TMC1    H314355   2.244   3.102  13.477 -0.8483  0.5599  0.1126
    1TMC1    O514356   2.565   3.555  13.674  0.1413 -0.1913 -0.5687
    1TMC1    H514357   2.614   3.470  13.671  3.9594  2.0524 -2.5506
    2MPD2     C14358   2.868   3.119  13.195  0.1584  0.3642  0.5969
    2MPD2    C114359   2.857   3.192  13.309 -0.0288  0.1981  0.1655
    2MPD2    C214360   2.967   3.230  13.385 -0.0446  0.2091 -0.1688
    2MPD2    C314361   3.093   3.217  13.332 -0.0635  0.5825 -0.0015
    2MPD2    C414362   3.102   3.134  13.220  0.4995  0.4122  0.1901
    2MPD2    C514363   2.996   3.098  13.148 -0.3295 -0.4509 -0.4491
    2MPD2     H14364   2.965   3.302  13.466 -0.9375  0.4514 -0.4044
    2MPD2    H114365   3.195   3.101  13.175 -0.7581 -0.4883 -1.7474
    2MPD2    H214366   2.786   3.079  13.136  0.4961  0.7828 -0.1402
    2MPD2    H314367   3.008   3.027  13.067 -0.3326 -1.2266  0.2191
    2MPD2     N14368   3.202   3.270  13.402  0.2296  0.1837  0.3264
    2MPD2    H514369   3.184   3.322  13.486 -0.3169 -0.4573  0.6039
    2MPD2    N114370   2.736   3.243  13.355 -0.0171  0.2657  0.0073
    2MPD2    H714371   2.734   3.326  13.414 -1.6620  0.6809 -0.6287
    3TCq1    O114372   3.785   3.201  13.721 -0.1429  0.0880  0.0526
    3TCq1    C114373   3.745   3.220  13.599 -0.3078 -0.5864 -0.3619
    3TCq1    O214374   3.803   3.182  13.498  0.4802 -0.1106 -0.2038
    3TCq1    C214375   3.605   3.265  13.609  0.2189  0.5913 -1.0686
    3TCq1    C314376   3.552   3.330  13.715  0.0527 -0.9008 -0.4228
    3TCq1    C414377   3.425   3.383  13.706  0.0931 -0.0755 -0.3387
    3TCq1    C514378   3.362   3.359  13.588 -0.1908 -0.2133 -0.0260
    3TCq1    C614379   3.418   3.290  13.487 -0.3854 -0.2454  0.0611
    3TCq1    C714380   3.538   3.233  13.503  0.7360  0.3279 -0.4961
    3TCq1    C814381   3.335   3.250  13.377 -0.2043 -0.5936  0.1637
    3TCq1    O414382   3.389   3.179  13.291  0.1162  0.0475  0.7562
    3TCq1    C914383   3.365   3.454  13.821 -0.0776  0.4502 -0.4620
    3TCq1    O514384   3.249   3.503  13.799 -0.4006 -0.2198  0.2866
    3TCq1    O614385   3.428   3.455  13.930 -0.2865 -0.2545 -0.4918
    3TCq1    H114386   3.707   3.208  13.780 -0.7567 -1.2220 -0.6085
    3TCq1    H214387   3.607   3.354  13.805  0.1275 -3.2876  0.1686
    3TCq1    H314388   3.270   3.414  13.570 -0.0568  0.7382  2.1686
    3TCq1    H414389   3.593   3.182  13.425 -1.1389  0.0604 -1.6439
    1MPD2     C14390   1.968   0.259  14.865 -0.5747  0.0103  0.0026
    1MPD2    C114391   1.894   0.151  14.821 -0.6250  0.0934  1.0424
    1MPD2    C214392   1.930   0.023  14.861  0.4402 -0.6031 -0.8080
    1MPD2    C314393   2.023   4.727  14.952 -0.1005  0.0345  0.6682
    1MPD2    C414394   2.095   0.104  15.002 -0.7267 -0.0207 -0.3423
    1MPD2    C514395   2.069   0.234  14.953 -0.1069 -0.2005 -0.0710
    1MPD2     H14396   1.883   4.674  14.809 -1.8744  0.2315 -0.0794
    1MPD2    H114397   2.183   0.081  15.060 -0.8285 -0.2263 -0.2694
    1MPD2    H214398   1.933   0.360  14.847  3.2437  1.4603  0.8564
    1MPD2    H314399   2.134   0.311  14.990  0.1904 -1.3658  1.8587
    1MPD2     N14400   2.043   4.592  14.987  0.1752  0.4650 -0.1520
    1MPD2    H514401   1.992   4.522  14.935  0.6676 -0.4302  0.5805
    1MPD2    N114402   1.780   0.175  14.738 -0.6034  0.1975 -0.1353
    1MPD2    H714403   1.764   0.264  14.691 -2.8413 -0.3199 -0.3927
    2TMC3    C114404   1.572   0.134  14.644 -0.5419  1.2581 -0.1169
    2TMC3    C214405   1.461   0.048  14.663  0.5726 -0.2683 -0.8715
    2TMC3    C314406   1.403   0.005  14.548 -0.0747 -0.5203 -0.5562
    2TMC3    C414407   1.607   0.189  14.523 -0.6060  0.7328 -0.8026
    2TMC3    C514408   1.520   0.163  14.416  0.2212  0.0346  0.0163
    2TMC3    C614409   1.431   0.058  14.421 -0.3399 -0.1091 -0.3252
    2TMC3     C14410   1.670   0.091  14.739  0.1795 -0.3672  0.2457
    2TMC3     O14411   1.652   4.726  14.803 -0.0126  0.0149 -0.6265
    2TMC3     H14412   1.436   0.016  14.763  1.4044 -0.3913 -0.7012
    2TMC3    H114413   1.683   0.266  14.510  0.2065  0.0697 -0.0363
    2TMC3    H214414   1.366   0.028  14.340 -1.4004 -0.1013  0.5180
    2TMC3    C714415   1.548   0.229  14.296 -0.0205  0.2118 -0.2509
    2TMC3    C814416   1.390   4.600  14.550  0.2069  0.1651 -0.2298
    2TMC3    O114417   1.559   0.151  14.202  0.4254  0.3699 -0.3313
    2TMC3    O214418   1.325   4.546  14.462  0.4209 -0.6957  0.8521
    3TCq1    O114419   1.753   1.191  13.785  0.5294 -0.1955 -0.1218
    3TCq1    C114420   1.797   1.250  13.899 -0.2260 -0.1926 -0.3340
    3TCq1    O214421   1.827   1.368  13.911  0.0390 -0.5062  0.2554
    3TCq1    C214422   1.768   1.166  14.009  0.2162  0.1139  0.3712
    3TCq1    C314423   1.830   1.180  14.129  0.3021 -0.7093 -0.3723
    3TCq1    C414424   1.777   1.128  14.244  0.1540  0.5742 -0.2056
    3TCq1    C514425   1.664   1.045  14.239  0.2333 -0.8568  0.3189
    3TCq1    C614426   1.602   1.034  14.112 -0.2289  0.1912 -0.2323
    3TCq1    C714427   1.658   1.084  13.999 -0.1248 -0.6843  0.4362
    3TCq1    C814428   1.504   0.932  14.086  0.4376  0.3309  0.5017
    3TCq1    O414429   1.441   0.932  13.983 -0.0340 -0.2110  0.0330
    3TCq1    C914430   1.827   1.163  14.379  0.0913 -0.7750 -0.4590
    3TCq1    O514431   1.933   1.228  14.370  0.5341  0.0561  0.3026
    3TCq1    O614432   1.781   1.106  14.480  0.0365 -0.7197 -0.3538
    3TCq1    H114433   1.756   1.094  13.795  0.4990  0.1518  3.2032
    3TCq1    H214434   1.902   1.260  14.141  0.3688 -0.9839  1.0039
    3TCq1    H314435   1.612   1.009  14.327  0.1294 -1.3574  0.0517
    3TCq1    H414436   1.599   1.071  13.909  0.6309 -0.3880 -0.1001
    4MPD2     C14437   1.452   0.648  14.017  0.1805 -0.1112 -0.9623
    4MPD2    C114438   1.512   0.685  14.129  0.1500  0.8342  0.7005
    4MPD2    C214439   1.542   0.585  14.225 -0.0100  0.2868 -0.4550
    4MPD2    C314440   1.514   0.454  14.202  0.1721  0.2183 -0.9517
    4MPD2    C414441   1.452   0.423  14.078 -0.0158 -0.0265  0.2814
    4MPD2    C514442   1.436   0.522  13.986  0.3083  0.0328 -0.0174
    4MPD2     H14443   1.582   0.609  14.323 -1.0844 -1.2875  0.3790
    4MPD2    H114444   1.439   0.319  14.051 -1.7058  0.1485  0.3984
    4MPD2    H214445   1.426   0.719  13.938  0.1543 -1.1947 -1.9169
    4MPD2    H314446   1.395   0.500  13.888 -1.3412  1.5500  0.3321
    4MPD2     N14447   1.541   0.366  14.304 -0.1258 -0.4691 -0.0268
    4MPD2    H514448   1.537   0.412  14.394 -0.1913  1.0086 -0.7799
    4MPD2    N114449   1.538   0.825  14.160 -0.2985  0.3408  0.0900
    4MPD2    H714450   1.608   0.835  14.233  0.3654 -0.2785 -0.4694
    5TMC2    C114451   1.948   4.270  14.986 -0.2207 -0.3651 -0.2400
    5TMC2    C214452   1.877   4.229  15.104 -0.3127 -0.3523 -0.3713
    5TMC2    C314453   1.915   4.285  15.216 -0.0550 -0.2814 -0.1393
    5TMC2    C414454   2.060   4.350  15.003  0.5220 -0.4569  0.4244
    5TMC2    C514455   2.091   4.407  15.117  0.3920 -0.1036 -0.0684
    5TMC2    C614456   2.017   4.376  15.231  0.6105  0.5848 -0.4713
    5TMC2     C14457   1.857   4.308  14.874 -0.3770  0.0019  0.3608
    5TMC2     O14458   1.884   4.414  14.820 -0.7693 -0.7784 -0.1593
    5TMC2     H14459   1.803   4.151  15.092  0.2386 -0.8524 -0.5078
    5TMC2    H114460   2.123   4.370  14.918 -0.0228  1.5660  0.5112
    5TMC2    H214461   2.041   4.431  15.321 -1.6004 -3.1838  2.4302
    5TMC2    C714462   2.117   4.548  15.097 -0.1785 -0.3520 -0.4665
    5TMC2    C814463   1.835   4.271  15.334  0.1703 -0.1096 -0.4945
    5TMC2    O114464   2.156   4.610  15.194  0.0392 -0.0322  0.2548
    5TMC2    O214465   1.715   4.262  15.337  0.6179  0.1015  0.2201
    5TMC2    O514466   1.920   4.225  15.428  0.6181  0.7432  0.0622
    5TMC2    H514467   2.003   4.185  15.393 -0.6268 -1.3037 -0.5742
    6MPD2     C14468   1.401   4.309  14.647  0.2409  0.2624 -0.8128
    6MPD2    C114469   1.491   4.408  14.669  0.5433  0.0287  0.0474
    6MPD2    C214470   1.605   4.380  14.734  0.8685 -0.5778  0.2155
    6MPD2    C314471   1.629   4.255  14.784 -0.6323 -0.4292 -0.6379
    6MPD2    C414472   1.540   4.156  14.763  0.9664  0.1860  0.5829
    6MPD2    C514473   1.431   4.180  14.687  0.1314 -0.3909  0.3542
    6MPD2     H14474   1.677   4.459  14.755 -0.6841  0.3163  2.2183
    6MPD2    H114475   1.562   4.055  14.796 -1.8740 -0.5839  0.0932
    6MPD2    H214476   1.309   4.329  14.594  0.5664  0.9368 -1.1309
    6MPD2    H314477   1.359   4.104  14.659  2.2449 -1.3986 -2.2686
    6MPD2     N14478   1.750   4.221  14.857  0.2617  0.2587  0.1553
    6MPD2    H514479   1.761   4.128  14.896 -1.8920 -0.6051 -1.3218
    6MPD2    N114480   1.474   4.545  14.637  0.0063  0.0111  0.1310
    6MPD2    H714481   1.542   4.605  14.683 -2.6456  1.9413  1.5863
  945NH4     N114482   0.965   4.267  14.955 -0.2617 -0.0422 -0.5509
  945NH4     H214483   0.896   4.293  14.881  1.1389  1.9101 -1.1462
  945NH4     H314484   1.005   4.351  15.001  1.6993 -1.9585  1.2151
  945NH4     H414485   1.045   4.218  14.911  0.1433 -0.2361  0.4134
  945NH4     H514486   0.931   4.201  15.028 -0.7668 -1.2129 -1.8172
  946SOD     NA14487   1.811   4.053  12.298  0.5308  0.0103 -0.5483
  947SOD     NA14488   2.921   0.554  16.578  0.1646 -0.0159  0.0711
  948SOD     NA14489   0.810   3.753  13.357 -0.2473  0.1518  0.1888
  949SOD     NA14490   2.850   2.528  16.629 -0.1106 -0.2540 -0.0535
  950SOD     NA14491   0.872   3.166   6.450 -0.3816  0.1186  0.0777
  951SOD     NA14492   4.524   1.916   3.211 -0.0226 -0.0699  0.1512
  952SOD     NA14493   3.020   4.284  13.322 -0.5368  0.0051 -0.1566
  953SOL     OW14494   4.622   3.314   6.889  0.1568 -0.7521  0.2505
  953SOL    HW114495   4.604   3.246   6.824  0.4054 -1.5470  1.0161
  953SOL    HW214496   4.622   3.263   6.970  1.2540 -0.3281  0.5139
  954SOL     OW14497   1.368   2.891   0.369 -0.2360  0.4657  0.5201
  954SOL    HW114498   1.358   2.983   0.393 -1.0169  0.3165  0.8004
  954SOL    HW214499   1.322   2.842   0.438 -0.6189  3.1655  2.1586
  955SOL     OW14500   1.799   3.678   7.187  0.2100 -0.6182 -0.1627
  955SOL    HW114501   1.880   3.712   7.149 -0.9162  1.2972 -0.8918
  955SOL    HW214502   1.749   3.664   7.107 -0.8868 -0.5469  0.5109
  956SOL     OW14503   1.975   1.511   3.520 -0.5044 -0.1602 -0.9074
  956SOL    HW114504   2.065   1.530   3.546 -1.1681 -0.3409  1.4932
  956SOL    HW214505   1.928   1.583   3.562 -0.2930 -0.0361 -0.8839
  957SOL     OW14506   3.952   1.479   1.991  0.0733 -0.3792  0.2494
  957SOL    HW114507   3.968   1.422   1.915  1.4644 -0.6539  0.7491
  957SOL    HW214508   3.868   1.443   2.017 -1.7266  2.9738 -0.9819
  958SOL     OW14509   1.266   2.741   0.577  0.6788 -0.4693 -0.2456
  958SOL    HW114510   1.239   2.798   0.649  0.1723 -1.1100  0.0836
  958SOL    HW214511   1.282   2.660   0.627 -0.1015 -1.6727 -1.9510
  959SOL     OW14512   4.313   1.515   7.907 -0.1469 -0.5426  0.4819
  959SOL    HW114513   4.254   1.500   7.833  0.9494 -1.1547 -0.2685
  959SOL    HW214514   4.258   1.508   7.985  0.3641 -1.0015  0.8014
  960SOL     OW14515   1.958   1.741   2.728 -0.3365  0.2547  0.0728
  960SOL    HW114516   2.032   1.745   2.667 -0.2736  0.2005  0.1456
  960SOL    HW214517   1.927   1.651   2.733  0.5978 -0.1905 -2.0292
  961SOL     OW14518   2.412   1.197   8.169 -0.2964 -0.3694  0.7332
  961SOL    HW114519   2.482   1.132   8.173 -0.7694 -0.7519  2.7855
  961SOL    HW214520   2.453   1.270   8.123  0.1542 -1.9595 -1.3917
  962SOL     OW14521   1.829   0.208   6.036  0.2399  0.7293 -0.6217
  962SOL    HW114522   1.837   0.114   6.020 -0.7186  0.2747  1.4909
  962SOL    HW214523   1.921   0.223   6.060 -0.0475 -0.7618  1.4318
  963SOL     OW14524   2.353   0.392   2.823 -0.5049 -0.5677 -0.1416
  963SOL    HW114525   2.386   0.306   2.846 -2.8722 -1.0007  1.7249
  963SOL    HW214526   2.422   0.429   2.769 -0.0924  1.2417  1.6109
  964SOL     OW14527   4.006   1.977   5.790  0.2787  0.5169  0.5376
  964SOL    HW114528   4.034   2.032   5.863  2.4198 -0.7301  0.6415
  964SOL    HW214529   3.936   2.033   5.757  2.2766  2.5119 -0.2822
  965SOL     OW14530   0.766   0.126   8.790  0.0037 -0.1503 -0.2164
  965SOL    HW114531   0.690   0.169   8.829  1.1046 -0.4234  2.1979
  965SOL    HW214532   0.836   0.170   8.838  1.4393 -2.0511 -0.5524
  966SOL     OW14533   2.940   0.517  15.602 -0.2903  0.5294 -0.5753
  966SOL    HW114534   3.036   0.520  15.603 -0.2287 -1.1851 -1.0041
  966SOL    HW214535   2.923   0.520  15.508  0.0211  0.6734 -0.6275
  967SOL     OW14536   3.963   2.868   2.640  0.4561  0.2005 -0.2675
  967SOL    HW114537   3.919   2.882   2.556 -1.6021 -0.7558  0.6451
  967SOL    HW214538   4.046   2.916   2.637  2.0057 -2.5533 -1.6553
  968SOL     OW14539   4.673   0.297   5.014 -0.4431  0.4248  0.0765
  968SOL    HW114540   0.026   0.331   4.994 -0.0519  0.0673  1.2208
  968SOL    HW214541   4.673   0.322   5.106  0.0351  0.3322  0.1032
  969SOL     OW14542   0.700   2.287  17.430  0.3283  0.3603  0.2339
  969SOL    HW114543   0.718   2.307  17.338 -0.3471  1.8047  0.4233
  969SOL    HW214544   0.689   2.192  17.428 -1.4850  0.6058 -1.7847
  970SOL     OW14545   1.208   1.345   8.128  0.5383 -0.5318  0.0352
  970SOL    HW114546   1.178   1.338   8.219 -1.2376  0.4870 -0.4720
  970SOL    HW214547   1.235   1.259   8.097 -0.2136 -0.3490 -1.1165
  971SOL     OW14548   0.173   0.621   7.822  0.2215  0.7055 -0.0287
  971SOL    HW114549   0.221   0.613   7.904 -1.0904 -2.4436  0.4244
  971SOL    HW214550   0.138   0.708   7.840  0.1896  1.1054 -1.9559
  972SOL     OW14551   4.606   1.053   1.239  0.4706  0.7712  0.0533
  972SOL    HW114552   4.691   1.097   1.246  1.2614 -0.8084  0.1799
  972SOL    HW214553   4.567   1.112   1.175 -0.9070  0.0688  0.2415
  973SOL     OW14554   1.641   2.942   4.362  0.4111  0.2198  0.2936
  973SOL    HW114555   1.658   2.935   4.456  0.4108 -1.6559  0.1460
  973SOL    HW214556   1.588   3.022   4.365  1.7832  1.1357  0.2372
  974SOL     OW14557   0.337   0.461   6.947 -0.1929 -0.5071  0.5898
  974SOL    HW114558   0.284   0.406   7.004 -1.5459 -0.4017 -0.5504
  974SOL    HW214559   0.413   0.484   7.000 -0.5624  1.9988  0.0608
  975SOL     OW14560   1.573   3.128  12.462  0.6102 -0.2450  0.0765
  975SOL    HW114561   1.650   3.076  12.485  0.1910 -0.4310  1.0912
  975SOL    HW214562   1.534   3.136  12.550 -1.2479  0.5266 -0.8031
  976SOL     OW14563   0.364   0.270  15.861  0.0211  0.1915  0.4416
  976SOL    HW114564   0.300   0.232  15.801  1.1406  1.0053 -1.2682
  976SOL    HW214565   0.427   0.302  15.796  0.2012  1.2900  1.1479
  977SOL     OW14566   4.462   1.248   6.125 -0.4386 -0.5265 -0.7667
  977SOL    HW114567   4.412   1.265   6.206 -2.4690  1.5197 -2.4344
  977SOL    HW214568   4.430   1.164   6.091 -0.0487 -0.4923 -1.2139
  978SOL     OW14569   4.354   0.513   3.879 -0.4881 -0.1779  0.1605
  978SOL    HW114570   4.308   0.593   3.855  1.3090  1.0699  0.8950
  978SOL    HW214571   4.344   0.511   3.974  0.9535  0.3619  0.3223
  979SOL     OW14572   1.944   1.833   6.609  0.3472 -0.6260 -0.1918
  979SOL    HW114573   1.961   1.855   6.700 -1.5534 -0.1646  0.0631
  979SOL    HW214574   2.034   1.827   6.578 -0.0290 -1.6577 -1.1231
  980SOL     OW14575   2.991   1.029  13.760 -0.0415 -0.0217 -0.3704
  980SOL    HW114576   2.905   1.048  13.724 -0.2527  0.0941  0.1956
  980SOL    HW214577   2.978   0.974  13.837 -0.6211  0.7788  0.1059
  981SOL     OW14578   4.683   3.636   6.374 -0.5417  0.4398 -0.2437
  981SOL    HW114579   4.713   3.650   6.464 -1.7137 -0.0182  0.2193
  981SOL    HW214580   4.730   3.710   6.338 -0.4877  1.9573  2.9227
  982SOL     OW14581   1.615   3.921   2.249  0.1074 -0.3282  0.2500
  982SOL    HW114582   1.678   3.958   2.311  0.6566 -0.8618  0.0067
  982SOL    HW214583   1.544   3.905   2.312 -0.4396  0.1272 -0.2504
  983SOL     OW14584   2.495   3.177   3.750  0.3760 -0.2013  0.0849
  983SOL    HW114585   2.409   3.194   3.789  1.3721  2.8824  0.9850
  983SOL    HW214586   2.535   3.264   3.744 -0.5234  0.2839  1.1413
  984SOL     OW14587   1.686   2.415   7.643  0.1625 -0.0887 -0.1720
  984SOL    HW114588   1.697   2.476   7.570 -0.8585  0.7212  0.3494
  984SOL    HW214589   1.779   2.396   7.655 -0.1864 -0.1649  2.3800
  985SOL     OW14590   1.251   3.581   4.269 -0.4736 -0.7614 -0.6722
  985SOL    HW114591   1.315   3.652   4.275 -0.0967 -1.1730  0.1490
  985SOL    HW214592   1.302   3.501   4.282  1.5057  0.2971 -2.0320
  986SOL     OW14593   3.034   4.601  15.321 -0.5166 -0.1936  0.1280
  986SOL    HW114594   3.118   4.555  15.315 -0.5846 -0.4058  0.7745
  986SOL    HW214595   3.044   4.671  15.256  3.5105 -1.2582 -0.4070
  987SOL     OW14596   3.930   2.896  10.118 -0.9833  0.4231 -0.1123
  987SOL    HW114597   3.862   2.960  10.097  0.9595  2.2182 -0.8763
  987SOL    HW214598   3.927   2.839  10.042  0.4740 -0.0862  0.2144
  988SOL     OW14599   1.500   2.421   6.775  0.2460 -0.6322  0.0314
  988SOL    HW114600   1.561   2.363   6.821 -0.3140 -0.3925  1.0634
  988SOL    HW214601   1.426   2.365   6.753  0.8446 -0.4653 -2.4294
  989SOL     OW14602   1.495   2.388   6.460  0.6601  0.3130  0.1049
  989SOL    HW114603   1.403   2.386   6.490  0.6900  0.7081  0.2359
  989SOL    HW214604   1.504   2.297   6.434 -0.6864  0.3061 -0.3596
  990SOL     OW14605   1.217   1.084   3.691 -0.0027  0.1971 -0.5074
  990SOL    HW114606   1.193   1.158   3.747  2.9718 -0.3498  1.4845
  990SOL    HW214607   1.310   1.080   3.712 -0.5515 -1.4467  1.6213
  991SOL     OW14608   3.229   4.214   3.415  0.6609  0.4783 -0.2075
  991SOL    HW114609   3.318   4.227   3.449  0.6877  0.2820 -0.2024
  991SOL    HW214610   3.222   4.122   3.390 -1.0282  0.0583  1.7954
  992SOL     OW14611   2.602   3.783  14.426  0.0385 -0.5487  0.3859
  992SOL    HW114612   2.534   3.719  14.404 -0.5058  0.8867 -2.0535
  992SOL    HW214613   2.605   3.827  14.341  1.4561 -1.0265  0.1746
  993SOL     OW14614   0.222   2.294  16.650  0.2350  0.0139  0.3897
  993SOL    HW114615   0.188   2.278  16.562  1.3215 -2.3806  0.3943
  993SOL    HW214616   0.268   2.377  16.642  0.5649  0.0105  2.0700
  994SOL     OW14617   0.468   2.015   1.701 -0.0680  0.4475  0.0655
  994SOL    HW114618   0.381   1.977   1.686 -0.9624  1.4581  2.6607
  994SOL    HW214619   0.520   1.938   1.680 -1.7040 -0.3626 -1.0539
  995SOL     OW14620   2.103   3.596   8.553  0.0316  0.6025 -0.3901
  995SOL    HW114621   2.093   3.660   8.482 -0.9827  0.1628 -0.6412
  995SOL    HW214622   2.027   3.617   8.606 -1.1754 -1.8540 -1.1747
  996SOL     OW14623   3.717   2.425   1.795  0.3020 -0.6262  0.5193
  996SOL    HW114624   3.653   2.366   1.754 -1.2032  0.1236  1.7808
  996SOL    HW214625   3.715   2.400   1.887  0.3661  2.6453  1.4118
  997SOL     OW14626   2.013   0.664  13.478  0.2439 -0.3955  0.6079
  997SOL    HW114627   2.049   0.580  13.505  2.3385  0.5206  0.6368
  997SOL    HW214628   2.099   0.695  13.449 -0.1946  0.2373 -0.0100
  998SOL     OW14629   1.003   1.903   2.083 -0.4750 -0.0160  0.8165
  998SOL    HW114630   1.057   1.974   2.048 -0.3894  0.1718  1.3306
  998SOL    HW214631   1.045   1.830   2.038 -0.1473  1.0157 -0.5810
  999SOL     OW14632   1.731   3.286   4.625 -0.0914  0.5807 -0.4356
  999SOL    HW114633   1.642   3.319   4.635  0.0746  1.4027 -1.7103
  999SOL    HW214634   1.767   3.329   4.703  0.9075  1.0398 -1.1520
 1000SOL     OW14635   3.904   2.870   3.702 -0.0309  0.0836  0.1796
 1000SOL    HW114636   3.948   2.827   3.776 -0.1895 -1.3819 -0.5799
 1000SOL    HW214637   3.819   2.884   3.743 -0.6177 -1.3096 -0.5717
 1001SOL     OW14638   4.558   4.379   8.248 -0.6755 -0.4725  0.3272
 1001SOL    HW114639   4.527   4.325   8.175  1.7760 -1.9777  0.3875
 1001SOL    HW214640   4.521   4.335   8.324 -0.2164 -2.4376 -0.5610
 1002SOL     OW14641   2.560   3.870   1.153  0.2866 -0.3330 -0.1370
 1002SOL    HW114642   2.481   3.865   1.098  0.1765  0.5255 -0.0590
 1002SOL    HW214643   2.619   3.919   1.095 -0.5632 -0.4278 -1.0867
 1003SOL     OW14644   1.648   0.045   2.620 -0.8917 -0.1979 -0.6066
 1003SOL    HW114645   1.625   0.097   2.697 -1.7958 -1.8095  0.2280
 1003SOL    HW214646   1.650   4.691   2.658 -0.6714 -0.7557 -1.9172
 1004SOL     OW14647   3.781   3.741   5.431 -0.1467 -0.0613 -0.1872
 1004SOL    HW114648   3.855   3.680   5.431 -0.5552 -0.5599 -0.7806
 1004SOL    HW214649   3.763   3.761   5.523 -0.1829  2.2476 -0.7047
 1005SOL     OW14650   2.246   4.651  13.078  0.1851  0.2323  0.7154
 1005SOL    HW114651   2.185   4.712  13.037 -1.9716 -1.6994  1.0607
 1005SOL    HW214652   2.231   4.560  13.050 -0.2345 -0.1437  2.1778
 1006SOL     OW14653   3.147   2.233   7.074  0.3797 -0.8206  0.3003
 1006SOL    HW114654   3.086   2.290   7.122  0.7162  1.1243 -1.5843
 1006SOL    HW214655   3.114   2.147   7.100 -2.3394 -0.7664 -2.9815
 1007SOL     OW14656   4.220   2.133   8.275 -0.7009 -0.0384  1.2012
 1007SOL    HW114657   4.154   2.189   8.316  0.5025  1.5224  0.9973
 1007SOL    HW214658   4.172   2.054   8.249  0.5236  0.0953 -1.4149
 1008SOL     OW14659   3.771   3.685  13.710  0.4503 -0.6057  0.1362
 1008SOL    HW114660   3.804   3.774  13.728 -0.8424 -0.5751  2.3883
 1008SOL    HW214661   3.812   3.636  13.781 -0.4484  0.0420  1.0935
 1009SOL     OW14662   0.154   4.286   6.309 -0.0236  0.5687  0.5846
 1009SOL    HW114663   0.168   4.248   6.396 -0.4583  0.8395  0.7740
 1009SOL    HW214664   0.238   4.327   6.287 -0.4335  0.0880 -1.8609
 1010SOL     OW14665   2.861   2.634  16.418 -0.5464 -0.3040 -0.5774
 1010SOL    HW114666   2.853   2.584  16.337  1.2197 -3.1713  0.9889
 1010SOL    HW214667   2.804   2.709  16.402 -0.2070 -0.0824 -0.7262
 1011SOL     OW14668   4.331   2.024   6.738 -0.0976  0.5344  0.7889
 1011SOL    HW114669   4.314   1.952   6.678  0.8355  0.1042  1.0536
 1011SOL    HW214670   4.310   2.102   6.687  1.7893  0.6138  0.1379
 1012SOL     OW14671   3.093   1.881   8.908  0.1001 -0.6638 -0.6067
 1012SOL    HW114672   3.187   1.889   8.889 -0.1524 -1.1275 -2.0286
 1012SOL    HW214673   3.063   1.967   8.878  2.0703  0.6265  1.1053
 1013SOL     OW14674   4.412   1.967   8.481 -0.4454  0.1079  0.2297
 1013SOL    HW114675   4.411   2.060   8.504 -2.3040  0.3074 -0.6546
 1013SOL    HW214676   4.320   1.946   8.468 -0.7962  1.1721  1.0603
 1014SOL     OW14677   0.937   2.283   4.821  0.2186 -0.7500 -0.0918
 1014SOL    HW114678   0.893   2.237   4.749  1.4207 -2.2762  0.1685
 1014SOL    HW214679   0.976   2.361   4.782  0.7808 -0.9858  0.0102
 1015SOL     OW14680   0.305   0.453   4.472  0.4646  0.5163 -0.2098
 1015SOL    HW114681   0.283   0.522   4.409  1.4852  1.0995  0.0764
 1015SOL    HW214682   0.340   0.388   4.411  1.1128  0.9994 -0.3524
 1016SOL     OW14683   1.655   1.719   1.758 -0.4210  0.2385  0.1837
 1016SOL    HW114684   1.639   1.630   1.727  1.1220  0.5119 -1.4290
 1016SOL    HW214685   1.585   1.774   1.724  0.2802  1.1815  0.2841
 1017SOL     OW14686   2.602   1.531   9.682  0.1878 -0.3511  0.3844
 1017SOL    HW114687   2.607   1.574   9.767  0.7691  0.3095  0.0089
 1017SOL    HW214688   2.512   1.541   9.651  0.8555  1.9485 -0.7681
 1018SOL     OW14689   0.373   1.641   8.065  0.0233 -0.1477  0.3751
 1018SOL    HW114690   0.362   1.641   8.160 -0.4495 -0.1496  0.3235
 1018SOL    HW214691   0.293   1.685   8.036 -0.9879 -1.4180  1.2224
 1019SOL     OW14692   4.339   1.742   8.608 -0.0591  0.0439  0.5890
 1019SOL    HW114693   4.396   1.800   8.559 -0.5469 -0.3945 -0.4952
 1019SOL    HW214694   4.262   1.743   8.552 -0.7055  0.4853  1.4771
 1020SOL     OW14695   4.184   1.623   5.603  0.2170  0.1074  0.3290
 1020SOL    HW114696   4.239   1.552   5.569  0.8459  1.0015 -0.5076
 1020SOL    HW214697   4.188   1.605   5.697 -2.2674 -1.6620  0.0876
 1021SOL     OW14698   3.835   2.058  11.293  0.3668 -0.0431  0.2508
 1021SOL    HW114699   3.924   2.092  11.285 -0.1150  1.0792 -0.4947
 1021SOL    HW214700   3.849   1.976  11.340 -1.2145  0.8753  2.3343
 1022SOL     OW14701   2.529   2.862  10.258 -0.0208  0.1328 -0.1835
 1022SOL    HW114702   2.555   2.950  10.286 -0.4465 -0.4557  2.0841
 1022SOL    HW214703   2.570   2.857  10.172  0.9657  1.0912  0.2314
 1023SOL     OW14704   1.524   4.297   8.190 -0.6491  0.1896 -0.5751
 1023SOL    HW114705   1.570   4.377   8.165  0.8961 -0.4028  0.4258
 1023SOL    HW214706   1.597   4.238   8.176 -2.0663 -1.1083 -2.3944
 1024SOL     OW14707   4.404   2.588   3.890  0.0608  0.1675 -0.0697
 1024SOL    HW114708   4.442   2.577   3.977 -0.2421  1.7486  0.2641
 1024SOL    HW214709   4.426   2.674   3.854  0.0426 -0.2569 -1.0829
 1025SOL     OW14710   1.655   3.694   6.540 -0.3463 -0.2298 -0.1457
 1025SOL    HW114711   1.565   3.728   6.535 -1.4606 -3.2367 -0.6740
 1025SOL    HW214712   1.645   3.599   6.533  0.2525 -0.2051 -1.4549
 1026SOL     OW14713   2.714   3.400   4.114  0.2135 -0.0053  0.3558
 1026SOL    HW114714   2.748   3.313   4.135 -0.8748  0.0018  2.0836
 1026SOL    HW214715   2.794   3.440   4.080  0.4787 -1.0542 -0.2640
 1027SOL     OW14716   2.884   3.177   9.181 -0.0783 -0.8164 -0.1654
 1027SOL    HW114717   2.889   3.124   9.261  2.7433 -0.9894 -0.4838
 1027SOL    HW214718   2.811   3.124   9.148 -2.1396  1.5289  0.6439
 1028SOL     OW14719   2.252   3.975   2.838  0.5209 -0.1189 -0.1394
 1028SOL    HW114720   2.224   4.015   2.756  2.0396  0.2531 -0.4708
 1028SOL    HW214721   2.347   3.984   2.837  0.6494 -1.2833  0.9812
 1029SOL     OW14722   3.340   1.181   6.151  0.2857  0.0714 -0.0308
 1029SOL    HW114723   3.429   1.173   6.184 -0.0442  1.8559  1.2383
 1029SOL    HW214724   3.301   1.095   6.167 -1.4873  1.0835  1.0359
 1030SOL     OW14725   4.349   1.944   4.602  0.2525  0.2807 -0.5173
 1030SOL    HW114726   4.280   1.879   4.617 -0.0580  0.8587  0.5476
 1030SOL    HW214727   4.311   2.014   4.655  2.7388  0.2763  1.2725
 1031SOL     OW14728   1.047   0.044  10.775 -0.6268 -0.6940  0.0837
 1031SOL    HW114729   1.138   0.045  10.805 -0.7116  1.5970  0.2640
 1031SOL    HW214730   1.026   0.127  10.732  0.0332 -0.9193 -0.6805
 1032SOL     OW14731   3.888   3.420  14.320 -0.4312  0.3255 -0.1268
 1032SOL    HW114732   3.900   3.364  14.397 -1.3462  0.0989 -0.1495
 1032SOL    HW214733   3.794   3.415  14.307 -0.4323  1.5419 -0.5612
 1033SOL     OW14734   0.458   4.699  11.253 -0.6132 -0.5869 -0.1387
 1033SOL    HW114735   0.545   4.668  11.275 -0.3560  2.3018  2.8214
 1033SOL    HW214736   0.436   0.004  11.337  1.0620 -1.7587  0.8339
 1034SOL     OW14737   1.751   1.832   3.464 -0.3109 -0.0953 -0.3173
 1034SOL    HW114738   1.683   1.861   3.403  0.8643 -0.4482 -1.7958
 1034SOL    HW214739   1.827   1.809   3.410  0.3859  1.0332  0.1949
 1035SOL     OW14740   0.810   2.965  10.928  0.4131  0.0295 -0.4192
 1035SOL    HW114741   0.873   2.996  10.993  1.3174 -2.1141 -0.2532
 1035SOL    HW214742   0.865   2.968  10.849 -0.0248 -0.1213 -0.7337
 1036SOL     OW14743   1.854   3.997   6.199  0.5276 -0.1459 -0.1514
 1036SOL    HW114744   1.812   3.962   6.277  1.5577 -0.5387  0.2326
 1036SOL    HW214745   1.794   4.062   6.162 -2.6330 -1.8666  2.0630
 1037SOL     OW14746   0.569   2.215   9.002 -0.0845  0.3556  0.5496
 1037SOL    HW114747   0.550   2.266   8.923 -0.6596  0.7894  0.9674
 1037SOL    HW214748   0.497   2.152   8.993  1.5978 -1.2763 -1.6070
 1038SOL     OW14749   0.215   2.070   9.948 -0.0972 -0.1482  0.0890
 1038SOL    HW114750   0.135   2.017   9.946  0.6796 -1.2789 -0.7779
 1038SOL    HW214751   0.184   2.159   9.929  0.2112 -0.3743 -1.4198
 1039SOL     OW14752   2.659   3.613  13.212 -0.4997  0.4487 -0.0756
 1039SOL    HW114753   2.714   3.594  13.288 -0.2569  0.3809 -0.2695
 1039SOL    HW214754   2.712   3.673  13.160 -0.6827 -0.5055 -1.3723
 1040SOL     OW14755   2.153   1.853   3.964  0.8209 -0.1213 -0.2821
 1040SOL    HW114756   2.071   1.877   3.921  1.2480  1.2783 -0.2802
 1040SOL    HW214757   2.125   1.822   4.051  2.5430 -2.1180 -0.4347
 1041SOL     OW14758   4.562   3.057   5.892  0.4288  0.3483  0.8307
 1041SOL    HW114759   4.636   3.017   5.937  1.1642 -2.8397 -3.1754
 1041SOL    HW214760   4.492   2.992   5.902 -1.1499  1.7701 -0.9875
 1042SOL     OW14761   2.223   1.424   9.500  0.0800 -0.5783  0.0497
 1042SOL    HW114762   2.225   1.345   9.553 -0.5192 -1.3568 -1.0755
 1042SOL    HW214763   2.252   1.377   9.422 -0.8969 -0.6367 -0.2910
 1043SOL     OW14764   3.324   1.398   4.539 -0.2499 -0.5423  0.2554
 1043SOL    HW114765   3.408   1.377   4.580 -0.0448  1.6594  0.9574
 1043SOL    HW214766   3.298   1.320   4.490  0.3365 -0.8168  0.3827
 1044SOL     OW14767   4.451   0.148   2.944 -0.2783  0.4539 -0.6385
 1044SOL    HW114768   4.409   0.232   2.922  0.3459  0.3606 -2.2084
 1044SOL    HW214769   4.532   0.182   2.981 -1.1898  0.1779  1.5996
 1045SOL     OW14770   2.085   1.432   4.292 -0.1292  0.3263  0.3586
 1045SOL    HW114771   1.991   1.413   4.292 -0.1531  0.4026  2.3288
 1045SOL    HW214772   2.119   1.344   4.308 -0.0105  0.9334  3.5051
 1046SOL     OW14773   3.640   0.270   5.052 -0.4317 -0.1987  0.0245
 1046SOL    HW114774   3.736   0.276   5.044 -0.6274  1.5112 -0.9331
 1046SOL    HW214775   3.611   0.308   5.135 -1.8138  1.7868 -1.3763
 1047SOL     OW14776   2.216   3.134  15.718  0.4525 -0.6012  0.5552
 1047SOL    HW114777   2.162   3.213  15.713  0.4553 -0.5949  0.6149
 1047SOL    HW214778   2.154   3.079  15.766 -1.2215  1.5885  0.9377
 1048SOL     OW14779   1.050   1.606   5.829 -0.4696  0.1755 -0.0670
 1048SOL    HW114780   0.985   1.676   5.829 -0.1536  0.4615  1.1876
 1048SOL    HW214781   1.094   1.625   5.747 -2.0852  1.5860 -0.5965
 1049SOL     OW14782   1.677   0.598   2.433  0.1893  0.2637 -0.0413
 1049SOL    HW114783   1.701   0.688   2.411 -2.1351  0.7531 -0.5636
 1049SOL    HW214784   1.584   0.622   2.427  0.2871  1.1438  1.8996
 1050SOL     OW14785   2.116   3.174   9.637 -0.4213 -0.3268  0.2725
 1050SOL    HW114786   2.033   3.138   9.670 -0.8747 -0.3577 -0.9101
 1050SOL    HW214787   2.129   3.237   9.707  1.0975  0.2134 -0.5115
 1051SOL     OW14788   3.641   4.033  15.265 -0.2407 -0.2361 -0.2509
 1051SOL    HW114789   3.717   4.060  15.316 -1.7124  0.5639  1.5428
 1051SOL    HW214790   3.589   4.020  15.345  3.8209  0.0577  2.4365
 1052SOL     OW14791   3.786   3.862  13.433  0.5220 -0.0373 -0.1467
 1052SOL    HW114792   3.731   3.939  13.450  0.5931  0.6839 -3.0827
 1052SOL    HW214793   3.863   3.871  13.489  0.0014  0.6958  0.4472
 1053SOL     OW14794   4.172   4.457   4.876  0.5844 -0.0192 -0.3666
 1053SOL    HW114795   4.173   4.530   4.814  2.0562  0.1042 -0.1886
 1053SOL    HW214796   4.204   4.501   4.955 -0.9565 -0.1122  0.3052
 1054SOL     OW14797   0.068   4.624   2.219 -0.5569 -0.3358 -0.4855
 1054SOL    HW114798   0.030   4.540   2.242 -0.5354  0.0306  0.8722
 1054SOL    HW214799   0.135   4.636   2.286 -1.3845 -3.6169  0.8979
 1055SOL     OW14800   0.824   3.772   4.624 -0.3271 -0.7334 -0.2196
 1055SOL    HW114801   0.762   3.845   4.614 -0.6054 -1.0572 -0.8513
 1055SOL    HW214802   0.798   3.724   4.546  0.3656 -1.8105  0.2244
 1056SOL     OW14803   4.304   0.595  12.152  0.0702  0.2153 -0.2068
 1056SOL    HW114804   4.243   0.659  12.115  0.4510  1.2299  0.8891
 1056SOL    HW214805   4.341   0.573  12.066 -1.5850 -0.9945 -0.5956
 1057SOL     OW14806   3.219   0.432  15.216 -0.7556 -0.1583 -0.0692
 1057SOL    HW114807   3.297   0.446  15.270  0.3784 -1.5880 -1.3654
 1057SOL    HW214808   3.189   0.522  15.203 -2.8583 -0.9552 -0.7032
 1058SOL     OW14809   2.234   4.113   5.383  0.7991  0.0822 -0.4705
 1058SOL    HW114810   2.297   4.083   5.448 -0.6937 -1.8239  0.0740
 1058SOL    HW214811   2.204   4.196   5.419  1.8234 -0.3353  1.3291
 1059SOL     OW14812   0.564   3.357  12.132  0.0376  0.0834 -0.3495
 1059SOL    HW114813   0.607   3.434  12.169  0.6127 -0.4979  0.2100
 1059SOL    HW214814   0.482   3.373  12.178 -0.1330  0.5303 -0.8266
 1060SOL     OW14815   1.647   3.033   7.622 -0.4567  0.5072 -0.2735
 1060SOL    HW114816   1.676   2.948   7.656  0.8398  1.0065 -0.1634
 1060SOL    HW214817   1.597   3.008   7.544  1.8456  0.0446 -1.6096
 1061SOL     OW14818   3.625   3.400  14.253  0.0565  0.3704  0.9037
 1061SOL    HW114819   3.592   3.464  14.190  1.0808  1.0008  0.9948
 1061SOL    HW214820   3.611   3.320  14.202  0.7742 -0.3235  1.7924
 1062SOL     OW14821   2.076   2.071   2.697  0.1605 -0.1178 -0.0233
 1062SOL    HW114822   2.116   2.008   2.638 -0.4143 -0.1408 -0.3893
 1062SOL    HW214823   1.982   2.051   2.700  0.2265 -0.3299  0.6957
 1063SOL     OW14824   4.079   4.253   9.130  0.6043 -0.0333 -0.0829
 1063SOL    HW114825   4.164   4.294   9.149  0.6496  0.4848 -1.4491
 1063SOL    HW214826   4.103   4.182   9.070  0.0944  0.0310 -0.3615
 1064SOL     OW14827   3.343   0.597   5.523 -0.4525  0.3788 -0.2102
 1064SOL    HW114828   3.422   0.635   5.560 -0.6958  1.4771 -0.8222
 1064SOL    HW214829   3.325   0.649   5.445  0.0358  0.3732 -0.3217
 1065SOL     OW14830   1.019   3.634   8.017  0.1017  0.6725 -0.1289
 1065SOL    HW114831   1.044   3.580   8.091  1.4854  1.3735 -0.0884
 1065SOL    HW214832   1.007   3.717   8.063  3.1973  0.4198  1.1584
 1066SOL     OW14833   0.674   2.369   4.877 -0.1857 -0.0901 -0.0588
 1066SOL    HW114834   0.745   2.413   4.830 -0.6763  2.0598  1.2125
 1066SOL    HW214835   0.702   2.369   4.968  1.1588 -3.6154 -0.4871
 1067SOL     OW14836   0.943   1.069  13.760  0.6501  0.1528  0.1385
 1067SOL    HW114837   0.938   1.162  13.781  1.3879  0.0687  0.6829
 1067SOL    HW214838   1.022   1.049  13.809  0.7540 -1.0660 -0.5270
 1068SOL     OW14839   1.373   3.738  10.401 -0.8351  0.1293  0.3894
 1068SOL    HW114840   1.362   3.648  10.371  2.2349 -0.5558  1.2829
 1068SOL    HW214841   1.412   3.763  10.318 -0.2931  0.2333  0.6725
 1069SOL     OW14842   0.851   1.354   4.632 -0.1865  0.2089  0.0034
 1069SOL    HW114843   0.821   1.398   4.711 -1.5952 -0.7042 -0.0251
 1069SOL    HW214844   0.779   1.372   4.571  0.9640 -1.2542 -1.7758
 1070SOL     OW14845   2.037   3.331   3.700  0.0699 -0.2184  0.2938
 1070SOL    HW114846   1.961   3.275   3.685  0.6057 -1.2813  1.4970
 1070SOL    HW214847   2.027   3.386   3.622 -0.1142 -1.9824 -0.9033
 1071SOL     OW14848   2.006   1.999   9.007 -0.4327 -0.3648 -0.1241
 1071SOL    HW114849   2.065   2.038   8.943 -2.0992  1.4445 -0.5430
 1071SOL    HW214850   2.072   1.964   9.067  0.4009  2.7391  0.7504
 1072SOL     OW14851   1.025   3.782   4.242 -0.3551  0.0659 -0.1386
 1072SOL    HW114852   1.018   3.777   4.146 -0.9518  1.4936 -0.1651
 1072SOL    HW214853   1.111   3.743   4.259 -0.0574  1.1961  0.9212
 1073SOL     OW14854   0.496   2.106  13.920 -0.3543  0.0680 -0.7640
 1073SOL    HW114855   0.447   2.178  13.960  0.9642  1.4303 -1.6156
 1073SOL    HW214856   0.580   2.150  13.904  0.6825 -2.1695 -1.3639
 1074SOL     OW14857   1.206   3.951  10.986  0.6908  0.0419 -0.5561
 1074SOL    HW114858   1.267   3.990  11.049  0.7435 -2.4392  0.9203
 1074SOL    HW214859   1.193   4.026  10.928  0.9882  0.8708  0.4420
 1075SOL     OW14860   0.349   0.351  12.181  0.2075 -0.2368  0.2487
 1075SOL    HW114861   0.387   0.386  12.262 -1.1705  0.9383  0.3872
 1075SOL    HW214862   0.426   0.319  12.134  0.6778 -2.8726  2.8174
 1076SOL     OW14863   1.296   1.717  10.772 -0.6782 -0.2845  0.3435
 1076SOL    HW114864   1.378   1.676  10.746 -0.8110 -0.2215 -0.1724
 1076SOL    HW214865   1.304   1.684  10.862  0.0806 -0.1295  0.3260
 1077SOL     OW14866   2.185   1.713   2.541  0.5991 -0.7334  0.0277
 1077SOL    HW114867   2.222   1.672   2.463  0.1318  1.3779 -1.3004
 1077SOL    HW214868   2.267   1.742   2.581  1.2007  0.3817 -1.9764
 1078SOL     OW14869   3.736   4.661   8.459 -0.8441 -0.3405  0.5216
 1078SOL    HW114870   3.651   4.673   8.500 -1.1331  0.2612 -0.2414
 1078SOL    HW214871   3.780   4.589   8.504 -1.1525 -1.1273 -0.4355
 1079SOL     OW14872   4.105   0.613   9.758  0.5054 -0.0929  0.1500
 1079SOL    HW114873   4.169   0.684   9.760  0.6176 -0.1684 -0.8210
 1079SOL    HW214874   4.160   0.535   9.766  0.5214  0.0651  1.5885
 1080SOL     OW14875   4.734   0.819   4.777 -0.4378 -0.4363 -0.1595
 1080SOL    HW114876   0.049   0.842   4.855  1.0965 -0.4874 -1.1247
 1080SOL    HW214877   0.027   0.727   4.780  0.3382 -0.2040 -0.3521
 1081SOL     OW14878   1.508   4.159   4.626 -0.0385 -0.2650 -0.3285
 1081SOL    HW114879   1.537   4.222   4.692 -1.0015  2.0255 -2.1124
 1081SOL    HW214880   1.537   4.073   4.655 -1.1365  0.4175  2.7765
 1082SOL     OW14881   2.778   3.184   3.878 -0.1732  0.2332  0.1660
 1082SOL    HW114882   2.786   3.280   3.881 -2.1098  0.3801  0.9567
 1082SOL    HW214883   2.702   3.170   3.821 -0.9162  0.1104  1.1701
 1083SOL     OW14884   3.798   3.300   5.505 -0.5930 -0.3471  0.5247
 1083SOL    HW114885   3.889   3.278   5.489 -0.7516 -0.1135 -0.6512
 1083SOL    HW214886   3.800   3.362   5.579 -1.3946 -0.4944  0.6673
 1084SOL     OW14887   3.415   0.160   0.678  0.5853  0.7394 -0.2337
 1084SOL    HW114888   3.443   0.244   0.714 -0.1802  0.2039  1.5909
 1084SOL    HW214889   3.491   0.141   0.623  0.5358 -2.8193  0.9390
 1085SOL     OW14890   2.615   2.539   2.329  0.2812  0.1801  0.2241
 1085SOL    HW114891   2.563   2.508   2.255 -0.8056 -0.0308  1.0670
 1085SOL    HW214892   2.642   2.461   2.377 -1.1777 -2.4650 -3.2235
 1086SOL     OW14893   4.001   0.600   7.353  0.2365 -0.1505 -0.1202
 1086SOL    HW114894   4.024   0.523   7.406 -1.7823  1.6127  3.3545
 1086SOL    HW214895   4.011   0.670   7.418  0.7712  0.4642 -0.8652
 1087SOL     OW14896   3.007   4.699   4.655  0.2855  1.3696  0.2915
 1087SOL    HW114897   3.077   4.684   4.591  0.4857 -0.0097  0.8417
 1087SOL    HW214898   2.936   0.003   4.604 -1.6863 -2.7000  0.0356
 1088SOL     OW14899   3.464   4.422   0.279  0.3017  0.0856 -0.3961
 1088SOL    HW114900   3.527   4.401   0.348 -1.9322 -1.2885  1.1941
 1088SOL    HW214901   3.501   4.510   0.266  2.6046 -0.8029  0.0759
 1089SOL     OW14902   1.335   1.263   3.504 -0.1717  0.2136  0.5454
 1089SOL    HW114903   1.282   1.185   3.488  0.0316  0.1420  0.2132
 1089SOL    HW214904   1.276   1.308   3.564  1.3533 -1.4495  3.2400
 1090SOL     OW14905   2.481   1.065  12.989  0.2508  0.2001 -0.0704
 1090SOL    HW114906   2.541   1.074  12.915  0.2129 -0.7037 -0.2151
 1090SOL    HW214907   2.417   1.011  12.943 -0.8192  2.0815 -0.7973
 1091SOL     OW14908   1.536   1.645  10.689 -0.3371 -0.1911  0.5485
 1091SOL    HW114909   1.580   1.571  10.647 -0.4607 -0.2526  0.5275
 1091SOL    HW214910   1.552   1.712  10.623  0.1205 -2.4547 -1.6579
 1092SOL     OW14911   2.056   4.239   7.585 -0.1651 -0.2594  0.4180
 1092SOL    HW114912   1.999   4.164   7.568  1.0645 -1.3509  1.0330
 1092SOL    HW214913   2.001   4.290   7.645  3.8347  0.7289  3.2719
 1093SOL     OW14914   3.984   1.606   2.620 -0.6154 -0.4038  0.4493
 1093SOL    HW114915   3.922   1.534   2.613 -1.8259  0.8041 -1.2092
 1093SOL    HW214916   3.940   1.666   2.680  1.1893  0.4039  0.9588
 1094SOL     OW14917   4.160   3.691   7.902  0.4951 -0.1661 -1.1167
 1094SOL    HW114918   4.217   3.631   7.950 -2.4789 -0.1242  2.5009
 1094SOL    HW214919   4.108   3.632   7.849 -0.7364  1.6795 -1.9478
 1095SOL     OW14920   0.965   1.696  15.773  0.6373  0.5898  0.2583
 1095SOL    HW114921   1.059   1.718  15.772  0.1771  2.6271  0.3355
 1095SOL    HW214922   0.963   1.625  15.709 -1.5195 -0.4412  1.4706
 1096SOL     OW14923   4.286   2.453   8.570 -0.1252  0.0964  0.2358
 1096SOL    HW114924   4.207   2.449   8.518  1.2061  0.0324 -1.7656
 1096SOL    HW214925   4.282   2.532   8.625  2.0682 -0.5650  1.3852
 1097SOL     OW14926   0.982   0.336   2.386  0.4989  0.5698  0.0082
 1097SOL    HW114927   1.023   0.415   2.352  0.9722 -1.1881 -3.5326
 1097SOL    HW214928   1.015   0.278   2.317 -2.4297 -0.6872 -0.3348
 1098SOL     OW14929   0.311   2.215  14.274 -0.0093 -0.0614  0.2254
 1098SOL    HW114930   0.378   2.241  14.337 -0.5474  1.6277  0.1007
 1098SOL    HW214931   0.318   2.285  14.208 -1.9493  0.5902  0.6964
 1099SOL     OW14932   4.716   0.815   4.489  0.3025  0.1076 -0.3196
 1099SOL    HW114933   4.715   0.721   4.471  0.6961  0.0933 -0.2660
 1099SOL    HW214934   4.686   0.819   4.580  0.6039 -0.4096 -0.2006
 1100SOL     OW14935   3.470   4.233  14.098 -0.5494  0.6511 -0.3249
 1100SOL    HW114936   3.413   4.162  14.128  0.4532  0.7735  1.9220
 1100SOL    HW214937   3.412   4.298  14.059 -0.1372  0.7234 -0.8248
 1101SOL     OW14938   3.477   4.400   4.428 -0.0851 -0.0892 -0.5978
 1101SOL    HW114939   3.548   4.400   4.493 -1.4234 -0.3573  0.8566
 1101SOL    HW214940   3.518   4.447   4.355  2.1362  1.4729  1.6663
 1102SOL     OW14941   0.161   3.607  16.547  0.0036 -0.0452 -0.0256
 1102SOL    HW114942   0.230   3.564  16.496  0.4360 -0.2405  0.7355
 1102SOL    HW214943   0.195   3.696  16.550  0.7887 -0.4188  2.3232
 1103SOL     OW14944   4.661   0.478   3.875  0.0539 -0.2990 -0.0443
 1103SOL    HW114945   4.567   0.492   3.862 -0.0851  0.8431  2.2130
 1103SOL    HW214946   4.696   0.474   3.786  0.3216  0.1693  0.0396
 1104SOL     OW14947   0.423   1.077  14.731  0.3219  0.2580  0.2467
 1104SOL    HW114948   0.445   1.094  14.639 -2.3454  1.4872 -0.1628
 1104SOL    HW214949   0.381   0.991  14.725  1.6570 -0.3041 -0.8799
 1105SOL     OW14950   0.239   4.194   2.867  0.1001  0.0403  0.3187
 1105SOL    HW114951   0.221   4.204   2.960  0.4341  0.5714  0.3260
 1105SOL    HW214952   0.324   4.151   2.856 -0.9240 -2.6231  2.8144
 1106SOL     OW14953   3.590   0.896   7.511  0.2541  0.1650  0.7409
 1106SOL    HW114954   3.551   0.982   7.526  0.2293 -0.4287  3.9827
 1106SOL    HW214955   3.560   0.849   7.589  2.3303  1.0011  2.0206
 1107SOL     OW14956   0.107   0.092  12.372  0.0631 -0.2638 -0.2582
 1107SOL    HW114957   0.068   0.170  12.332 -0.5189 -0.2789  0.2802
 1107SOL    HW214958   0.078   0.032  12.304 -0.6851 -0.0089 -0.1668
 1108SOL     OW14959   1.215   2.790   3.238  0.1192  0.2470 -0.0494
 1108SOL    HW114960   1.200   2.864   3.297  1.5536  0.9486 -0.5581
 1108SOL    HW214961   1.126   2.775   3.206 -0.1884  1.9206  0.0145
 1109SOL     OW14962   1.375   4.100   4.000  0.3633  0.0987 -0.3567
 1109SOL    HW114963   1.316   4.136   3.933 -0.3408 -0.0877  0.1721
 1109SOL    HW214964   1.433   4.046   3.945  0.3962 -0.5957  0.3650
 1110SOL     OW14965   1.031   1.960   4.859 -0.0040 -0.3596 -0.2483
 1110SOL    HW114966   1.082   2.037   4.835 -0.5238  0.3114  0.7763
 1110SOL    HW214967   1.007   1.928   4.773 -0.1262 -0.3373 -0.2237
 1111SOL     OW14968   4.119   2.181  11.349  0.1346 -0.6024 -0.1616
 1111SOL    HW114969   4.130   2.127  11.271  1.4689  2.0703 -1.8666
 1111SOL    HW214970   4.210   2.192  11.378  0.1524  0.4865 -0.6088
 1112SOL     OW14971   2.088   1.122  13.709  0.1264  0.3334  0.2618
 1112SOL    HW114972   2.171   1.076  13.696 -0.5920 -0.9010  0.0254
 1112SOL    HW214973   2.091   1.145  13.802 -0.2871 -0.1014  0.3810
 1113SOL     OW14974   3.684   4.604   3.741 -0.0558 -0.3990  0.1445
 1113SOL    HW114975   3.630   4.591   3.663  1.8872 -0.1447 -1.2308
 1113SOL    HW214976   3.713   4.694   3.725  0.1491 -0.9737 -2.7045
 1114SOL     OW14977   1.417   2.888   9.451  0.1509 -0.1051 -0.3562
 1114SOL    HW114978   1.499   2.885   9.501  0.5617 -1.0897 -1.1172
 1114SOL    HW214979   1.366   2.821   9.496 -1.0967 -0.1249 -1.8034
 1115SOL     OW14980   3.205   0.997   8.604  0.2015 -0.1559 -0.5741
 1115SOL    HW114981   3.143   0.924   8.607 -0.1044  0.2338  2.3032
 1115SOL    HW214982   3.144   1.071   8.610  0.7707  0.0626  2.5118
 1116SOL     OW14983   3.372   4.646  15.066  0.3518 -0.5340 -0.5983
 1116SOL    HW114984   3.407   4.731  15.091 -2.5298  0.7761 -1.1346
 1116SOL    HW214985   3.373   4.604  15.152  1.0198 -0.4214 -0.5534
 1117SOL     OW14986   1.832   0.091   4.235 -0.5204 -0.0896  0.5862
 1117SOL    HW114987   1.770   0.116   4.166 -0.8326  0.2401  0.9827
 1117SOL    HW214988   1.885   0.026   4.188 -0.8163  1.0542 -1.3414
 1118SOL     OW14989   2.723   2.039   3.658  0.1184  0.2561  0.2695
 1118SOL    HW114990   2.805   2.049   3.706 -0.3317 -1.6556  1.4613
 1118SOL    HW214991   2.751   2.068   3.571 -0.0686  0.3954  0.2553
 1119SOL     OW14992   3.512   4.084   5.730 -0.0142 -0.0751 -0.2447
 1119SOL    HW114993   3.465   4.089   5.647 -1.1507  0.2955  0.4211
 1119SOL    HW214994   3.570   4.161   5.732  2.1238 -1.6958  1.2780
 1120SOL     OW14995   4.390   3.195   3.402  0.3182 -0.2344  0.1902
 1120SOL    HW114996   4.429   3.162   3.322 -0.4083  0.9650 -0.6485
 1120SOL    HW214997   4.468   3.182   3.457  1.4903  3.0298 -0.7112
 1121SOL     OW14998   2.393   1.620   6.287  0.5647 -0.2377 -0.0099
 1121SOL    HW114999   2.442   1.544   6.257 -2.8670 -2.1842 -0.7045
 1121SOL    HW215000   2.342   1.647   6.210  0.4243  0.6530  0.3993
 1122SOL     OW15001   2.744   0.715   2.977 -0.3569 -0.1687 -0.0299
 1122SOL    HW115002   2.806   0.691   3.046  1.4574 -2.1938 -2.3564
 1122SOL    HW215003   2.761   0.808   2.964  2.5004 -0.7198 -0.1860
 1123SOL     OW15004   3.316   2.783  12.108  0.0389  0.2250  0.2221
 1123SOL    HW115005   3.295   2.819  12.195 -0.1210 -0.6214  0.5308
 1123SOL    HW215006   3.376   2.849  12.074  3.0741 -2.3701  0.5448
 1124SOL     OW15007   2.897   4.356   4.731 -0.8343  0.1441 -0.0904
 1124SOL    HW115008   2.889   4.326   4.822  0.0213 -2.4856 -0.8932
 1124SOL    HW215009   2.979   4.406   4.736  0.3506 -2.1275  3.3942
 1125SOL     OW15010   1.864   3.387   3.492 -0.1427 -0.4059  0.2336
 1125SOL    HW115011   1.783   3.438   3.499 -0.7695 -0.7472 -4.4782
 1125SOL    HW215012   1.836   3.322   3.427  1.8479 -1.1932  0.1839
 1126SOL     OW15013   2.081   1.833  12.654 -0.7076 -0.0965 -0.1206
 1126SOL    HW115014   2.128   1.795  12.728  1.3612  3.4986  0.4372
 1126SOL    HW215015   2.012   1.768  12.645 -1.8978  0.5795  4.0770
 1127SOL     OW15016   0.434   0.807  10.695 -0.1177  0.1256  0.4948
 1127SOL    HW115017   0.517   0.792  10.740 -1.3545  0.5063  2.9124
 1127SOL    HW215018   0.407   0.887  10.741  0.0710 -0.6483  1.9373
 1128SOL     OW15019   1.504   3.428   4.703  0.2021 -0.0100 -0.4907
 1128SOL    HW115020   1.481   3.513   4.665 -1.8347 -0.2118  0.3238
 1128SOL    HW215021   1.419   3.386   4.689  1.0216 -2.0720  0.6115
 1129SOL     OW15022   1.473   3.996   7.029  0.3836 -0.3522  0.1162
 1129SOL    HW115023   1.436   3.946   7.101 -1.6258  2.0851  0.7797
 1129SOL    HW215024   1.447   4.087   7.046  1.3024  0.3954 -2.4035
 1130SOL     OW15025   2.785   1.563  12.450 -0.5832  0.3090 -0.1273
 1130SOL    HW115026   2.691   1.581  12.458 -0.9390 -1.0702 -1.1833
 1130SOL    HW215027   2.794   1.560  12.355 -0.0074 -1.1589 -0.0324
 1131SOL     OW15028   3.768   0.303   3.331  0.3679 -0.0351  0.1783
 1131SOL    HW115029   3.852   0.299   3.378  1.2316 -0.2807 -1.3705
 1131SOL    HW215030   3.758   0.397   3.323 -1.2288 -0.3874 -2.0609
 1132SOL     OW15031   3.357   2.067  17.647  0.2489  0.0924  0.3310
 1132SOL    HW115032   3.445   2.088  17.677  0.3095 -1.5602  1.3163
 1132SOL    HW215033   3.367   2.074  17.552  0.4751  1.4573  0.4541
 1133SOL     OW15034   0.612   2.201   9.274  0.0850 -0.1327 -0.5252
 1133SOL    HW115035   0.609   2.189   9.179  3.2480  1.1938 -0.7604
 1133SOL    HW215036   0.527   2.243   9.290  0.2718 -0.0156  0.1427
 1134SOL     OW15037   1.120   3.036   2.947  0.0016  0.4456  0.0446
 1134SOL    HW115038   1.042   3.065   2.994  0.1962 -0.4386  0.9101
 1134SOL    HW215039   1.135   3.108   2.886  0.7539  0.3921  0.1674
 1135SOL     OW15040   3.557   2.226   7.628 -0.1676  0.1147  0.1289
 1135SOL    HW115041   3.561   2.231   7.724  1.8411  2.2978 -0.0687
 1135SOL    HW215042   3.530   2.135   7.617 -1.8461  0.5604  0.5326
 1136SOL     OW15043   1.279   4.505   5.039  0.2417  0.1422 -0.3182
 1136SOL    HW115044   1.360   4.545   5.008 -0.5513  0.7515 -1.5859
 1136SOL    HW215045   1.231   4.501   4.956 -2.5848 -0.1615  1.3419
 1137SOL     OW15046   0.557   4.124   5.562  0.5004 -0.4775  0.0327
 1137SOL    HW115047   0.465   4.100   5.566  0.1808  1.2958  3.6632
 1137SOL    HW215048   0.605   4.042   5.546  1.1825 -0.1400  0.3586
 1138SOL     OW15049   1.214   1.561   5.410  0.3809  0.1112 -0.8533
 1138SOL    HW115050   1.191   1.605   5.492 -4.0768  1.1745 -2.6568
 1138SOL    HW215051   1.161   1.614   5.351 -2.8870 -2.8221 -0.5731
 1139SOL     OW15052   0.587   4.466   4.218  0.4936 -0.6534  0.5066
 1139SOL    HW115053   0.590   4.462   4.123 -2.3375 -1.8130  0.4497
 1139SOL    HW215054   0.670   4.421   4.234  1.8035  1.9189  1.0559
 1140SOL     OW15055   0.095   4.358  15.138  0.7007 -0.1449  0.1904
 1140SOL    HW115056   0.007   4.325  15.152  0.4269  0.6775  0.4006
 1140SOL    HW215057   0.070   4.421  15.070 -1.7915 -2.2380 -0.8273
 1141SOL     OW15058   0.730   4.157   8.521  0.4251 -0.1942  0.0055
 1141SOL    HW115059   0.769   4.143   8.434 -0.3012  0.9095 -0.4968
 1141SOL    HW215060   0.667   4.086   8.528  0.6279 -0.0834  2.8719
 1142SOL     OW15061   2.554   4.655   7.277  0.0182 -0.6423 -0.3974
 1142SOL    HW115062   2.535   4.594   7.348 -0.2360 -1.1595 -0.9141
 1142SOL    HW215063   2.478   4.714   7.280  1.6987  1.6268 -2.3630
 1143SOL     OW15064   1.589   2.092   2.826 -0.0315 -0.0706  0.1474
 1143SOL    HW115065   1.615   2.183   2.809 -0.0061 -0.6479 -2.8252
 1143SOL    HW215066   1.613   2.081   2.918  1.7025 -1.3920 -0.4696
 1144SOL     OW15067   3.899   1.742   7.914  0.4218  0.4250 -0.0174
 1144SOL    HW115068   3.812   1.781   7.906  0.0433 -0.8949 -2.1154
 1144SOL    HW215069   3.940   1.767   7.831  0.8994  1.6092  0.5801
 1145SOL     OW15070   1.187   2.378   8.716 -0.2170 -0.0063  0.4485
 1145SOL    HW115071   1.182   2.350   8.807 -1.2950 -1.9378 -0.2161
 1145SOL    HW215072   1.151   2.301   8.672  1.6370 -0.9592  0.5743
 1146SOL     OW15073   4.539   1.855  17.378  0.6365  0.0232 -0.2378
 1146SOL    HW115074   4.505   1.899  17.300  2.5106  0.7138 -0.6665
 1146SOL    HW215075   4.633   1.872  17.369  0.3533  2.0284  0.3975
 1147SOL     OW15076   0.417   1.273   1.036  0.2569 -0.1439 -0.0434
 1147SOL    HW115077   0.404   1.259   0.942 -0.4476  0.3652 -0.0222
 1147SOL    HW215078   0.502   1.316   1.033  0.9696 -1.3648  2.7102
 1148SOL     OW15079   0.679   3.399   7.429 -1.2605  0.2592 -0.3808
 1148SOL    HW115080   0.648   3.310   7.447 -0.4970  0.8155  3.7482
 1148SOL    HW215081   0.768   3.387   7.396 -0.8799  1.2050  0.2843
 1149SOL     OW15082   1.826   3.469   8.408 -0.6241 -0.7006 -0.4061
 1149SOL    HW115083   1.871   3.463   8.492 -0.3033 -0.8118 -0.5859
 1149SOL    HW215084   1.749   3.417   8.429 -2.3779  1.6648 -0.9963
 1150SOL     OW15085   4.687   2.214  14.024 -0.1146  0.0555  0.6470
 1150SOL    HW115086   0.011   2.158  13.973  0.5446  0.7445  0.6452
 1150SOL    HW215087   4.681   2.162  14.105 -2.3699 -1.4323 -0.4812
 1151SOL     OW15088   1.259   0.872   4.114  0.5853 -0.5759  0.4080
 1151SOL    HW115089   1.244   0.804   4.179  0.5641 -2.3877 -1.4874
 1151SOL    HW215090   1.249   0.951   4.167 -1.8520  0.4717 -1.6539
 1152SOL     OW15091   1.251   1.048   0.187 -0.5782 -0.3469 -0.1980
 1152SOL    HW115092   1.221   1.071   0.099 -1.0601  0.8795  0.2931
 1152SOL    HW215093   1.345   1.057   0.195 -0.7076  0.3297  0.5477
 1153SOL     OW15094   3.091   3.391   9.028 -0.0964 -0.2894  0.0372
 1153SOL    HW115095   3.040   3.345   9.095  1.4434 -1.1611  0.6037
 1153SOL    HW215096   3.099   3.310   8.978  1.1608 -0.4812  0.5517
 1154SOL     OW15097   1.412   2.753  16.592  1.0464 -0.3040  0.1161
 1154SOL    HW115098   1.390   2.804  16.670  1.0902 -1.6031  0.9884
 1154SOL    HW215099   1.421   2.819  16.524  0.0841 -0.3311 -0.0410
 1155SOL     OW15100   0.186   0.383   4.974  0.4991 -0.8326 -0.0013
 1155SOL    HW115101   0.271   0.403   5.013 -1.0467  1.4999  2.1598
 1155SOL    HW215102   0.195   0.288   4.963  0.8465 -0.8360  0.3046
 1156SOL     OW15103   3.132   1.452  11.272 -0.3955  0.0764 -0.5470
 1156SOL    HW115104   3.147   1.358  11.284  2.8411  0.6859  0.1190
 1156SOL    HW215105   3.138   1.485  11.362 -1.7294 -0.5776 -0.2119
 1157SOL     OW15106   0.965   4.256  12.449 -0.5075 -0.0967  0.3602
 1157SOL    HW115107   0.942   4.315  12.377 -0.5978 -0.4792  0.0729
 1157SOL    HW215108   1.008   4.185  12.401 -0.7926 -0.1770  0.2257
 1158SOL     OW15109   2.638   0.045  17.693 -0.6852  0.2047 -0.0103
 1158SOL    HW115110   2.549   0.020  17.716 -1.0492 -0.4584 -2.1363
 1158SOL    HW215111   2.631   0.138  17.671  4.3985  1.0273  1.8560
 1159SOL     OW15112   2.327   1.189   5.490  0.0345  0.2040 -0.0173
 1159SOL    HW115113   2.399   1.238   5.452  0.8337 -0.7572  0.2657
 1159SOL    HW215114   2.350   1.096   5.488  0.0073  0.1255  2.8695
 1160SOL     OW15115   3.402   3.286  16.147 -0.3153 -0.4820 -0.2509
 1160SOL    HW115116   3.413   3.365  16.199  1.5754 -1.3401  0.6469
 1160SOL    HW215117   3.341   3.245  16.208  0.1863 -0.1226  0.4903
 1161SOL     OW15118   3.032   1.004   4.536  0.4863  0.0560 -0.2594
 1161SOL    HW115119   2.999   0.940   4.600 -0.7701 -1.2848 -2.2431
 1161SOL    HW215120   3.124   0.978   4.529  1.3328  2.7912  1.0586
 1162SOL     OW15121   3.622   1.948   2.160  0.0544  0.5917 -0.7023
 1162SOL    HW115122   3.549   1.964   2.219  1.3714  0.8079  0.8839
 1162SOL    HW215123   3.600   1.856   2.148  2.0027  0.2509 -1.6441
 1163SOL     OW15124   1.055   0.629   9.596 -0.9027 -0.2471  0.3427
 1163SOL    HW115125   1.032   0.548   9.640  0.6317 -0.9288 -0.0979
 1163SOL    HW215126   1.077   0.675   9.677  0.9009 -0.7535  0.1371
 1164SOL     OW15127   1.464   0.877   5.400  0.3759  0.1172 -0.0614
 1164SOL    HW115128   1.380   0.837   5.380  1.5747 -1.3552 -2.2119
 1164SOL    HW215129   1.440   0.969   5.390 -0.1587 -0.2951 -2.5661
 1165SOL     OW15130   3.780   0.418   4.798  0.0840  0.1494 -0.4240
 1165SOL    HW115131   3.805   0.340   4.848  2.1928  2.1921  1.6687
 1165SOL    HW215132   3.787   0.485   4.865  1.9733  1.6133 -2.1000
 1166SOL     OW15133   1.217   1.041   1.745  0.5377  0.0411 -0.1701
 1166SOL    HW115134   1.151   1.056   1.812  0.9591  2.5881 -0.3256
 1166SOL    HW215135   1.179   0.977   1.685  2.0891 -1.3633  0.3343
 1167SOL     OW15136   1.932   3.282   5.190  0.2200  0.1511  0.0982
 1167SOL    HW115137   1.971   3.201   5.221 -0.9455 -0.6830 -0.6339
 1167SOL    HW215138   1.882   3.320   5.263  0.4086 -0.7424  0.6855
 1168SOL     OW15139   1.426   2.053   5.899  0.1848  0.7805 -0.0988
 1168SOL    HW115140   1.432   2.057   5.994 -0.0000  0.9488 -0.0950
 1168SOL    HW215141   1.330   2.053   5.895  0.1994 -2.3725 -0.4517
 1169SOL     OW15142   3.519   2.209   4.178  0.2413 -0.1795 -0.3903
 1169SOL    HW115143   3.430   2.187   4.206 -0.1237  1.0881 -0.5492
 1169SOL    HW215144   3.573   2.169   4.246 -1.0574 -1.7198 -0.2801
 1170SOL     OW15145   0.496   1.373  16.994 -0.7642 -0.1471 -0.0651
 1170SOL    HW115146   0.478   1.464  16.972 -0.7946 -0.3582 -0.9334
 1170SOL    HW215147   0.550   1.374  17.072 -2.4750 -2.9225  1.1340
 1171SOL     OW15148   4.608   2.853   7.532 -0.2273  0.3524 -0.0754
 1171SOL    HW115149   4.613   2.767   7.573  3.3409 -0.3595 -2.0017
 1171SOL    HW215150   4.651   2.838   7.448 -0.2995 -0.8700  0.1035
 1172SOL     OW15151   1.752   4.025   8.566  0.4432 -0.2745  0.1193
 1172SOL    HW115152   1.790   3.979   8.491  0.5423  0.3491 -0.2171
 1172SOL    HW215153   1.770   4.118   8.549 -0.8716  0.1793  1.2285
 1173SOL     OW15154   0.641   3.564   1.964  0.6686 -0.3843 -0.1357
 1173SOL    HW115155   0.684   3.622   2.027 -0.9787 -1.1363  1.6933
 1173SOL    HW215156   0.712   3.500   1.961  0.7753 -0.4761  4.0620
 1174SOL     OW15157   3.813   4.366   2.179 -0.5262  0.1221  0.8633
 1174SOL    HW115158   3.821   4.333   2.268 -0.1319 -3.6686 -0.5650
 1174SOL    HW215159   3.811   4.459   2.201  0.7343  0.1678  0.7956
 1175SOL     OW15160   3.593   3.763   9.505  0.0099  0.3235 -0.0375
 1175SOL    HW115161   3.557   3.847   9.533  0.1784  0.0411  1.0182
 1175SOL    HW215162   3.686   3.768   9.527 -0.2958  0.5478  1.1928
 1176SOL     OW15163   2.114   0.534   6.080  0.4405 -0.6761  0.6601
 1176SOL    HW115164   2.172   0.555   6.006 -1.7331 -2.8623 -1.6573
 1176SOL    HW215165   2.094   0.620   6.117  1.7819 -0.4615  0.9032
 1177SOL     OW15166   4.049   1.897   3.964 -0.3067 -0.5452  0.2178
 1177SOL    HW115167   3.999   1.868   4.040  0.7699  1.2645  1.6264
 1177SOL    HW215168   3.982   1.942   3.913  1.8900  0.1592 -2.1062
 1178SOL     OW15169   2.642   1.026   8.123  0.1110 -0.4673  0.0574
 1178SOL    HW115170   2.636   0.979   8.206 -2.1741  1.5832  1.0748
 1178SOL    HW215171   2.738   1.023   8.116 -0.1318 -0.7584 -2.8828
 1179SOL     OW15172   0.843   4.247   6.988 -0.1104 -0.2052 -0.2031
 1179SOL    HW115173   0.847   4.319   6.926  0.9464 -0.1917 -0.1209
 1179SOL    HW215174   0.845   4.172   6.930 -1.0364 -0.8828  0.6445
 1180SOL     OW15175   1.630   0.475   6.401  0.2524 -0.5998  0.3206
 1180SOL    HW115176   1.554   0.485   6.344  0.2769  0.6137  0.5000
 1180SOL    HW215177   1.595   0.435   6.480 -0.9903  0.3719  0.2550
 1181SOL     OW15178   2.928   2.119   9.558 -0.3004  0.1430  0.0043
 1181SOL    HW115179   2.888   2.079   9.481 -0.6896  1.8339 -0.6670
 1181SOL    HW215180   2.987   2.182   9.518  0.0282 -0.3618 -0.3108
 1182SOL     OW15181   0.202   1.029  14.196  0.5996 -0.1900 -0.6738
 1182SOL    HW115182   0.144   0.961  14.163  0.4866 -0.6782  0.5377
 1182SOL    HW215183   0.280   1.004  14.148  2.2180 -0.4731  2.1098
 1183SOL     OW15184   3.673   3.824   4.329  0.2154 -0.2275  0.5343
 1183SOL    HW115185   3.681   3.779   4.413  0.7889  0.3431  0.7796
 1183SOL    HW215186   3.707   3.761   4.266  0.4550 -1.9516  2.3790
 1184SOL     OW15187   1.720   0.220   9.273  0.5495 -0.1729  0.3747
 1184SOL    HW115188   1.683   0.307   9.287  1.0700 -0.0670  1.1223
 1184SOL    HW215189   1.800   0.241   9.225 -0.6278  0.6899 -1.1941
 1185SOL     OW15190   4.093   4.542  16.471  0.2856 -0.4070  0.7438
 1185SOL    HW115191   4.146   4.466  16.447  1.2966  0.1518  1.2226
 1185SOL    HW215192   4.062   4.578  16.387 -0.0316 -0.4151  0.8593
 1186SOL     OW15193   0.722   4.449   1.878 -0.4359  0.2182 -0.5980
 1186SOL    HW115194   0.719   4.371   1.823 -1.8884 -0.0069 -0.1976
 1186SOL    HW215195   0.629   4.471   1.882 -0.7499 -1.0583 -0.7037
 1187SOL     OW15196   0.784   3.265   6.842  0.0126 -0.0707 -0.3756
 1187SOL    HW115197   0.691   3.278   6.823 -0.4691 -1.5884  0.9418
 1187SOL    HW215198   0.822   3.240   6.758  1.4065 -1.2943  0.5959
 1188SOL     OW15199   4.138   3.304   3.374  0.3981 -0.0363  0.0685
 1188SOL    HW115200   4.072   3.258   3.426  0.3678 -1.5200 -1.2581
 1188SOL    HW215201   4.220   3.261   3.398 -0.8475 -1.2294  2.2000
 1189SOL     OW15202   0.145   4.717   4.857 -0.4039  0.4340 -0.4408
 1189SOL    HW115203   0.222   0.033   4.882  0.0094  0.7477 -2.3843
 1189SOL    HW215204   0.133   0.007   4.766  0.2564 -4.3533 -1.8402
 1190SOL     OW15205   3.433   2.657   7.137  0.2297 -0.1294  0.2180
 1190SOL    HW115206   3.390   2.593   7.193  0.5998  0.9147  1.6734
 1190SOL    HW215207   3.454   2.714   7.210 -0.3681  0.9753 -0.4642
 1191SOL     OW15208   1.368   4.091   2.004  0.0487 -0.2001  0.2654
 1191SOL    HW115209   1.452   4.088   1.958  0.9437 -1.4092  1.9830
 1191SOL    HW215210   1.313   4.146   1.949  0.2403 -0.0046  0.2707
 1192SOL     OW15211   2.007   0.251  13.356 -0.1074 -0.3464  0.0732
 1192SOL    HW115212   2.001   0.156  13.366 -2.4952 -0.1042  1.0675
 1192SOL    HW215213   2.033   0.264  13.265 -3.1666  1.8581 -0.4777
 1193SOL     OW15214   0.288   1.418  13.938  0.3067 -0.0373 -0.3457
 1193SOL    HW115215   0.263   1.457  13.855  0.7677  0.8691 -0.0658
 1193SOL    HW215216   0.203   1.394  13.975  0.6875 -0.7057  0.0972
 1194SOL     OW15217   1.935   2.097   6.240 -0.3262 -0.1947 -0.0735
 1194SOL    HW115218   2.030   2.109   6.236 -0.3035 -0.3010  0.1740
 1194SOL    HW215219   1.919   2.009   6.276 -0.3493  0.6954  2.0500
 1195SOL     OW15220   0.524   3.255  15.038 -0.1009 -0.4015 -0.0048
 1195SOL    HW115221   0.585   3.182  15.028  1.8418  1.1710  0.3910
 1195SOL    HW215222   0.581   3.331  15.050 -0.0247 -0.5752  0.7750
 1196SOL     OW15223   1.517   2.095   5.348 -1.0054  0.3424 -0.5921
 1196SOL    HW115224   1.477   2.137   5.423 -0.5764  1.0062 -0.7364
 1196SOL    HW215225   1.507   2.161   5.280  0.5311  0.6092 -0.5686
 1197SOL     OW15226   1.449   1.223   8.432  0.2073  0.3562  0.2102
 1197SOL    HW115227   1.481   1.147   8.383 -0.1593  0.3421 -0.0090
 1197SOL    HW215228   1.405   1.177   8.504  1.8253  1.1322  1.6914
 1198SOL     OW15229   1.844   0.754   5.162 -0.0303 -0.1603  0.4518
 1198SOL    HW115230   1.765   0.715   5.197  0.8374 -0.3576  2.1705
 1198SOL    HW215231   1.908   0.685   5.144  0.5954  0.5863 -0.2494
 1199SOL     OW15232   2.629   3.314   4.380 -0.1751  0.0440  0.0825
 1199SOL    HW115233   2.628   3.221   4.403 -0.7127  0.0291 -0.0108
 1199SOL    HW215234   2.643   3.311   4.286  4.1215  1.6925  0.6435
 1200SOL     OW15235   0.792   3.563   2.974 -0.3194  0.2034 -0.4809
 1200SOL    HW115236   0.818   3.568   2.882  0.3993 -1.4804 -0.3677
 1200SOL    HW215237   0.708   3.609   2.979 -0.3858 -0.0717  1.1367
 1201SOL     OW15238   0.138   0.158   3.369 -0.3457  0.3807 -0.5051
 1201SOL    HW115239   0.212   0.204   3.409  0.3750 -1.4927  0.3033
 1201SOL    HW215240   0.095   0.239   3.343 -1.8802  0.4769  2.3931
 1202SOL     OW15241   0.759   4.663  12.419 -0.5175  0.2642 -0.1378
 1202SOL    HW115242   0.824   4.732  12.431 -0.6581  0.6508 -1.6254
 1202SOL    HW215243   0.682   4.687  12.470 -0.9276 -1.2077 -0.0690
 1203SOL     OW15244   1.305   0.359  10.505  0.4222  0.1540  0.3057
 1203SOL    HW115245   1.241   0.422  10.472  0.3518 -0.7665 -1.3029
 1203SOL    HW215246   1.279   0.348  10.597  0.0430 -0.5644  0.1197
 1204SOL     OW15247   0.636   1.914   5.018  0.6883  0.1455 -0.4722
 1204SOL    HW115248   0.642   1.949   5.107  0.1506  0.0024 -0.3841
 1204SOL    HW215249   0.544   1.898   4.997  0.8365  0.3250 -1.2549
 1205SOL     OW15250   4.673   4.006   5.914 -0.3617  0.6797  0.1548
 1205SOL    HW115251   0.002   3.996   5.985  0.3995 -0.1791 -0.6515
 1205SOL    HW215252   4.677   4.100   5.899  3.4187  0.4705  0.0320
 1206SOL     OW15253   3.999   2.392   6.091  0.0712 -0.3007  0.2787
 1206SOL    HW115254   3.921   2.439   6.121 -0.3082 -1.1206  0.5870
 1206SOL    HW215255   4.071   2.435   6.137 -0.4065  1.3527 -0.5394
 1207SOL     OW15256   2.539   1.861   1.915  0.0606 -0.0506  0.1315
 1207SOL    HW115257   2.456   1.839   1.873  0.7739 -0.6454 -0.9622
 1207SOL    HW215258   2.575   1.919   1.848  0.0856  1.6963  1.6421
 1208SOL     OW15259   1.836   0.479   3.892  0.2743 -0.4991 -0.3289
 1208SOL    HW115260   1.870   0.390   3.896  0.8354 -0.4060 -2.8399
 1208SOL    HW215261   1.908   0.519   3.843 -1.9285  0.2710 -2.9337
 1209SOL     OW15262   1.819   0.686   4.370 -0.3107  0.6194 -0.1684
 1209SOL    HW115263   1.769   0.647   4.298 -1.0342  2.0225 -0.4419
 1209SOL    HW215264   1.809   0.621   4.439 -2.0872  3.7721  2.5489
 1210SOL     OW15265   2.081   0.109   4.832 -0.1368 -0.2625  0.0500
 1210SOL    HW115266   2.172   0.122   4.859 -1.1070 -0.1917  3.3104
 1210SOL    HW215267   2.091   0.035   4.773 -2.5322 -1.0144  0.5692
 1211SOL     OW15268   4.276   3.379   8.856  0.3084 -0.9303  0.2956
 1211SOL    HW115269   4.231   3.308   8.809 -0.3775  0.5013 -1.2348
 1211SOL    HW215270   4.220   3.382   8.933  1.0253  1.9612  0.6954
 1212SOL     OW15271   1.033   3.415   3.221  0.0012 -0.6263 -0.3918
 1212SOL    HW115272   1.036   3.509   3.239 -2.3044 -0.1036 -2.8315
 1212SOL    HW215273   1.114   3.386   3.264 -1.0947 -1.2441  1.2235
 1213SOL     OW15274   2.812   2.296   1.746  0.1869  0.1266  0.8235
 1213SOL    HW115275   2.817   2.206   1.714  1.4404  0.4755  0.0584
 1213SOL    HW215276   2.743   2.293   1.812  1.1878  3.0212  2.0004
 1214SOL     OW15277   1.464   4.413   2.082  0.2277 -0.3561  0.3100
 1214SOL    HW115278   1.381   4.458   2.066  1.1716  1.3667  0.2622
 1214SOL    HW215279   1.458   4.403   2.177 -0.0089  0.5803  0.3915
 1215SOL     OW15280   2.622   3.136   2.803 -0.1012 -0.2148  0.0095
 1215SOL    HW115281   2.595   3.157   2.892  0.5286  0.5754  0.0107
 1215SOL    HW215282   2.540   3.121   2.755 -0.3602  1.4634 -0.0606
 1216SOL     OW15283   2.382   3.315   9.219  0.1612  0.3965 -0.3471
 1216SOL    HW115284   2.299   3.358   9.236  0.1150 -0.0884  0.6392
 1216SOL    HW215285   2.434   3.386   9.180 -0.8287 -0.0187 -2.4406
 1217SOL     OW15286   0.469   2.512   7.253 -0.0640 -0.1404  0.1425
 1217SOL    HW115287   0.542   2.475   7.302 -0.0756  1.1098  1.1383
 1217SOL    HW215288   0.474   2.606   7.272  0.4598 -0.1425  0.0022
 1218SOL     OW15289   3.272   1.372  16.622 -0.1808  0.5401 -0.1697
 1218SOL    HW115290   3.319   1.374  16.538  3.8132 -1.5380  1.9974
 1218SOL    HW215291   3.345   1.398  16.679 -1.0316  0.0138  1.1498
 1219SOL     OW15292   3.219   1.039   3.643  0.1156 -0.4276 -0.1293
 1219SOL    HW115293   3.214   1.070   3.734 -3.0201 -1.2501 -0.0370
 1219SOL    HW215294   3.128   1.011   3.641 -0.6114  2.0166 -1.3025
 1220SOL     OW15295   2.649   2.862  10.018 -0.0960  0.4471 -0.1081
 1220SOL    HW115296   2.743   2.862  10.038  0.1242 -1.4283 -1.0979
 1220SOL    HW215297   2.664   2.814   9.936  1.6076  0.2652  0.3107
 1221SOL     OW15298   2.181   2.985   1.993 -0.2329  0.0431 -0.3001
 1221SOL    HW115299   2.139   2.970   2.078 -1.1281 -0.8872 -0.9006
 1221SOL    HW215300   2.174   2.900   1.948  1.0446  0.8368 -1.9785
 1222SOL     OW15301   1.654   1.000   9.579  0.0492  0.1416 -0.1790
 1222SOL    HW115302   1.707   0.982   9.657 -0.3316  1.3438  0.3566
 1222SOL    HW215303   1.567   1.011   9.615  0.7073  2.1311  0.8385
 1223SOL     OW15304   4.687   3.164  13.340  0.1817 -0.2097  0.1739
 1223SOL    HW115305   4.678   3.168  13.245 -0.3570 -1.2565  0.1818
 1223SOL    HW215306   0.048   3.152  13.332  0.2480  1.5975 -1.6683
 1224SOL     OW15307   1.453   3.435  15.837 -0.0915  0.4324  0.3175
 1224SOL    HW115308   1.512   3.369  15.874  1.1927  1.9486  0.9604
 1224SOL    HW215309   1.436   3.395  15.751  1.0084  0.7090 -0.0261
 1225SOL     OW15310   3.392   0.097  11.484 -0.0047 -0.4008  0.0577
 1225SOL    HW115311   3.304   0.135  11.487  0.8358  1.6187 -0.3797
 1225SOL    HW215312   3.376   0.017  11.533  1.9132 -1.8410 -1.6189
 1226SOL     OW15313   4.242   0.473   6.702  0.1796  0.2837  0.1881
 1226SOL    HW115314   4.241   0.379   6.721 -1.2736  0.4928  1.1822
 1226SOL    HW215315   4.327   0.504   6.732 -0.7080  1.4129  1.5214
 1227SOL     OW15316   0.567   3.600   8.832 -0.7712  0.2894 -0.2213
 1227SOL    HW115317   0.494   3.575   8.775  0.0832 -1.8243 -0.4067
 1227SOL    HW215318   0.613   3.516   8.833 -0.4725  0.5051  2.3265
 1228SOL     OW15319   4.439   1.139   2.354 -0.2917  0.1240 -0.1772
 1228SOL    HW115320   4.467   1.225   2.386  1.4105 -0.4351 -0.1802
 1228SOL    HW215321   4.451   1.139   2.260 -0.8906  1.5132 -0.2619
 1229SOL     OW15322   0.979   0.655   8.400  0.0163  0.2735 -0.9985
 1229SOL    HW115323   1.009   0.678   8.312  0.4036  0.7536 -0.7381
 1229SOL    HW215324   0.959   0.742   8.433 -0.5389  0.1179 -0.9314
 1230SOL     OW15325   3.517   2.007   5.594  0.3214  0.2731  0.1469
 1230SOL    HW115326   3.582   1.937   5.603  1.4281  1.3237  0.2891
 1230SOL    HW215327   3.442   1.969   5.640  1.5729 -1.2500  0.9415
 1231SOL     OW15328   4.028   2.688   9.411 -0.0882  0.2738 -0.3683
 1231SOL    HW115329   4.036   2.781   9.390 -0.0531  0.5601  0.9070
 1231SOL    HW215330   3.934   2.673   9.402  0.3526 -1.8496 -1.4809
 1232SOL     OW15331   2.366   4.281   6.258  0.2804  0.1292  0.5905
 1232SOL    HW115332   2.312   4.239   6.325 -2.5228  0.9358 -1.1684
 1232SOL    HW215333   2.308   4.358   6.256  0.7747  0.4932  0.3215
 1233SOL     OW15334   1.430   0.460  17.394 -0.2213 -0.1198  0.2581
 1233SOL    HW115335   1.484   0.510  17.456  1.7059 -0.8320 -0.8472
 1233SOL    HW215336   1.491   0.452  17.321  0.0861  1.7192  0.3127
 1234SOL     OW15337   1.872   1.635  12.609  0.2779 -0.6032 -0.1195
 1234SOL    HW115338   1.811   1.585  12.555 -1.9485 -0.1059  1.9153
 1234SOL    HW215339   1.827   1.719  12.621  2.9739  1.0856 -1.8436
 1235SOL     OW15340   0.715   0.773   3.065 -1.0266 -0.3426 -0.0268
 1235SOL    HW115341   0.685   0.683   3.075 -2.1336 -0.0093 -0.3183
 1235SOL    HW215342   0.653   0.809   3.001 -1.2730  2.4735  1.7575
 1236SOL     OW15343   3.653   4.564   7.160 -0.3574  0.4227  0.0838
 1236SOL    HW115344   3.640   4.476   7.198  0.1974  0.2475 -0.1356
 1236SOL    HW215345   3.575   4.582   7.108 -1.0586 -0.4313  0.8137
 1237SOL     OW15346   4.010   0.838  16.049  0.7897 -0.1787 -0.1663
 1237SOL    HW115347   3.979   0.892  15.976  1.9700  1.5943  0.6474
 1237SOL    HW215348   4.087   0.891  16.066 -0.2300  1.6689 -1.2805
 1238SOL     OW15349   0.841   1.087   7.901 -0.2303  0.1238  0.2139
 1238SOL    HW115350   0.843   1.128   7.814 -0.9594  0.0683  0.1723
 1238SOL    HW215351   0.865   0.996   7.881  0.9940  1.0267 -2.4218
 1239SOL     OW15352   1.875   3.576  15.858  0.4209 -0.7434  0.2474
 1239SOL    HW115353   1.800   3.618  15.816 -0.8010 -1.1864  1.9506
 1239SOL    HW215354   1.827   3.507  15.904  0.6173 -1.0122  0.0499
 1240SOL     OW15355   3.283   2.825   1.707 -0.2957  0.0532  0.1200
 1240SOL    HW115356   3.312   2.737   1.680 -0.2100  0.1476 -0.0990
 1240SOL    HW215357   3.196   2.828   1.668 -0.1465 -0.7206 -0.2851
 1241SOL     OW15358   1.311   2.810  14.738 -0.2285  1.1065 -0.3844
 1241SOL    HW115359   1.335   2.889  14.689  1.5533  1.7740  1.5933
 1241SOL    HW215360   1.351   2.844  14.818 -1.4145 -0.1101  0.7183
 1242SOL     OW15361   3.890   3.128  10.729 -0.6490  0.3996 -0.1100
 1242SOL    HW115362   3.962   3.159  10.675  0.4450 -0.6005  0.8059
 1242SOL    HW215363   3.930   3.057  10.778  1.2721  1.1126 -0.6771
 1243SOL     OW15364   3.818   2.500   2.645 -0.8170  0.6089  0.4961
 1243SOL    HW115365   3.868   2.572   2.683 -0.6867  0.8734 -0.1716
 1243SOL    HW215366   3.869   2.420   2.658  0.8938  1.3642 -1.4563
 1244SOL     OW15367   2.875   0.374  11.750  0.0527 -0.2417 -0.0734
 1244SOL    HW115368   2.890   0.434  11.676 -1.1388  1.4372  1.0338
 1244SOL    HW215369   2.957   0.377  11.798 -0.0570  0.5233  0.0708
 1245SOL     OW15370   1.836   4.561   7.450 -0.1394 -0.6123 -0.3767
 1245SOL    HW115371   1.866   4.505   7.379 -0.8260 -2.5900  0.8959
 1245SOL    HW215372   1.741   4.552   7.448 -0.0013 -2.3364  0.8851
 1246SOL     OW15373   3.908   3.235   9.413  0.0706  0.5768 -0.0325
 1246SOL    HW115374   4.002   3.250   9.418 -0.1622  0.4883  4.4966
 1246SOL    HW215375   3.885   3.319   9.373 -0.4925 -0.0221 -0.9600
 1247SOL     OW15376   0.914   4.448  12.258 -0.0125  0.0251 -0.5741
 1247SOL    HW115377   0.938   4.419  12.170  1.5244  0.0142 -0.1494
 1247SOL    HW215378   0.911   4.542  12.241  2.7123  0.3132  0.5722
 1248SOL     OW15379   4.697   3.444   2.153 -0.0286 -0.4585 -0.1972
 1248SOL    HW115380   4.611   3.413   2.182 -0.6208 -0.6033 -2.1337
 1248SOL    HW215381   0.022   3.388   2.203  1.4329  1.3207  0.0599
 1249SOL     OW15382   1.560   1.704   5.112 -0.4372 -0.9191  0.6899
 1249SOL    HW115383   1.559   1.609   5.103  0.0313 -0.7484 -1.0397
 1249SOL    HW215384   1.464   1.713   5.118 -0.2632  1.8998 -0.7429
 1250SOL     OW15385   3.334   2.273   3.700 -0.4776 -0.7178  0.3519
 1250SOL    HW115386   3.327   2.283   3.795  1.7250 -0.6252  0.5128
 1250SOL    HW215387   3.430   2.271   3.695 -0.6007 -0.0222 -2.2093
 1251SOL     OW15388   3.750   0.961   3.837  0.0928  0.3415  0.0876
 1251SOL    HW115389   3.805   0.883   3.847 -1.1141 -0.3015  1.7369
 1251SOL    HW215390   3.663   0.945   3.874  0.4629  1.1122  1.2479
 1252SOL     OW15391   4.321   3.311  12.004 -0.4063  0.0521  0.0484
 1252SOL    HW115392   4.363   3.235  11.963  2.3043  1.7915 -0.4131
 1252SOL    HW215393   4.273   3.276  12.079  2.3331 -2.1872  0.7834
 1253SOL     OW15394   2.303   1.881   6.063  0.2197 -0.3538  0.0937
 1253SOL    HW115395   2.242   1.868   6.136  2.1268 -1.5995  1.5011
 1253SOL    HW215396   2.279   1.810   6.005  0.2172  0.9958 -1.5511
 1254SOL     OW15397   0.643   1.094  15.218 -0.2855  0.0883 -0.0814
 1254SOL    HW115398   0.669   1.091  15.126 -0.6755 -0.5414 -0.1773
 1254SOL    HW215399   0.673   1.181  15.243  2.2384 -1.3991  2.0614
 1255SOL     OW15400   3.742   0.948   2.289 -0.0363 -0.2441  0.6737
 1255SOL    HW115401   3.807   1.017   2.287 -0.1797 -0.1019  1.1084
 1255SOL    HW215402   3.656   0.991   2.286  0.8334  1.5854  2.2099
 1256SOL     OW15403   4.218   3.903   6.902 -0.5786 -0.2576 -0.0010
 1256SOL    HW115404   4.170   3.877   6.981  0.9703 -0.3492  0.9111
 1256SOL    HW215405   4.310   3.885   6.923 -1.1150 -1.4461  1.3576
 1257SOL     OW15406   1.310   1.688   3.638 -0.1741 -0.0246 -0.2177
 1257SOL    HW115407   1.266   1.606   3.616  4.2550 -2.9897  2.1673
 1257SOL    HW215408   1.339   1.714   3.551  0.3515  0.6469  0.1576
 1258SOL     OW15409   3.833   2.529  15.014 -0.3365 -0.0315  0.3999
 1258SOL    HW115410   3.862   2.619  15.034  1.9047  0.1163 -3.5536
 1258SOL    HW215411   3.916   2.495  14.981 -0.8639 -0.0317 -0.8955
 1259SOL     OW15412   1.742   2.118   3.985 -0.5788 -0.4306  0.5684
 1259SOL    HW115413   1.688   2.046   4.019 -1.5774 -1.6526 -3.6859
 1259SOL    HW215414   1.796   2.139   4.061 -0.9016  1.6621  0.2217
 1260SOL     OW15415   2.038   1.912   2.454  0.3097 -0.1898 -0.0801
 1260SOL    HW115416   2.109   1.855   2.483  0.2740 -0.1194  0.1421
 1260SOL    HW215417   2.064   1.930   2.363  1.6869 -1.7580  0.0068
 1261SOL     OW15418   3.425   0.479   2.649 -0.5500  0.3833 -0.3157
 1261SOL    HW115419   3.447   0.386   2.649 -0.5693  0.3788 -1.9680
 1261SOL    HW215420   3.512   0.518   2.645 -0.9967  1.3266 -0.8700
 1262SOL     OW15421   3.878   2.366  15.790  0.3548  0.0769  0.1373
 1262SOL    HW115422   3.879   2.411  15.874  0.5758 -0.2990  0.3370
 1262SOL    HW215423   3.950   2.410  15.744 -1.9463  0.4413 -3.1219
 1263SOL     OW15424   3.192   1.578   9.491 -0.6197 -0.3721 -0.4056
 1263SOL    HW115425   3.124   1.568   9.558  0.0485 -1.0828  0.1715
 1263SOL    HW215426   3.155   1.651   9.442 -1.4011 -1.0438 -0.8203
 1264SOL     OW15427   1.459   2.834   6.479  0.1158  0.2286 -0.4749
 1264SOL    HW115428   1.498   2.782   6.550  0.7418  0.7698 -0.4195
 1264SOL    HW215429   1.392   2.877   6.533 -0.3302  0.6801 -1.3993
 1265SOL     OW15430   2.911   1.017   8.182  0.0049  0.0891  0.1229
 1265SOL    HW115431   2.942   0.994   8.095 -0.1549 -2.2549  0.6877
 1265SOL    HW215432   2.992   1.008   8.232  0.8595  1.9207 -0.9125
 1266SOL     OW15433   3.121   0.395   7.653 -0.2909  0.1647  0.2274
 1266SOL    HW115434   3.194   0.431   7.703  2.4901 -1.8214 -2.3735
 1266SOL    HW215435   3.050   0.402   7.717 -0.3969  0.5620  0.0649
 1267SOL     OW15436   4.303   3.717   5.297 -0.1130 -0.1031 -0.3023
 1267SOL    HW115437   4.295   3.723   5.392 -0.3668 -2.9118 -0.1392
 1267SOL    HW215438   4.259   3.796   5.264 -0.9380 -0.3865  0.1048
 1268SOL     OW15439   4.178   4.019   8.983  0.0672  0.1209  0.1240
 1268SOL    HW115440   4.115   3.954   8.949  0.2210  1.1157 -2.0782
 1268SOL    HW215441   4.173   3.998   9.076 -3.0493 -1.6711 -0.4085
 1269SOL     OW15442   3.697   1.427   0.864 -0.0314  0.1156  0.0764
 1269SOL    HW115443   3.715   1.516   0.893 -1.0196  0.2722  0.2262
 1269SOL    HW215444   3.603   1.424   0.882 -0.3961 -1.1252 -1.9783
 1270SOL     OW15445   0.273   2.747   0.415 -0.0199 -0.7916  0.1883
 1270SOL    HW115446   0.295   2.656   0.438 -0.9483 -1.8707 -3.2342
 1270SOL    HW215447   0.269   2.734   0.320 -0.7897 -0.1053  0.1365
 1271SOL     OW15448   2.304   1.805  12.261 -0.2592  0.0451 -0.3102
 1271SOL    HW115449   2.363   1.879  12.274 -1.2498  0.9570 -0.9888
 1271SOL    HW215450   2.230   1.817  12.320  0.1748  0.9391  0.0447
 1272SOL     OW15451   2.508   4.724   8.107 -0.3041  0.0301  0.7508
 1272SOL    HW115452   2.475   0.068   8.150  0.1367  0.8043 -0.3242
 1272SOL    HW215453   2.431   4.669   8.095  0.7602 -1.4890  0.8791
 1273SOL     OW15454   1.284   3.923   7.935 -0.2888 -0.1289 -0.0301
 1273SOL    HW115455   1.198   3.893   7.964 -0.1545 -0.2688  0.2210
 1273SOL    HW215456   1.291   4.006   7.981 -1.1933  0.3964 -0.8351
 1274SOL     OW15457   2.900   3.113   6.492  0.2860  0.0804 -0.4118
 1274SOL    HW115458   2.896   3.171   6.568  0.4948  1.3239 -1.3452
 1274SOL    HW215459   2.925   3.174   6.422  0.8691 -2.0865 -2.0793
 1275SOL     OW15460   3.210   3.080   5.561  0.0903  0.2970 -0.0820
 1275SOL    HW115461   3.224   2.992   5.526 -1.7495  1.1195 -2.9726
 1275SOL    HW215462   3.279   3.132   5.519  2.2046 -0.3235  2.6679
 1276SOL     OW15463   0.011   2.643   3.617 -0.5526  0.5547  0.1448
 1276SOL    HW115464   4.710   2.554   3.613  0.2120  0.2373  0.3017
 1276SOL    HW215465   0.102   2.625   3.642 -0.6051  0.4489  0.2591
 1277SOL     OW15466   2.028   0.427   4.470 -0.3412 -0.1704  0.2903
 1277SOL    HW115467   2.103   0.368   4.482 -0.3161  0.1569  1.7106
 1277SOL    HW215468   1.954   0.367   4.477 -1.1598  0.7303 -0.6404
 1278SOL     OW15469   3.185   1.035   3.919 -0.2796 -0.5921  0.2437
 1278SOL    HW115470   3.146   1.113   3.959  0.7227  0.2644 -0.4766
 1278SOL    HW215471   3.122   0.983   3.970 -2.3547  1.4461 -0.2405
 1279SOL     OW15472   3.808   4.668  12.059 -0.2248  0.0907  0.5192
 1279SOL    HW115473   3.873   0.001  12.041  0.2307 -0.2675  0.8042
 1279SOL    HW215474   3.857   4.587  12.041  2.8007  2.1452 -0.6372
 1280SOL     OW15475   3.956   3.288   5.764 -0.1989  0.2155 -0.0611
 1280SOL    HW115476   4.016   3.239   5.707 -1.1463 -1.6185  0.5274
 1280SOL    HW215477   4.008   3.367   5.778  2.0927 -1.3785  0.4793
 1281SOL     OW15478   3.509   1.433  16.762 -0.0452  0.0528 -0.5332
 1281SOL    HW115479   3.524   1.345  16.796 -1.1470  0.3672  0.7540
 1281SOL    HW215480   3.569   1.482  16.817 -0.2495 -1.0361  0.6625
 1282SOL     OW15481   4.306   1.128   7.873 -0.0475  0.6657 -0.0044
 1282SOL    HW115482   4.254   1.050   7.894  2.0562 -0.7272  0.0320
 1282SOL    HW215483   4.332   1.149   7.963  2.1518  0.9397 -0.7109
 1283SOL     OW15484   4.158   3.923   5.212  0.1532 -0.4419  1.2474
 1283SOL    HW115485   4.169   3.981   5.288  1.6529 -1.0981  1.5320
 1283SOL    HW215486   4.200   3.977   5.146  0.5383 -0.6603  1.3159
 1284SOL     OW15487   4.689   2.754   9.331 -0.2405  0.6002  0.8075
 1284SOL    HW115488   0.028   2.790   9.380  0.2901 -1.5561  1.5930
 1284SOL    HW215489   4.636   2.831   9.315 -0.0128  1.0496  2.1640
 1285SOL     OW15490   4.493   1.847   2.983  0.1221 -0.0922  0.3346
 1285SOL    HW115491   4.511   1.907   2.911  0.7708 -0.5120  0.1438
 1285SOL    HW215492   4.441   1.781   2.937 -1.2632  1.0503  0.2650
 1286SOL     OW15493   4.452   0.505   5.323  0.4133 -0.0596 -0.0326
 1286SOL    HW115494   4.442   0.521   5.416 -2.2921  0.1607 -0.3532
 1286SOL    HW215495   4.547   0.498   5.311  0.7979 -2.0050  4.1950
 1287SOL     OW15496   0.873   0.437   2.871 -0.0685 -0.2210 -0.0212
 1287SOL    HW115497   0.839   0.501   2.809 -0.3655 -1.8127 -1.4835
 1287SOL    HW215498   0.810   0.433   2.943  0.1846  0.4464  0.2363
 1288SOL     OW15499   3.357   0.984   9.071  0.1613  0.4266 -0.5181
 1288SOL    HW115500   3.307   0.993   9.152 -0.8392 -0.0220 -1.0917
 1288SOL    HW215501   3.311   0.910   9.032  0.7785  0.0243 -0.4829
 1289SOL     OW15502   1.715   4.424  17.000  0.3307 -0.2523  0.5869
 1289SOL    HW115503   1.650   4.393  17.063 -2.5142 -0.7889 -2.5482
 1289SOL    HW215504   1.690   4.517  16.995 -0.7300 -0.5230  0.8697
 1290SOL     OW15505   4.728   2.918  16.453 -0.1521  0.4598 -0.6716
 1290SOL    HW115506   4.706   2.958  16.537  0.8843  0.7205 -0.5191
 1290SOL    HW215507   0.042   2.840  16.478 -1.8194  0.1428  1.5418
 1291SOL     OW15508   1.459   0.564   2.066  0.0656  0.2982  0.8629
 1291SOL    HW115509   1.550   0.564   2.097  0.8611 -0.3411 -1.5141
 1291SOL    HW215510   1.427   0.474   2.055 -0.3777  0.5081  0.4489
 1292SOL     OW15511   1.401   3.427   2.837 -0.3741  0.2526  0.2351
 1292SOL    HW115512   1.391   3.380   2.754 -2.9569 -0.6513  1.0685
 1292SOL    HW215513   1.310   3.421   2.865 -0.8099 -1.6887 -1.5602
 1293SOL     OW15514   0.497   0.103  16.035 -0.0164 -0.5025  0.0762
 1293SOL    HW115515   0.489   0.156  15.956 -1.3178 -0.1814  0.4219
 1293SOL    HW215516   0.552   0.154  16.095 -1.4084  0.3179  0.6500
 1294SOL     OW15517   1.286   3.804   5.441 -0.4858  0.5330  0.1170
 1294SOL    HW115518   1.259   3.765   5.358  0.9500  0.3177 -0.2393
 1294SOL    HW215519   1.380   3.808   5.428 -0.4911  1.1756  0.2399
 1295SOL     OW15520   3.194   0.159  15.070  0.1362 -0.3121  0.3701
 1295SOL    HW115521   3.203   0.253  15.089  1.7436 -0.3397 -0.2658
 1295SOL    HW215522   3.280   0.138  15.035  0.3626 -0.5734  1.0844
 1296SOL     OW15523   1.902   0.272  14.410  0.3679  0.2878 -0.8367
 1296SOL    HW115524   1.891   0.178  14.423 -0.0619  0.4515 -0.0215
 1296SOL    HW215525   1.935   0.311  14.491 -1.6123 -1.3592  0.7666
 1297SOL     OW15526   3.846   0.050   4.139 -0.1328 -0.3588  0.0929
 1297SOL    HW115527   3.865   0.026   4.048 -0.1101 -0.6406  0.1742
 1297SOL    HW215528   3.848   0.146   4.130 -1.5318 -0.2577  0.8705
 1298SOL     OW15529   3.011   4.590   3.588 -0.0262 -0.5759 -0.2463
 1298SOL    HW115530   3.006   4.650   3.514 -2.9642  0.7357  1.0171
 1298SOL    HW215531   3.105   4.574   3.593 -0.2705 -1.6210  0.9986
 1299SOL     OW15532   3.376   3.535   7.491 -0.3532 -0.2055  0.0091
 1299SOL    HW115533   3.361   3.463   7.552  0.2899 -1.6945 -1.5793
 1299SOL    HW215534   3.438   3.496   7.429 -0.3704  0.2122 -0.2663
 1300SOL     OW15535   3.512   4.612   0.570  0.2063 -0.5315  0.2219
 1300SOL    HW115536   3.574   4.542   0.549  0.9919  0.3669 -0.4910
 1300SOL    HW215537   3.567   4.691   0.565 -1.5878  0.5551 -2.4750
 1301SOL     OW15538   4.732   0.363   3.304 -0.2685 -0.1893  0.1883
 1301SOL    HW115539   0.013   0.457   3.295  0.5226 -0.3280  0.1730
 1301SOL    HW215540   4.637   0.356   3.317 -0.4675  2.4128  0.1318
 1302SOL     OW15541   1.647   2.610   4.754 -0.3100 -0.1301 -0.0282
 1302SOL    HW115542   1.674   2.690   4.708  0.4646  1.1980  2.7332
 1302SOL    HW215543   1.599   2.649   4.827  0.4323  1.4337 -0.3646
 1303SOL     OW15544   2.167   1.470   8.000  0.8338 -0.5224  0.2271
 1303SOL    HW115545   2.163   1.494   8.092 -2.1299 -2.2516  0.5591
 1303SOL    HW215546   2.074   1.456   7.981  0.5261  2.2382 -0.2680
 1304SOL     OW15547   2.679   1.069   5.941  0.1863  0.2362  0.4753
 1304SOL    HW115548   2.658   1.053   5.849  3.0395  0.6777 -0.2589
 1304SOL    HW215549   2.730   0.991   5.966 -0.2681  0.4626  2.1012
 1305SOL     OW15550   0.812   0.549   2.605  0.6565  0.3772  0.0086
 1305SOL    HW115551   0.796   0.457   2.588 -2.9955  0.8643  0.9791
 1305SOL    HW215552   0.753   0.596   2.547 -1.7622  2.7794  4.4046
 1306SOL     OW15553   0.261   2.687   1.211 -0.2271  0.0154 -0.7173
 1306SOL    HW115554   0.166   2.685   1.199 -0.2791  1.9183 -0.6483
 1306SOL    HW215555   0.270   2.782   1.205 -0.9924  0.2183  1.4878
 1307SOL     OW15556   3.636   3.051   9.324 -0.2589 -0.1452  0.3409
 1307SOL    HW115557   3.682   3.111   9.382  0.8988  1.1863 -1.9211
 1307SOL    HW215558   3.632   2.979   9.386 -0.2897 -1.0805 -0.7382
 1308SOL     OW15559   2.435   0.091   7.785 -0.0386 -0.3142 -0.0957
 1308SOL    HW115560   2.428   4.731   7.791 -0.9267 -0.2767 -0.5979
 1308SOL    HW215561   2.342   0.106   7.806  0.4855  0.1827  1.8890
 1309SOL     OW15562   0.415   2.937   4.911  0.2212 -0.1886 -0.2897
 1309SOL    HW115563   0.365   2.976   4.840 -2.0457 -2.6999 -0.0584
 1309SOL    HW215564   0.379   2.849   4.912  0.7736 -0.4242 -0.9886
 1310SOL     OW15565   2.620   1.832   5.621  0.5663 -0.5470  0.6071
 1310SOL    HW115566   2.638   1.897   5.554  1.2829  0.1906  1.5142
 1310SOL    HW215567   2.682   1.851   5.692  1.4321 -0.1913 -0.2562
 1311SOL     OW15568   3.347   2.483   5.879 -0.5167 -0.3839  0.4156
 1311SOL    HW115569   3.354   2.388   5.888  0.8232 -0.3279 -0.0378
 1311SOL    HW215570   3.375   2.499   5.790 -2.1425 -0.2234 -0.0683
 1312SOL     OW15571   3.987   3.796   6.757 -0.1172  0.2342  0.3436
 1312SOL    HW115572   4.064   3.848   6.777 -0.2225 -0.8148  3.4311
 1312SOL    HW215573   3.913   3.855   6.774  1.1643  2.3000 -1.3031
 1313SOL     OW15574   3.990   3.119   2.477  0.2716  0.1973  0.3825
 1313SOL    HW115575   3.953   3.160   2.555 -1.0248 -2.7214  1.2770
 1313SOL    HW215576   4.075   3.162   2.491  0.9172 -0.3639 -1.7390
 1314SOL     OW15577   4.648   2.518   9.755  0.2523  0.1563 -0.4671
 1314SOL    HW115578   4.592   2.469   9.816 -0.5800 -0.3010 -1.6151
 1314SOL    HW215579   4.589   2.550   9.686 -1.2481 -1.4795  0.0542
 1315SOL     OW15580   3.578   2.964   5.137  0.0263  1.0403  0.4925
 1315SOL    HW115581   3.633   2.964   5.058 -0.0247  1.3077  0.4539
 1315SOL    HW215582   3.499   2.998   5.095  1.1214  1.4697 -1.2612
 1316SOL     OW15583   0.713   3.283  11.911  0.0402 -0.6087  0.5167
 1316SOL    HW115584   0.675   3.342  11.976  0.4842  0.2016  0.0424
 1316SOL    HW215585   0.635   3.255  11.863  0.7317  0.0806 -1.0132
 1317SOL     OW15586   1.286   3.771   2.880  0.2845 -0.4445 -0.0395
 1317SOL    HW115587   1.265   3.832   2.951 -1.5579 -0.7138 -0.3650
 1317SOL    HW215588   1.225   3.701   2.901 -1.5002  1.3680  0.8116
 1318SOL     OW15589   4.658   3.552   4.707 -0.0491  0.0311 -0.2320
 1318SOL    HW115590   4.649   3.604   4.627 -0.9194 -0.2377 -0.3112
 1318SOL    HW215591   4.632   3.617   4.773 -1.8881  0.8249 -1.7693
 1319SOL     OW15592   1.927   4.224   1.136 -0.1077 -0.1376 -0.8384
 1319SOL    HW115593   1.895   4.294   1.078  1.5891  0.3471 -1.1731
 1319SOL    HW215594   2.003   4.191   1.088  1.8273  1.7247  0.9681
 1320SOL     OW15595   2.102   1.418   0.164  0.3391 -1.3944  0.1566
 1320SOL    HW115596   2.147   1.478   0.223 -1.5121 -1.0982  1.2861
 1320SOL    HW215597   2.176   1.357   0.159 -0.1389 -1.8775 -0.9396
 1321SOL     OW15598   4.496   2.741   0.840 -0.0458  0.1290 -0.0579
 1321SOL    HW115599   4.591   2.750   0.844  0.1232 -1.9702  0.2188
 1321SOL    HW215600   4.475   2.731   0.933 -1.4243 -0.5672 -0.4408
 1322SOL     OW15601   4.458   2.648   4.710 -0.3179 -0.5758 -0.2654
 1322SOL    HW115602   4.474   2.742   4.716 -2.4740 -0.2168 -0.1041
 1322SOL    HW215603   4.535   2.606   4.749 -0.0645 -0.7227 -0.9122
 1323SOL     OW15604   2.179   0.092   7.878  0.3516 -0.0471  0.2192
 1323SOL    HW115605   2.173   0.144   7.958 -0.4348  0.6275 -0.2827
 1323SOL    HW215606   2.119   0.139   7.821  0.7079  1.6740  1.2384
 1324SOL     OW15607   1.409   2.652   3.563 -0.3860 -0.2576  0.1968
 1324SOL    HW115608   1.473   2.583   3.583  1.0218  0.7375 -0.8664
 1324SOL    HW215609   1.372   2.674   3.649 -3.1546  1.4055 -1.4180
 1325SOL     OW15610   0.254   0.594  12.545  0.3590  0.0039 -0.0660
 1325SOL    HW115611   0.233   0.659  12.479  0.7344  0.8236  0.6166
 1325SOL    HW215612   0.252   0.651  12.623 -1.6830 -1.6711  1.1035
 1326SOL     OW15613   1.197   1.838   1.456 -0.2267 -0.3980 -0.4864
 1326SOL    HW115614   1.117   1.787   1.445 -0.9823  0.7391 -0.2801
 1326SOL    HW215615   1.178   1.904   1.523 -0.7226  1.0997 -2.1045
 1327SOL     OW15616   3.832   1.655   4.753 -0.5833  0.4445  0.1271
 1327SOL    HW115617   3.926   1.650   4.771 -1.1697 -0.8375  2.9054
 1327SOL    HW215618   3.807   1.564   4.770  2.0323 -0.7257 -2.2838
 1328SOL     OW15619   1.985   1.979   8.610  0.0859  0.4053  0.0833
 1328SOL    HW115620   1.923   1.947   8.545 -0.4884  2.8851 -0.5625
 1328SOL    HW215621   2.022   1.894   8.635  0.1684  1.0195  2.0370
 1329SOL     OW15622   2.788   1.103   5.007  0.3827 -0.6232 -0.4386
 1329SOL    HW115623   2.857   1.077   5.068  0.2269  2.2595  0.9878
 1329SOL    HW215624   2.790   1.040   4.936  0.5900  0.2434 -1.2068
 1330SOL     OW15625   3.731   1.271  17.677  0.1834  0.2405  0.2007
 1330SOL    HW115626   3.669   1.308   0.003  0.4675 -1.6671  1.5734
 1330SOL    HW215627   3.751   1.351  17.628  2.2580 -0.0329  0.5821
 1331SOL     OW15628   1.392   0.312   6.155 -0.1825  0.7229  0.0536
 1331SOL    HW115629   1.423   0.351   6.073  1.2674 -1.3662 -0.4019
 1331SOL    HW215630   1.447   0.234   6.162 -0.1598  0.6834 -0.5831
 1332SOL     OW15631   0.695   1.528   2.474  0.6506  0.1828 -0.1746
 1332SOL    HW115632   0.601   1.509   2.474  0.2413  2.1489  0.3995
 1332SOL    HW215633   0.692   1.619   2.505  1.6148  0.5852 -1.2462
 1333SOL     OW15634   3.748   2.553  10.137 -0.2639 -0.3761 -0.4568
 1333SOL    HW115635   3.720   2.516  10.053  1.8007 -1.4484 -0.6714
 1333SOL    HW215636   3.673   2.545  10.196  0.2377  1.0178  0.3673
 1334SOL     OW15637   0.398   2.556   6.993 -0.3501  0.4130  0.2040
 1334SOL    HW115638   0.428   2.497   7.063  0.2238 -1.2037 -1.4181
 1334SOL    HW215639   0.333   2.504   6.946 -0.5743 -1.3985  2.5094
 1335SOL     OW15640   4.227   4.615   3.981  0.0343  0.2024 -0.4290
 1335SOL    HW115641   4.241   4.520   3.982 -0.8043  0.0687 -0.9864
 1335SOL    HW215642   4.188   4.624   3.894  0.7838 -0.7223 -0.8654
 1336SOL     OW15643   3.864   3.782   9.614  0.4683 -0.3198 -0.0873
 1336SOL    HW115644   3.958   3.795   9.607  0.4991 -1.3956 -1.7628
 1336SOL    HW215645   3.861   3.703   9.669 -0.5947 -0.0002  0.3056
 1337SOL     OW15646   1.086   3.962  13.058 -0.5710  0.0948  0.1594
 1337SOL    HW115647   1.003   3.962  13.010 -0.0101  1.8292 -0.8313
 1337SOL    HW215648   1.142   3.998  12.989 -3.5832  0.5381 -2.0704
 1338SOL     OW15649   1.705   1.324  14.938 -0.1631 -0.4976 -0.4126
 1338SOL    HW115650   1.691   1.351  14.848  0.7631  2.2746  0.2682
 1338SOL    HW215651   1.639   1.378  14.983  0.2688  0.9590 -1.5250
 1339SOL     OW15652   1.963   1.584   2.404 -0.4825  0.2877 -0.6951
 1339SOL    HW115653   1.979   1.647   2.474 -1.8258 -0.5041  0.3328
 1339SOL    HW215654   1.985   1.641   2.330  0.7832  1.2551  0.4231
 1340SOL     OW15655   1.599   2.450  15.270 -0.2265  0.0801 -0.0099
 1340SOL    HW115656   1.619   2.542  15.287  2.8109 -0.7063  0.7443
 1340SOL    HW215657   1.629   2.404  15.349  1.3046  1.2277  0.0949
 1341SOL     OW15658   3.556   0.220   3.146 -0.1319 -0.0014  0.3230
 1341SOL    HW115659   3.624   0.238   3.081  1.4035 -0.2704  1.8736
 1341SOL    HW215660   3.603   0.254   3.222 -0.7480 -1.8383  1.5278
 1342SOL     OW15661   4.378   2.802  14.223 -0.3469 -0.2466  0.0116
 1342SOL    HW115662   4.441   2.814  14.152  1.1308  1.4446  1.6337
 1342SOL    HW215663   4.443   2.812  14.292  1.3931 -0.1776 -1.6272
 1343SOL     OW15664   4.581   2.767  13.151  0.0304 -0.4804  0.1109
 1343SOL    HW115665   4.596   2.852  13.191  1.3081 -0.2601 -0.8335
 1343SOL    HW215666   4.548   2.791  13.064  1.5686 -0.3474 -0.4285
 1344SOL     OW15667   4.594   3.666   2.964 -0.4513  0.1238 -0.1472
 1344SOL    HW115668   4.600   3.646   3.057 -0.9849  0.4457 -0.0415
 1344SOL    HW215669   4.590   3.578   2.927 -1.0711  0.0199  0.1794
 1345SOL     OW15670   1.347   1.427  17.029 -0.2273  0.2716 -0.3848
 1345SOL    HW115671   1.427   1.466  16.996 -0.3300 -0.3772 -1.4044
 1345SOL    HW215672   1.354   1.341  16.988  1.1247  0.7911 -1.2298
 1346SOL     OW15673   0.224   1.292   4.345 -0.3833 -0.0123 -0.2546
 1346SOL    HW115674   0.170   1.236   4.288 -2.0584 -0.2409  1.5685
 1346SOL    HW215675   0.203   1.244   4.425  0.7402 -1.9101 -1.0786
 1347SOL     OW15676   1.602   0.071   7.700 -0.4133  0.7062 -0.4501
 1347SOL    HW115677   1.614   0.016   7.778 -1.7159 -1.6062 -1.8731
 1347SOL    HW215678   1.690   0.107   7.684  0.0039 -0.6378 -1.2323
 1348SOL     OW15679   4.511   4.695  12.247  0.4191 -0.0616  0.1408
 1348SOL    HW115680   4.521   0.010  12.166  1.7990  1.0560  1.0007
 1348SOL    HW215681   4.421   4.720  12.269  0.1280 -1.2490  0.2886
 1349SOL     OW15682   4.364   4.620   8.446  0.3344  0.3756  0.6229
 1349SOL    HW115683   4.374   4.686   8.514  2.2078 -0.3912  1.0996
 1349SOL    HW215684   4.416   4.551   8.487 -1.7192 -0.1095  2.3713
 1350SOL     OW15685   0.110   2.814   1.667  0.0889  0.4553 -0.0845
 1350SOL    HW115686   0.018   2.835   1.650 -0.0333  0.4445  0.5423
 1350SOL    HW215687   0.166   2.852   1.600 -0.6192 -1.6241 -1.8379
 1351SOL     OW15688   1.161   1.064   4.269 -0.2297 -0.0633  0.4568
 1351SOL    HW115689   1.135   1.150   4.236  2.1486 -0.0158 -1.3177
 1351SOL    HW215690   1.110   1.048   4.348 -0.3530  0.6175  0.5165
 1352SOL     OW15691   0.608   3.883   9.185  0.5543  0.0356  0.3316
 1352SOL    HW115692   0.582   3.972   9.162  1.4037  0.5769  1.4639
 1352SOL    HW215693   0.688   3.903   9.233  1.1640 -1.8372  0.1235
 1353SOL     OW15694   2.002   3.721   1.312  0.3555 -0.0449 -0.6931
 1353SOL    HW115695   1.963   3.786   1.370 -1.5607 -2.3377  0.6147
 1353SOL    HW215696   1.963   3.639   1.344  0.0876  0.0480 -0.7823
 1354SOL     OW15697   3.642   2.347   4.992 -0.4276  0.0316 -0.6625
 1354SOL    HW115698   3.597   2.274   5.034  0.5755  0.1140  0.5554
 1354SOL    HW215699   3.623   2.414   5.058 -0.0542 -0.2427 -0.2755
 1355SOL     OW15700   0.812   0.011  16.275  0.7191 -0.1979  0.1221
 1355SOL    HW115701   0.748   4.675  16.286  0.4410  0.5510  3.3011
 1355SOL    HW215702   0.791   0.052  16.359 -0.4184 -0.3528 -0.0767
 1356SOL     OW15703   2.717   1.106   5.303 -0.1006 -0.1248  0.5817
 1356SOL    HW115704   2.647   1.040   5.298 -2.1371  2.1105 -0.0978
 1356SOL    HW215705   2.786   1.056   5.260  0.3649 -0.6028  1.8863
 1357SOL     OW15706   0.777   1.995   4.505 -0.2280 -0.0726  0.8363
 1357SOL    HW115707   0.806   2.078   4.542  2.5033 -0.7757  0.2579
 1357SOL    HW215708   0.684   1.998   4.527 -0.4043  0.2376  0.0199
 1358SOL     OW15709   0.305   4.138   8.049  0.3076  0.3359 -0.0627
 1358SOL    HW115710   0.256   4.194   7.988 -1.3025  1.1537  2.0073
 1358SOL    HW215711   0.238   4.114   8.112  0.2606 -0.9688 -0.6125
 1359SOL     OW15712   1.937   4.257   6.475 -0.1502 -0.3118  0.1477
 1359SOL    HW115713   1.878   4.326   6.504  0.3906 -0.2777  1.1815
 1359SOL    HW215714   1.888   4.178   6.499  1.1298 -0.8777  0.9317
 1360SOL     OW15715   4.098   1.231   3.320  0.3511  0.3566  0.5859
 1360SOL    HW115716   4.151   1.244   3.398 -0.1721  0.3800  0.9299
 1360SOL    HW215717   4.010   1.228   3.356 -0.2137 -0.2301 -0.8393
 1361SOL     OW15718   1.108   0.507  10.874 -0.2142  0.7330 -0.1539
 1361SOL    HW115719   1.043   0.484  10.940  0.6358  2.0226  1.1236
 1361SOL    HW215720   1.140   0.592  10.904  1.2711  0.1339 -0.0321
 1362SOL     OW15721   3.920   3.339  10.486 -0.1818 -0.0360 -0.1055
 1362SOL    HW115722   3.869   3.366  10.562  0.8646  1.6323  0.0100
 1362SOL    HW215723   3.869   3.262  10.460 -0.2439  0.2802 -0.9284
 1363SOL     OW15724   3.177   0.961   3.277 -0.2319 -0.4870  0.6062
 1363SOL    HW115725   3.159   1.006   3.195 -2.3163 -1.9953  0.2123
 1363SOL    HW215726   3.103   0.985   3.333 -1.0899  1.1067 -1.2065
 1364SOL     OW15727   1.988   3.762   2.060  0.7529 -0.2627  0.4515
 1364SOL    HW115728   2.043   3.750   1.982  2.6165  0.2131  1.7039
 1364SOL    HW215729   1.903   3.748   2.020  0.4704  1.4469  0.4532
 1365SOL     OW15730   0.364   1.976   7.162  0.4477 -0.4357 -0.3218
 1365SOL    HW115731   0.381   1.976   7.256  0.4019  0.3626 -0.3138
 1365SOL    HW215732   0.285   2.031   7.165  0.5738 -0.3754  1.8143
 1366SOL     OW15733   1.300   3.353   3.610 -0.0123 -0.1857 -0.6188
 1366SOL    HW115734   1.345   3.288   3.664  1.4679  0.9507 -0.4765
 1366SOL    HW215735   1.238   3.383   3.676  0.4919  2.5333 -1.3975
 1367SOL     OW15736   3.708   4.617  14.232  0.0291  0.7114 -0.2196
 1367SOL    HW115737   3.635   4.588  14.287 -0.6034  1.0268 -0.8876
 1367SOL    HW215738   3.669   4.601  14.146 -0.1440  2.0486 -0.3867
 1368SOL     OW15739   3.836   1.378   2.614  0.1981  0.2315  0.1899
 1368SOL    HW115740   3.823   1.386   2.709  0.8212  1.6824  0.1539
 1368SOL    HW215741   3.788   1.296   2.599 -0.3507  1.0435 -2.3705
 1369SOL     OW15742   0.307   0.091  12.537 -0.6864 -0.0787  0.2479
 1369SOL    HW115743   0.219   0.068  12.508 -1.9667 -0.3527  4.4612
 1369SOL    HW215744   0.298   0.183  12.510  1.0780 -0.0263 -0.1550
 1370SOL     OW15745   1.173   0.977   7.042 -0.7478 -0.2926  0.4358
 1370SOL    HW115746   1.264   0.947   7.036 -0.5326  0.3631  0.4173
 1370SOL    HW215747   1.160   0.980   7.137 -2.8339  0.9061  0.0870
 1371SOL     OW15748   3.841   2.323  11.608  0.3744 -0.2080 -0.4536
 1371SOL    HW115749   3.803   2.246  11.650 -1.0506 -0.7832 -2.7788
 1371SOL    HW215750   3.791   2.316  11.526  0.1617 -0.2882 -0.3165
 1372SOL     OW15751   3.733   1.776   3.249  0.1867 -0.6654 -0.1705
 1372SOL    HW115752   3.748   1.739   3.336  0.7598  1.2428  0.5309
 1372SOL    HW215753   3.781   1.858   3.262 -0.5111  0.0089 -1.9356
 1373SOL     OW15754   0.701   3.089  17.334  0.2852 -0.2590  0.1798
 1373SOL    HW115755   0.671   3.021  17.393  1.5306  0.6795  1.8811
 1373SOL    HW215756   0.784   3.114  17.374 -0.7473  0.4339  1.8626
 1374SOL     OW15757   4.428   4.603   1.724  0.3037 -0.6568 -0.8431
 1374SOL    HW115758   4.451   4.680   1.672 -3.7196  0.5727 -0.8408
 1374SOL    HW215759   4.463   4.533   1.669  0.5472 -1.0939 -0.1292
 1375SOL     OW15760   2.034   2.340   4.366 -0.3079 -0.3403  0.3877
 1375SOL    HW115761   2.074   2.298   4.442  0.6349 -2.7442 -1.4205
 1375SOL    HW215762   2.055   2.432   4.378 -0.7797 -0.4153  1.8083
 1376SOL     OW15763   2.764   2.002   9.113  0.0335 -0.4613 -0.1766
 1376SOL    HW115764   2.696   1.940   9.142  0.7863 -2.3015 -2.4203
 1376SOL    HW215765   2.747   1.999   9.019 -0.0080  0.7760 -0.2024
 1377SOL     OW15766   3.733   0.282   4.294  0.5599 -0.4886 -0.2948
 1377SOL    HW115767   3.815   0.236   4.313 -0.2504 -0.9224  2.1834
 1377SOL    HW215768   3.662   0.222   4.318  0.2027 -0.8590 -2.2871
 1378SOL     OW15769   0.948   0.802   5.110  0.4547  0.7350 -0.2190
 1378SOL    HW115770   0.964   0.842   5.196 -2.0935  0.5719  0.3526
 1378SOL    HW215771   0.990   0.718   5.124 -1.1932 -0.3458 -1.8552
 1379SOL     OW15772   3.627   0.177   9.190  0.0912 -0.2592  0.2515
 1379SOL    HW115773   3.609   0.246   9.126  1.4032  0.2377  0.4209
 1379SOL    HW215774   3.690   0.126   9.139  2.3202  0.2313  2.4651
 1380SOL     OW15775   4.473   4.419   4.687  0.3528  0.7406  0.5943
 1380SOL    HW115776   4.531   4.446   4.758  1.5439  1.3128 -0.6158
 1380SOL    HW215777   4.397   4.387   4.737  1.9431  0.8898  3.1035
 1381SOL     OW15778   4.223   0.061   1.266 -0.2179 -0.1798 -0.2051
 1381SOL    HW115779   4.240   4.704   1.291  1.7588 -0.2024 -1.6647
 1381SOL    HW215780   4.293   0.105   1.315 -0.8875  1.7835 -1.0174
 1382SOL     OW15781   0.657   3.731  11.191 -0.0655 -0.4081  0.2006
 1382SOL    HW115782   0.633   3.721  11.099 -0.5687  2.4870  0.0219
 1382SOL    HW215783   0.595   3.795  11.225 -1.2030 -2.1755  1.4350
 1383SOL     OW15784   1.102   1.336   3.166 -0.3218 -0.1850 -0.1360
 1383SOL    HW115785   1.092   1.427   3.195 -2.0032  0.2683 -2.1081
 1383SOL    HW215786   1.093   1.360   3.074  0.1645  1.3667  0.2099
 1384SOL     OW15787   4.265   2.205   7.264 -0.5775  0.1099 -1.4039
 1384SOL    HW115788   4.179   2.176   7.295  0.8361 -0.9670  1.4652
 1384SOL    HW215789   4.311   2.217   7.347  0.4796 -0.1619 -1.9596
 1385SOL     OW15790   1.188   4.125   9.497  0.1003  0.1922 -0.0930
 1385SOL    HW115791   1.208   4.127   9.403 -1.6102  2.1549 -0.4102
 1385SOL    HW215792   1.149   4.038   9.491  0.8763 -0.1551 -0.0750
 1386SOL     OW15793   3.796   0.599  10.790  0.0001 -0.0085 -0.0961
 1386SOL    HW115794   3.801   0.693  10.803 -1.3493 -0.2783  2.4115
 1386SOL    HW215795   3.752   0.600  10.705  1.3313 -0.1315 -0.7850
 1387SOL     OW15796   4.486   2.835   2.713  0.0478  0.2361 -0.5577
 1387SOL    HW115797   4.574   2.841   2.675  0.0151  0.7471 -0.5492
 1387SOL    HW215798   4.495   2.892   2.789 -1.9974 -1.1249  0.6985
 1388SOL     OW15799   1.406   0.126   4.820 -0.2164 -0.0069 -0.2097
 1388SOL    HW115800   1.405   0.196   4.884  3.2023  0.4130 -0.6339
 1388SOL    HW215801   1.314   0.109   4.796  0.1633 -0.4727 -1.3677
 1389SOL     OW15802   0.472   3.005   7.191 -0.1766  0.6887  0.1535
 1389SOL    HW115803   0.553   3.056   7.187 -0.0874  0.8098  4.1053
 1389SOL    HW215804   0.413   3.080   7.182  0.0856  0.7106 -1.4418
 1390SOL     OW15805   4.296   2.452   3.452 -0.0184  0.3819 -0.2180
 1390SOL    HW115806   4.337   2.367   3.436  2.4320  1.5154  0.0859
 1390SOL    HW215807   4.374   2.508   3.459  0.5176 -0.2206 -1.3525
 1391SOL     OW15808   3.604   0.859  12.226 -0.1019 -0.0315  0.1199
 1391SOL    HW115809   3.605   0.933  12.286 -0.3046 -0.0620  0.1597
 1391SOL    HW215810   3.584   0.792  12.291  0.7620 -0.0450  0.3683
 1392SOL     OW15811   2.491   2.639   1.668 -0.2535 -0.5857 -0.2522
 1392SOL    HW115812   2.532   2.620   1.752 -0.2319 -1.6417 -0.4964
 1392SOL    HW215813   2.401   2.606   1.671 -0.7009  0.8799  2.2775
 1393SOL     OW15814   2.839   4.315  10.880 -0.3936 -0.5613  0.1156
 1393SOL    HW115815   2.818   4.285  10.968  1.3796  0.4254  0.8872
 1393SOL    HW215816   2.772   4.376  10.848 -0.5873 -0.9744 -0.2667
 1394SOL     OW15817   3.278   2.091   3.101 -0.0395 -0.2370  0.3983
 1394SOL    HW115818   3.330   2.136   3.034 -1.0243  0.0723 -0.1426
 1394SOL    HW215819   3.351   2.037   3.133  0.5753  0.4612  0.1839
 1395SOL     OW15820   3.849   0.810  15.633  0.0670  0.7590 -0.0177
 1395SOL    HW115821   3.823   0.871  15.564  0.0001  1.4653  0.6211
 1395SOL    HW215822   3.887   0.868  15.699  2.5183 -0.5852 -0.2620
 1396SOL     OW15823   0.270   4.044   0.703 -0.1128 -0.5746  0.0438
 1396SOL    HW115824   0.314   3.984   0.763  0.5473 -0.8327 -0.6861
 1396SOL    HW215825   0.188   4.056   0.750  0.1220  2.4566 -0.3252
 1397SOL     OW15826   0.240   4.349   8.931  0.4919  0.3975  0.9534
 1397SOL    HW115827   0.227   4.346   9.026  2.2124 -0.0412  1.1740
 1397SOL    HW215828   0.328   4.314   8.924  1.1164  2.0197  0.8043
 1398SOL     OW15829   1.457   1.284  12.941 -0.4624  0.2336 -0.4110
 1398SOL    HW115830   1.375   1.238  12.961 -0.6282 -0.7496 -3.3052
 1398SOL    HW215831   1.484   1.312  13.028 -0.4937 -1.4579  0.1353
 1399SOL     OW15832   3.609   2.189  17.124  0.2204  0.8025  0.3268
 1399SOL    HW115833   3.702   2.188  17.149 -0.0803  0.1294  1.4338
 1399SOL    HW215834   3.599   2.094  17.123  1.2604  0.7159 -0.8287
 1400SOL     OW15835   2.479   2.895   9.706 -0.2811 -0.4455  0.2360
 1400SOL    HW115836   2.385   2.882   9.699 -0.3113 -0.1361  0.1031
 1400SOL    HW215837   2.488   2.970   9.765  0.3077  0.1549 -0.6211
 1401SOL     OW15838   3.779   4.121   8.357 -0.1012 -0.1749  0.6469
 1401SOL    HW115839   3.755   4.213   8.346 -2.1329 -1.1493 -2.7899
 1401SOL    HW215840   3.702   4.089   8.311  1.6545 -2.5949 -0.5840
 1402SOL     OW15841   0.957   3.009   7.159  0.5945  0.4146 -0.5632
 1402SOL    HW115842   0.937   2.976   7.246  0.9124 -1.0981 -1.0595
 1402SOL    HW215843   0.872   3.039   7.127  0.3123  0.1222 -0.0907
 1403SOL     OW15844   1.057   4.165  11.245  0.3647 -0.2295  0.2315
 1403SOL    HW115845   1.100   4.119  11.173  0.4120 -0.6508  0.5320
 1403SOL    HW215846   1.037   4.250  11.206 -2.2957 -0.2587  1.4722
 1404SOL     OW15847   3.847   0.471   8.833  0.5767 -0.0373 -0.5538
 1404SOL    HW115848   3.852   0.448   8.740  3.1056  1.2335 -0.7228
 1404SOL    HW215849   3.792   0.549   8.826 -1.2946 -1.4625 -1.6491
 1405SOL     OW15850   3.303   1.769   4.174 -0.1090  0.5194 -0.9405
 1405SOL    HW115851   3.380   1.767   4.117 -0.2390  2.7051 -1.2206
 1405SOL    HW215852   3.343   1.813   4.250  1.0871  0.3344 -1.4530
 1406SOL     OW15853   0.148   3.182   7.616 -0.2922 -0.2685  0.4200
 1406SOL    HW115854   0.077   3.157   7.675 -0.5870  0.3603  0.3228
 1406SOL    HW215855   0.094   3.222   7.549 -0.1007 -2.3716 -0.9978
 1407SOL     OW15856   1.024   2.081   8.057  0.1711  0.2464 -0.1829
 1407SOL    HW115857   0.974   2.146   8.008 -0.8582  0.1778  0.7901
 1407SOL    HW215858   1.046   2.132   8.135  2.5246  1.1930 -1.4386
 1408SOL     OW15859   1.487   0.028   5.116  0.2473 -0.1512  0.2335
 1408SOL    HW115860   1.429   0.091   5.073 -0.3572 -1.3314 -0.6687
 1408SOL    HW215861   1.519   4.707   5.045 -0.8178  0.5034 -0.7626
 1409SOL     OW15862   1.016   1.417   0.449  0.1008 -0.3130 -0.4176
 1409SOL    HW115863   0.997   1.365   0.371  1.1028 -1.2839 -0.0049
 1409SOL    HW215864   1.012   1.506   0.412 -0.7595 -0.5901 -0.9934
 1410SOL     OW15865   1.278   3.741   5.139 -0.0521  0.1248  0.4528
 1410SOL    HW115866   1.333   3.673   5.100  1.3268  0.5091  1.7256
 1410SOL    HW215867   1.324   3.825   5.133  1.1788 -0.5499  0.4433
 1411SOL     OW15868   3.558   4.626  13.951  0.1565 -0.4306 -0.2930
 1411SOL    HW115869   3.544   4.533  13.971 -1.7059 -0.1018 -0.0727
 1411SOL    HW215870   3.502   4.635  13.873  0.6272 -1.1056 -0.7133
 1412SOL     OW15871   1.444   0.002   7.108  0.4975  0.2664 -0.1407
 1412SOL    HW115872   1.454   4.710   7.199  0.3679 -2.8487 -1.0427
 1412SOL    HW215873   1.464   0.095   7.118  0.1319  0.2506  0.7859
 1413SOL     OW15874   2.059   1.019  14.999  0.4731  0.3282 -0.2771
 1413SOL    HW115875   1.993   1.054  15.059 -0.6903  0.2771 -1.5200
 1413SOL    HW215876   2.089   1.099  14.956  0.4750 -0.1081 -1.0823
 1414SOL     OW15877   4.062   3.262   5.150 -0.3740  0.1373 -0.6595
 1414SOL    HW115878   4.008   3.340   5.162  1.9118  1.6148  0.0402
 1414SOL    HW215879   4.134   3.291   5.093  1.4413 -3.5512 -0.2123
 1415SOL     OW15880   1.349   0.567   0.987 -0.6400 -0.1805  0.4560
 1415SOL    HW115881   1.274   0.536   1.039 -1.7166  0.2160 -0.8476
 1415SOL    HW215882   1.420   0.538   1.045 -1.1650 -0.2940  1.0485
 1416SOL     OW15883   0.086   2.112   0.186  0.4051 -0.2802  0.1634
 1416SOL    HW115884   0.065   2.019   0.174  1.0637 -0.6042  1.5241
 1416SOL    HW215885   0.066   2.151   0.101  3.2524  0.9362  0.0638
 1417SOL     OW15886   2.085   2.808   2.204 -0.5006 -0.3964 -0.1747
 1417SOL    HW115887   1.997   2.837   2.228 -0.2167  1.4697 -1.2927
 1417SOL    HW215888   2.128   2.788   2.287 -2.5849 -0.6395  0.8347
 1418SOL     OW15889   0.808   4.460  14.319 -0.4192  0.4699 -0.4099
 1418SOL    HW115890   0.873   4.458  14.389 -0.4299 -0.0957 -0.4145
 1418SOL    HW215891   0.739   4.404  14.354  0.4398  1.1873  2.4402
 1419SOL     OW15892   3.039   0.778   5.567 -0.5440 -0.0922  0.5185
 1419SOL    HW115893   3.047   0.725   5.646 -1.0892  0.1011  0.7045
 1419SOL    HW215894   3.083   0.858   5.597  1.9825 -1.5675  0.7018
 1420SOL     OW15895   2.515   1.114   2.534  0.8617 -0.5490  0.1027
 1420SOL    HW115896   2.605   1.119   2.566  0.9574  0.7624 -0.3606
 1420SOL    HW215897   2.506   1.019   2.539  0.6561 -0.5293  0.1121
 1421SOL     OW15898   1.388   4.486   9.006 -0.3360 -0.0772 -0.7790
 1421SOL    HW115899   1.425   4.536   9.079 -2.4760 -0.5998  0.6698
 1421SOL    HW215900   1.403   4.537   8.926  3.2711 -1.6385 -1.1024
 1422SOL     OW15901   4.060   1.747   8.917  0.1104 -0.9421 -0.1671
 1422SOL    HW115902   3.999   1.730   8.988  0.9063 -2.3218  0.1899
 1422SOL    HW215903   4.122   1.674   8.923  2.1483  0.8214  0.3859
 1423SOL     OW15904   4.532   1.300  10.397  0.1456  0.2380  0.5413
 1423SOL    HW115905   4.622   1.293  10.429  0.0733  0.7485  0.8690
 1423SOL    HW215906   4.528   1.384  10.352 -0.8073 -0.1553 -0.1224
 1424SOL     OW15907   3.197   1.117   1.496 -0.5280  0.2194  0.6645
 1424SOL    HW115908   3.173   1.201   1.456  0.2273 -1.3295 -3.0478
 1424SOL    HW215909   3.178   1.060   1.421 -1.1485 -0.3721  1.2838
 1425SOL     OW15910   1.957   3.364   8.178 -0.3077  0.2719  0.4314
 1425SOL    HW115911   2.048   3.378   8.203  0.3203 -2.1378 -0.5422
 1425SOL    HW215912   1.909   3.409   8.248  1.1590  0.1406  1.5064
 1426SOL     OW15913   4.200   0.709   7.812 -0.4488 -0.1860  0.3890
 1426SOL    HW115914   4.153   0.625   7.810 -2.9316  1.2485 -0.6290
 1426SOL    HW215915   4.131   0.775   7.818 -0.1361  0.3620 -1.9861
 1427SOL     OW15916   3.425   3.220   9.384 -0.8703 -0.1181  0.0163
 1427SOL    HW115917   3.452   3.130   9.363 -0.7489 -0.0273 -0.2167
 1427SOL    HW215918   3.452   3.232   9.475  2.4736 -2.2144 -0.7147
 1428SOL     OW15919   1.459   1.735   2.752 -0.7774 -0.2586 -0.1687
 1428SOL    HW115920   1.509   1.754   2.673 -0.7693  1.6765  0.3172
 1428SOL    HW215921   1.525   1.684   2.800 -1.7685  0.1610  1.6131
 1429SOL     OW15922   1.982   3.835   7.058 -0.4003  0.0215  0.2161
 1429SOL    HW115923   2.077   3.842   7.049 -0.3363 -1.2125 -0.0565
 1429SOL    HW215924   1.963   3.928   7.067 -0.5922 -0.0708  0.8026
 1430SOL     OW15925   0.140   0.656   3.936  0.1631 -0.1176 -0.2257
 1430SOL    HW115926   0.055   0.614   3.941 -0.5868  1.5273  0.9094
 1430SOL    HW215927   0.125   0.746   3.965  0.3612  0.0631 -0.6775
 1431SOL     OW15928   0.698   2.171  10.539  0.2860 -0.1344 -0.5478
 1431SOL    HW115929   0.727   2.118  10.464  3.1011  0.8389 -0.1462
 1431SOL    HW215930   0.608   2.195  10.517 -0.4025 -3.3616 -1.2634
 1432SOL     OW15931   2.611   0.953   5.690 -0.8401 -0.8524 -0.3623
 1432SOL    HW115932   2.667   0.876   5.686  3.2647  2.1636 -1.7638
 1432SOL    HW215933   2.548   0.945   5.618 -0.3077 -0.2762 -0.9003
 1433SOL     OW15934   2.457   3.052  15.638  0.6158 -0.2900  0.7280
 1433SOL    HW115935   2.430   3.034  15.547  1.0291  1.8060  0.1784
 1433SOL    HW215936   2.378   3.089  15.678  0.2797  0.0006 -0.1945
 1434SOL     OW15937   4.675   3.139  16.686 -0.3254  0.0773 -0.0307
 1434SOL    HW115938   4.599   3.165  16.634 -0.9423  2.2916  1.9770
 1434SOL    HW215939   4.725   3.220  16.686 -0.3119  0.0699 -1.3575
 1435SOL     OW15940   2.968   0.262   8.620  0.2699 -0.0055  0.2035
 1435SOL    HW115941   2.933   0.173   8.629  2.9777 -0.9673  0.9451
 1435SOL    HW215942   3.002   0.266   8.531  0.9260  1.5340  0.5276
 1436SOL     OW15943   3.970   3.931   2.673 -0.2661 -0.2431 -0.5595
 1436SOL    HW115944   3.922   3.896   2.748 -0.2406  2.7660  0.8542
 1436SOL    HW215945   3.900   3.962   2.616  1.9987  3.9796 -1.0500
 1437SOL     OW15946   0.375   1.235  15.874 -0.2001  0.5059  0.4164
 1437SOL    HW115947   0.412   1.297  15.937 -1.4768  0.1414  1.5404
 1437SOL    HW215948   0.335   1.303  15.820 -1.8889  0.3765  1.5167
 1438SOL     OW15949   3.727   0.789  11.847  0.3354 -0.4800  1.0789
 1438SOL    HW115950   3.664   0.856  11.876  0.2167  0.4162 -1.2388
 1438SOL    HW215951   3.765   0.765  11.931 -1.1132 -1.1959  1.5199
 1439SOL     OW15952   2.551   1.208   6.788 -0.2195  0.2212 -0.3064
 1439SOL    HW115953   2.457   1.189   6.798  0.0556 -0.4859  0.9095
 1439SOL    HW215954   2.546   1.258   6.706 -0.8695  1.3916  0.4518
 1440SOL     OW15955   2.306   3.306   1.666 -0.0355  0.1390 -0.2672
 1440SOL    HW115956   2.354   3.350   1.597  2.1000 -1.7664  0.0119
 1440SOL    HW215957   2.341   3.340   1.749  2.8261 -1.1244 -0.9613
 1441SOL     OW15958   2.046   3.052   5.857 -0.3619  0.5877 -1.0285
 1441SOL    HW115959   2.043   3.059   5.953 -0.0725 -0.6400 -0.9305
 1441SOL    HW215960   2.099   2.973   5.853  0.5873  1.0974  1.2031
 1442SOL     OW15961   4.679   2.235   0.382  0.4520  0.6625 -0.2547
 1442SOL    HW115962   4.598   2.255   0.336  0.6879 -0.7855 -1.3147
 1442SOL    HW215963   4.724   2.179   0.319 -1.5265 -0.5506 -0.5982
 1443SOL     OW15964   1.657   4.575   0.269  0.2420  0.9093 -0.1012
 1443SOL    HW115965   1.595   4.644   0.245 -1.0970 -1.5453 -3.7360
 1443SOL    HW215966   1.658   4.524   0.188 -1.7568  2.3707 -1.0572
 1444SOL     OW15967   3.548   1.102   6.481  0.0222  0.4293  0.1893
 1444SOL    HW115968   3.546   1.149   6.397 -1.1316 -0.1351 -0.1090
 1444SOL    HW215969   3.534   1.008   6.465 -0.0013  0.5233 -0.3584
 1445SOL     OW15970   4.479   4.037   2.842 -0.1360  0.7663  0.1628
 1445SOL    HW115971   4.487   4.130   2.863  0.7975  0.9321 -0.9170
 1445SOL    HW215972   4.384   4.024   2.837 -0.3475  1.6664  2.1876
 1446SOL     OW15973   1.667   1.099  11.440 -0.3883  0.2844  0.1829
 1446SOL    HW115974   1.615   1.179  11.435 -0.8586 -0.1910 -2.6792
 1446SOL    HW215975   1.682   1.074  11.348  1.5098 -1.7355  1.0364
 1447SOL     OW15976   2.798   1.824   4.347  0.6365  0.1528  0.0063
 1447SOL    HW115977   2.812   1.837   4.253 -2.2484  0.9222 -0.3057
 1447SOL    HW215978   2.714   1.865   4.365  0.8978 -0.2264  2.1535
 1448SOL     OW15979   2.684   2.031   5.918  0.2954  0.5259  0.2509
 1448SOL    HW115980   2.639   2.068   5.994 -0.6211  0.6702 -0.3562
 1448SOL    HW215981   2.699   2.111   5.868 -0.4049  0.1218 -0.6113
 1449SOL     OW15982   2.549   1.213  17.661  0.0061 -0.4959  0.2994
 1449SOL    HW115983   2.636   1.185  17.635 -0.1046 -1.5037  1.0273
 1449SOL    HW215984   2.515   1.232  17.573 -1.7315  0.6057  1.2063
 1450SOL     OW15985   2.409   3.539   3.758  0.4955 -0.3077 -0.3482
 1450SOL    HW115986   2.355   3.596   3.704 -1.4048 -2.2723 -0.4971
 1450SOL    HW215987   2.484   3.536   3.698  0.2357 -2.3375 -0.5588
 1451SOL     OW15988   1.934   1.800  12.961 -0.0359 -0.2371 -0.1866
 1451SOL    HW115989   1.923   1.706  12.968  1.3583 -0.3149  0.8442
 1451SOL    HW215990   2.029   1.812  12.957 -0.3500  1.7762 -1.6732
 1452SOL     OW15991   3.404   1.888   4.385  0.1263 -0.4759 -0.7636
 1452SOL    HW115992   3.431   1.849   4.468  0.8798 -0.4785 -1.0060
 1452SOL    HW215993   3.386   1.979   4.406 -1.3833 -0.8838 -0.3025
 1453SOL     OW15994   1.944   2.882   1.235 -0.0016  0.8335 -0.6575
 1453SOL    HW115995   1.941   2.919   1.323  0.2569 -1.5106  0.3220
 1453SOL    HW215996   1.880   2.941   1.195  1.0638  2.5298  0.1197
 1454SOL     OW15997   3.473   4.183   6.262 -0.2857  0.3691 -0.4382
 1454SOL    HW115998   3.442   4.167   6.173  0.3466 -1.2002 -0.3767
 1454SOL    HW215999   3.564   4.210   6.252  0.1705 -1.5003 -1.1266
 1455SOL     OW16000   2.317   0.579   1.021 -0.6273  0.0577  0.1788
 1455SOL    HW116001   2.412   0.594   1.026 -0.6452  0.0390  0.5719
 1455SOL    HW216002   2.310   0.569   1.116  1.8992 -2.4696  0.1079
 1456SOL     OW16003   3.983   1.970  14.178  0.5416  0.4072  0.0170
 1456SOL    HW116004   4.074   2.001  14.180  0.1719  1.6565 -2.4535
 1456SOL    HW216005   3.943   2.017  14.251  1.1304  1.8213 -0.5601
 1457SOL     OW16006   2.071   1.748   5.179  0.0778 -0.1181  0.7965
 1457SOL    HW116007   2.088   1.741   5.085 -0.0491  1.7867  0.6232
 1457SOL    HW216008   1.976   1.753   5.172  0.0008 -0.2729  1.6842
 1458SOL     OW16009   4.364   0.717  12.394 -0.2175 -0.2494  0.3468
 1458SOL    HW116010   4.286   0.767  12.417 -0.2841 -0.4516  0.5593
 1458SOL    HW216011   4.341   0.683  12.308  0.0576 -2.2585  1.0738
 1459SOL     OW16012   4.432   3.173   5.665  0.7202  0.0304  0.1405
 1459SOL    HW116013   4.485   3.143   5.738  1.1480  0.7235  0.1235
 1459SOL    HW216014   4.350   3.134   5.693 -0.4264  2.5579  0.3392
 1460SOL     OW16015   0.207   4.383  17.187 -0.6574  0.5904  0.2033
 1460SOL    HW116016   0.261   4.442  17.135  0.3549  0.3238  0.9681
 1460SOL    HW216017   0.251   4.383  17.272 -0.0514 -0.4980 -0.1201
 1461SOL     OW16018   0.657   0.515   3.317  0.3877  0.1770  0.3428
 1461SOL    HW116019   0.576   0.562   3.340 -1.0191 -1.2632 -1.6271
 1461SOL    HW216020   0.639   0.432   3.362 -1.6690  1.3525  1.7476
 1462SOL     OW16021   0.962   1.706   0.767  0.0399 -0.0466  0.1391
 1462SOL    HW116022   1.043   1.709   0.818 -0.8955 -0.1506  1.6454
 1462SOL    HW216023   0.991   1.735   0.681  0.8418 -0.6037  0.2294
 1463SOL     OW16024   1.397   4.256   6.184 -0.1131  0.1894  0.5984
 1463SOL    HW116025   1.362   4.168   6.171 -0.6733  0.2283  1.8271
 1463SOL    HW216026   1.345   4.289   6.111  1.2707 -1.6983 -1.2148
 1464SOL     OW16027   2.193   2.730   6.599  0.3123 -0.0135 -0.0129
 1464SOL    HW116028   2.287   2.718   6.612  0.3234  0.8193  0.6785
 1464SOL    HW216029   2.176   2.797   6.665  0.0627 -0.7753  0.6869
 1465SOL     OW16030   2.770   2.411  10.647 -0.5483 -0.7793 -0.2711
 1465SOL    HW116031   2.854   2.367  10.637  0.1762  0.7000 -0.5756
 1465SOL    HW216032   2.728   2.389  10.563 -0.3033  0.8162 -0.8007
 1466SOL     OW16033   0.260   0.305   2.898  0.0015  0.5116 -0.7004
 1466SOL    HW116034   0.342   0.351   2.920 -0.6492  1.8934 -1.1831
 1466SOL    HW216035   0.202   0.380   2.897 -1.3337 -0.5154  0.4027
 1467SOL     OW16036   3.518   1.111   7.036  0.1266 -0.0263 -0.4980
 1467SOL    HW116037   3.461   1.052   7.086  2.3093 -0.3051  1.6570
 1467SOL    HW216038   3.462   1.190   7.033  0.3207  0.1589  0.7193
 1468SOL     OW16039   2.851   1.549   4.905 -0.1272 -0.7736 -0.3334
 1468SOL    HW116040   2.811   1.620   4.855  1.7021  0.2487 -0.3056
 1468SOL    HW216041   2.919   1.605   4.941  0.2656 -0.4074 -1.6373
 1469SOL     OW16042   3.117   3.794   5.787  0.1331 -0.3326  0.0109
 1469SOL    HW116043   3.125   3.886   5.811  1.4866  0.1292 -2.2362
 1469SOL    HW216044   3.200   3.762   5.821 -1.5140 -1.2251  3.1596
 1470SOL     OW16045   1.542   2.366   4.658  0.4038  0.0990  0.3902
 1470SOL    HW116046   1.571   2.449   4.696  2.5265 -1.6982  2.7038
 1470SOL    HW216047   1.447   2.372   4.667  0.2569  1.1933 -1.7062
 1471SOL     OW16048   1.283   1.906   8.384 -0.0851  0.0248 -0.2062
 1471SOL    HW116049   1.333   1.911   8.465  0.1521  0.7892 -0.3979
 1471SOL    HW216050   1.269   2.000   8.367  1.2054  0.2853  0.1641
 1472SOL     OW16051   3.875   1.529   8.060 -0.1342 -0.7062 -0.5850
 1472SOL    HW116052   3.883   1.476   7.981 -0.9676 -0.0779 -1.0882
 1472SOL    HW216053   3.881   1.611   8.011  0.0300 -0.4171 -0.0843
 1473SOL     OW16054   4.454   2.268   1.737 -0.1678  0.4522  0.5509
 1473SOL    HW116055   4.462   2.202   1.806  1.0666 -0.2014 -0.2127
 1473SOL    HW216056   4.426   2.214   1.663  2.5496  1.8096 -1.4466
 1474SOL     OW16057   0.448   0.487   2.835 -0.0654  0.0129 -0.2155
 1474SOL    HW116058   0.430   0.512   2.745 -1.5602  0.0520  0.1027
 1474SOL    HW216059   0.532   0.442   2.827 -0.3988 -0.6196 -0.1822
 1475SOL     OW16060   1.838   1.019   3.807 -0.7347  0.0479 -0.1170
 1475SOL    HW116061   1.782   1.052   3.877 -0.0968  1.2974 -0.1956
 1475SOL    HW216062   1.833   1.090   3.742 -0.8662  0.3204  0.1924
 1476SOL     OW16063   1.562   2.857  15.780  0.9219 -0.6141 -0.6476
 1476SOL    HW116064   1.652   2.846  15.811  1.0785  2.2940 -0.0578
 1476SOL    HW216065   1.577   2.886  15.690  2.8778  0.0092 -0.1331
 1477SOL     OW16066   4.544   1.669   6.408  0.4423  0.3382 -0.4758
 1477SOL    HW116067   4.531   1.761   6.384 -0.9766  0.5742  1.1836
 1477SOL    HW216068   4.605   1.694   6.478 -0.5014 -1.4603  0.9934
 1478SOL     OW16069   2.190   1.777   5.578 -0.4353 -0.0592  0.0676
 1478SOL    HW116070   2.175   1.869   5.557  2.0771 -0.2341 -2.4927
 1478SOL    HW216071   2.116   1.732   5.537 -1.0719 -1.2234  2.4863
 1479SOL     OW16072   3.866   4.518   2.521 -0.6567 -0.0425 -0.2716
 1479SOL    HW116073   3.930   4.462   2.477  0.2250 -1.1334  2.3742
 1479SOL    HW216074   3.839   4.568   2.444 -1.9907  1.0926  0.9078
 1480SOL     OW16075   2.318   2.985   7.503 -0.2041  0.2672  0.3621
 1480SOL    HW116076   2.304   3.033   7.422 -1.0067  0.3979  0.5733
 1480SOL    HW216077   2.344   3.065   7.550 -0.2853  0.9939 -0.8435
 1481SOL     OW16078   0.365   1.489   0.685  0.4102  0.1364 -0.0804
 1481SOL    HW116079   0.349   1.395   0.685 -2.9685  0.7378 -0.0903
 1481SOL    HW216080   0.423   1.501   0.609  0.7948 -0.3352  0.1404
 1482SOL     OW16081   2.747   4.230   5.160 -0.9814 -0.7913 -0.3009
 1482SOL    HW116082   2.671   4.286   5.147 -2.0089 -2.1905 -0.3602
 1482SOL    HW216083   2.746   4.185   5.076 -1.7991 -1.3723  0.0091
 1483SOL     OW16084   4.670   0.325   9.063 -0.5832  0.1335  0.0694
 1483SOL    HW116085   4.676   0.273   9.143 -1.9293  0.8720  0.6506
 1483SOL    HW216086   0.021   0.368   9.063 -0.7148  0.3935 -0.0654
 1484SOL     OW16087   1.995   4.091   6.986  0.2173  0.0198  0.0650
 1484SOL    HW116088   2.053   4.157   7.025  1.5349 -0.0643 -1.7389
 1484SOL    HW216089   1.914   4.124   7.025 -1.7835 -2.8128 -1.6476
 1485SOL     OW16090   2.502   0.898   8.494  0.3564 -0.1716  0.1514
 1485SOL    HW116091   2.508   0.860   8.582 -1.7106  1.8640  1.1713
 1485SOL    HW216092   2.422   0.853   8.466 -1.7036  1.6569  3.0894
 1486SOL     OW16093   0.352   1.652   3.059 -0.0393 -0.7582 -0.1115
 1486SOL    HW116094   0.371   1.571   3.011  1.8444 -0.0230 -0.5993
 1486SOL    HW216095   0.396   1.641   3.143 -0.0905 -3.1921 -0.3899
 1487SOL     OW16096   3.195   0.259   0.436 -0.0154 -0.3515  0.1595
 1487SOL    HW116097   3.240   0.322   0.493 -1.3207 -1.4914  2.4556
 1487SOL    HW216098   3.228   0.175   0.468  1.9514  0.0221 -0.8749
 1488SOL     OW16099   1.586   0.126  17.611  0.3893  0.2940  0.1323
 1488SOL    HW116100   1.642   0.203  17.615 -0.7801  1.1353  0.3669
 1488SOL    HW216101   1.500   0.151  17.578  0.7500  0.3713 -0.7404
 1489SOL     OW16102   0.891   3.985   3.388 -0.2235 -0.3918  0.2635
 1489SOL    HW116103   0.935   3.900   3.392 -1.1369 -0.8562  0.3627
 1489SOL    HW216104   0.922   4.023   3.305 -0.5419 -0.3688  0.1545
 1490SOL     OW16105   3.935   1.244  11.642  0.7796  0.6386  0.5519
 1490SOL    HW116106   3.901   1.207  11.724 -0.0186  2.4752  1.0378
 1490SOL    HW216107   4.004   1.180  11.626  0.7555  1.0022 -0.9983
 1491SOL     OW16108   3.554   1.811   4.884  0.1236  0.0706  0.1538
 1491SOL    HW116109   3.512   1.893   4.910  1.8712  0.6494  1.2093
 1491SOL    HW216110   3.638   1.816   4.930  1.1988  1.4011 -1.9688
 1492SOL     OW16111   0.219   0.740   2.732 -0.1308  0.0663  0.3414
 1492SOL    HW116112   0.175   0.768   2.652 -0.4655  1.2050  0.9266
 1492SOL    HW216113   0.290   0.689   2.692 -0.4087 -0.2824  0.2848
 1493SOL     OW16114   4.132   1.856   1.213 -0.8228  0.0204  1.0784
 1493SOL    HW116115   4.099   1.904   1.289  0.9154  3.5242 -0.4104
 1493SOL    HW216116   4.050   1.818   1.179 -0.9173  0.8725  0.3552
 1494SOL     OW16117   4.669   0.563   8.652 -0.4213  0.3594 -0.5067
 1494SOL    HW116118   4.592   0.510   8.672 -1.1805  1.5277 -0.3148
 1494SOL    HW216119   4.632   0.649   8.671  0.0636  0.7144 -1.1897
 1495SOL     OW16120   4.615   0.709  10.232  0.0952  0.0808  0.2822
 1495SOL    HW116121   4.636   0.793  10.192 -0.9194 -0.7634 -2.0156
 1495SOL    HW216122   4.685   0.701  10.297  0.2504  4.1206  0.5852
 1496SOL     OW16123   2.708   1.768   0.678 -0.2575  0.3678  0.3082
 1496SOL    HW116124   2.762   1.847   0.677 -0.7064  0.6945  1.3735
 1496SOL    HW216125   2.634   1.804   0.726 -1.8617  1.0631 -2.7171
 1497SOL     OW16126   3.085   2.923  10.792 -0.3737 -0.3056  0.4524
 1497SOL    HW116127   3.116   2.862  10.860 -0.3923 -0.7356  0.0716
 1497SOL    HW216128   3.160   2.975  10.764 -0.5805  1.0848  2.4733
 1498SOL     OW16129   0.775   3.721   4.348 -0.6995  0.7304  0.2307
 1498SOL    HW116130   0.724   3.746   4.271 -1.2481 -1.1364 -0.0227
 1498SOL    HW216131   0.860   3.753   4.318 -0.2090 -0.7828 -0.0444
 1499SOL     OW16132   1.081   1.216  16.219  0.4556  0.5012 -0.6201
 1499SOL    HW116133   1.024   1.139  16.219  2.7624 -1.1973 -0.8174
 1499SOL    HW216134   1.026   1.273  16.273 -0.7239 -0.1405 -1.1623
 1500SOL     OW16135   4.034   1.923   8.153  1.0269 -0.1605 -0.0105
 1500SOL    HW116136   3.960   1.887   8.201  2.1906 -1.9486  0.4464
 1500SOL    HW216137   4.067   1.839   8.122 -1.6467 -1.7542  1.4945
 1501SOL     OW16138   3.448   2.726   9.088  0.3939 -0.1406  0.5231
 1501SOL    HW116139   3.413   2.693   9.006 -2.2243  0.8401  1.2555
 1501SOL    HW216140   3.430   2.816   9.061 -0.0870 -0.2057  0.6360
 1502SOL     OW16141   3.678   2.541   0.229  0.4129 -0.1128 -0.1348
 1502SOL    HW116142   3.676   2.452   0.264 -0.0459 -1.0889 -2.6959
 1502SOL    HW216143   3.583   2.550   0.216  0.9464  1.9736 -2.4793
 1503SOL     OW16144   4.148   1.257   7.518  0.0026 -0.0302  0.3371
 1503SOL    HW116145   4.086   1.213   7.460  0.6944  0.2632 -0.6309
 1503SOL    HW216146   4.231   1.255   7.470  0.0572 -1.6210  0.5128
 1504SOL     OW16147   1.754   1.515   6.892 -0.1504 -0.3726 -0.3268
 1504SOL    HW116148   1.775   1.609   6.891 -1.5795 -0.0521 -1.8813
 1504SOL    HW216149   1.684   1.515   6.957  0.7105 -1.6195  0.5929
 1505SOL     OW16150   1.571   0.711   7.656  0.0625  0.4162  0.1724
 1505SOL    HW116151   1.521   0.681   7.732 -1.1538 -0.3708 -0.9666
 1505SOL    HW216152   1.560   0.639   7.594  1.7999  1.1399 -0.9767
 1506SOL     OW16153   3.150   4.338  14.810  0.0505  0.6050  0.1469
 1506SOL    HW116154   3.078   4.370  14.864 -0.7147 -1.6937  0.4831
 1506SOL    HW216155   3.189   4.277  14.872  0.6429  0.2737 -0.5480
 1507SOL     OW16156   2.871   0.022   4.993 -0.6450  0.2161 -0.3056
 1507SOL    HW116157   2.913   0.044   4.911  0.2970 -0.3534  0.0197
 1507SOL    HW216158   2.952   4.727   5.034 -1.6814 -3.7424 -1.0178
 1508SOL     OW16159   3.452   4.217  14.598  0.0639 -0.0591 -0.5445
 1508SOL    HW116160   3.511   4.142  14.592 -0.4254 -0.5923  1.3602
 1508SOL    HW216161   3.488   4.264  14.523  1.3887 -1.9417 -1.0788
 1509SOL     OW16162   1.030   4.428  14.495 -0.5613 -0.3760  0.0450
 1509SOL    HW116163   1.051   4.440  14.588 -0.6551  1.3059 -0.1553
 1509SOL    HW216164   1.112   4.404  14.452 -0.3654 -0.4731  0.4690
 1510SOL     OW16165   2.703   4.093   2.643  0.7330 -0.2881  0.1851
 1510SOL    HW116166   2.769   4.155   2.675 -1.0937  2.6967 -1.7532
 1510SOL    HW216167   2.722   4.096   2.549 -1.4210 -0.1188 -0.2466
 1511SOL     OW16168   0.676   1.114   4.854 -0.0581 -0.2896  0.0309
 1511SOL    HW116169   0.679   1.040   4.915  1.4700 -0.4344 -0.2339
 1511SOL    HW216170   0.758   1.100   4.807  0.7475  1.1937  0.9708
 1512SOL     OW16171   1.314   4.440   7.717  0.7740 -0.1298 -0.3940
 1512SOL    HW116172   1.262   4.493   7.657 -0.8720 -0.7253  0.5155
 1512SOL    HW216173   1.277   4.355   7.695  3.0111 -0.9949 -0.8407
 1513SOL     OW16174   0.984   3.065   4.644  0.1257  0.1290 -0.1615
 1513SOL    HW116175   0.995   2.997   4.578  0.2390  0.1813 -0.1966
 1513SOL    HW216176   0.892   3.091   4.649 -0.2764 -0.8629 -2.1096
 1514SOL     OW16177   4.512   1.679  16.519 -0.4404  0.2803  0.4385
 1514SOL    HW116178   4.586   1.660  16.576 -1.1477  0.3353  1.3777
 1514SOL    HW216179   4.479   1.590  16.511 -1.0844  0.5872 -0.4563
 1515SOL     OW16180   1.892   1.588   9.656 -0.1604 -0.2353 -0.0003
 1515SOL    HW116181   1.847   1.549   9.731 -1.0396  2.9936  1.1590
 1515SOL    HW216182   1.940   1.660   9.697 -0.8359  0.6534 -0.7657
 1516SOL     OW16183   3.680   2.416   1.444 -0.3865 -0.0213  0.1713
 1516SOL    HW116184   3.753   2.355   1.434 -0.7867 -0.5959  0.7586
 1516SOL    HW216185   3.626   2.385   1.371 -2.4090  3.1522  0.3262
 1517SOL     OW16186   0.956   1.246   1.926 -0.2705 -0.0831 -0.1172
 1517SOL    HW116187   0.925   1.178   1.866 -0.8997  1.1721 -1.2072
 1517SOL    HW216188   1.026   1.294   1.883  2.1857 -3.1247  0.4767
 1518SOL     OW16189   1.593   3.410   0.176  0.6065 -0.2347  0.5236
 1518SOL    HW116190   1.643   3.330   0.195  1.3674 -0.3530 -1.9678
 1518SOL    HW216191   1.649   3.488   0.178  0.0465  0.2523 -2.9701
 1519SOL     OW16192   1.821   1.264   7.633  0.2341  0.0474 -0.1091
 1519SOL    HW116193   1.755   1.206   7.596 -0.5863 -0.9657  2.9226
 1519SOL    HW216194   1.867   1.208   7.696 -0.0120 -1.3158 -1.1538
 1520SOL     OW16195   0.103   0.238   3.806  0.0849 -0.2003  0.1734
 1520SOL    HW116196   0.032   0.288   3.848  2.0723  1.5608  1.3983
 1520SOL    HW216197   0.058   0.177   3.747  0.6575 -0.9307  0.5105
 1521SOL     OW16198   0.390   4.565   0.567  0.6968 -0.0836  0.6446
 1521SOL    HW116199   0.396   4.615   0.486  1.5406 -0.2691  0.5931
 1521SOL    HW216200   0.385   4.481   0.523  0.1072  0.7311 -0.8406
 1522SOL     OW16201   3.515   4.522   5.660 -0.2933 -0.4010  0.0134
 1522SOL    HW116202   3.448   4.521   5.728 -0.0374 -0.1387  0.2676
 1522SOL    HW216203   3.589   4.539   5.719  1.1760 -0.6459 -1.7514
 1523SOL     OW16204   0.116   2.443  14.110  0.4596 -0.2323  0.1233
 1523SOL    HW116205   0.090   2.530  14.139 -0.3030 -1.1310  2.1012
 1523SOL    HW216206   0.043   2.383  14.127  0.6252  0.0842  1.9896
 1524SOL     OW16207   2.118   2.008  13.631 -0.5624  0.2981  0.0233
 1524SOL    HW116208   2.213   2.008  13.620 -0.6940  1.0486 -1.1301
 1524SOL    HW216209   2.089   2.045  13.548  1.2299  1.0293 -0.2787
 1525SOL     OW16210   3.260   3.337  14.290 -0.1445 -0.4354 -0.5946
 1525SOL    HW116211   3.237   3.367  14.377  1.8031 -0.2768 -0.1406
 1525SOL    HW216212   3.269   3.419  14.241 -0.6674  0.5381  0.9669
 1526SOL     OW16213   0.250   3.194   1.604  0.0660 -0.4495 -0.6752
 1526SOL    HW116214   0.197   3.272   1.588  0.6757  0.2516  0.7234
 1526SOL    HW216215   0.231   3.154   1.689  0.1522 -0.1202 -0.5000
 1527SOL     OW16216   1.031   0.470   6.566  0.3541  0.2408 -0.4573
 1527SOL    HW116217   1.025   0.557   6.605 -1.7943 -1.0046  2.0179
 1527SOL    HW216218   0.985   0.489   6.485  0.8475  1.5439 -0.4406
 1528SOL     OW16219   0.019   0.743   5.169 -0.2431  0.2737 -0.1548
 1528SOL    HW116220   0.101   0.772   5.128 -0.3084 -0.9882 -1.1630
 1528SOL    HW216221   0.004   0.820   5.224  0.5853 -0.0622  0.5337
 1529SOL     OW16222   1.989   0.059  10.296 -0.4641  0.0879 -0.2333
 1529SOL    HW116223   2.023   0.008  10.369  1.6438 -0.4613 -1.5881
 1529SOL    HW216224   2.007   0.150  10.321  0.1833 -0.6100  1.8537
 1530SOL     OW16225   1.087   0.944  10.888 -0.4586 -0.2395  0.0319
 1530SOL    HW116226   1.163   1.000  10.874  0.1552 -0.6089  1.7977
 1530SOL    HW216227   1.024   1.016  10.884 -0.6599 -0.3014  1.7804
 1531SOL     OW16228   0.963   4.079   2.353  0.2461 -0.3176 -0.1099
 1531SOL    HW116229   1.054   4.083   2.322  0.3538  2.0829  0.5070
 1531SOL    HW216230   0.965   4.163   2.398  0.5573  0.9798 -2.5244
 1532SOL     OW16231   2.176   2.627   9.132  0.1335  0.0760  0.2001
 1532SOL    HW116232   2.192   2.578   9.051 -0.9832  2.4604 -1.4846
 1532SOL    HW216233   2.088   2.607   9.165  0.3515 -3.3525 -1.2714
 1533SOL     OW16234   0.250   0.430   4.095  0.0431  0.1591  0.1457
 1533SOL    HW116235   0.318   0.375   4.134 -1.5817 -1.8239  0.2553
 1533SOL    HW216236   0.222   0.375   4.022 -0.0395  1.9151 -1.1415
 1534SOL     OW16237   0.399   3.724   3.175  0.1027 -0.1607  0.1355
 1534SOL    HW116238   0.359   3.649   3.219  1.5638 -0.8524  0.2900
 1534SOL    HW216239   0.340   3.796   3.196 -2.9812 -2.4796 -0.6065
 1535SOL     OW16240   0.577   0.606  11.424 -0.0669  0.7224  0.0462
 1535SOL    HW116241   0.632   0.621  11.501  0.6368  0.7407 -0.4579
 1535SOL    HW216242   0.586   0.514  11.400  0.8361  1.1114 -1.1184
 1536SOL     OW16243   3.359   0.826   9.724  0.1936  0.1749 -0.4891
 1536SOL    HW116244   3.441   0.783   9.700  0.7962  0.8989  0.2597
 1536SOL    HW216245   3.351   0.906   9.673 -0.4426  0.1077 -0.4974
 1537SOL     OW16246   3.680   3.647   3.057  0.0320 -0.2444 -0.2412
 1537SOL    HW116247   3.612   3.628   3.122  2.0694  2.1017  2.5795
 1537SOL    HW216248   3.691   3.741   3.074 -0.8371 -0.1082 -0.4014
 1538SOL     OW16249   0.007   2.808   6.951 -0.6280 -0.4289  0.1858
 1538SOL    HW116250   0.087   2.834   6.996 -0.2152 -1.0841 -0.1624
 1538SOL    HW216251   4.713   2.743   7.015  0.4638 -1.2131 -0.1455
 1539SOL     OW16252   4.610   0.758   8.331  0.0175 -0.2187 -0.0475
 1539SOL    HW116253   4.615   0.663   8.345 -2.8504 -0.5530 -1.2526
 1539SOL    HW216254   4.702   0.774   8.313 -0.0060  0.1127  0.1199
 1540SOL     OW16255   1.379   1.095  12.309 -0.0662  0.5014  0.2107
 1540SOL    HW116256   1.429   1.140  12.376  1.8260 -1.2426 -0.0276
 1540SOL    HW216257   1.405   1.143  12.230 -0.8577 -2.0857 -1.6247
 1541SOL     OW16258   3.552   1.504   2.457 -0.7622 -0.1414  0.7587
 1541SOL    HW116259   3.564   1.572   2.524 -1.1087  0.5477  0.1192
 1541SOL    HW216260   3.491   1.439   2.491  0.4597 -2.0475 -0.7414
 1542SOL     OW16261   3.869   2.079   3.279 -0.0214 -0.0603  0.7037
 1542SOL    HW116262   3.798   2.143   3.270  1.1605  1.3261  1.2871
 1542SOL    HW216263   3.921   2.103   3.355 -0.3784  2.0940  0.2890
 1543SOL     OW16264   3.251   1.604  13.094 -0.4143  0.0916 -0.5767
 1543SOL    HW116265   3.314   1.554  13.146 -0.3016 -0.4338 -1.2164
 1543SOL    HW216266   3.304   1.658  13.036 -0.8330 -0.2664 -1.2880
 1544SOL     OW16267   3.830   4.509   6.945  0.0406  0.3591 -0.1623
 1544SOL    HW116268   3.913   4.486   6.988 -0.8809  0.4789  1.6736
 1544SOL    HW216269   3.773   4.528   7.020 -1.3297 -1.1815 -0.8118
 1545SOL     OW16270   4.354   4.500   7.628 -0.3830  0.0432 -0.8782
 1545SOL    HW116271   4.427   4.440   7.611 -1.6265 -2.2385  1.7519
 1545SOL    HW216272   4.408   4.579   7.626 -0.0580 -0.2512 -3.3749
 1546SOL     OW16273   3.258   1.846  17.311 -0.3628  0.4588  0.1906
 1546SOL    HW116274   3.277   1.922  17.257 -0.9948 -0.2313 -0.9972
 1546SOL    HW216275   3.351   1.822  17.322 -0.7518 -1.9076 -1.6523
 1547SOL     OW16276   0.949   1.294  12.807 -0.2909  0.1050  0.0207
 1547SOL    HW116277   1.029   1.243  12.820 -0.8542 -0.1679  2.5230
 1547SOL    HW216278   0.957   1.342  12.889 -0.9076  0.7535 -0.3004
 1548SOL     OW16279   0.477   3.653   8.342 -0.2293  0.1287 -0.3233
 1548SOL    HW116280   0.530   3.638   8.263  0.0229 -3.4419  0.5140
 1548SOL    HW216281   0.390   3.656   8.303 -0.7287  0.4721  0.8225
 1549SOL     OW16282   0.959   1.889   6.285  0.2645 -0.1094  0.0176
 1549SOL    HW116283   1.005   1.860   6.207  0.0817 -0.3911  0.0163
 1549SOL    HW216284   1.028   1.862   6.345 -0.0003  1.5065  1.0777
 1550SOL     OW16285   1.064   3.518   6.726  0.2914 -0.8333  0.5132
 1550SOL    HW116286   1.144   3.517   6.779  0.2355  3.4518  0.6458
 1550SOL    HW216287   1.006   3.548   6.796  0.6673 -0.1761  0.5469
 1551SOL     OW16288   4.361   3.475   6.695  0.4800 -0.0519 -0.5681
 1551SOL    HW116289   4.418   3.550   6.707 -1.4610  1.4678 -0.7403
 1551SOL    HW216290   4.379   3.450   6.605  0.1995  0.7292 -0.8461
 1552SOL     OW16291   3.356   1.820   2.609 -0.4860 -0.3335 -0.1128
 1552SOL    HW116292   3.436   1.871   2.618  0.3812 -2.0090  1.8344
 1552SOL    HW216293   3.390   1.748   2.662  0.6069 -0.1969 -0.6367
 1553SOL     OW16294   3.166   2.310   5.699 -0.7518 -0.9837 -0.3101
 1553SOL    HW116295   3.145   2.335   5.789  2.1538 -2.0010  0.6483
 1553SOL    HW216296   3.148   2.217   5.713  0.1154 -1.1329 -0.2006
 1554SOL     OW16297   2.725   1.693  15.955  0.4695 -0.0598  0.4157
 1554SOL    HW116298   2.675   1.728  15.882 -2.2789 -3.9231  0.4406
 1554SOL    HW216299   2.669   1.698  16.033 -1.0580  1.4808 -0.7892
 1555SOL     OW16300   4.584   4.282   2.811  0.4099 -0.6483 -0.3309
 1555SOL    HW116301   4.629   4.223   2.751  1.0962 -2.7305  2.2747
 1555SOL    HW216302   4.530   4.318   2.741 -1.5835 -3.3762 -0.1683
 1556SOL     OW16303   0.530   2.012   4.622 -0.5212  0.1267  0.1556
 1556SOL    HW116304   0.599   2.020   4.688 -0.5144  0.9093  0.0523
 1556SOL    HW216305   0.465   2.068   4.665 -2.5668 -1.4596 -0.9064
 1557SOL     OW16306   3.341   4.041   1.773  0.9887  0.2998 -0.2355
 1557SOL    HW116307   3.320   3.951   1.749  1.2039 -0.4937  2.5081
 1557SOL    HW216308   3.300   4.099   1.709 -0.7038 -0.2182  0.3586
 1558SOL     OW16309   0.172   2.393  11.541 -0.1405  0.1794 -0.4999
 1558SOL    HW116310   0.082   2.380  11.569  0.1584 -0.8387 -0.0177
 1558SOL    HW216311   0.206   2.307  11.564  1.2585  1.0357  0.6957
 1559SOL     OW16312   3.535   3.404   9.213  0.1442  0.4294  0.1319
 1559SOL    HW116313   3.451   3.437   9.182 -1.7437 -2.2448  2.4154
 1559SOL    HW216314   3.498   3.334   9.266  1.2201  0.7996  1.3829
 1560SOL     OW16315   1.524   0.801   3.079 -0.2143 -0.1844 -0.4687
 1560SOL    HW116316   1.492   0.878   3.125 -0.3537 -0.5190 -0.0084
 1560SOL    HW216317   1.445   0.759   3.045 -0.6290 -0.5526  0.9487
 1561SOL     OW16318   0.178   2.198   3.768 -0.5826 -0.1828  0.0813
 1561SOL    HW116319   0.223   2.139   3.830 -1.0703 -1.7211 -1.0265
 1561SOL    HW216320   0.211   2.178   3.681  0.8864 -2.4329  1.1284
 1562SOL     OW16321   3.758   3.824   3.791  0.4151 -0.3006 -0.4481
 1562SOL    HW116322   3.843   3.866   3.794 -0.1410  0.6648  1.2741
 1562SOL    HW216323   3.756   3.762   3.864 -1.5396  1.0212  0.6090
 1563SOL     OW16324   0.372   1.551   0.422  0.0409  0.1672 -0.0233
 1563SOL    HW116325   0.444   1.546   0.359  2.1164  0.8256  2.2502
 1563SOL    HW216326   0.325   1.624   0.382  1.5309  1.4644  0.5927
 1564SOL     OW16327   0.051   3.629   6.012  0.4477  0.1924 -0.2195
 1564SOL    HW116328   0.100   3.553   6.045  0.2316 -0.4362 -1.3670
 1564SOL    HW216329   0.093   3.643   5.927  1.1776  1.1507  0.2961
 1565SOL     OW16330   1.773   1.453  15.325  0.0336 -0.2360 -0.4430
 1565SOL    HW116331   1.843   1.458  15.259 -0.3121 -1.8333 -0.9332
 1565SOL    HW216332   1.800   1.527  15.379  0.5140 -0.8195  0.1273
 1566SOL     OW16333   3.177   4.706  15.587  0.9375  0.5167  0.5265
 1566SOL    HW116334   3.266   4.672  15.587  1.1543  1.0712  1.4936
 1566SOL    HW216335   3.187   0.054  15.540  0.7123  0.2890  0.0758
 1567SOL     OW16336   3.754   4.408  14.561 -0.1758  0.1656  0.0431
 1567SOL    HW116337   3.680   4.414  14.499 -0.5410  0.3557  0.4975
 1567SOL    HW216338   3.824   4.368  14.510  1.1116  1.5194  0.7377
 1568SOL     OW16339   1.226   2.958   2.367 -0.4465  0.8919 -0.2181
 1568SOL    HW116340   1.155   2.896   2.380  0.2968  0.4112  1.6130
 1568SOL    HW216341   1.283   2.911   2.306 -1.6012  0.8127 -1.2288
 1569SOL     OW16342   1.836   2.148   1.914  0.8232 -0.5105 -0.3132
 1569SOL    HW116343   1.861   2.059   1.889  0.6129  0.0990 -2.6629
 1569SOL    HW216344   1.921   2.184   1.940 -0.7122  3.4596 -0.8169
 1570SOL     OW16345   0.354   0.942   2.305 -0.2783 -0.5123  0.1534
 1570SOL    HW116346   0.341   0.882   2.231  0.8502 -0.2024 -0.2875
 1570SOL    HW216347   0.417   0.999   2.262  1.6060 -1.8349  1.1554
 1571SOL     OW16348   0.721   1.984   7.515  0.5221 -0.4764 -0.6019
 1571SOL    HW116349   0.637   2.004   7.557  1.1498  1.6020 -0.3500
 1571SOL    HW216350   0.788   2.003   7.581  0.5091 -2.4195 -0.0280
 1572SOL     OW16351   0.398   1.512   2.499  0.3179  0.0933 -0.0553
 1572SOL    HW116352   0.314   1.553   2.481  0.2981 -0.1669 -0.5632
 1572SOL    HW216353   0.372   1.423   2.525  1.1525 -0.2915 -0.5222
 1573SOL     OW16354   1.797   3.730   8.302  0.2718  0.0271 -0.1213
 1573SOL    HW116355   1.701   3.730   8.298  0.2741  0.2578 -0.1572
 1573SOL    HW216356   1.826   3.649   8.344  1.0515 -0.5730 -1.8439
 1574SOL     OW16357   3.914   0.541   8.047 -0.1075  0.3970 -0.1343
 1574SOL    HW116358   3.956   0.508   7.968 -0.2756 -1.3871  0.5167
 1574SOL    HW216359   3.929   0.455   8.086 -2.2619  1.0659  2.1665
 1575SOL     OW16360   4.173   0.556   4.479 -0.0616 -0.4412 -0.0760
 1575SOL    HW116361   4.128   0.578   4.397  0.3908 -0.7365 -0.4037
 1575SOL    HW216362   4.091   0.555   4.529  0.7226 -0.9088  1.1805
 1576SOL     OW16363   0.969   0.352   4.981  0.2124 -0.0106 -0.2637
 1576SOL    HW116364   0.972   0.311   4.894  0.1170 -1.9916  0.6678
 1576SOL    HW216365   1.034   0.295   5.024 -0.4884 -0.7136 -0.1279
 1577SOL     OW16366   4.558   0.976   5.114 -0.5242 -0.2044  0.1921
 1577SOL    HW116367   4.568   0.883   5.135 -0.4065 -0.2552 -0.0934
 1577SOL    HW216368   4.484   0.991   5.173  0.0706  1.5985  0.5049
 1578SOL     OW16369   1.307   2.083   3.235  0.0628 -0.2672  0.1244
 1578SOL    HW116370   1.353   2.167   3.233 -1.0701  0.3747  1.1448
 1578SOL    HW216371   1.245   2.089   3.162  1.3681 -0.6472 -1.0095
 1579SOL     OW16372   3.562   0.344   6.272  0.1403 -0.0045 -0.0155
 1579SOL    HW116373   3.528   0.431   6.253  2.1289  0.6838 -0.4625
 1579SOL    HW216374   3.481   0.294   6.264  0.6119 -0.6638 -0.7469
 1580SOL     OW16375   4.435   2.198   8.134  0.3852  0.0644  0.5903
 1580SOL    HW116376   4.353   2.183   8.182 -0.3358  2.4226  0.1071
 1580SOL    HW216377   4.423   2.140   8.059 -1.4067 -1.2490  1.8777
 1581SOL     OW16378   1.772   0.294   4.424  0.4695 -0.5427 -0.6324
 1581SOL    HW116379   1.718   0.245   4.485 -0.5718 -0.2385 -1.3062
 1581SOL    HW216380   1.800   0.229   4.360  3.7721 -0.4652  0.7194
 1582SOL     OW16381   3.696   0.287   5.603  0.4456  0.4018  0.2739
 1582SOL    HW116382   3.750   0.219   5.642  0.8317 -0.1236 -1.1938
 1582SOL    HW216383   3.647   0.238   5.537  3.8445 -0.5404 -1.5481
 1583SOL     OW16384   1.255   1.073  17.035  0.2351 -0.7904  0.2701
 1583SOL    HW116385   1.325   1.095  16.974  1.1103  0.2527  1.6507
 1583SOL    HW216386   1.232   1.161  17.066  0.3831 -0.5373 -0.3325
 1584SOL     OW16387   2.045   3.221   4.069 -0.2862 -0.1995  0.2722
 1584SOL    HW116388   2.103   3.294   4.091  0.4554 -0.8220  0.3810
 1584SOL    HW216389   2.094   3.184   3.996  0.7189  0.1822  0.7510
 1585SOL     OW16390   3.229   3.223   7.341  0.2909 -0.0774  0.4690
 1585SOL    HW116391   3.310   3.181   7.310  1.3493  0.6515  2.2491
 1585SOL    HW216392   3.186   3.141   7.367 -2.0526  0.6004 -1.2680
 1586SOL     OW16393   2.176   3.111   9.939 -0.0791 -0.1167 -0.0240
 1586SOL    HW116394   2.268   3.091   9.961  0.0562  0.7388  0.1750
 1586SOL    HW216395   2.161   3.053   9.864 -2.4755 -0.3857  0.6700
 1587SOL     OW16396   0.897   1.022   7.310  0.0686  0.4253  0.0848
 1587SOL    HW116397   0.938   1.027   7.396 -1.2094 -0.5615  0.7492
 1587SOL    HW216398   0.804   1.007   7.323  0.2763 -0.4779  0.5366
 1588SOL     OW16399   1.645   4.333   0.846  0.0804 -0.0017  0.1371
 1588SOL    HW116400   1.715   4.352   0.908 -1.2333  1.2926  1.2032
 1588SOL    HW216401   1.650   4.415   0.796  1.5333 -0.3033 -0.2001
 1589SOL     OW16402   2.684   2.254   5.664 -0.7879  0.2742  0.1277
 1589SOL    HW116403   2.722   2.275   5.749  0.1222 -2.6188  0.4228
 1589SOL    HW216404   2.592   2.280   5.667 -1.6228 -2.8628  1.6405
 1590SOL     OW16405   4.681   4.555   8.500 -0.0252 -0.6422 -0.1216
 1590SOL    HW116406   4.703   4.612   8.426 -1.7770 -0.5980 -0.6089
 1590SOL    HW216407   0.027   4.558   8.551 -0.3633  0.7369  0.3440
 1591SOL     OW16408   0.749   1.537   1.253 -0.0009 -0.1987  0.1823
 1591SOL    HW116409   0.667   1.518   1.298 -0.4572  0.7532 -0.2549
 1591SOL    HW216410   0.799   1.465   1.292 -2.2760 -1.6081  0.5092
 1592SOL     OW16411   4.038   0.539  11.695  0.2108 -0.0406  0.2427
 1592SOL    HW116412   3.964   0.478  11.700  0.5875 -0.6999 -2.1960
 1592SOL    HW216413   3.991   0.620  11.675  1.9252  0.1103 -3.1012
 1593SOL     OW16414   0.719   2.421  13.662 -0.0094 -0.7854 -0.1218
 1593SOL    HW116415   0.625   2.407  13.670  0.4449 -4.1189 -0.7761
 1593SOL    HW216416   0.749   2.378  13.742  1.2141 -2.2824 -1.3955
 1594SOL     OW16417   4.356   2.107  10.842 -0.1806 -0.1729  0.1957
 1594SOL    HW116418   4.409   2.172  10.888 -0.3110  1.6958 -2.2839
 1594SOL    HW216419   4.295   2.158  10.789  1.3397  0.8158 -0.6092
 1595SOL     OW16420   3.224   0.652   1.888 -0.6980  0.0215  0.0359
 1595SOL    HW116421   3.254   0.635   1.977  0.8304  0.3496 -0.4227
 1595SOL    HW216422   3.292   0.601   1.845 -0.8579  1.2701 -1.7255
 1596SOL     OW16423   3.144   2.402   9.789  0.2086 -0.1907 -0.2343
 1596SOL    HW116424   3.115   2.313   9.809  1.9914 -0.2987  1.9065
 1596SOL    HW216425   3.097   2.415   9.707  1.9042 -0.9655 -1.3310
 1597SOL     OW16426   1.005   2.407   6.235 -0.3002  0.1552 -0.7240
 1597SOL    HW116427   1.050   2.464   6.173 -0.1767 -1.4707 -2.1292
 1597SOL    HW216428   1.073   2.347   6.264  2.1051  3.2058 -0.0193
 1598SOL     OW16429   0.087   2.057  15.202 -0.1526 -0.5426 -0.1002
 1598SOL    HW116430   0.158   2.024  15.146 -1.2716 -2.6636 -0.2632
 1598SOL    HW216431   0.125   2.063  15.290 -1.0612 -1.0311  0.3207
 1599SOL     OW16432   1.411   2.672   6.274 -0.1181 -0.1130  0.0086
 1599SOL    HW116433   1.452   2.740   6.326 -1.4827  2.7662 -2.6852
 1599SOL    HW216434   1.469   2.598   6.293  1.0796  0.9950  0.6447
 1600SOL     OW16435   3.064   0.921  15.624 -0.5114  0.2593  0.0117
 1600SOL    HW116436   3.145   0.908  15.573 -0.7847 -1.4045  0.0006
 1600SOL    HW216437   3.101   0.931  15.712  1.6563  2.5589 -1.1640
 1601SOL     OW16438   1.173   4.661   7.904  0.0217 -0.1739  0.2103
 1601SOL    HW116439   1.081   4.636   7.892 -0.0197  0.3953 -0.6607
 1601SOL    HW216440   1.164   0.020   7.887 -1.4342  0.0017  1.9618
 1602SOL     OW16441   4.122   2.692   1.355 -0.1907 -0.6951  0.2871
 1602SOL    HW116442   4.075   2.671   1.435  0.0732 -3.1283 -0.1936
 1602SOL    HW216443   4.110   2.786   1.344  2.0650 -0.4999 -0.5622
 1603SOL     OW16444   1.910   4.384  14.216 -0.0697  0.7792 -0.1893
 1603SOL    HW116445   2.003   4.367  14.201 -0.3380 -2.0197  1.2276
 1603SOL    HW216446   1.885   4.457  14.159  0.3276 -0.2479 -1.7059
 1604SOL     OW16447   3.935   2.545   8.684 -0.3681  0.3683 -0.6283
 1604SOL    HW116448   3.897   2.586   8.762  0.1948 -0.7576  0.2371
 1604SOL    HW216449   3.989   2.613   8.644 -0.1201  0.3825 -0.2723
 1605SOL     OW16450   2.318   2.855   3.851 -0.2523  0.5744  1.0452
 1605SOL    HW116451   2.315   2.761   3.837 -0.7749  0.7565 -0.0629
 1605SOL    HW216452   2.231   2.883   3.821  0.2470  0.7005 -0.2782
 1606SOL     OW16453   4.283   3.654   8.828  0.8700  0.8878 -0.2890
 1606SOL    HW116454   4.298   3.560   8.831  1.3116  0.9564 -0.3715
 1606SOL    HW216455   4.272   3.673   8.921 -0.5649  0.6721 -0.4159
 1607SOL     OW16456   3.770   3.539   9.150  0.0658  0.0021  0.6185
 1607SOL    HW116457   3.751   3.574   9.063 -0.2537 -3.1318 -0.5377
 1607SOL    HW216458   3.684   3.522   9.188 -0.0428  1.3052  0.9796
 1608SOL     OW16459   4.125   3.147   8.341  0.8104 -0.2125  0.3248
 1608SOL    HW116460   4.037   3.174   8.315  1.8542  0.4259 -2.5556
 1608SOL    HW216461   4.129   3.054   8.319 -0.9847 -0.1983 -0.0154
 1609SOL     OW16462   3.146   4.071   6.532  0.6525  0.0921  0.0388
 1609SOL    HW116463   3.187   4.150   6.498  0.9125 -0.1203 -0.1375
 1609SOL    HW216464   3.190   4.013   6.470  0.0610  0.7510 -1.0003
 1610SOL     OW16465   3.538   0.565   8.823 -0.0841  0.0153  0.0480
 1610SOL    HW116466   3.529   0.653   8.860 -0.7127 -0.4010  0.8812
 1610SOL    HW216467   3.539   0.580   8.728 -2.5138  0.6945  0.1274
 1611SOL     OW16468   1.752   3.002   9.583  0.1043  0.5909 -0.3993
 1611SOL    HW116469   1.809   2.980   9.509 -0.2829 -0.3301 -0.4314
 1611SOL    HW216470   1.702   2.920   9.582  2.8294 -1.0723 -1.5350
 1612SOL     OW16471   2.086   1.663  11.155  0.7664  0.0115  0.3953
 1612SOL    HW116472   2.126   1.747  11.134 -2.1449  0.7755 -2.0833
 1612SOL    HW216473   2.001   1.688  11.192  0.3617 -2.0845  0.8632
 1613SOL     OW16474   2.586   0.636   1.031  0.1753  0.2329  0.5103
 1613SOL    HW116475   2.673   0.611   1.061  0.7113 -1.1279 -2.1881
 1613SOL    HW216476   2.610   0.654   0.940  1.3891  0.2916  0.8470
 1614SOL     OW16477   1.221   3.516   8.641  0.3421 -0.1358 -0.4262
 1614SOL    HW116478   1.128   3.516   8.620 -0.0993 -1.8322  1.5658
 1614SOL    HW216479   1.219   3.557   8.728 -0.6798 -1.1748  0.0436
 1615SOL     OW16480   0.901   1.471   7.112  0.1587 -0.5460  0.3073
 1615SOL    HW116481   0.992   1.502   7.110  0.2011 -0.6882  0.0168
 1615SOL    HW216482   0.909   1.381   7.079  0.9773 -0.1691 -0.5446
 1616SOL     OW16483   3.120   3.745   2.767  0.0688  0.2423 -0.4096
 1616SOL    HW116484   3.170   3.680   2.817  0.1090  1.5660  1.2829
 1616SOL    HW216485   3.107   3.702   2.683  2.7537  0.7166 -1.0748
 1617SOL     OW16486   2.844   0.142   8.347 -0.1028  0.0938 -0.0132
 1617SOL    HW116487   2.926   0.191   8.347 -0.4628  0.6764 -2.2273
 1617SOL    HW216488   2.790   0.192   8.286 -1.9730 -1.1737  0.6222
 1618SOL     OW16489   0.755   4.400  14.820 -0.1127  0.3259 -0.4893
 1618SOL    HW116490   0.784   4.463  14.755  3.5293  0.0471  0.8894
 1618SOL    HW216491   0.704   4.336  14.771  0.9724 -2.4005  1.9216
 1619SOL     OW16492   0.300   2.877   3.772  0.7316  0.3274  0.0324
 1619SOL    HW116493   0.264   2.798   3.812 -0.2628 -0.6919 -2.8800
 1619SOL    HW216494   0.339   2.853   3.688 -1.1646  1.0788 -1.0644
 1620SOL     OW16495   2.683   1.725   9.852  0.8151  1.0914 -0.4445
 1620SOL    HW116496   2.694   1.787   9.779  2.0705  1.2434 -0.1276
 1620SOL    HW216497   2.769   1.716   9.893 -0.1843  0.2227  1.4768
 1621SOL     OW16498   1.078   0.542   2.267 -0.2775 -0.1026 -0.8059
 1621SOL    HW116499   1.169   0.572   2.274 -0.3338  0.2696 -1.5805
 1621SOL    HW216500   1.027   0.624   2.273  1.1584  0.5098  2.8794
 1622SOL     OW16501   4.674   0.883   0.127  0.3070 -0.0668  0.7233
 1622SOL    HW116502   4.667   0.893   0.222  0.8112  0.4071  0.7119
 1622SOL    HW216503   4.709   0.794   0.118  2.6471  0.8771  0.3132
 1623SOL     OW16504   1.780   1.214   2.438 -0.4756  0.4502  0.3411
 1623SOL    HW116505   1.858   1.181   2.482  0.1236  0.4424 -0.7417
 1623SOL    HW216506   1.808   1.214   2.347  0.4059  0.2749  0.6182
 1624SOL     OW16507   3.179   0.872  12.883 -0.3519 -0.1452  0.4566
 1624SOL    HW116508   3.217   0.809  12.945  0.6143 -0.3484 -0.3330
 1624SOL    HW216509   3.259   0.924  12.878 -1.0791  0.6484 -2.4903
 1625SOL     OW16510   2.836   1.410   9.745 -0.1852 -0.5305  0.2666
 1625SOL    HW116511   2.754   1.438   9.705 -0.2055  1.0553  1.4138
 1625SOL    HW216512   2.807   1.399   9.835 -0.8552 -1.0407 -0.0106
 1626SOL     OW16513   2.695   1.706   2.999  0.2220  0.1507 -0.0979
 1626SOL    HW116514   2.670   1.794   3.028  1.3968  0.4574 -0.0070
 1626SOL    HW216515   2.685   1.664   3.085 -1.6619  0.4346 -0.1828
 1627SOL     OW16516   0.782   1.861  17.072  0.5585  0.3413  0.1135
 1627SOL    HW116517   0.726   1.824  17.004  2.0468  1.0474 -1.5106
 1627SOL    HW216518   0.747   1.950  17.078 -0.2250 -0.0235  0.8363
 1628SOL     OW16519   1.654   1.876  16.978  0.0730  0.1660 -0.2379
 1628SOL    HW116520   1.713   1.935  16.930 -0.8868  0.5772 -0.9088
 1628SOL    HW216521   1.598   1.846  16.907  1.8368 -1.9994 -0.7311
 1629SOL     OW16522   4.615   2.164   7.474  0.3421 -0.6920 -0.1526
 1629SOL    HW116523   4.656   2.079   7.487  0.0537 -0.9828 -1.1468
 1629SOL    HW216524   4.690   2.222   7.458  0.5372 -0.4890  1.5089
 1630SOL     OW16525   0.120   0.226  12.071  0.1313  0.5644 -0.2700
 1630SOL    HW116526   0.186   0.269  12.126  0.8562  0.2831 -0.9071
 1630SOL    HW216527   0.042   0.261  12.114 -0.6748 -2.3046  0.5761
 1631SOL     OW16528   1.656   1.456  13.675  0.4508  0.4802 -0.1445
 1631SOL    HW116529   1.715   1.402  13.728 -2.7451 -2.5653  0.2895
 1631SOL    HW216530   1.706   1.538  13.672  0.3968  0.6575  3.6771
 1632SOL     OW16531   1.960   0.011   2.541 -0.0198  0.2059  0.1163
 1632SOL    HW116532   1.865   0.012   2.537 -0.0816  0.4306  1.5449
 1632SOL    HW216533   1.988   4.658   2.516 -1.7541  0.4093 -2.4973
 1633SOL     OW16534   1.305   2.494   2.336  0.1691 -0.0777 -0.1551
 1633SOL    HW116535   1.230   2.461   2.386  0.8595  2.0192  2.2871
 1633SOL    HW216536   1.345   2.410   2.316 -2.4395 -1.2279 -0.6071
 1634SOL     OW16537   3.650   2.073   1.566 -0.2051 -0.3570  0.1408
 1634SOL    HW116538   3.663   2.068   1.471  0.4339  0.0826  0.2043
 1634SOL    HW216539   3.563   2.035   1.575 -0.5207 -0.0262 -1.5460
 1635SOL     OW16540   2.670   0.043   4.803 -0.5915  0.3491  0.3483
 1635SOL    HW116541   2.650   0.135   4.821  3.3355  1.3882 -0.4927
 1635SOL    HW216542   2.726   0.028   4.878  2.6976  0.8323 -2.0038
 1636SOL     OW16543   2.028   3.377   9.066 -0.5466  0.1596 -0.0644
 1636SOL    HW116544   1.936   3.399   9.056 -0.6075  0.1467  0.4480
 1636SOL    HW216545   2.035   3.326   9.147  0.3685  1.5483  0.7226
 1637SOL     OW16546   3.129   2.933   2.927  0.0112  0.2453  0.3470
 1637SOL    HW116547   3.171   2.943   2.842  0.5771  0.4430  0.6573
 1637SOL    HW216548   3.058   2.997   2.934  1.7191  1.7120  3.9358
 1638SOL     OW16549   4.522   2.921  16.775 -0.0646 -0.1393  0.0188
 1638SOL    HW116550   4.442   2.967  16.751  0.2531  0.4201  0.0536
 1638SOL    HW216551   4.587   2.985  16.749 -0.4347  0.5553  0.8069
 1639SOL     OW16552   4.535   2.254  17.442 -0.2985  0.3353 -0.3841
 1639SOL    HW116553   4.466   2.320  17.449 -0.8533 -0.2216 -0.5299
 1639SOL    HW216554   4.533   2.227  17.534 -2.4043  1.7024 -0.0256
 1640SOL     OW16555   4.636   3.772  11.393  0.2052 -0.2711  0.3961
 1640SOL    HW116556   4.598   3.850  11.434  2.2673  0.1481  1.5065
 1640SOL    HW216557   4.597   3.699  11.442 -0.4158 -0.3563 -0.2203
 1641SOL     OW16558   0.493   0.857  15.520  0.3315  0.4402 -0.5831
 1641SOL    HW116559   0.568   0.799  15.536 -1.0653 -1.2608 -0.1762
 1641SOL    HW216560   0.424   0.819  15.574  0.5030 -2.0396 -2.0880
 1642SOL     OW16561   0.700   1.347   6.115 -0.0875  0.2319 -0.0597
 1642SOL    HW116562   0.745   1.277   6.162  0.9655  1.9697  1.5394
 1642SOL    HW216563   0.702   1.411   6.186 -2.6937  1.8345 -1.4539
 1643SOL     OW16564   2.758   2.198   2.169  0.2374  0.2184 -0.4698
 1643SOL    HW116565   2.707   2.251   2.108  0.6802  1.1171 -0.0516
 1643SOL    HW216566   2.838   2.175   2.122 -0.8431  0.0163 -2.2269
 1644SOL     OW16567   0.121   4.135   1.121 -0.0516 -0.3673 -0.8214
 1644SOL    HW116568   0.187   4.112   1.185 -0.7363 -1.8531 -0.6534
 1644SOL    HW216569   0.099   4.226   1.139 -1.1447 -1.0728  1.3944
 1645SOL     OW16570   0.898   2.924   1.980 -0.5723  0.5471 -0.1875
 1645SOL    HW116571   0.990   2.917   2.006 -0.3347 -0.6149 -1.3223
 1645SOL    HW216572   0.892   2.919   1.884  0.5676  1.8758 -0.3203
 1646SOL     OW16573   0.143   3.620   3.487  0.2121  0.1137 -0.3452
 1646SOL    HW116574   0.135   3.668   3.569 -1.0431 -1.6239  0.5540
 1646SOL    HW216575   0.067   3.562   3.488  0.9157 -0.8046 -0.5394
 1647SOL     OW16576   0.489   0.669   1.441  0.4000 -0.4230 -0.3731
 1647SOL    HW116577   0.444   0.696   1.361  1.2454  1.0942 -0.3521
 1647SOL    HW216578   0.513   0.581   1.412  0.2389 -0.5603 -0.0909
 1648SOL     OW16579   3.485   2.265   1.775 -0.1356 -0.2999 -0.0210
 1648SOL    HW116580   3.436   2.320   1.836 -0.1463  0.6283 -0.8619
 1648SOL    HW216581   3.474   2.175   1.804 -1.5108  0.2381  1.1721
 1649SOL     OW16582   0.147   0.149   2.319 -0.2311  0.9300 -0.2318
 1649SOL    HW116583   0.155   0.192   2.234 -1.2049  0.9661 -0.3004
 1649SOL    HW216584   0.088   0.076   2.302  1.3635 -0.8040  1.5695
 1650SOL     OW16585   2.207   1.672   3.302 -0.5007 -0.1946  0.2103
 1650SOL    HW116586   2.256   1.743   3.260  1.1702 -1.6637 -0.3080
 1650SOL    HW216587   2.201   1.621   3.221  1.1139 -1.8176  1.1176
 1651SOL     OW16588   3.864   4.531   2.793  0.2676 -0.2354 -0.1417
 1651SOL    HW116589   3.814   4.612   2.803 -1.2489 -1.1248 -0.5317
 1651SOL    HW216590   3.860   4.517   2.698  0.5932 -1.1980 -0.0122
 1652SOL     OW16591   1.081   3.547   2.909  0.3249 -0.0159 -0.0320
 1652SOL    HW116592   1.060   3.477   2.848  3.3056 -0.8399 -0.1171
 1652SOL    HW216593   1.039   3.506   2.985  0.0226 -0.3466 -0.3804
 1653SOL     OW16594   0.853   1.230   4.018 -0.1485 -0.1343  0.0847
 1653SOL    HW116595   0.831   1.300   3.957  3.0557 -0.1752 -1.0974
 1653SOL    HW216596   0.939   1.252   4.053 -0.7944  2.8624 -0.1928
 1654SOL     OW16597   1.054   0.234   4.713 -0.3506 -0.5400  0.3633
 1654SOL    HW116598   0.971   0.187   4.703  0.1160 -1.2653 -0.1579
 1654SOL    HW216599   1.089   0.225   4.624 -1.1386  0.3895 -0.0351
 1655SOL     OW16600   3.162   1.800   0.355 -0.4209 -0.1177 -0.1421
 1655SOL    HW116601   3.221   1.841   0.292  2.2198 -0.9295  1.8253
 1655SOL    HW216602   3.161   1.713   0.315  0.8381 -0.7490  1.2615
 1656SOL     OW16603   3.614   0.050  15.881 -0.0080  0.4928  0.1918
 1656SOL    HW116604   3.553   4.717  15.851  1.5385 -0.9695  0.3720
 1656SOL    HW216605   3.625   0.019  15.971 -2.8882 -0.6254  0.1512
 1657SOL     OW16606   0.535   2.482   9.471 -0.1892  0.0703 -0.1804
 1657SOL    HW116607   0.478   2.413   9.434 -0.4375 -0.7674  1.7785
 1657SOL    HW216608   0.468   2.502   9.537 -0.0660  0.4403 -0.1730
 1658SOL     OW16609   3.061   3.677   4.851  0.5927  0.3918 -0.4345
 1658SOL    HW116610   2.970   3.674   4.822  0.8887  0.2678 -1.3559
 1658SOL    HW216611   3.065   3.603   4.912  2.6788  0.0829 -0.9588
 1659SOL     OW16612   3.102   3.839   1.056 -0.2910 -0.1585 -0.1331
 1659SOL    HW116613   3.094   3.872   0.967 -0.2825  2.8641  0.9919
 1659SOL    HW216614   3.057   3.907   1.106  0.7911  0.7011 -0.3130
 1660SOL     OW16615   1.531   1.420   5.941  0.3273  0.0681 -0.3813
 1660SOL    HW116616   1.554   1.484   6.008 -1.9989 -0.9650  1.4295
 1660SOL    HW216617   1.614   1.372   5.944  0.7133  0.8566  1.3224
 1661SOL     OW16618   0.659   0.997   3.275  0.6214 -0.1696  0.1732
 1661SOL    HW116619   0.677   0.916   3.227 -0.5696 -0.3601  0.0412
 1661SOL    HW216620   0.746   1.008   3.313  1.0310  3.6307 -1.9033
 1662SOL     OW16621   3.928   2.764   4.220 -0.2270 -0.4129  0.1286
 1662SOL    HW116622   3.857   2.812   4.177  0.7456 -0.2376 -1.2894
 1662SOL    HW216623   3.896   2.739   4.306 -1.6997 -1.8534 -0.8315
 1663SOL     OW16624   3.100   3.874   3.054  0.5527  0.2604  0.5479
 1663SOL    HW116625   3.092   3.872   2.959 -0.3204  1.3527  0.5991
 1663SOL    HW216626   3.014   3.905   3.082  0.0999 -0.6087  0.1088
 1664SOL     OW16627   2.894   4.676   4.155 -0.0113 -0.8133 -0.0630
 1664SOL    HW116628   2.817   4.676   4.099 -1.4198  0.9325  1.8981
 1664SOL    HW216629   2.959   4.632   4.099  0.4196  0.7075 -0.7540
 1665SOL     OW16630   2.589   0.677   8.069 -0.0778 -0.1137  0.1275
 1665SOL    HW116631   2.651   0.738   8.109 -1.2801  0.1961  1.5545
 1665SOL    HW216632   2.554   0.735   8.001 -1.3100 -3.4964 -2.0615
 1666SOL     OW16633   0.561   3.011   6.913 -0.0604  0.1445  0.1358
 1666SOL    HW116634   0.501   2.946   6.876  0.0197  1.4666 -2.3396
 1666SOL    HW216635   0.512   3.091   6.896  0.1897  0.1098 -0.7747
 1667SOL     OW16636   3.523   1.843   9.561 -0.5801 -0.8354 -0.2680
 1667SOL    HW116637   3.613   1.825   9.536  0.2401 -0.2429  2.2532
 1667SOL    HW216638   3.495   1.910   9.499  0.4541  0.4482  0.6513
 1668SOL     OW16639   1.141   0.180   5.106 -0.0083 -0.0379  0.2508
 1668SOL    HW116640   1.108   0.091   5.101  2.1907 -0.7714 -1.0573
 1668SOL    HW216641   1.140   0.188   5.202 -2.0732 -1.9266  0.3797
 1669SOL     OW16642   4.385   0.388  11.347  0.6981  0.0501 -0.0126
 1669SOL    HW116643   4.328   0.418  11.276  1.9918 -1.4548 -1.7002
 1669SOL    HW216644   4.439   0.323  11.301 -0.2201 -0.8008  0.0852
 1670SOL     OW16645   1.987   3.586   6.881 -0.5039  0.1557 -0.0476
 1670SOL    HW116646   1.943   3.651   6.826 -0.8871 -0.0466  0.0191
 1670SOL    HW216647   2.009   3.637   6.959 -1.2489  0.0182  0.2515
 1671SOL     OW16648   3.132   4.708   1.419 -0.1214 -0.1409  0.3274
 1671SOL    HW116649   3.146   4.722   1.513  2.1810 -0.4676  0.0281
 1671SOL    HW216650   3.209   4.668   1.378  0.2289  0.1210  0.7271
 1672SOL     OW16651   3.499   3.159   6.695  0.0579  0.0879  0.4306
 1672SOL    HW116652   3.491   3.246   6.734 -1.2753  0.4684 -0.6881
 1672SOL    HW216653   3.430   3.120   6.749  0.0326 -0.1174  0.2495
 1673SOL     OW16654   3.895   3.746  13.192  0.3294 -0.3022  0.1432
 1673SOL    HW116655   3.837   3.785  13.127 -1.4221 -0.0974  1.8275
 1673SOL    HW216656   3.848   3.752  13.275 -0.0285 -0.5373 -0.0442
 1674SOL     OW16657   4.176   2.625   5.513  0.5567 -0.4723  0.6530
 1674SOL    HW116658   4.097   2.679   5.505 -1.5845 -4.0835 -2.8058
 1674SOL    HW216659   4.141   2.542   5.545  0.9494 -0.6778  0.5459
 1675SOL     OW16660   0.547   3.359   9.557 -0.5048  0.3517 -0.1088
 1675SOL    HW116661   0.617   3.323   9.503 -1.2474 -0.6077 -0.4320
 1675SOL    HW216662   0.581   3.448   9.566  3.3639 -1.3130  1.5294
 1676SOL     OW16663   3.992   3.383   2.328 -0.1766 -0.6561 -0.0999
 1676SOL    HW116664   3.904   3.400   2.297  0.2403  0.6320 -0.5605
 1676SOL    HW216665   3.989   3.454   2.392  0.9203 -1.7253  1.1564
 1677SOL     OW16666   4.371   0.952   6.536  0.2639  0.5498 -0.0426
 1677SOL    HW116667   4.407   0.939   6.624 -0.2979 -0.5021  0.0333
 1677SOL    HW216668   4.277   0.942   6.553 -0.4383  1.3905 -3.3719
 1678SOL     OW16669   2.217   2.644   5.439  0.8111  0.7766 -0.5174
 1678SOL    HW116670   2.258   2.730   5.433 -1.2171  1.8891  1.4663
 1678SOL    HW216671   2.263   2.584   5.380 -2.6202 -0.7174 -1.7004
 1679SOL     OW16672   4.316   1.469   8.457 -0.2251 -0.2100 -0.6370
 1679SOL    HW116673   4.220   1.472   8.450 -0.4055 -0.9318  1.4056
 1679SOL    HW216674   4.310   1.473   8.552  0.8727 -1.3909 -0.5198
 1680SOL     OW16675   2.350   3.518   6.955 -1.0694 -0.5283  0.3406
 1680SOL    HW116676   2.367   3.450   6.890  2.5445  0.8484 -0.1356
 1680SOL    HW216677   2.314   3.588   6.900 -0.5348  0.7341  1.5780
 1681SOL     OW16678   2.777   4.291   5.808  0.3421  0.2593  0.8067
 1681SOL    HW116679   2.814   4.206   5.832  1.9977  0.3350 -1.4147
 1681SOL    HW216680   2.802   4.295   5.716 -1.2111  1.4349  0.4537
 1682SOL     OW16681   2.321   0.157   5.818 -0.9421  0.0615 -0.0210
 1682SOL    HW116682   2.390   0.186   5.877  0.1283 -0.4097 -1.0346
 1682SOL    HW216683   2.344   0.200   5.736 -1.7272 -0.4470 -0.5139
 1683SOL     OW16684   0.957   1.142   5.016  0.5136  0.5651 -0.6967
 1683SOL    HW116685   1.037   1.183   5.048 -0.3007  0.5468  1.3428
 1683SOL    HW216686   0.892   1.156   5.085  1.8359 -0.6673  0.7802
 1684SOL     OW16687   1.784   3.201   8.853  0.6041 -0.4738 -0.4019
 1684SOL    HW116688   1.794   3.257   8.930 -1.8292 -0.0806 -0.3845
 1684SOL    HW216689   1.700   3.157   8.865  0.0545  0.5102 -0.5753
 1685SOL     OW16690   0.223   0.099   8.108 -0.1822 -0.2755 -0.5168
 1685SOL    HW116691   0.274   0.165   8.155  0.6352 -0.9326 -0.5003
 1685SOL    HW216692   0.285   0.072   8.041  0.9132  0.8842  0.0357
 1686SOL     OW16693   3.459   3.146   8.214  0.3644 -0.4409  0.3149
 1686SOL    HW116694   3.393   3.076   8.210  0.0229 -0.2780  3.2973
 1686SOL    HW216695   3.500   3.132   8.299 -0.5076 -2.6275  0.3976
 1687SOL     OW16696   1.316   3.347  17.431  0.6938  0.0790 -0.1533
 1687SOL    HW116697   1.237   3.376  17.476  0.3606 -1.0767  0.0087
 1687SOL    HW216698   1.379   3.377  17.496  1.8881  1.8191 -2.1006
 1688SOL     OW16699   2.962   1.658   4.005 -0.4646  0.4745  0.3497
 1688SOL    HW116700   2.919   1.594   3.948  1.1089  0.1379 -0.4852
 1688SOL    HW216701   3.044   1.609   4.012 -0.1670  0.8659 -0.3553
 1689SOL     OW16702   0.672   2.095  17.153 -0.6494 -0.3041  0.1123
 1689SOL    HW116703   0.581   2.093  17.183 -0.6161 -2.8499 -0.0116
 1689SOL    HW216704   0.688   2.190  17.151  0.8973 -0.5621  0.3747
 1690SOL     OW16705   1.345   0.000   2.069 -0.3803  0.0059 -0.1687
 1690SOL    HW116706   1.410   0.054   2.114  0.0691 -1.9463  1.5244
 1690SOL    HW216707   1.318   4.686   2.147  1.8375 -0.2449  0.4406
 1691SOL     OW16708   0.711   0.798   4.628  0.1615 -0.0608 -0.1091
 1691SOL    HW116709   0.668   0.784   4.543  0.4836  0.4694 -0.3562
 1691SOL    HW216710   0.785   0.849   4.595  0.2438 -0.7612 -1.0210
 1692SOL     OW16711   4.354   0.541   5.848  0.3773  0.1857 -0.1316
 1692SOL    HW116712   4.333   0.623   5.802  2.4428 -0.1638 -1.7441
 1692SOL    HW216713   4.275   0.518   5.897  0.6407  1.5253  0.9145
 1693SOL     OW16714   2.155   1.244   6.258 -0.5901  0.5335  0.6991
 1693SOL    HW116715   2.234   1.298   6.266 -0.6411  1.0142 -1.8781
 1693SOL    HW216716   2.171   1.187   6.183  1.6706  1.8265  0.1954
 1694SOL     OW16717   3.723   1.914   7.760 -0.0487  0.4573  0.6379
 1694SOL    HW116718   3.789   1.964   7.712  0.6963  1.6108  2.8731
 1694SOL    HW216719   3.655   1.901   7.693  0.0682 -2.1236  1.0190
 1695SOL     OW16720   1.639   2.199   6.183 -0.0745  0.0576 -0.1473
 1695SOL    HW116721   1.599   2.180   6.268 -1.4429 -1.5478 -1.1559
 1695SOL    HW216722   1.731   2.214   6.207  0.8654 -2.9508 -1.8532
 1696SOL     OW16723   0.077   3.491  10.012 -0.2935  0.0211 -0.2684
 1696SOL    HW116724   0.146   3.557  10.009  1.4384 -1.7922 -0.1576
 1696SOL    HW216725   0.014   3.527  10.075 -0.3690  0.1658 -0.4279
 1697SOL     OW16726   0.397   4.135   0.313 -0.3676  0.0579 -0.2832
 1697SOL    HW116727   0.450   4.186   0.253  0.6554 -2.9222 -1.9253
 1697SOL    HW216728   0.323   4.116   0.255 -1.3343  0.6084  0.7585
 1698SOL     OW16729   1.719   1.493  13.178 -1.0266  0.2035  0.5662
 1698SOL    HW116730   1.718   1.532  13.091 -0.2688 -0.0769  0.4309
 1698SOL    HW216731   1.658   1.419  13.170 -0.1718 -0.1837 -2.1159
 1699SOL     OW16732   1.611   1.713  12.339 -0.2080 -0.4726  0.3375
 1699SOL    HW116733   1.635   1.664  12.418 -3.6375 -0.0084  1.6512
 1699SOL    HW216734   1.690   1.766  12.324 -1.6179  2.4975  3.4311
 1700SOL     OW16735   1.593   1.573  12.568  0.4470  0.4054 -0.3177
 1700SOL    HW116736   1.617   1.499  12.623 -0.0970  0.9483  0.6487
 1700SOL    HW216737   1.507   1.596  12.604  0.5500 -3.3447  2.2980
 1701SOL     OW16738   3.919   3.983   6.502 -0.3401  0.0196  0.2314
 1701SOL    HW116739   3.900   3.890   6.491 -0.1845  0.0436 -0.2432
 1701SOL    HW216740   3.854   4.004   6.568  2.9128 -0.4333  3.5778
 1702SOL     OW16741   0.937   3.705   1.068 -0.5954 -0.2627 -0.0837
 1702SOL    HW116742   0.937   3.701   0.973  0.7167 -0.4759 -0.0724
 1702SOL    HW216743   0.952   3.614   1.093  0.7822  0.9417  3.4428
 1703SOL     OW16744   0.103   4.333  15.893  0.2715  0.0865  0.1025
 1703SOL    HW116745   0.058   4.346  15.810 -1.3282 -0.6238  0.8626
 1703SOL    HW216746   0.078   4.243  15.914  0.0898 -0.2808 -1.7139
 1704SOL     OW16747   1.759   1.976   2.363 -0.9608 -0.2772  0.0680
 1704SOL    HW116748   1.839   1.930   2.390 -0.1374  0.0429 -1.8084
 1704SOL    HW216749   1.809   2.052   2.332  0.2076 -0.4524  1.5139
 1705SOL     OW16750   4.464   0.168  16.876 -0.2479 -0.7245  0.2102
 1705SOL    HW116751   4.384   0.214  16.899 -0.7124 -0.4943 -1.8712
 1705SOL    HW216752   4.442   0.083  16.914 -0.6340 -0.7105  0.0149
 1706SOL     OW16753   1.536   3.369  12.670  0.0815 -0.7641  0.0391
 1706SOL    HW116754   1.619   3.323  12.668  0.5357  0.1277 -1.5679
 1706SOL    HW216755   1.470   3.301  12.653  1.1312 -1.2043 -2.2483
 1707SOL     OW16756   2.214   0.109   4.143 -0.0588 -0.7834 -0.4795
 1707SOL    HW116757   2.243   0.047   4.209  0.2172 -1.0694 -0.8667
 1707SOL    HW216758   2.253   0.189   4.178  0.4808 -0.5668 -1.5488
 1708SOL     OW16759   4.399   3.419  17.024 -0.1514  0.2598  0.0362
 1708SOL    HW116760   4.354   3.401  17.107  0.6011  0.4916  0.4876
 1708SOL    HW216761   4.416   3.513  17.018 -1.4104  0.4888  0.0317
 1709SOL     OW16762   3.651   4.057   3.649 -0.0235 -0.0588 -0.0663
 1709SOL    HW116763   3.691   3.980   3.690  0.1405 -0.4889 -1.0092
 1709SOL    HW216764   3.590   4.086   3.716 -1.1398 -0.4454 -0.9157
 1710SOL     OW16765   0.840   0.326   9.418 -0.0120 -0.2960  0.4346
 1710SOL    HW116766   0.766   0.271   9.443  0.8974 -0.4247  2.7840
 1710SOL    HW216767   0.826   0.409   9.464 -0.0816  0.7346 -1.4516
 1711SOL     OW16768   3.105   4.379   0.068 -0.7354  0.2356 -0.1637
 1711SOL    HW116769   3.048   4.302   0.070 -1.2487  0.5171 -3.7205
 1711SOL    HW216770   3.066   4.423   0.144 -3.1316 -0.2986 -1.0617
 1712SOL     OW16771   3.807   1.107   3.084 -0.0524 -0.2560 -0.3015
 1712SOL    HW116772   3.813   1.176   3.017 -1.4481  1.0320  0.8887
 1712SOL    HW216773   3.733   1.138   3.137 -0.5942  0.2732 -1.3604
 1713SOL     OW16774   4.641   3.791   7.990 -0.3230 -0.1835 -0.1969
 1713SOL    HW116775   4.621   3.717   8.048  1.2255  1.3019  2.2338
 1713SOL    HW216776   0.001   3.807   7.993 -0.0035 -1.8639 -1.2473
 1714SOL     OW16777   0.597   0.076  15.777  0.1140  0.4061  0.2231
 1714SOL    HW116778   0.637   0.160  15.756 -0.8757  1.0054  0.7070
 1714SOL    HW216779   0.663   0.015  15.744 -2.0276 -1.2307 -1.0299
 1715SOL     OW16780   3.648   2.689  14.225 -0.2051 -0.4004  0.0114
 1715SOL    HW116781   3.592   2.732  14.289 -0.9898 -0.9328 -0.3119
 1715SOL    HW216782   3.730   2.667  14.269  0.1236 -0.2404 -0.5321
 1716SOL     OW16783   4.386   2.905   1.999  0.2560 -0.2117  0.1213
 1716SOL    HW116784   4.374   2.987   2.048  1.0145  0.1870 -0.3553
 1716SOL    HW216785   4.414   2.842   2.066  1.8450 -1.5386 -1.7808
 1717SOL     OW16786   1.105   3.246   4.241  0.1533 -0.0796  0.4535
 1717SOL    HW116787   1.086   3.291   4.323 -2.6403 -0.7855  0.1949
 1717SOL    HW216788   1.198   3.268   4.231  0.4064 -1.8226 -1.0435
 1718SOL     OW16789   2.646   1.539   8.105 -0.2095  0.2112 -0.8264
 1718SOL    HW116790   2.610   1.628   8.106  0.5322  0.5084 -0.5789
 1718SOL    HW216791   2.581   1.481   8.064 -0.2221 -2.0532  2.4433
 1719SOL     OW16792   1.172   1.042   3.112 -0.4839  0.9544 -0.2384
 1719SOL    HW116793   1.086   1.005   3.092 -0.2004 -0.1960  0.7246
 1719SOL    HW216794   1.148   1.133   3.130 -1.3104  0.5126  0.8488
 1720SOL     OW16795   0.968   4.517   7.294 -0.1847 -0.3740 -0.5879
 1720SOL    HW116796   0.977   4.570   7.215 -0.4793 -0.4714 -0.6859
 1720SOL    HW216797   0.927   4.434   7.269  1.1153 -1.7239  1.7109
 1721SOL     OW16798   4.108   1.121   7.294 -0.2034  0.1118 -0.8045
 1721SOL    HW116799   4.059   1.072   7.228 -0.0746 -1.2129  0.0707
 1721SOL    HW216800   4.193   1.083   7.274 -0.6781 -1.7787  0.8036
 1722SOL     OW16801   4.056   2.503   7.529  0.2170 -0.1025  0.4681
 1722SOL    HW116802   4.136   2.553   7.544  0.5617 -1.1429  2.2046
 1722SOL    HW216803   3.997   2.545   7.591  1.2369 -0.1773  1.4858
 1723SOL     OW16804   0.095   2.711   6.354  0.1344  0.2747 -0.2243
 1723SOL    HW116805   0.105   2.789   6.408  1.1892 -0.7607  1.0683
 1723SOL    HW216806   0.130   2.743   6.271  1.0335 -0.0478  0.0223
 1724SOL     OW16807   0.103   3.464  16.897 -0.8455  0.4504 -0.0919
 1724SOL    HW116808   0.038   3.395  16.881 -1.0008  0.7064 -0.5626
 1724SOL    HW216809   0.148   3.427  16.973 -2.7633  0.9616  1.2925
 1725SOL     OW16810   3.823   3.166   6.152  0.5707 -0.0550 -0.3231
 1725SOL    HW116811   3.819   3.208   6.238 -1.5174 -1.0066  0.0409
 1725SOL    HW216812   3.890   3.102   6.176 -1.6348 -2.1870  0.1978
 1726SOL     OW16813   0.596   2.908   1.507  0.4200 -0.5808  0.3080
 1726SOL    HW116814   0.585   2.979   1.570  0.5743  0.5494 -0.9314
 1726SOL    HW216815   0.506   2.904   1.475  0.2049  0.9447  0.7136
 1727SOL     OW16816   0.149   1.880   5.863 -0.0398 -0.4581 -0.0922
 1727SOL    HW116817   0.139   1.866   5.958 -0.7139 -1.2002 -0.2691
 1727SOL    HW216818   0.075   1.834   5.824 -1.5166 -0.2377  2.3960
 1728SOL     OW16819   4.592   3.582   8.121  0.7883 -0.1641  0.5826
 1728SOL    HW116820   4.565   3.560   8.210 -1.0452  2.5685  0.6839
 1728SOL    HW216821   4.640   3.501   8.100  1.4697  0.0274  1.3964
 1729SOL     OW16822   1.789   1.715   8.341 -0.3536  0.1669  0.4072
 1729SOL    HW116823   1.771   1.766   8.420  1.1542  1.5952 -0.1494
 1729SOL    HW216824   1.722   1.743   8.280 -1.2513 -0.0430  1.3055
 1730SOL     OW16825   0.065   0.532  16.834 -0.4132 -0.0345 -0.2724
 1730SOL    HW116826   0.120   0.606  16.860  0.2576 -0.4359 -0.5582
 1730SOL    HW216827   0.071   0.481  16.914 -0.7327  0.8373  0.3028
 1731SOL     OW16828   0.532   0.697  13.770 -0.0273 -0.2788  0.2630
 1731SOL    HW116829   0.568   0.785  13.770 -1.1698  0.1928 -0.5315
 1731SOL    HW216830   0.538   0.687  13.675 -0.0734  1.1961  0.1145
 1732SOL     OW16831   0.251   2.537   3.400  0.0368  0.4007 -0.3697
 1732SOL    HW116832   0.229   2.585   3.321  0.4272  0.2359 -0.5790
 1732SOL    HW216833   0.311   2.470   3.368 -0.0465  0.7224 -1.2079
 1733SOL     OW16834   0.195   2.086   2.406 -0.7907  0.2020  1.1208
 1733SOL    HW116835   0.147   2.102   2.488 -1.8654  1.1152  0.3127
 1733SOL    HW216836   0.249   2.016   2.442  0.1497  0.1636 -0.3732
 1734SOL     OW16837   4.445   2.566   2.463  0.2059 -0.5979 -0.0231
 1734SOL    HW116838   4.468   2.490   2.517  0.6035 -1.8177 -1.8996
 1734SOL    HW216839   4.398   2.519   2.393 -2.4052 -0.0287  1.3335
 1735SOL     OW16840   4.156   2.609   8.284 -0.4099 -0.7342 -0.3123
 1735SOL    HW116841   4.065   2.612   8.316  0.5302 -1.4208  2.4256
 1735SOL    HW216842   4.199   2.678   8.334  1.9814 -0.2256 -3.1230
 1736SOL     OW16843   3.369   0.680   4.436  0.2840 -0.1141 -0.3741
 1736SOL    HW116844   3.363   0.584   4.441 -1.4428 -0.0730 -1.6431
 1736SOL    HW216845   3.300   0.696   4.372  0.7805 -0.4830 -0.9927
 1737SOL     OW16846   1.741   2.604  16.250 -0.4300 -0.3513 -0.6411
 1737SOL    HW116847   1.759   2.698  16.244 -2.1314  0.0270  0.2978
 1737SOL    HW216848   1.699   2.587  16.166 -0.4786  0.5542 -0.7970
 1738SOL     OW16849   3.149   0.312   3.942 -0.1109  0.1501 -0.1371
 1738SOL    HW116850   3.113   0.329   4.030  1.4578  0.7736  0.3768
 1738SOL    HW216851   3.244   0.319   3.952  0.1153 -3.1738  0.0057
 1739SOL     OW16852   3.906   0.299   5.022 -0.2380  0.1779  0.0005
 1739SOL    HW116853   3.977   0.290   4.959 -0.1071 -0.7801  0.2797
 1739SOL    HW216854   3.946   0.336   5.100 -0.7933 -0.3561  0.5437
 1740SOL     OW16855   3.599   2.852   9.562 -0.4787  0.8395  0.0409
 1740SOL    HW116856   3.660   2.779   9.553 -0.4276  1.0085 -0.9661
 1740SOL    HW216857   3.521   2.797   9.567 -0.0451 -0.0358 -2.6460
 1741SOL     OW16858   1.631   1.837   8.154 -0.3351  0.1669  0.2056
 1741SOL    HW116859   1.594   1.825   8.067  1.3139  3.0491 -0.9031
 1741SOL    HW216860   1.638   1.933   8.161 -0.7978  0.3003 -1.1657
 1742SOL     OW16861   3.095   2.432   8.478 -0.0053 -0.0303  0.0165
 1742SOL    HW116862   3.045   2.505   8.514  0.5514  0.8951 -1.1045
 1742SOL    HW216863   3.082   2.430   8.383 -0.1863 -0.4808  0.0446
 1743SOL     OW16864   3.601   2.524   8.005  0.3898  0.4168 -1.1667
 1743SOL    HW116865   3.680   2.560   7.963  0.1721 -0.2960 -2.1858
 1743SOL    HW216866   3.634   2.437   8.029 -0.6049  0.4945  0.4408
 1744SOL     OW16867   4.192   1.120   4.266 -0.4004  0.2546  0.3503
 1744SOL    HW116868   4.162   1.178   4.195  1.7290 -1.6264 -2.0893
 1744SOL    HW216869   4.283   1.147   4.276 -0.7549  1.4658  0.4209
 1745SOL     OW16870   0.943   0.915   8.770 -0.5774  0.0448  0.5215
 1745SOL    HW116871   0.877   0.860   8.727 -0.6469 -1.3716  2.3999
 1745SOL    HW216872   1.013   0.912   8.704  0.8234  0.4810  1.9858
 1746SOL     OW16873   0.503   2.951   8.940  0.2251  0.3165 -0.4067
 1746SOL    HW116874   0.544   2.905   9.013  1.2972 -0.0196 -1.2108
 1746SOL    HW216875   0.507   3.040   8.974  3.1955  0.6059 -1.5017
 1747SOL     OW16876   4.008   2.806  17.708  0.2006  0.1655 -0.3351
 1747SOL    HW116877   3.945   2.771   0.035  1.3144  0.2983  0.8415
 1747SOL    HW216878   4.087   2.821   0.024 -0.1772  0.3344  0.1807
 1748SOL     OW16879   3.597   3.760  17.510 -0.0411  0.2803 -0.3575
 1748SOL    HW116880   3.679   3.784  17.466 -0.0307  0.8993  0.0030
 1748SOL    HW216881   3.602   3.829  17.576 -0.2459 -0.2050  0.1655
 1749SOL     OW16882   0.722   2.510  12.718 -0.1665  0.3678 -0.2489
 1749SOL    HW116883   0.694   2.526  12.808  2.5896 -0.2602  0.7062
 1749SOL    HW216884   0.753   2.596  12.690 -0.2836 -0.3978 -2.7879
 1750SOL     OW16885   0.359   0.308  12.962 -0.2319 -0.3693 -0.3956
 1750SOL    HW116886   0.416   0.306  12.884 -1.0227 -1.7945 -0.9434
 1750SOL    HW216887   0.279   0.277  12.920 -0.9383  0.7098  0.1753
 1751SOL     OW16888   2.683   2.414   8.455  1.4891  0.6939 -0.6007
 1751SOL    HW116889   2.717   2.500   8.429  3.1778  0.0058 -0.6295
 1751SOL    HW216890   2.711   2.357   8.384  0.4876 -0.1557 -0.3173
 1752SOL     OW16891   2.497   1.209   4.427 -0.0786 -0.9465 -0.3248
 1752SOL    HW116892   2.590   1.213   4.407 -0.1503  2.1170  0.0008
 1752SOL    HW216893   2.469   1.141   4.366 -0.3125 -1.2741  0.1497
 1753SOL     OW16894   2.737   4.653   7.939  0.4858  0.4614  0.0472
 1753SOL    HW116895   2.754   4.604   8.020 -0.0381 -0.1122 -0.1895
 1753SOL    HW216896   2.650   4.690   7.955  0.2026  0.4071 -1.3555
 1754SOL     OW16897   2.397   4.074   9.984 -0.1999 -0.1766 -0.7556
 1754SOL    HW116898   2.323   4.049  10.039 -0.5903  0.9296 -0.7648
 1754SOL    HW216899   2.428   3.986   9.966  0.8054  0.0644 -0.2036
 1755SOL     OW16900   3.757   4.460   4.229 -0.4964  0.2396 -0.3216
 1755SOL    HW116901   3.820   4.449   4.157 -1.5727 -0.4337 -1.1657
 1755SOL    HW216902   3.773   4.384   4.285  1.0773  0.4457 -0.4748
 1756SOL     OW16903   1.107   0.190  12.051  0.0511 -0.1297 -0.1922
 1756SOL    HW116904   1.123   0.241  12.130  0.7306  0.9924 -1.0611
 1756SOL    HW216905   1.013   0.207  12.047  0.2165  0.6624 -0.6484
 1757SOL     OW16906   3.294   1.017   7.155  0.7742  0.0541  0.1386
 1757SOL    HW116907   3.268   1.108   7.164  0.6876  0.0356  0.0725
 1757SOL    HW216908   3.208   0.977   7.170  1.6289 -0.8316  2.7727
 1758SOL     OW16909   2.737   1.743   4.738  0.4280 -0.2502 -0.0462
 1758SOL    HW116910   2.793   1.816   4.710 -0.8098 -0.1114 -2.2169
 1758SOL    HW216911   2.689   1.725   4.657  0.0051  0.3678  0.0670
 1759SOL     OW16912   2.279   1.190   6.905 -0.0329 -0.0444 -0.3446
 1759SOL    HW116913   2.259   1.139   6.983  1.2838 -2.8827 -1.8782
 1759SOL    HW216914   2.241   1.136   6.835 -0.0633 -0.4078 -0.0494
 1760SOL     OW16915   3.387   2.862   6.154 -0.2319  0.1531 -0.1638
 1760SOL    HW116916   3.434   2.783   6.128 -0.3996  0.1199 -0.3674
 1760SOL    HW216917   3.322   2.861   6.084 -1.2207 -0.5565  0.7716
 1761SOL     OW16918   0.323   4.287   0.527 -0.0998  0.5552 -0.1414
 1761SOL    HW116919   0.350   4.256   0.441 -3.7156  1.0355 -1.4423
 1761SOL    HW216920   0.241   4.240   0.539 -1.3316  3.1645  1.8403
 1762SOL     OW16921   1.163   4.604   7.573 -0.0281  0.1501 -0.1845
 1762SOL    HW116922   1.069   4.588   7.570 -0.2363  1.6476 -1.7273
 1762SOL    HW216923   1.169   4.698   7.587  0.5440  0.0649  0.1554
 1763SOL     OW16924   3.042   3.239   9.522  0.1426 -0.1403 -0.1286
 1763SOL    HW116925   3.083   3.168   9.473  0.9029  1.5882 -1.9649
 1763SOL    HW216926   2.957   3.217   9.484 -0.5432 -0.0489  1.3418
 1764SOL     OW16927   1.343   0.876   9.466  0.5826 -0.7920 -0.6980
 1764SOL    HW116928   1.383   0.791   9.446 -0.6286 -1.7827  1.0738
 1764SOL    HW216929   1.322   0.914   9.381  1.5438  0.8661 -0.2083
 1765SOL     OW16930   2.628   3.999   2.144  0.3601  0.4568 -0.0253
 1765SOL    HW116931   2.549   4.047   2.169 -0.1968 -1.5441  2.0287
 1765SOL    HW216932   2.592   3.913   2.163 -0.4993  0.7758 -0.1938
 1766SOL     OW16933   2.252   1.599   2.815  0.8175  0.2498  0.2963
 1766SOL    HW116934   2.311   1.555   2.755  1.3486  2.6584 -0.9441
 1766SOL    HW216935   2.270   1.690   2.792 -1.2236  0.6124  0.0575
 1767SOL     OW16936   3.365   3.153   8.841 -0.1348  0.4063 -0.3188
 1767SOL    HW116937   3.442   3.207   8.858  0.1897 -0.0151 -0.4690
 1767SOL    HW216938   3.392   3.085   8.903 -3.0915  0.9594  1.5829
 1768SOL     OW16939   2.418   3.841   6.528 -0.2012  0.0683 -0.4601
 1768SOL    HW116940   2.410   3.937   6.529 -0.2713  0.0440  1.7171
 1768SOL    HW216941   2.323   3.827   6.526 -0.3448  0.9244  0.1992
 1769SOL     OW16942   1.268   2.770   9.651 -0.2414 -0.4856  0.0329
 1769SOL    HW116943   1.220   2.698   9.692  1.4865 -0.6247  1.7938
 1769SOL    HW216944   1.272   2.824   9.730 -0.1647 -0.2866 -0.1068
 1770SOL     OW16945   0.962   2.219   4.085 -0.6859  0.1132  0.3000
 1770SOL    HW116946   0.963   2.240   3.992 -0.1374 -3.8348 -0.6108
 1770SOL    HW216947   0.992   2.128   4.086  0.6903  0.5462 -1.3597
 1771SOL     OW16948   3.060   1.138   0.825  0.1864 -0.3236 -0.0862
 1771SOL    HW116949   3.135   1.191   0.850 -1.2849  1.6580  0.1907
 1771SOL    HW216950   2.995   1.208   0.828 -1.0959 -1.5129 -0.0346
 1772SOL     OW16951   2.070   0.051   5.114 -0.0696  0.0241  0.2133
 1772SOL    HW116952   2.051   4.692   5.114  0.8255 -0.1560  0.1572
 1772SOL    HW216953   2.151   0.057   5.063  0.8612  0.2769  1.7391
 1773SOL     OW16954   0.066   0.401   4.590 -0.7355 -0.1098  0.7529
 1773SOL    HW116955   0.149   0.411   4.542 -2.2188  1.4298 -1.4413
 1773SOL    HW216956   0.032   0.325   4.542  0.7605 -1.6042  2.0235
 1774SOL     OW16957   1.732   0.652   9.538  0.8740 -0.3590 -0.2853
 1774SOL    HW116958   1.695   0.676   9.623  1.4887  0.5428 -0.2726
 1774SOL    HW216959   1.770   0.567   9.562 -2.7262 -0.9118  3.5478
 1775SOL     OW16960   2.523   1.323   5.996 -0.4555  0.0558  0.3555
 1775SOL    HW116961   2.522   1.323   5.900  1.4549 -1.8916  0.3493
 1775SOL    HW216962   2.579   1.247   6.012  0.3566  0.4996 -0.4224
 1776SOL     OW16963   0.671   0.929  13.802 -0.3637  0.0699  0.0635
 1776SOL    HW116964   0.737   0.994  13.825 -1.3148  0.8060  0.7297
 1776SOL    HW216965   0.632   0.968  13.723 -1.7495  0.8489  1.1311
 1777SOL     OW16966   4.359   2.474   8.130  0.1710  0.2998 -0.1592
 1777SOL    HW116967   4.400   2.398   8.171 -0.0222  0.0384 -0.4483
 1777SOL    HW216968   4.303   2.515   8.197  1.6367  2.4573 -0.2398
 1778SOL     OW16969   1.709   2.695   8.486 -0.1098 -0.4290 -0.1354
 1778SOL    HW116970   1.670   2.714   8.401 -2.0976 -0.5217  0.7754
 1778SOL    HW216971   1.678   2.606   8.502 -2.1693  0.1540 -0.9247
 1779SOL     OW16972   0.195   3.439  14.071 -0.1677 -0.0174 -0.9950
 1779SOL    HW116973   0.116   3.398  14.037  0.0078 -0.8745 -0.3572
 1779SOL    HW216974   0.194   3.425  14.166  0.7583 -0.5810 -1.0685
 1780SOL     OW16975   1.798   1.254  12.937 -0.2066 -0.1500 -0.4036
 1780SOL    HW116976   1.810   1.225  13.027 -0.1799  2.5530  0.4633
 1780SOL    HW216977   1.812   1.177  12.881  2.7309  0.5810 -0.7033
 1781SOL     OW16978   4.178   1.661   4.523  0.3358  0.5923  0.0632
 1781SOL    HW116979   4.241   1.602   4.482 -0.8029  1.0284 -2.3303
 1781SOL    HW216980   4.103   1.652   4.464  0.5028  0.8539 -0.1906
 1782SOL     OW16981   1.069   4.019   9.910 -0.2770  0.0071  0.1435
 1782SOL    HW116982   1.005   3.949   9.921  1.3445 -1.1636  2.0947
 1782SOL    HW216983   1.075   4.037  10.004 -0.0935 -0.2245  0.1736
 1783SOL     OW16984   0.163   2.215   5.120  0.4249  0.1679 -0.3924
 1783SOL    HW116985   0.109   2.136   5.112  0.5434 -0.0964  1.5516
 1783SOL    HW216986   0.150   2.234   5.212  0.0334  0.6818 -0.5594
 1784SOL     OW16987   1.113   4.723  14.859 -0.0803  0.1912  0.0091
 1784SOL    HW116988   1.065   0.069  14.844 -2.0326 -0.6737  1.5715
 1784SOL    HW216989   1.164   0.023  14.933 -0.9354 -0.7791  1.0642
 1785SOL     OW16990   4.184   2.755   3.648  0.5292  0.0718 -0.2684
 1785SOL    HW116991   4.125   2.692   3.605  0.1746  0.5692 -0.5156
 1785SOL    HW216992   4.191   2.826   3.584  2.7133  1.1356  1.1966
 1786SOL     OW16993   3.562   1.263   8.531 -0.5169 -0.3491 -0.9656
 1786SOL    HW116994   3.652   1.245   8.558 -0.1322  2.8655 -0.1179
 1786SOL    HW216995   3.520   1.185   8.568  1.2979 -2.5065 -3.5165
 1787SOL     OW16996   0.731   4.673   9.465  0.0382 -0.1237 -0.1032
 1787SOL    HW116997   0.723   4.613   9.391 -0.9519  0.9463 -0.8822
 1787SOL    HW216998   0.813   4.655   9.510 -0.0270 -0.1064  0.0216
 1788SOL     OW16999   2.841   1.321   8.829  0.4345  0.3809  0.2964
 1788SOL    HW117000   2.809   1.317   8.919  0.5187 -1.1027  0.2680
 1788SOL    HW217001   2.928   1.351   8.854  0.5678  0.0157  0.2702
 1789SOL     OW17002   2.924   3.820   5.179 -0.1919  0.1451  0.1047
 1789SOL    HW117003   2.966   3.751   5.231  1.3009  1.5428  0.7431
 1789SOL    HW217004   3.005   3.864   5.153 -0.8786  1.5714  0.4003
 1790SOL     OW17005   2.298   2.267   1.673 -0.4115  0.5146  0.1652
 1790SOL    HW117006   2.347   2.186   1.683  0.2957  0.6144 -2.6048
 1790SOL    HW217007   2.209   2.231   1.674 -0.9374  1.7638 -1.4685
 1791SOL     OW17008   2.266   2.836  17.216  0.3223  0.1444 -0.5213
 1791SOL    HW117009   2.289   2.919  17.175 -0.6127  0.5727 -0.1646
 1791SOL    HW217010   2.175   2.824  17.189 -0.6481 -0.5057  3.0492
 1792SOL     OW17011   0.677   1.471   8.076  0.5410  0.4875  0.0547
 1792SOL    HW117012   0.746   1.531   8.104  0.1042  0.0572  2.0665
 1792SOL    HW217013   0.604   1.531   8.065  0.3964  0.1403 -0.9174
 1793SOL     OW17014   2.327   0.848   3.650 -0.4830 -0.3319 -0.2790
 1793SOL    HW117015   2.232   0.861   3.643 -0.1547  1.8869 -0.5080
 1793SOL    HW217016   2.356   0.938   3.637 -0.8361 -0.4901 -2.0714
 1794SOL     OW17017   0.059   0.881   7.623  0.4125  0.2278  0.0145
 1794SOL    HW117018   4.732   0.952   7.641  1.9988  1.4152  0.7407
 1794SOL    HW217019   0.070   0.863   7.716  0.7771  1.4657  0.2075
 1795SOL     OW17020   1.814   4.002   8.299  0.2997 -0.1635  0.3364
 1795SOL    HW117021   1.805   3.907   8.292  2.6410 -0.3358 -0.2331
 1795SOL    HW217022   1.783   4.021   8.210 -0.8341 -1.0589  0.5336
 1796SOL     OW17023   4.167   0.296   2.175 -0.2003  0.4092 -0.1285
 1796SOL    HW117024   4.192   0.380   2.136 -0.7061 -1.1057 -3.7151
 1796SOL    HW217025   4.241   0.243   2.145 -1.7018 -2.1512  0.6862
 1797SOL     OW17026   3.217   4.349   8.871 -0.0649  0.2826  0.1413
 1797SOL    HW117027   3.271   4.395   8.807  2.5671 -0.6858  1.6686
 1797SOL    HW217028   3.274   4.273   8.884  1.1292  1.2690  0.7052
 1798SOL     OW17029   3.120   1.089   5.014 -0.2122  0.1743  0.1659
 1798SOL    HW117030   3.158   1.061   4.930 -0.0623 -1.9577  0.9338
 1798SOL    HW217031   3.110   1.183   4.998 -1.8498  0.0893  0.7195
 1799SOL     OW17032   2.914   1.467   4.281  0.8053  0.1466 -0.2636
 1799SOL    HW117033   2.944   1.420   4.358 -0.1744 -0.1298 -0.0490
 1799SOL    HW217034   2.993   1.514   4.255  0.4151  1.4657  0.9183
 1800SOL     OW17035   4.648   1.572   5.410 -0.1331 -0.2024  0.4694
 1800SOL    HW117036   4.578   1.634   5.391  0.5832  0.5509  0.2962
 1800SOL    HW217037   4.654   1.531   5.324  2.5098  3.7549 -1.2086
 1801SOL     OW17038   1.511   2.392   3.641  0.3908  0.4252 -0.3031
 1801SOL    HW117039   1.527   2.335   3.565 -1.2067  1.0165 -1.0836
 1801SOL    HW217040   1.576   2.365   3.705 -0.3283  0.0855  0.2921
 1802SOL     OW17041   2.753   1.335  10.504  0.0512  0.4591  0.1351
 1802SOL    HW117042   2.699   1.370  10.575  0.4070 -0.4885  0.8805
 1802SOL    HW217043   2.711   1.255  10.473 -0.0594  0.6705 -0.2554
 1803SOL     OW17044   1.567   3.838   8.024 -0.2520  0.6988  0.2405
 1803SOL    HW117045   1.574   3.824   8.118  0.9971 -0.0456  0.0397
 1803SOL    HW217046   1.478   3.815   7.998 -0.5256  1.6580  0.3343
 1804SOL     OW17047   1.972   0.672   7.841 -0.2440  0.3535  0.0637
 1804SOL    HW117048   2.035   0.735   7.876 -1.9340  1.7964  0.4958
 1804SOL    HW217049   1.983   0.587   7.884  1.4318  0.3611 -0.3243
 1805SOL     OW17050   2.840   0.886   4.357 -0.1003  0.8355  0.0346
 1805SOL    HW117051   2.904   0.922   4.418  0.1715 -0.2391  0.3911
 1805SOL    HW217052   2.784   0.958   4.329  1.3295  2.0018  0.2039
 1806SOL     OW17053   0.883   4.435   3.138  0.6084 -0.5054  0.1011
 1806SOL    HW117054   0.820   4.496   3.174  0.0702 -1.5231  0.8798
 1806SOL    HW217055   0.883   4.432   3.042  0.5647  1.5764  0.0389
 1807SOL     OW17056   0.524   3.061   7.706  0.1831 -0.4435 -0.6324
 1807SOL    HW117057   0.599   3.024   7.752 -0.7479 -0.6087  0.7138
 1807SOL    HW217058   0.447   3.034   7.756  0.5916 -0.7260 -0.1644
 1808SOL     OW17059   1.839   1.849   6.319 -0.2550  0.6990 -0.5998
 1808SOL    HW117060   1.755   1.825   6.280 -0.5118  0.4805  0.0738
 1808SOL    HW217061   1.881   1.769   6.350 -2.6250 -0.3045  0.0468
 1809SOL     OW17062   0.842   0.286   8.545 -0.4719 -0.6251 -0.0697
 1809SOL    HW117063   0.813   0.234   8.619 -0.1325 -1.1256 -0.2852
 1809SOL    HW217064   0.937   0.289   8.547 -0.4607 -0.6938 -0.3949
 1810SOL     OW17065   3.710   3.534   4.770 -0.5697  0.7265 -1.1141
 1810SOL    HW117066   3.636   3.554   4.828 -0.8148 -0.0806 -1.1374
 1810SOL    HW217067   3.772   3.576   4.830  0.2605 -0.4938 -1.1140
 1811SOL     OW17068   0.124   0.839   8.260 -1.0070  0.2811 -0.2469
 1811SOL    HW117069   0.096   0.910   8.203  1.1069 -1.3870 -3.3860
 1811SOL    HW217070   0.205   0.878   8.292 -0.9650 -0.2641  0.3224
 1812SOL     OW17071   4.450   4.538   1.072  0.1597 -0.1825 -0.5011
 1812SOL    HW117072   4.480   4.589   1.147 -0.0932 -0.0881 -0.4646
 1812SOL    HW217073   4.367   4.502   1.106  1.1444 -2.0357 -0.0508
 1813SOL     OW17074   2.598   0.690   9.066 -0.2337 -0.0799  0.7094
 1813SOL    HW117075   2.573   0.771   9.109 -1.0048 -1.5699  3.0703
 1813SOL    HW217076   2.693   0.692   9.080  0.2008  0.3922 -2.2809
 1814SOL     OW17077   2.426   2.241   2.923  0.7009 -0.6831  0.6161
 1814SOL    HW117078   2.511   2.226   2.882  0.9877  2.3137  0.0541
 1814SOL    HW217079   2.377   2.268   2.846  0.6417 -0.9456  0.5639
 1815SOL     OW17080   3.408   2.679   9.611  0.0483  0.1164  0.1721
 1815SOL    HW117081   3.454   2.600   9.580 -0.1762  0.0968 -0.1242
 1815SOL    HW217082   3.371   2.653   9.695 -0.7179 -0.8138 -0.4450
 1816SOL     OW17083   1.423   3.291   5.116 -0.0402  0.6029  0.1445
 1816SOL    HW117084   1.475   3.249   5.048 -1.6279 -2.1627  0.6155
 1816SOL    HW217085   1.490   3.345   5.158  2.4967 -2.3668 -0.0380
 1817SOL     OW17086   0.096   4.225   4.122  0.0663  0.2334 -0.2844
 1817SOL    HW117087   0.150   4.148   4.140 -0.3950  0.0808  0.4178
 1817SOL    HW217088   0.091   4.214   4.027  0.6483  2.4003 -0.5613
 1818SOL     OW17089   1.768   2.859   4.607  0.4603  0.2573 -0.1093
 1818SOL    HW117090   1.750   2.903   4.690 -0.8507 -0.7027  0.1065
 1818SOL    HW217091   1.864   2.863   4.607  0.4910 -0.5855  0.8638
 1819SOL     OW17092   3.498   1.541   0.331  0.2913 -0.5501 -0.2493
 1819SOL    HW117093   3.491   1.629   0.293 -1.8844  0.3485  2.2524
 1819SOL    HW217094   3.557   1.543   0.406 -0.3529  1.4985  0.2102
 1820SOL     OW17095   4.406   0.243   7.627 -0.2861 -0.3571 -0.8670
 1820SOL    HW117096   4.438   0.260   7.538  0.1448 -0.5831 -0.7542
 1820SOL    HW217097   4.441   0.155   7.639 -0.5792  0.1144  3.3056
 1821SOL     OW17098   3.797   4.595   1.618  0.3543 -0.1657 -0.8269
 1821SOL    HW117099   3.716   4.588   1.567  0.9367 -0.3309 -1.7127
 1821SOL    HW217100   3.842   4.514   1.595 -0.9262 -0.9193 -0.6923
 1822SOL     OW17101   3.590   2.173   3.657 -0.0465 -0.1722  0.1352
 1822SOL    HW117102   3.675   2.191   3.617  1.0344 -3.2475  1.0380
 1822SOL    HW217103   3.625   2.144   3.742 -1.5929 -0.3369  0.7266
 1823SOL     OW17104   3.910   0.907   7.192 -0.6327  0.1571  0.3191
 1823SOL    HW117105   3.945   0.856   7.119  2.8268  0.4500  1.7683
 1823SOL    HW217106   3.817   0.885   7.190 -0.2631 -1.3120 -0.3147
 1824SOL     OW17107   0.844   0.808   1.868 -0.0527  0.2922  0.2253
 1824SOL    HW117108   0.866   0.728   1.821 -2.7032  0.1851 -0.7920
 1824SOL    HW217109   0.749   0.804   1.876 -0.1749  2.3228 -0.1486
 1825SOL     OW17110   1.463   2.346   5.180 -0.2480 -0.1431  0.2158
 1825SOL    HW117111   1.538   2.390   5.221 -0.3205  1.5356 -1.4636
 1825SOL    HW217112   1.443   2.412   5.114 -3.5324 -1.8558 -0.5130
 1826SOL     OW17113   4.656   3.505   3.203  0.1796 -0.0466 -0.1472
 1826SOL    HW117114   4.564   3.515   3.178 -0.0759  0.5902  1.0533
 1826SOL    HW217115   4.657   3.480   3.296  0.3041  1.1851  0.1896
 1827SOL     OW17116   4.104   1.995  11.153 -0.0156  0.0658  0.1806
 1827SOL    HW117117   4.114   1.919  11.210  0.3718 -0.4742 -0.6109
 1827SOL    HW217118   4.114   1.965  11.063  1.0622 -0.4629  0.4772
 1828SOL     OW17119   1.265   0.326  13.795  0.0002  0.2554  0.3308
 1828SOL    HW117120   1.204   0.264  13.754 -0.0087 -0.8378  1.9861
 1828SOL    HW217121   1.349   0.279  13.789 -1.7496 -2.6626 -1.7452
 1829SOL     OW17122   4.267   4.019   3.570  0.1636  0.4047 -0.1665
 1829SOL    HW117123   4.304   4.065   3.646 -1.5392  1.5960 -0.0621
 1829SOL    HW217124   4.187   4.072   3.568  0.3509  0.7245  0.6409
 1830SOL     OW17125   0.780   0.878   5.439  0.0968  0.3263 -0.2881
 1830SOL    HW117126   0.866   0.899   5.402  0.1590 -2.9570 -1.9977
 1830SOL    HW217127   0.797   0.827   5.518  0.6525 -1.5918 -1.6325
 1831SOL     OW17128   2.383   0.308   3.587 -0.8808 -0.3165  0.1966
 1831SOL    HW117129   2.446   0.285   3.519  0.3652  0.3607  1.1191
 1831SOL    HW217130   2.387   0.403   3.573  0.3675 -0.3505  0.2963
 1832SOL     OW17131   4.720   0.453   3.626  0.5644  0.6495  0.2368
 1832SOL    HW117132   4.723   0.358   3.614  1.5825  0.8109 -0.7787
 1832SOL    HW217133   4.714   0.484   3.536  3.3048 -1.7783 -0.7644
 1833SOL     OW17134   0.576   0.909   7.148 -0.3934 -0.2991  0.1595
 1833SOL    HW117135   0.488   0.920   7.185  0.0108  1.1542  0.7129
 1833SOL    HW217136   0.624   0.983   7.186 -1.7215  0.3167  0.6455
 1834SOL     OW17137   0.530   3.979   9.788  0.2708  0.1014  0.0847
 1834SOL    HW117138   0.608   4.004   9.739 -0.3954  0.3382 -0.8581
 1834SOL    HW217139   0.505   3.899   9.742 -1.0379  0.0220  0.9314
 1835SOL     OW17140   2.556   1.787   7.138  0.6425  0.4136 -0.0160
 1835SOL    HW117141   2.538   1.695   7.115  1.9338  0.1714 -0.0939
 1835SOL    HW217142   2.479   1.828   7.099  0.1600 -2.0604 -1.6862
 1836SOL     OW17143   0.569   4.386   6.562 -0.0954 -0.4556 -0.0244
 1836SOL    HW117144   0.662   4.400   6.544 -0.0968  0.8785  1.0455
 1836SOL    HW217145   0.564   4.375   6.657  0.4639  2.3675  0.3262
 1837SOL     OW17146   2.074   0.345   1.366  0.2582  0.5168 -0.4845
 1837SOL    HW117147   2.062   0.424   1.313  0.2159  0.8432  0.0163
 1837SOL    HW217148   2.017   0.359   1.442 -1.7752  0.5959 -2.0358
 1838SOL     OW17149   1.216   3.353   7.907  0.0077 -0.3951 -0.7359
 1838SOL    HW117150   1.231   3.416   7.977  0.6983 -0.4912 -0.8036
 1838SOL    HW217151   1.282   3.287   7.928 -0.4711 -0.5819  0.1724
 1839SOL     OW17152   2.485   2.116   7.680  0.6988  0.4222  0.5033
 1839SOL    HW117153   2.531   2.035   7.703 -1.6825 -0.5420  1.8431
 1839SOL    HW217154   2.559   2.177   7.688  1.2260 -0.1179 -0.1874
 1840SOL     OW17155   0.332   0.825  14.734  0.5154  0.3004  0.1631
 1840SOL    HW117156   0.319   0.764  14.806 -0.1982  0.1477 -0.0993
 1840SOL    HW217157   0.247   0.813  14.693 -0.2099 -0.2672  1.8187
 1841SOL     OW17158   1.784   3.596   2.389  0.0005  0.4954 -0.0081
 1841SOL    HW117159   1.689   3.603   2.379 -0.2514 -4.4435 -0.8968
 1841SOL    HW217160   1.790   3.502   2.407  1.0641  0.3078 -1.3200
 1842SOL     OW17161   1.775   2.544   5.080 -0.1126 -0.5906 -0.0021
 1842SOL    HW117162   1.837   2.615   5.098  0.8787 -1.0601 -1.6075
 1842SOL    HW217163   1.794   2.526   4.988 -0.1432 -1.1220  0.0955
 1843SOL     OW17164   0.611   3.118   4.916  0.1100 -0.5298 -0.1624
 1843SOL    HW117165   0.542   3.053   4.909 -0.8742  0.5136 -0.2207
 1843SOL    HW217166   0.670   3.066   4.971  1.3477 -0.0549 -1.0234
 1844SOL     OW17167   0.702   3.265   2.387 -0.2393  0.1959 -0.4112
 1844SOL    HW117168   0.610   3.240   2.381 -0.5510  1.5187 -1.1608
 1844SOL    HW217169   0.729   3.258   2.296 -1.4876 -1.4790 -0.6565
 1845SOL     OW17170   4.193   0.380  12.290  0.1739 -0.2774 -0.3765
 1845SOL    HW117171   4.205   0.458  12.236 -0.6209  1.1486  1.5269
 1845SOL    HW217172   4.260   0.390  12.358 -0.3243  1.0861 -0.0873
 1846SOL     OW17173   1.197   2.408  10.556 -0.2934 -0.1803 -0.7827
 1846SOL    HW117174   1.147   2.451  10.625  2.1919  0.1498  0.8302
 1846SOL    HW217175   1.208   2.485  10.501 -1.0588 -0.7825 -1.7827
 1847SOL     OW17176   2.329   1.522   0.269 -0.3833  0.5102 -0.2601
 1847SOL    HW117177   2.356   1.470   0.194 -1.0764 -1.7288  1.0575
 1847SOL    HW217178   2.327   1.454   0.337 -1.0527  1.2489  0.4650
 1848SOL     OW17179   0.921   0.537   5.615 -0.5354  0.3065  0.0245
 1848SOL    HW117180   0.916   0.517   5.709  1.5019 -1.6117 -0.2769
 1848SOL    HW217181   0.845   0.491   5.582  0.4534 -0.1553 -1.6052
 1849SOL     OW17182   2.015   2.401   6.695 -0.3239 -0.1447 -0.7092
 1849SOL    HW117183   1.970   2.348   6.760  3.8559 -2.1900  0.4959
 1849SOL    HW217184   1.944   2.427   6.636  0.1607  0.3690 -1.0579
 1850SOL     OW17185   0.489   1.751   6.015 -0.1731 -0.0379 -0.1330
 1850SOL    HW117186   0.521   1.730   5.928 -1.0274 -1.9879  0.0194
 1850SOL    HW217187   0.509   1.669   6.059  1.0332 -0.3236 -1.2355
 1851SOL     OW17188   1.007   0.243   2.636 -0.2129 -0.5477 -0.0764
 1851SOL    HW117189   0.983   0.268   2.547  0.1244 -2.1627 -0.6213
 1851SOL    HW217190   0.940   0.177   2.653 -1.9993  0.9601 -1.2759
 1852SOL     OW17191   1.731   4.165   1.303  0.2836  0.0073  0.2210
 1852SOL    HW117192   1.662   4.197   1.245  0.8821 -1.6714 -1.4512
 1852SOL    HW217193   1.807   4.186   1.249  1.0410  1.4236  1.8680
 1853SOL     OW17194   3.755   4.124   4.104 -0.2092  0.0755  0.2079
 1853SOL    HW117195   3.665   4.154   4.104 -0.2067  0.0694 -0.6460
 1853SOL    HW217196   3.748   4.032   4.130  2.1512 -0.2716 -0.3543
 1854SOL     OW17197   2.576   2.808   6.461  0.7021  0.1775  0.0766
 1854SOL    HW117198   2.660   2.845   6.488 -0.1515  2.1080  0.0925
 1854SOL    HW217199   2.575   2.829   6.368  1.3391  1.3279  0.3204
 1855SOL     OW17200   1.533   1.506   8.856 -0.4400  0.0513 -0.1535
 1855SOL    HW117201   1.477   1.549   8.791 -0.2287  0.8157  0.1610
 1855SOL    HW217202   1.620   1.546   8.845  1.1414 -2.8079  1.7769
 1856SOL     OW17203   3.823   3.297   7.379 -0.2541  0.2255  0.0495
 1856SOL    HW117204   3.830   3.203   7.396 -0.6440  0.0873 -0.6036
 1856SOL    HW217205   3.866   3.298   7.294  3.4217 -1.6196  1.8639
 1857SOL     OW17206   4.294   0.127  14.982 -0.3907  0.4274 -0.1828
 1857SOL    HW117207   4.226   0.097  14.923  1.4626  1.3288 -2.7803
 1857SOL    HW217208   4.249   0.209  15.004  0.1805  1.4919 -2.9855
 1858SOL     OW17209   0.012   3.219   0.405 -0.4333 -0.4119  0.2009
 1858SOL    HW117210   0.003   3.124   0.406  1.0030 -0.5580 -0.1059
 1858SOL    HW217211   4.677   3.246   0.346  0.6698  1.8122 -0.0763
 1859SOL     OW17212   0.531   1.119  15.605 -0.0359 -0.3817  0.2943
 1859SOL    HW117213   0.447   1.157  15.584  0.0998 -0.9204 -1.2431
 1859SOL    HW217214   0.506   1.028  15.589  1.6915 -0.8274  0.0357
 1860SOL     OW17215   4.632   1.188   0.314 -0.4813 -0.3265 -0.5177
 1860SOL    HW117216   4.620   1.094   0.328 -3.3471  0.0249 -0.5280
 1860SOL    HW217217   4.726   1.206   0.314 -0.4058 -0.7049 -2.0656
 1861SOL     OW17218   0.859   1.180   2.373 -0.6042 -0.1030 -0.4141
 1861SOL    HW117219   0.901   1.246   2.428 -1.5392 -0.6375  0.9571
 1861SOL    HW217220   0.923   1.188   2.302 -0.0952  1.3226  0.2210
 1862SOL     OW17221   1.306   0.066   2.942  0.3678 -0.3043  0.4941
 1862SOL    HW117222   1.299   4.722   2.996  2.4086 -1.7997 -1.4515
 1862SOL    HW217223   1.294   0.134   3.009  2.1838 -0.1484  0.6526
 1863SOL     OW17224   3.583   0.497   3.538  0.1555  0.3127 -0.7043
 1863SOL    HW117225   3.499   0.451   3.544 -0.0145  0.5987 -0.9403
 1863SOL    HW217226   3.579   0.510   3.444 -1.8212  0.2266 -0.6371
 1864SOL     OW17227   0.073   1.969   2.091 -0.0240 -0.7711 -0.8201
 1864SOL    HW117228   0.111   2.052   2.061 -2.0345  0.4467 -0.0179
 1864SOL    HW217229   0.108   1.970   2.180 -1.8084 -1.9428 -0.0937
 1865SOL     OW17230   0.483   4.408   5.824  0.4333 -0.1980  0.5093
 1865SOL    HW117231   0.557   4.464   5.799 -0.2494  0.2979 -0.4180
 1865SOL    HW217232   0.437   4.403   5.740  0.7765 -0.5333  0.3394
 1866SOL     OW17233   0.323   1.753   4.378 -0.0409  0.2632 -0.3295
 1866SOL    HW117234   0.268   1.794   4.444 -1.0264 -0.5475 -0.6602
 1866SOL    HW217235   0.338   1.678   4.436  0.4986 -0.7561 -1.7709
 1867SOL     OW17236   2.374   1.316   0.079  0.9840 -0.2693  0.0213
 1867SOL    HW117237   2.445   1.289   0.021  0.4274  0.8804 -1.1935
 1867SOL    HW217238   2.309   1.297   0.011  0.4348 -0.2449  0.5352
 1868SOL     OW17239   2.790   2.003   7.537 -0.2083  0.6456 -0.0734
 1868SOL    HW117240   2.747   1.988   7.621 -0.2407 -0.1635 -0.2409
 1868SOL    HW217241   2.830   2.090   7.539 -1.6418  1.2678  0.9756
 1869SOL     OW17242   2.766   1.201   4.076 -0.0247  0.4075  0.2170
 1869SOL    HW117243   2.696   1.250   4.034 -0.0434 -0.6838 -1.0272
 1869SOL    HW217244   2.758   1.107   4.062  0.2622  0.4596 -0.2866
 1870SOL     OW17245   1.842   1.103   7.982  0.6086  0.0447  0.1335
 1870SOL    HW117246   1.893   1.088   7.902  0.2056 -1.8093  0.2159
 1870SOL    HW217247   1.849   1.019   8.028  0.6137 -0.3215 -0.5219
 1871SOL     OW17248   3.623   1.398  13.334 -0.7132 -0.4715 -0.1768
 1871SOL    HW117249   3.700   1.454  13.347 -0.8218 -0.9036  2.4356
 1871SOL    HW217250   3.552   1.462  13.335  0.0033  0.3178  0.1694
 1872SOL     OW17251   1.559   0.434   1.691  0.4340 -0.1023  0.8034
 1872SOL    HW117252   1.642   0.458   1.733  2.1584  1.1150 -3.3895
 1872SOL    HW217253   1.542   0.357   1.746 -0.3586  0.5347  1.4532
 1873SOL     OW17254   1.258   1.490   9.149  0.2052 -0.3187  0.3964
 1873SOL    HW117255   1.203   1.417   9.118  0.9796 -1.0997  0.8621
 1873SOL    HW217256   1.312   1.449   9.216 -2.2243  1.3104  3.3073
 1874SOL     OW17257   2.685   4.008  13.107  0.0254  0.3143 -0.0017
 1874SOL    HW117258   2.732   3.928  13.082  1.2761  0.1559  2.7664
 1874SOL    HW217259   2.668   4.001  13.201  2.3769 -0.4714  0.3569
 1875SOL     OW17260   3.832   0.723   6.335  0.8200 -0.3884 -0.3679
 1875SOL    HW117261   3.786   0.675   6.404 -1.5541  0.1032 -1.5969
 1875SOL    HW217262   3.848   0.813   6.366  1.7862 -0.5275 -0.4516
 1876SOL     OW17263   2.322   3.612   4.642  0.6376  0.0416 -0.0099
 1876SOL    HW117264   2.277   3.574   4.567  1.9204  0.5382 -1.0391
 1876SOL    HW217265   2.388   3.668   4.601  1.7778  0.4103  2.3101
 1877SOL     OW17266   3.080   1.249   5.846 -0.3967 -0.0951  0.7605
 1877SOL    HW117267   3.044   1.318   5.790  0.3788  1.9710  2.8164
 1877SOL    HW217268   3.171   1.227   5.826 -0.6493  0.2220 -0.7086
 1878SOL     OW17269   2.391   3.000   1.828 -0.1206  0.1281 -0.1312
 1878SOL    HW117270   2.464   2.989   1.888 -0.3622  0.8127  0.2825
 1878SOL    HW217271   2.314   3.033   1.874 -0.7988 -3.6832  1.4899
 1879SOL     OW17272   3.617   0.768   4.353  0.3028  0.0014  0.2239
 1879SOL    HW117273   3.526   0.746   4.372  0.0260  1.1228  0.2169
 1879SOL    HW217274   3.659   0.684   4.335  0.7562  0.7917 -2.4674
 1880SOL     OW17275   3.626   0.793   8.968  0.3075  0.1577 -0.3910
 1880SOL    HW117276   3.616   0.866   8.908  2.2300  0.2977 -0.5464
 1880SOL    HW217277   3.627   0.837   9.053 -1.0600 -0.4439 -0.0642
 1881SOL     OW17278   1.527   0.816   4.054 -0.0124  0.3296 -0.1987
 1881SOL    HW117279   1.438   0.851   4.056  0.5922  1.7604  1.4753
 1881SOL    HW217280   1.539   0.790   4.146 -0.9084 -2.0968 -0.7834
 1882SOL     OW17281   0.158   4.019  12.745 -0.5539  0.5837 -0.5921
 1882SOL    HW117282   0.151   4.091  12.808  3.5505 -0.4273  0.9813
 1882SOL    HW217283   0.206   4.060  12.674 -0.6798  4.3856  1.5059
 1883SOL     OW17284   0.019   0.410  13.537  0.2191  0.2688  0.0720
 1883SOL    HW117285   0.108   0.417  13.570  0.3288  0.7149 -0.3080
 1883SOL    HW217286   0.037   0.395  13.444  1.9877  0.2001  0.4226
 1884SOL     OW17287   1.932   3.078   3.490 -0.2029 -0.1673 -0.0140
 1884SOL    HW117288   1.850   3.060   3.534 -1.0179  2.1765 -0.5774
 1884SOL    HW217289   1.904   3.107   3.403  2.3930  1.9743 -0.1690
 1885SOL     OW17290   4.299   2.897   5.438 -0.4371 -0.2589 -0.4299
 1885SOL    HW117291   4.299   2.809   5.402  1.1648 -1.4671  2.5611
 1885SOL    HW217292   4.303   2.949   5.358  2.1396  0.2961  0.0269
 1886SOL     OW17293   0.614   2.342   7.702  0.3651  0.0263  0.0005
 1886SOL    HW117294   0.639   2.434   7.714  0.6539 -0.1535  0.7431
 1886SOL    HW217295   0.628   2.316   7.792 -2.9632 -0.8947  0.2515
 1887SOL     OW17296   1.340   1.339   5.268 -0.1124 -0.5028  0.1232
 1887SOL    HW117297   1.415   1.346   5.209  0.3453  1.5003  0.9153
 1887SOL    HW217298   1.316   1.428   5.294  0.6062 -0.6535  1.2942
 1888SOL     OW17299   3.821   1.065   2.750  0.7385  0.0300  0.3598
 1888SOL    HW117300   3.765   1.003   2.704  1.3906  0.8443 -1.5389
 1888SOL    HW217301   3.751   1.109   2.799 -0.3676  0.3303 -1.4693
 1889SOL     OW17302   1.453   1.112   1.995 -0.4973 -0.5605  0.1158
 1889SOL    HW117303   1.453   1.092   1.902  2.0240 -1.5811  0.3215
 1889SOL    HW217304   1.392   1.186   2.005  1.9539  1.4781  0.1049
 1890SOL     OW17305   0.267   2.220   3.147 -0.2993  0.4915 -0.6158
 1890SOL    HW117306   0.323   2.295   3.167 -1.4458  1.4923 -1.1328
 1890SOL    HW217307   0.305   2.206   3.060  1.7327 -0.5731  0.4381
 1891SOL     OW17308   3.651   3.112   2.894  0.3029 -0.4432 -0.2077
 1891SOL    HW117309   3.574   3.150   2.937  0.9564 -0.8701  1.3256
 1891SOL    HW217310   3.610   3.050   2.833 -0.1884 -1.1939  0.8718
 1892SOL     OW17311   0.934   1.801   4.614 -0.3370  0.2474 -0.2146
 1892SOL    HW117312   0.885   1.860   4.557 -1.4357 -0.5563 -0.1129
 1892SOL    HW217313   0.873   1.733   4.643  1.2211 -0.7461  0.7533
 1893SOL     OW17314   2.209   3.937   8.144  0.1518  0.2573  0.2960
 1893SOL    HW117315   2.237   3.875   8.077  0.6737  1.5332 -0.6903
 1893SOL    HW217316   2.269   4.011   8.135  1.0917 -0.9643 -3.3692
 1894SOL     OW17317   1.789   1.281   1.151 -0.1781  0.5058  0.5603
 1894SOL    HW117318   1.739   1.362   1.146 -0.0792  0.6060  1.1950
 1894SOL    HW217319   1.739   1.218   1.099 -0.4366  0.3527  1.0018
 1895SOL     OW17320   1.242   4.728   4.324 -0.1704  0.2341  1.3717
 1895SOL    HW117321   1.177   0.062   4.337 -2.2540 -1.1836 -1.4985
 1895SOL    HW217322   1.181   4.655   4.311  1.0272 -0.7742  1.4050
 1896SOL     OW17323   3.460   0.648  10.800  0.4714 -0.4041 -0.1580
 1896SOL    HW117324   3.511   0.714  10.846  0.8304 -2.2663  2.1107
 1896SOL    HW217325   3.384   0.699  10.775  2.7180  2.4706 -1.1069
 1897SOL     OW17326   4.465   2.815   9.690 -0.1151  0.1665 -0.9107
 1897SOL    HW117327   4.516   2.811   9.609 -2.0064 -0.8212 -2.0656
 1897SOL    HW217328   4.396   2.753   9.664  0.7929 -1.2915  0.1410
 1898SOL     OW17329   3.011   1.631  17.722 -0.9373  0.6925  0.1591
 1898SOL    HW117330   2.923   1.659  17.697 -0.4511  1.7064 -0.4034
 1898SOL    HW217331   3.056   1.648  17.639  0.5016  2.1983  1.2392
 1899SOL     OW17332   4.577   3.773   3.750  0.1441 -0.1270 -0.6864
 1899SOL    HW117333   4.564   3.686   3.788  4.3195 -0.7360 -0.7037
 1899SOL    HW217334   4.550   3.823   3.827 -3.8291 -0.1374 -2.0266
 1900SOL     OW17335   0.267   4.071   3.766  0.6221 -0.3020 -0.2241
 1900SOL    HW117336   0.354   4.073   3.726  1.1296  2.5249  1.0218
 1900SOL    HW217337   0.239   4.016   3.693 -1.6376  3.1726 -1.9465
 1901SOL     OW17338   2.666   0.660  10.458  0.3360  0.0826 -0.5140
 1901SOL    HW117339   2.688   0.726  10.525 -2.7868  2.2086 -1.6172
 1901SOL    HW217340   2.630   0.723  10.396  0.8182 -1.7103 -2.6051
 1902SOL     OW17341   0.878   0.186   7.101  0.0849 -0.1096  0.1265
 1902SOL    HW117342   0.824   0.172   7.179  1.3513 -0.3646  0.9495
 1902SOL    HW217343   0.833   0.256   7.053  1.2126 -1.7533 -3.3531
 1903SOL     OW17344   0.341   0.930   6.566  0.3132  0.2167 -0.8455
 1903SOL    HW117345   0.315   0.902   6.654  0.4857  0.6847 -0.6450
 1903SOL    HW217346   0.277   1.000   6.556  1.7531  1.5220 -1.0319
 1904SOL     OW17347   0.082   4.637   3.936  0.4537  0.2221 -0.3810
 1904SOL    HW117348   0.158   4.601   3.890  0.5628 -0.1415  0.0869
 1904SOL    HW217349   0.013   4.622   3.870  0.2998  1.2093 -0.4363
 1905SOL     OW17350   2.929   4.516   7.783  0.2562 -0.1102  0.5824
 1905SOL    HW117351   2.931   4.449   7.851 -0.7356 -1.2026 -0.4620
 1905SOL    HW217352   2.867   4.575   7.825 -2.2118 -1.8051 -0.6890
 1906SOL     OW17353   2.173   2.669   3.135  0.2101 -0.6716  0.2555
 1906SOL    HW117354   2.245   2.725   3.107 -1.4722 -0.1685 -2.9413
 1906SOL    HW217355   2.137   2.658   3.047  0.0797  1.6020  0.0372
 1907SOL     OW17356   3.615   3.698   8.296 -0.3792 -0.2426  0.4821
 1907SOL    HW117357   3.578   3.627   8.349 -0.1207 -0.0979  0.8648
 1907SOL    HW217358   3.593   3.770   8.355 -0.8369  0.1238 -0.1523
 1908SOL     OW17359   2.701   3.697   4.139 -0.3679  0.3431 -0.2085
 1908SOL    HW117360   2.698   3.658   4.052 -0.0967  1.6247 -0.8055
 1908SOL    HW217361   2.691   3.786   4.105 -0.1198  1.1464  1.8224
 1909SOL     OW17362   0.833   3.108   5.333  0.0607  0.5108  0.3098
 1909SOL    HW117363   0.795   3.039   5.388 -1.2013  0.4873 -0.6033
 1909SOL    HW217364   0.920   3.104   5.374 -0.9569 -0.3956  2.3527
 1910SOL     OW17365   3.444   2.443  17.323 -0.0605 -0.3864  0.2035
 1910SOL    HW117366   3.466   2.506  17.392 -1.5014 -0.5069  0.7763
 1910SOL    HW217367   3.507   2.475  17.258 -1.3638 -2.3485 -1.9980
 1911SOL     OW17368   1.780   3.005  16.282  0.5186 -0.2977 -0.5118
 1911SOL    HW117369   1.855   3.064  16.285  0.2304 -0.0276  1.7783
 1911SOL    HW217370   1.801   2.943  16.352  0.5352 -1.2078 -1.3163
 1912SOL     OW17371   3.338   4.333  10.193  0.0346  0.2595  0.3400
 1912SOL    HW117372   3.374   4.276  10.126  0.1718  0.6978  0.0415
 1912SOL    HW217373   3.381   4.312  10.276  2.2936  3.1887 -0.0772
 1913SOL     OW17374   3.443   3.940  10.003  0.0082 -0.2401  0.0392
 1913SOL    HW117375   3.498   3.883   9.950  1.9443  0.2020  1.5706
 1913SOL    HW217376   3.505   3.993  10.053  0.5616 -1.8300  1.0090
 1914SOL     OW17377   3.775   1.354   5.911  0.2900 -0.5319  0.0386
 1914SOL    HW117378   3.806   1.263   5.914 -1.1269 -1.0247 -0.6698
 1914SOL    HW217379   3.680   1.352   5.919  0.1350  1.4206 -1.2574
 1915SOL     OW17380   4.578   0.250  13.246 -0.6281 -0.0845  0.2278
 1915SOL    HW117381   4.665   0.287  13.264 -1.0515  1.6157 -1.2156
 1915SOL    HW217382   4.531   0.281  13.324 -0.0158  0.3359  0.4295
 1916SOL     OW17383   2.232   3.508   7.401  0.4622 -0.1284 -0.0319
 1916SOL    HW117384   2.217   3.435   7.461  0.4957 -1.4256 -1.6253
 1916SOL    HW217385   2.191   3.578   7.451 -0.7486 -0.4954 -0.5097
 1917SOL     OW17386   0.251   3.501   9.468  0.1634  0.0720 -0.0029
 1917SOL    HW117387   0.166   3.459   9.476  0.1148  0.0314 -0.7358
 1917SOL    HW217388   0.275   3.515   9.560  1.0199 -0.0797 -0.2027
 1918SOL     OW17389   4.351   1.211   4.739  0.3677  0.1567 -0.0604
 1918SOL    HW117390   4.369   1.120   4.760  1.1164  1.0642  3.3135
 1918SOL    HW217391   4.396   1.254   4.812 -2.5881  2.1784  0.6098
 1919SOL     OW17392   1.502   1.950   4.956 -0.1628 -0.3034 -0.0324
 1919SOL    HW117393   1.430   1.895   4.927 -0.7798  0.7497 -0.4945
 1919SOL    HW217394   1.547   1.893   5.019  1.5266  1.9590  0.8312
 1920SOL     OW17395   0.596   4.188  15.678  0.0634  0.3852  0.0501
 1920SOL    HW117396   0.625   4.225  15.762  1.1243 -2.3009  0.8649
 1920SOL    HW217397   0.502   4.200  15.693  0.1707  1.2189  0.0249
 1921SOL     OW17398   4.665   3.831   0.978  0.4040  0.0573 -0.4771
 1921SOL    HW117399   4.591   3.791   0.932 -0.0120  0.4451 -0.1542
 1921SOL    HW217400   4.621   3.915   0.993  1.6796  0.5773  0.3280
 1922SOL     OW17401   0.182   1.704   6.134  0.1348  0.6827 -0.1463
 1922SOL    HW117402   0.206   1.657   6.213 -1.3414 -0.2179 -0.2300
 1922SOL    HW217403   0.157   1.634   6.073  3.1865 -0.4339 -0.1436
 1923SOL     OW17404   2.970   0.252   3.224 -0.0164 -0.2008  0.7008
 1923SOL    HW117405   2.934   0.325   3.275 -1.7661 -0.5708  0.0050
 1923SOL    HW217406   3.021   0.290   3.152 -0.8153  0.0422  0.2613
 1924SOL     OW17407   4.084   4.096   4.331  0.8031  0.1609  0.1299
 1924SOL    HW117408   4.171   4.114   4.294  1.2036 -1.5683  0.2095
 1924SOL    HW217409   4.065   4.010   4.293 -0.1382  0.9443 -1.1744
 1925SOL     OW17410   3.360   3.974   0.760 -0.4817  0.2905  0.3243
 1925SOL    HW117411   3.430   4.030   0.728 -1.2809  0.0725 -1.8427
 1925SOL    HW217412   3.288   4.034   0.739  0.4572  1.3561  0.1536
 1926SOL     OW17413   0.817   2.783   8.442  0.3962  0.1713  0.1980
 1926SOL    HW117414   0.789   2.829   8.522 -1.7359 -0.8310  0.0323
 1926SOL    HW217415   0.912   2.781   8.455  0.5573 -1.8602 -1.2365
 1927SOL     OW17416   0.785   0.994   1.253 -0.0071  0.3764 -0.3789
 1927SOL    HW117417   0.689   0.988   1.250 -0.0283 -0.1288  1.2006
 1927SOL    HW217418   0.806   1.044   1.332  2.1377  1.3783 -1.5913
 1928SOL     OW17419   2.754   2.618   8.746  0.2333 -0.1925  0.3995
 1928SOL    HW117420   2.806   2.646   8.672  0.1202 -2.4230 -0.5235
 1928SOL    HW217421   2.749   2.523   8.733 -1.6699  0.0452 -0.6696
 1929SOL     OW17422   2.141   1.508   3.061 -0.4356 -0.3876 -0.0473
 1929SOL    HW117423   2.158   1.552   2.977 -0.3749  0.3155  0.3332
 1929SOL    HW217424   2.120   1.417   3.039 -0.1051 -0.5176  0.1740
 1930SOL     OW17425   0.203   1.325  16.277  0.0639  0.0919 -0.2905
 1930SOL    HW117426   0.287   1.286  16.300 -0.4156  0.3049  1.8050
 1930SOL    HW217427   0.147   1.250  16.258 -0.4823  0.4938 -0.2794
 1931SOL     OW17428   3.836   3.993  10.130  0.2673 -0.0299 -0.5180
 1931SOL    HW117429   3.815   3.940  10.054 -0.7535  1.0394 -0.9741
 1931SOL    HW217430   3.750   4.030  10.148 -0.2243 -1.1097 -0.6523
 1932SOL     OW17431   3.359   4.475  14.699 -0.1921 -0.1127  0.8636
 1932SOL    HW117432   3.347   4.446  14.608 -0.4074  0.9526  0.5569
 1932SOL    HW217433   3.287   4.423  14.735 -1.1057 -1.5699 -2.9767
 1933SOL     OW17434   0.708   0.317  15.708  0.1185 -0.2371  0.0403
 1933SOL    HW117435   0.627   0.317  15.658 -0.5444 -1.8063  1.1149
 1933SOL    HW217436   0.718   0.412  15.717 -1.8669  0.0025 -0.2759
 1934SOL     OW17437   1.107   1.165   5.746  0.1700  0.1104 -0.1339
 1934SOL    HW117438   1.160   1.238   5.776 -2.0501  2.6960 -2.5831
 1934SOL    HW217439   1.083   1.197   5.660  0.6679 -1.9030 -1.0274
 1935SOL     OW17440   0.553   3.350   5.018  0.0783 -0.1327  0.5018
 1935SOL    HW117441   0.605   3.339   5.097 -0.1327 -0.9550  0.5279
 1935SOL    HW217442   0.574   3.268   4.973  2.1063  1.1474 -0.8772
 1936SOL     OW17443   3.887   2.019  15.447 -0.3186  0.3661  0.2051
 1936SOL    HW117444   3.909   2.066  15.366  1.9992 -0.7206  0.2063
 1936SOL    HW217445   3.804   1.979  15.421  0.4814 -0.7677 -0.6446
 1937SOL     OW17446   3.865   0.073   0.410 -0.0025 -0.4180 -0.4585
 1937SOL    HW117447   3.866   0.050   0.317  2.2148  0.1021 -0.5747
 1937SOL    HW217448   3.947   0.038   0.446 -0.2515 -0.8005 -0.2624
 1938SOL     OW17449   2.245   3.578  16.355 -0.0269  0.0139  0.2060
 1938SOL    HW117450   2.333   3.612  16.343 -0.7584  1.9063  0.2525
 1938SOL    HW217451   2.192   3.632  16.296 -0.1126  1.1682  1.3462
 1939SOL     OW17452   0.180   1.742   1.471 -0.1087  0.0625 -0.3767
 1939SOL    HW117453   0.093   1.703   1.474 -0.7280  1.5583  1.3133
 1939SOL    HW217454   0.223   1.656   1.469 -0.0191  0.0959  0.1482
 1940SOL     OW17455   2.243   4.620   8.036  0.1535 -0.1042  0.6791
 1940SOL    HW117456   2.209   4.695   7.988 -0.5886 -1.0126 -0.2037
 1940SOL    HW217457   2.192   4.548   8.001  0.7624 -0.6835  0.9867
 1941SOL     OW17458   4.596   2.398  16.846  0.0033  0.1981 -0.5491
 1941SOL    HW117459   4.501   2.403  16.856  0.2658  2.7361  0.4471
 1941SOL    HW217460   4.605   2.465  16.778  2.4605  0.2889 -0.1334
 1942SOL     OW17461   4.189   4.139   6.799 -0.3795  0.0613  0.1166
 1942SOL    HW117462   4.098   4.159   6.818 -0.2391  2.1762 -1.3953
 1942SOL    HW217463   4.209   4.065   6.857 -0.0445 -0.7020 -0.9755
 1943SOL     OW17464   0.534   3.582   1.577  0.4450 -0.0295  0.2317
 1943SOL    HW117465   0.504   3.648   1.515 -0.2920 -0.7048 -0.1412
 1943SOL    HW217466   0.485   3.503   1.551 -0.6227  1.4006 -2.0864
 1944SOL     OW17467   2.337   3.151   4.095 -0.3487 -0.3228  0.0342
 1944SOL    HW117468   2.399   3.222   4.078 -0.8601 -0.3026 -1.7115
 1944SOL    HW217469   2.308   3.127   4.007  0.6520 -1.6337  0.0710
 1945SOL     OW17470   1.165   0.145   7.099 -0.4586  0.0667  0.1099
 1945SOL    HW117471   1.177   0.237   7.073 -0.2996 -0.1133 -0.4401
 1945SOL    HW217472   1.070   0.141   7.110 -0.5571  1.3786 -0.2630
 1946SOL     OW17473   1.136   3.537  17.548 -0.0262  0.3099  0.0444
 1946SOL    HW117474   1.192   3.614  17.555  1.3661 -0.5498 -1.6733
 1946SOL    HW217475   1.085   3.562  17.471 -1.1240 -1.1610  0.2953
 1947SOL     OW17476   1.865   0.024   7.917  0.2740 -0.2279  0.1387
 1947SOL    HW117477   1.884   0.017   7.824 -3.3960 -0.6763 -0.5535
 1947SOL    HW217478   1.925   4.696   7.957  0.6145 -0.1635 -0.2775
 1948SOL     OW17479   1.428   0.478  17.719  0.3034  0.3426 -0.0269
 1948SOL    HW117480   1.425   0.397   0.034  2.0653 -0.7948 -1.7144
 1948SOL    HW217481   1.393   0.430  17.644  1.5012 -0.5538 -0.0016
 1949SOL     OW17482   3.367   0.884   5.874  0.2320 -0.0800  0.1103
 1949SOL    HW117483   3.381   0.790   5.887  0.0044  0.0285  1.1324
 1949SOL    HW217484   3.422   0.925   5.941  2.5079  1.3209 -2.5819
 1950SOL     OW17485   0.568   0.788   1.898  0.3542 -0.0500  0.0624
 1950SOL    HW117486   0.489   0.768   1.949  0.8536 -2.5413 -0.1600
 1950SOL    HW217487   0.543   0.744   1.817  0.1620  2.3620 -1.1702
 1951SOL     OW17488   3.193   0.517  14.859 -0.1381 -0.5473  0.0541
 1951SOL    HW117489   3.125   0.538  14.923 -0.8132 -3.0673  0.1425
 1951SOL    HW217490   3.156   0.535  14.772  1.4088  0.5688 -0.3950
 1952SOL     OW17491   2.131   0.178  17.720  0.0543  0.1411  0.6364
 1952SOL    HW117492   2.064   0.219   0.037 -0.0459 -0.4727  0.9747
 1952SOL    HW217493   2.184   0.254  17.695 -0.0578  0.2536  0.7423
 1953SOL     OW17494   2.662   2.525   3.172  0.4317  0.1240  0.2921
 1953SOL    HW117495   2.751   2.558   3.187  0.6298 -0.7758  1.0880
 1953SOL    HW217496   2.653   2.535   3.077  1.0662 -1.5890  0.0615
 1954SOL     OW17497   2.569   2.986   7.324  0.0181  0.6571  0.1156
 1954SOL    HW117498   2.489   3.033   7.302  0.1215 -0.8257 -3.4431
 1954SOL    HW217499   2.559   2.908   7.269 -0.2638  0.2785  0.6972
 1955SOL     OW17500   1.172   3.893   0.655  0.1898  0.4031 -0.4294
 1955SOL    HW117501   1.264   3.883   0.679 -0.4589 -1.1412  1.3488
 1955SOL    HW217502   1.170   3.982   0.619 -0.7317  0.2185 -0.8428
 1956SOL     OW17503   0.401   4.102   9.031 -0.0874 -0.0801 -0.2982
 1956SOL    HW117504   0.354   4.170   9.080  1.0735  1.9209 -1.9614
 1956SOL    HW217505   0.491   4.135   9.035  0.1274 -0.7373  0.3337
 1957SOL     OW17506   1.487   4.003   9.644 -0.6115 -0.1120  0.0363
 1957SOL    HW117507   1.415   3.996   9.706 -0.7404 -2.3996 -0.3730
 1957SOL    HW217508   1.467   3.928   9.589  0.8129 -1.0839  0.8598
 1958SOL     OW17509   1.586   2.574   2.998  0.0216  1.1868 -0.4236
 1958SOL    HW117510   1.540   2.615   3.070  1.4140 -0.9290  1.6883
 1958SOL    HW217511   1.515   2.555   2.937 -0.2559  1.0606 -0.0645
 1959SOL     OW17512   1.723   4.710  17.101 -0.0336 -0.3950  0.0721
 1959SOL    HW117513   1.779   4.716  17.023 -0.2484  0.0113 -0.0500
 1959SOL    HW217514   1.718   0.063  17.139 -2.1005 -0.0303 -1.0509
 1960SOL     OW17515   0.780   2.700   8.024 -0.0601 -0.0545  0.0050
 1960SOL    HW117516   0.795   2.789   8.057 -2.3856  0.6346 -0.8384
 1960SOL    HW217517   0.858   2.653   8.054 -0.9894 -3.0628 -2.3559
 1961SOL     OW17518   4.260   0.084  12.281  0.7800 -0.3683 -0.0980
 1961SOL    HW117519   4.252   0.166  12.233  0.1567 -0.2094  0.2844
 1961SOL    HW217520   4.170   0.053  12.289  0.3858  0.7181 -0.3919
 1962SOL     OW17521   3.121   0.607   6.539 -0.5585  0.2888 -0.4941
 1962SOL    HW117522   3.215   0.593   6.539 -0.6876 -0.6264  0.1568
 1962SOL    HW217523   3.116   0.654   6.456  1.4556 -0.9000 -1.2680
 1963SOL     OW17524   1.275   3.101   9.239  0.0906 -0.2663 -0.2812
 1963SOL    HW117525   1.268   3.193   9.216 -0.9593  0.1383  1.6668
 1963SOL    HW217526   1.364   3.070   9.221 -0.1594  0.4084 -2.7667
 1964SOL     OW17527   1.813   1.364   8.543 -0.0978 -0.3318 -0.1737
 1964SOL    HW117528   1.895   1.412   8.551 -1.2823  1.6356 -0.0282
 1964SOL    HW217529   1.849   1.276   8.530 -0.9655 -0.7731  0.3955
 1965SOL     OW17530   0.987   1.021  11.683 -0.4929 -0.7489  0.3028
 1965SOL    HW117531   1.070   1.070  11.679  1.0393 -3.3244  0.8199
 1965SOL    HW217532   0.965   1.031  11.591  0.0118  0.7744  0.3421
 1966SOL     OW17533   1.597   4.467   7.528 -0.3094 -0.0451 -0.5500
 1966SOL    HW117534   1.595   4.480   7.623 -0.0860 -3.9818  0.0065
 1966SOL    HW217535   1.580   4.373   7.537 -0.0598 -0.0915 -0.5651
 1967SOL     OW17536   1.187   3.618   6.258  0.9961  0.4327 -0.0242
 1967SOL    HW117537   1.175   3.615   6.353 -1.0183 -1.5029 -0.3311
 1967SOL    HW217538   1.272   3.574   6.257  0.8503  0.1219  1.1712
 1968SOL     OW17539   3.441   1.967   5.328 -0.0518 -0.2607 -0.6123
 1968SOL    HW117540   3.406   1.879   5.337 -0.5263  0.0356  0.4838
 1968SOL    HW217541   3.442   1.991   5.421 -3.8240 -4.2817  0.4588
 1969SOL     OW17542   2.184   3.175  17.315  0.0272  0.3994 -0.4077
 1969SOL    HW117543   2.232   3.195  17.395  1.2898  0.8375 -1.2790
 1969SOL    HW217544   2.257   3.141  17.263  0.0927 -2.3459  1.5008
 1970SOL     OW17545   2.746   1.691   3.754 -0.5211 -0.0904 -1.0174
 1970SOL    HW117546   2.754   1.635   3.830 -0.8598  0.2448 -0.7384
 1970SOL    HW217547   2.661   1.732   3.767  1.0534  3.7287 -2.4252
 1971SOL     OW17548   2.979   2.049  14.546  0.5988 -0.3416  0.1258
 1971SOL    HW117549   2.960   1.965  14.588  1.4165  0.5110  2.2056
 1971SOL    HW217550   2.932   2.036  14.464 -0.4402 -1.2502  0.8754
 1972SOL     OW17551   2.974   1.519   6.961 -0.2423 -0.6508 -0.5364
 1972SOL    HW117552   2.989   1.455   6.891  2.5577  0.7451 -1.1958
 1972SOL    HW217553   3.020   1.597   6.934  0.3477 -0.3352  1.3486
 1973SOL     OW17554   0.445   3.816   6.045  0.6219 -0.8291  0.0671
 1973SOL    HW117555   0.401   3.813   5.960 -0.3556  0.1055  0.5335
 1973SOL    HW217556   0.521   3.761   6.026  0.7854 -0.5297 -0.1394
 1974SOL     OW17557   2.254   4.709   4.385  0.4537  0.2875 -0.1231
 1974SOL    HW117558   2.344   4.681   4.400  0.1443  0.3974  1.8956
 1974SOL    HW217559   2.215   4.622   4.375  0.9917  0.4500 -3.6429
 1975SOL     OW17560   4.698   3.624   1.878  0.4186 -0.0823  0.1329
 1975SOL    HW117561   4.697   3.670   1.794 -3.7006 -3.2368 -1.5030
 1975SOL    HW217562   0.045   3.663   1.911  0.7699 -1.5590  0.9747
 1976SOL     OW17563   4.715   1.662  14.013  0.2422 -0.0068 -0.0384
 1976SOL    HW117564   0.063   1.706  14.034 -0.5120  1.3460  0.0471
 1976SOL    HW217565   4.646   1.728  14.013 -0.6533 -0.9406 -1.7348
 1977SOL     OW17566   0.060   1.304  13.188  0.1062  0.3241 -0.5879
 1977SOL    HW117567   0.119   1.233  13.164  2.8634  2.0622  1.0067
 1977SOL    HW217568   0.105   1.339  13.265  0.9588 -1.6092 -0.2049
 1978SOL     OW17569   3.786   0.937  17.101 -0.3243  0.0152 -0.3786
 1978SOL    HW117570   3.851   0.881  17.145 -1.4874 -0.4469  0.7617
 1978SOL    HW217571   3.837   1.016  17.089  0.6922 -0.8059 -1.4987
 1979SOL     OW17572   2.507   2.154  13.636 -0.5136 -0.3146 -0.1189
 1979SOL    HW117573   2.466   2.068  13.626  0.1215 -0.4039 -1.9214
 1979SOL    HW217574   2.491   2.167  13.729  0.6939  2.3357 -0.2955
 1980SOL     OW17575   4.338   0.346   1.726 -0.1734 -0.3118  0.6917
 1980SOL    HW117576   4.341   0.426   1.674  0.4383 -2.0098 -1.8635
 1980SOL    HW217577   4.261   0.305   1.687  0.9684 -0.8613 -0.9884
 1981SOL     OW17578   1.343   2.733   2.242  0.3404 -0.4727 -0.2798
 1981SOL    HW117579   1.326   2.640   2.261 -2.6684  0.2903  0.7930
 1981SOL    HW217580   1.296   2.737   2.158 -0.5358 -0.9616  0.1848
 1982SOL     OW17581   1.966   1.845  12.034  0.2055  0.2590  0.3246
 1982SOL    HW117582   1.886   1.893  12.056 -1.2519 -2.0608  0.0531
 1982SOL    HW217583   1.987   1.796  12.113  0.2617  0.5797  0.5086
 1983SOL     OW17584   3.511   4.244   8.984 -0.0068  0.6586  0.4449
 1983SOL    HW117585   3.568   4.174   9.014  1.7722  1.3141 -1.3485
 1983SOL    HW217586   3.500   4.300   9.060 -3.1787  2.1782 -1.1277
 1984SOL     OW17587   4.502   3.545  11.523 -0.2187  0.5220 -0.5166
 1984SOL    HW117588   4.532   3.505  11.605 -1.0843 -2.2308 -1.5207
 1984SOL    HW217589   4.416   3.504  11.519 -1.0338  2.0619  1.0433
 1985SOL     OW17590   3.249   1.277   7.010  0.1509 -0.2027 -0.0249
 1985SOL    HW117591   3.244   1.354   7.067  1.7729 -0.6643  0.7188
 1985SOL    HW217592   3.159   1.245   7.011  0.9212 -2.3074  0.2665
 1986SOL     OW17593   4.286   3.146   6.450  0.8798 -0.6934 -0.2830
 1986SOL    HW117594   4.299   3.160   6.544 -1.0969  0.0626 -0.1141
 1986SOL    HW217595   4.266   3.053   6.451  1.9502 -0.9237 -0.1998
 1987SOL     OW17596   0.389   1.082  14.436  0.4372  0.2998 -0.3813
 1987SOL    HW117597   0.316   1.131  14.475  0.8039  1.5994 -1.3244
 1987SOL    HW217598   0.341   1.007  14.402  0.8012 -1.1454  2.2779
 1988SOL     OW17599   3.973   4.191   7.332 -0.0456  0.2525  0.0063
 1988SOL    HW117600   3.938   4.108   7.364  1.5456 -0.2220  0.5505
 1988SOL    HW217601   4.060   4.181   7.372 -0.3867 -1.1485  0.3948
 1989SOL     OW17602   3.604   3.063  10.763 -0.6317  0.2294  0.2995
 1989SOL    HW117603   3.637   3.072  10.853  1.0637  1.2197 -0.4123
 1989SOL    HW217604   3.678   3.090  10.708 -1.0314 -0.6771 -0.6645
 1990SOL     OW17605   3.251   4.046   2.322  0.0589 -0.0822  0.0838
 1990SOL    HW117606   3.202   3.965   2.337 -1.2200  0.6813 -0.0114
 1990SOL    HW217607   3.243   4.054   2.227  0.8004  0.7650  0.0897
 1991SOL     OW17608   0.703   0.302   9.170  0.7276  0.0772  0.1865
 1991SOL    HW117609   0.623   0.295   9.222  0.2960  0.8782 -0.3654
 1991SOL    HW217610   0.770   0.331   9.232 -0.5592 -0.8516  1.9994
 1992SOL     OW17611   1.004   2.236   5.648 -0.4672 -0.2180 -0.2271
 1992SOL    HW117612   0.952   2.315   5.664 -0.4660  0.1814 -2.2470
 1992SOL    HW217613   0.978   2.205   5.562 -0.2892 -0.7388 -0.0907
 1993SOL     OW17614   3.404   2.619   2.567  0.2085  0.2411 -0.3899
 1993SOL    HW117615   3.326   2.673   2.555 -0.1542 -0.4884 -1.3217
 1993SOL    HW217616   3.456   2.642   2.490  2.3425 -3.0244  0.0762
 1994SOL     OW17617   0.418   2.104   5.164  0.0576  0.2868 -0.1718
 1994SOL    HW117618   0.425   2.100   5.260  0.5290  0.3771 -0.2037
 1994SOL    HW217619   0.341   2.161   5.155  1.1736  1.6292 -1.0690
 1995SOL     OW17620   2.285   3.657  17.273  0.8405  0.1361 -0.1445
 1995SOL    HW117621   2.241   3.722  17.217 -1.1965 -1.6347 -0.5920
 1995SOL    HW217622   2.369   3.657  17.227  1.5337  1.5922  1.0980
 1996SOL     OW17623   3.926   2.472   1.126 -0.1740 -0.0899  0.0441
 1996SOL    HW117624   3.959   2.551   1.170  0.6871 -0.9480  0.9300
 1996SOL    HW217625   3.978   2.484   1.047 -0.2560  2.3943  0.3667
 1997SOL     OW17626   4.029   3.755   2.929  0.1922 -0.4908 -0.9739
 1997SOL    HW117627   4.107   3.748   2.874  0.7877  1.0535 -0.3220
 1997SOL    HW217628   4.049   3.723   3.017  0.6254 -0.4941 -1.0705
 1998SOL     OW17629   2.193   1.807   6.492  0.1369 -0.6300  0.2102
 1998SOL    HW117630   2.274   1.756   6.503  0.6988  0.3889  0.8350
 1998SOL    HW217631   2.239   1.890   6.480 -0.9065 -0.2921 -1.3584
 1999SOL     OW17632   2.085   3.214   1.138  0.4885  0.4087 -0.2403
 1999SOL    HW117633   2.143   3.266   1.194 -2.6440  2.5677  0.9846
 1999SOL    HW217634   2.008   3.216   1.194  0.3724  1.3304 -0.4314
 2000SOL     OW17635   0.456   1.964   6.429  0.2687 -0.0354  0.2759
 2000SOL    HW117636   0.446   1.985   6.336  1.7667  3.3216  0.8473
 2000SOL    HW217637   0.549   1.981   6.442  0.2782  0.1931 -0.0869
 2001SOL     OW17638   3.710   1.303   8.847  0.2203  0.5467  0.2087
 2001SOL    HW117639   3.668   1.223   8.878  0.4575 -0.1491 -1.2393
 2001SOL    HW217640   3.783   1.268   8.795 -1.0416  2.0130 -2.5555
 2002SOL     OW17641   0.448   1.527   1.671  0.1043  0.1616  0.2333
 2002SOL    HW117642   0.520   1.562   1.724  1.3741 -0.3056 -1.1635
 2002SOL    HW217643   0.375   1.563   1.721  1.4560 -1.2695  3.2077
 2003SOL     OW17644   3.382   0.610   6.553 -0.1162  0.3275 -0.9243
 2003SOL    HW117645   3.446   0.540   6.545 -0.3948 -0.2769  2.0884
 2003SOL    HW217646   3.438   0.687   6.560 -0.0972 -0.0081  2.7738
 2004SOL     OW17647   2.451   4.511   4.466  0.4667  0.2191  0.0421
 2004SOL    HW117648   2.523   4.499   4.528  1.0440  0.6771 -0.5515
 2004SOL    HW217649   2.477   4.451   4.396  2.0854  2.5043 -1.3146
 2005SOL     OW17650   3.652   0.111   0.557  0.2337  0.1685 -0.3349
 2005SOL    HW117651   3.645   0.195   0.511  1.2928  1.2935  1.5052
 2005SOL    HW217652   3.747   0.095   0.550  0.2216  0.0440 -0.2203
 2006SOL     OW17653   2.829   2.762   0.023  0.1805 -0.3014  0.1991
 2006SOL    HW117654   2.807   2.669   0.030  1.1742 -0.3108  3.2062
 2006SOL    HW217655   2.858   2.765  17.669 -1.1500 -1.8292 -0.2775
 2007SOL     OW17656   3.608   1.004   5.303 -0.1735 -0.4097  0.4147
 2007SOL    HW117657   3.625   1.079   5.359  0.8840  1.3180 -2.2117
 2007SOL    HW217658   3.599   1.050   5.219 -0.6595 -1.6863 -0.2473
 2008SOL     OW17659   2.182   4.316  11.446  0.2565 -0.0626  0.3770
 2008SOL    HW117660   2.194   4.329  11.352 -2.0992 -0.4829  0.0138
 2008SOL    HW217661   2.123   4.390  11.462  1.4867  1.2446 -1.2046
 2009SOL     OW17662   0.246   0.468  11.952  0.0237  0.0087  0.0153
 2009SOL    HW117663   0.296   0.444  12.031  0.6321  1.4928  0.0812
 2009SOL    HW217664   0.191   0.390  11.941  0.1808 -0.1293  0.1989
 2010SOL     OW17665   2.526   1.380   7.674  0.5360  0.2873  0.7099
 2010SOL    HW117666   2.535   1.289   7.646  0.5146  0.6732 -0.5466
 2010SOL    HW217667   2.528   1.430   7.593  1.9414 -2.8349 -1.1774
 2011SOL     OW17668   3.692   1.520   0.526 -0.1335  0.4306  0.2747
 2011SOL    HW117669   3.787   1.508   0.535 -0.1757  1.8403  2.8413
 2011SOL    HW217670   3.692   1.615   0.537 -1.2276  0.5940 -1.1394
 2012SOL     OW17671   1.018   1.057   0.298 -1.0132  0.4246 -0.2285
 2012SOL    HW117672   0.977   1.138   0.270 -0.2640  0.8020 -0.2347
 2012SOL    HW217673   1.105   1.067   0.259 -1.3694 -0.4828 -1.2444
 2013SOL     OW17674   4.307   0.773   8.619  0.3367  0.1744  0.0017
 2013SOL    HW117675   4.314   0.725   8.536  0.2601 -3.2700  1.9656
 2013SOL    HW217676   4.228   0.739   8.660 -0.0141  0.3051 -0.5668
 2014SOL     OW17677   1.839   2.176   4.224 -0.5348  0.3561 -0.1537
 2014SOL    HW117678   1.884   2.239   4.281 -1.0321 -0.6774  1.3848
 2014SOL    HW217679   1.868   2.097   4.269 -2.5735  0.0614  0.6543
 2015SOL     OW17680   3.009   0.611   5.814 -0.1775  0.2574  0.1455
 2015SOL    HW117681   3.104   0.605   5.828 -0.4358 -1.0443  1.3583
 2015SOL    HW217682   2.999   0.519   5.789  0.1582 -0.1734  1.5901
 2016SOL     OW17683   0.198   2.274   9.120 -0.1180 -0.1071 -0.3396
 2016SOL    HW117684   0.243   2.358   9.132 -2.5518  1.4641 -2.4503
 2016SOL    HW217685   0.131   2.279   9.188 -0.0612 -0.6010 -0.2452
 2017SOL     OW17686   4.730   0.530   4.816  0.3727 -0.8063 -0.4862
 2017SOL    HW117687   0.069   0.490   4.862 -0.7042 -0.5275  1.4694
 2017SOL    HW217688   4.734   0.482   4.733 -1.0748 -2.4300  0.3724
 2018SOL     OW17689   0.513   0.723  12.096 -0.1112  0.0139  0.4160
 2018SOL    HW117690   0.549   0.649  12.145 -0.6754  0.2557  1.2049
 2018SOL    HW217691   0.467   0.771  12.165  1.5401  0.7332  1.0217
 2019SOL     OW17692   2.945   1.791   1.788  0.4364  0.0869  0.0407
 2019SOL    HW117693   2.963   1.747   1.871  0.5613  1.6580  0.8565
 2019SOL    HW217694   2.981   1.728   1.726  0.8660  1.8398 -1.4700
 2020SOL     OW17695   0.293   0.618  15.427 -0.0858 -0.4178  0.4690
 2020SOL    HW117696   0.257   0.535  15.458  1.3123  0.3024  3.9567
 2020SOL    HW217697   0.288   0.668  15.509 -1.7768  1.6016 -0.8516
 2021SOL     OW17698   4.465   2.149  13.098 -0.6039  0.0481  0.0039
 2021SOL    HW117699   4.438   2.237  13.126 -2.5467 -0.8340  0.9157
 2021SOL    HW217700   4.384   2.097  13.099  1.5131 -3.2693 -0.7150
 2022SOL     OW17701   1.064   0.205   4.454 -0.4310  0.4530 -0.1252
 2022SOL    HW117702   1.121   0.270   4.412 -2.3984  2.1001 -0.2676
 2022SOL    HW217703   0.980   0.238   4.423 -2.4773  0.5327  5.5111
 2023SOL     OW17704   3.119   4.494   2.290  0.2946 -0.1613 -0.3267
 2023SOL    HW117705   3.163   4.476   2.207  1.1672  1.2646 -0.1828
 2023SOL    HW217706   3.068   4.419   2.319 -2.3429  1.8177  0.2254
 2024SOL     OW17707   3.668   2.723  14.855  0.5572 -0.1099 -0.1933
 2024SOL    HW117708   3.679   2.644  14.908  0.4521  1.0805  1.6078
 2024SOL    HW217709   3.758   2.756  14.856  1.4178 -2.4301  0.0078
 2025SOL     OW17710   0.752   2.923   9.442  0.1769  0.4333 -0.2435
 2025SOL    HW117711   0.706   2.951   9.521  2.7572 -1.9665  2.1529
 2025SOL    HW217712   0.831   2.977   9.444  0.9985 -0.8124  1.2467
 2026SOL     OW17713   4.733   0.213   8.784 -0.1605 -0.0096 -0.1264
 2026SOL    HW117714   4.697   0.274   8.849  1.5222  0.6027  0.2199
 2026SOL    HW217715   4.678   0.222   8.706  1.8108  0.9478 -1.4106
 2027SOL     OW17716   1.988   4.297   1.775  0.1452  0.0279 -0.3310
 2027SOL    HW117717   1.969   4.339   1.691 -1.9167 -2.4018 -1.0752
 2027SOL    HW217718   2.049   4.355   1.820  0.3710 -2.0337  2.0513
 2028SOL     OW17719   2.244   0.481   0.789  0.3545 -0.3581  0.1066
 2028SOL    HW117720   2.335   0.478   0.760  0.6986  1.5862  0.9989
 2028SOL    HW217721   2.263   0.498   0.882  2.5486  0.0962 -0.4284
 2029SOL     OW17722   3.969   3.015   1.669 -0.3112  0.0020 -0.3050
 2029SOL    HW117723   4.018   2.961   1.732 -2.1098  0.1457  1.1967
 2029SOL    HW217724   3.917   3.068   1.728 -0.0523  0.9673 -0.9471
 2030SOL     OW17725   1.985   1.836   3.349 -0.6628  0.1217 -0.8272
 2030SOL    HW117726   2.054   1.787   3.304 -1.0092 -1.1250  0.0004
 2030SOL    HW217727   2.023   1.922   3.335  0.9539 -0.8930 -2.7285
 2031SOL     OW17728   1.494   0.450  14.848 -0.5876 -0.2652  0.0015
 2031SOL    HW117729   1.488   0.545  14.857  0.9400 -0.3675  2.0255
 2031SOL    HW217730   1.471   0.438  14.756 -0.0293 -0.9604 -0.0464
 2032SOL     OW17731   2.215   2.742  16.868  0.4701 -0.4951 -0.7516
 2032SOL    HW117732   2.156   2.674  16.900 -0.3173  0.3699 -0.3672
 2032SOL    HW217733   2.302   2.714  16.898 -0.4947 -1.0686  1.5530
 2033SOL     OW17734   0.027   0.806   3.638 -0.6461 -0.1791  0.2653
 2033SOL    HW117735   4.687   0.866   3.628 -1.5224 -0.8865  2.6645
 2033SOL    HW217736   0.049   0.814   3.730  1.1056  2.2714 -0.3819
 2034SOL     OW17737   2.708   4.073  15.799  0.5691  0.7127  0.2980
 2034SOL    HW117738   2.704   4.030  15.713  0.9099  0.4912  0.3967
 2034SOL    HW217739   2.779   4.134  15.779 -1.0849  3.4029  2.7174
 2035SOL     OW17740   2.101   3.482   4.504  0.3976  0.5240  0.1048
 2035SOL    HW117741   2.105   3.449   4.593 -0.0139  0.0934 -0.0405
 2035SOL    HW217742   2.166   3.431   4.455  0.7474  0.7672  0.3179
 2036SOL     OW17743   1.962   2.844  11.406  0.1705  0.1685 -0.4517
 2036SOL    HW117744   1.955   2.749  11.392 -0.4969  0.2234 -0.4736
 2036SOL    HW217745   1.881   2.867  11.452  0.0463 -0.4443 -0.3599
 2037SOL     OW17746   0.086   1.121   5.974 -0.1470  0.0984  0.1047
 2037SOL    HW117747   0.029   1.044   5.981 -1.1757  0.8928  0.6435
 2037SOL    HW217748   0.072   1.148   5.883 -0.6750 -2.0082 -0.4409
 2038SOL     OW17749   4.693   0.223   3.029  0.0643 -0.1424 -0.0392
 2038SOL    HW117750   0.022   0.157   3.001  2.8297  2.4825  0.0881
 2038SOL    HW217751   4.696   0.220   3.125  1.3901 -0.7001 -0.0975
 2039SOL     OW17752   0.217   1.146   1.981  0.0649 -0.2754 -0.0636
 2039SOL    HW117753   0.262   1.176   2.060  2.8496  0.0557 -1.7835
 2039SOL    HW217754   0.280   1.189   1.923  0.9146 -2.2238 -0.5627
 2040SOL     OW17755   4.342   4.241   0.750 -0.0818 -0.5428 -0.7579
 2040SOL    HW117756   4.390   4.237   0.832 -0.7086 -0.1234 -0.3677
 2040SOL    HW217757   4.323   4.335   0.754 -2.7988 -1.1231  0.3888
 2041SOL     OW17758   3.612   2.455   5.285  0.0834  0.2240  0.2408
 2041SOL    HW117759   3.666   2.525   5.322  1.5961 -0.5250 -0.5353
 2041SOL    HW217760   3.620   2.393   5.357  0.3887 -0.1829 -0.1396
 2042SOL     OW17761   0.019   3.562   2.617 -0.3449  0.1813  0.1692
 2042SOL    HW117762   4.670   3.558   2.664  0.7162  0.6111  2.0835
 2042SOL    HW217763   4.719   3.604   2.538  1.5816 -0.7910 -1.1746
 2043SOL     OW17764   3.946   2.585   1.991 -0.2402 -0.0514 -0.4610
 2043SOL    HW117765   3.890   2.548   2.060 -2.2601  1.7764 -1.0954
 2043SOL    HW217766   3.998   2.514   1.955 -0.0346  0.4159 -1.0797
 2044SOL     OW17767   3.527   1.643   5.188 -0.3954  0.1251 -0.2146
 2044SOL    HW117768   3.463   1.620   5.256  0.9103 -1.5958  0.4444
 2044SOL    HW217769   3.466   1.651   5.114  1.2638  0.1370 -1.5661
 2045SOL     OW17770   4.352   1.627   2.083  0.0029 -0.5974 -0.2370
 2045SOL    HW117771   4.270   1.630   2.132 -0.3815 -1.8105 -0.8101
 2045SOL    HW217772   4.364   1.719   2.058 -1.5576 -0.4572 -0.4813
 2046SOL     OW17773   0.892   4.435   6.784  0.1344 -0.3740  0.1617
 2046SOL    HW117774   0.890   4.390   6.700 -1.6689 -1.6551  0.8807
 2046SOL    HW217775   0.941   4.514   6.763  0.1187 -0.6944 -1.0791
 2047SOL     OW17776   3.764   2.757   4.532  0.0575 -0.2791 -0.5052
 2047SOL    HW117777   3.823   2.832   4.543  2.4197 -2.0589 -0.9729
 2047SOL    HW217778   3.815   2.687   4.574  1.7855  1.5733  0.5270
 2048SOL     OW17779   2.051   4.572   6.849  0.3532 -0.3137  0.1368
 2048SOL    HW117780   1.957   4.587   6.862  0.3595  0.3190 -0.5317
 2048SOL    HW217781   2.088   4.574   6.937  0.0322 -0.5296  0.2792
 2049SOL     OW17782   0.281   4.108   5.551  0.3094 -0.1357 -0.4253
 2049SOL    HW117783   0.261   4.085   5.461  0.5757  0.6708 -0.6960
 2049SOL    HW217784   0.201   4.151   5.583  0.0442 -1.0482  0.1526
 2050SOL     OW17785   3.545   3.068   6.050  0.0458  0.2369  0.2130
 2050SOL    HW117786   3.490   2.998   6.084 -1.0701  0.5930 -0.8562
 2050SOL    HW217787   3.627   3.035   6.088  0.5574 -0.4688 -1.5095
 2051SOL     OW17788   3.587   2.282  15.027 -0.0143 -0.6573  0.6951
 2051SOL    HW117789   3.556   2.362  15.070  3.1237  0.1710  1.4342
 2051SOL    HW217790   3.510   2.226  15.036  0.1374 -0.8624  0.7169
 2052SOL     OW17791   3.137   3.635   3.567 -0.5558  0.0501  0.3912
 2052SOL    HW117792   3.204   3.637   3.635  0.4114 -0.8155 -0.5499
 2052SOL    HW217793   3.171   3.556   3.526  2.1371  1.5995 -0.3264
 2053SOL     OW17794   4.580   1.900   3.440 -0.6876 -0.0064 -0.5387
 2053SOL    HW117795   4.523   1.888   3.516  0.0268  0.4804  0.0775
 2053SOL    HW217796   4.657   1.944   3.476 -2.2102  0.8781  1.6139
 2054SOL     OW17797   4.093   4.215   8.559  0.1360 -0.0268  0.2740
 2054SOL    HW117798   4.127   4.221   8.648 -0.1534 -1.9906  0.5251
 2054SOL    HW217799   4.061   4.126   8.541  0.9151 -0.8501  2.9770
 2055SOL     OW17800   0.703   3.336   5.222  0.4820 -0.4737  0.6037
 2055SOL    HW117801   0.683   3.387   5.300 -0.3600 -1.3079  0.9399
 2055SOL    HW217802   0.787   3.299   5.245  0.6630  0.6822  1.7881
 2056SOL     OW17803   4.445   0.969   4.870 -0.0629 -0.1371 -0.2358
 2056SOL    HW117804   4.491   0.978   4.954  1.0519  1.7050 -1.0376
 2056SOL    HW217805   4.503   0.908   4.826  0.5262  0.1549  0.1427
 2057SOL     OW17806   3.514   0.018  12.813  0.3294 -0.1189 -0.7487
 2057SOL    HW117807   3.548   0.007  12.902 -0.4984 -1.8985 -0.6660
 2057SOL    HW217808   3.474   4.668  12.794  0.1172 -0.5230  1.4682
 2058SOL     OW17809   3.533   2.529   2.863 -0.1888 -0.2194 -0.6940
 2058SOL    HW117810   3.529   2.570   2.777  0.4256  2.6293  0.6296
 2058SOL    HW217811   3.597   2.461   2.841 -0.3029 -0.8757  0.9682
 2059SOL     OW17812   0.670   1.103  17.668 -0.3607  0.5671 -0.2438
 2059SOL    HW117813   0.673   1.198  17.679  1.2755  0.6165 -1.1144
 2059SOL    HW217814   0.625   1.085   0.013 -0.6858  2.2257 -0.0593
 2060SOL     OW17815   3.242   3.399   2.670  0.3280  0.3015 -0.2584
 2060SOL    HW117816   3.159   3.379   2.714  0.7128 -0.4812  0.1125
 2060SOL    HW217817   3.191   3.456   2.613 -0.3233 -1.5480 -1.5163
 2061SOL     OW17818   0.241   2.998   4.710 -0.0325  0.3828  0.4328
 2061SOL    HW117819   0.248   3.088   4.681  1.4472  1.5097  4.2370
 2061SOL    HW217820   0.237   2.948   4.628 -2.1689 -0.1282  0.8521
 2062SOL     OW17821   4.000   1.755   5.962  0.1117  0.1477 -0.3115
 2062SOL    HW117822   3.998   1.825   6.027 -1.5129  0.9794 -1.2835
 2062SOL    HW217823   3.995   1.814   5.887 -2.0513 -0.4531 -0.6379
 2063SOL     OW17824   0.032   0.722   2.463  0.1361 -0.0978  0.0980
 2063SOL    HW117825   0.086   0.648   2.435 -0.0328  0.1414 -0.8524
 2063SOL    HW217826   0.066   0.792   2.408  0.0664 -0.8069 -0.8392
 2064SOL     OW17827   3.679   4.046   9.070  0.1366 -0.0560 -0.2123
 2064SOL    HW117828   3.714   4.040   9.159 -0.6045 -0.0009  0.0844
 2064SOL    HW217829   3.718   3.970   9.027  0.5920  0.0925 -0.0522
 2065SOL     OW17830   3.752   0.258   7.163 -0.5093 -0.4753 -0.2623
 2065SOL    HW117831   3.725   0.217   7.081 -1.1971 -0.7590  0.1009
 2065SOL    HW217832   3.760   0.182   7.220 -2.2070 -0.5838 -0.1531
 2066SOL     OW17833   1.321   2.212  14.280  0.0441  0.2168  0.1109
 2066SOL    HW117834   1.280   2.295  14.257  0.5977  0.8296  1.3194
 2066SOL    HW217835   1.325   2.174  14.192  0.0378 -0.7215  0.5193
 2067SOL     OW17836   4.276   3.380  17.271 -0.5702  0.0686 -0.5562
 2067SOL    HW117837   4.210   3.318  17.303  0.3780 -2.3174 -3.2014
 2067SOL    HW217838   4.344   3.384  17.338 -0.0778 -2.0172 -0.9342
 2068SOL     OW17839   3.690   2.828  16.406 -0.1343 -0.3297 -0.1297
 2068SOL    HW117840   3.673   2.803  16.315 -2.0644  1.4271 -0.2664
 2068SOL    HW217841   3.693   2.923  16.395  1.0507 -0.0283  2.7148
 2069SOL     OW17842   4.394   0.824  16.866  0.2471 -0.4578 -0.0571
 2069SOL    HW117843   4.413   0.777  16.785  0.2371  0.3433 -0.5305
 2069SOL    HW217844   4.349   0.754  16.914  1.8403 -0.9024  0.7826
 2070SOL     OW17845   2.434   1.136   4.675 -0.0451 -0.1972  0.3066
 2070SOL    HW117846   2.466   1.167   4.590  0.6866 -2.9357 -0.4438
 2070SOL    HW217847   2.362   1.197   4.688  0.8045  0.8814 -0.0806
 2071SOL     OW17848   2.682   2.604   1.890  0.1860  0.0856  0.0614
 2071SOL    HW117849   2.726   2.656   1.823  0.6144  1.1824  1.1840
 2071SOL    HW217850   2.714   2.652   1.967 -1.7277  0.8017  0.4276
 2072SOL     OW17851   0.834   3.998   5.026 -0.0732  0.1447  0.3504
 2072SOL    HW117852   0.753   3.980   5.072 -0.9929 -0.6194 -1.5502
 2072SOL    HW217853   0.894   3.936   5.067  1.1786 -1.2423 -3.5811
 2073SOL     OW17854   0.126   3.784   3.703 -0.3914  0.0794 -0.0782
 2073SOL    HW117855   0.141   3.765   3.795 -1.6221  0.7613  0.2630
 2073SOL    HW217856   0.031   3.789   3.697 -0.4677  0.4991  1.4468
 2074SOL     OW17857   1.398   0.538   0.300  0.0593 -0.0439  0.0403
 2074SOL    HW117858   1.386   0.472   0.232 -3.0358  1.5327 -0.9267
 2074SOL    HW217859   1.489   0.561   0.281 -0.3459  1.4499 -0.0619
 2075SOL     OW17860   1.779   0.194   8.378  0.2612 -0.0846 -0.0121
 2075SOL    HW117861   1.784   0.156   8.291 -1.5075  1.8329 -0.9589
 2075SOL    HW217862   1.873   0.195   8.395  0.6103  0.9156 -2.0805
 2076SOL     OW17863   1.297   2.121  10.489 -0.2299  0.3131 -0.8903
 2076SOL    HW117864   1.285   2.212  10.461  0.6455  0.3972 -0.9817
 2076SOL    HW217865   1.209   2.083  10.487  0.3283 -0.9763 -0.5686
 2077SOL     OW17866   0.572   0.783  13.030 -0.1380  0.0803  0.3820
 2077SOL    HW117867   0.542   0.693  13.015  3.0305 -1.3443  2.3770
 2077SOL    HW217868   0.654   0.764  13.076 -0.4309 -2.2764 -0.0731
 2078SOL     OW17869   3.499   4.243   4.164 -0.5511 -0.0796 -0.0071
 2078SOL    HW117870   3.460   4.220   4.248 -1.8544  0.9389 -0.3458
 2078SOL    HW217871   3.484   4.338   4.156  2.4129  0.4198  0.3272
 2079SOL     OW17872   2.945   0.321   8.038  0.4720 -0.0188 -0.3944
 2079SOL    HW117873   2.937   0.364   7.953 -1.1290  2.7962  1.2079
 2079SOL    HW217874   2.863   0.333   8.086  0.8132 -0.3535  0.2751
 2080SOL     OW17875   4.687   4.045   1.855  0.5768  0.4449  0.0879
 2080SOL    HW117876   4.627   4.104   1.810 -0.4427  0.0684  0.9375
 2080SOL    HW217877   4.673   4.061   1.949 -1.5505  0.5617 -0.2453
 2081SOL     OW17878   4.208   1.547  13.498  0.1001 -0.1645  0.0398
 2081SOL    HW117879   4.166   1.620  13.542 -0.8391 -1.7284  1.7314
 2081SOL    HW217880   4.176   1.472  13.547 -1.1526  0.4745  0.1900
 2082SOL     OW17881   0.930   3.674  10.724 -0.5843 -0.4730 -0.5134
 2082SOL    HW117882   1.008   3.688  10.672  0.0106 -0.1084  0.4806
 2082SOL    HW217883   0.955   3.707  10.811 -0.3505 -2.0611  0.0316
 2083SOL     OW17884   1.049   4.430   3.517 -0.3895  0.8820 -0.6888
 2083SOL    HW117885   1.103   4.495   3.561  4.1720 -2.7690 -0.8794
 2083SOL    HW217886   0.982   4.421   3.584  0.9406  3.0598  0.9211
 2084SOL     OW17887   4.104   0.468   2.457  0.1272  0.0643  0.0090
 2084SOL    HW117888   4.177   0.526   2.480 -1.1791  0.4558  3.1490
 2084SOL    HW217889   4.116   0.481   2.363  0.2799  1.4577  0.2108
 2085SOL     OW17890   4.334   2.454  17.361 -0.8022 -0.0478  0.2950
 2085SOL    HW117891   4.357   2.547  17.369 -0.7057 -0.1413  1.0702
 2085SOL    HW217892   4.239   2.468  17.357 -0.6950  0.7104  0.4300
 2086SOL     OW17893   0.323   2.472   9.674  0.1510  0.0417 -0.9131
 2086SOL    HW117894   0.259   2.530   9.716  2.1510  0.9691  0.8655
 2086SOL    HW217895   0.346   2.414   9.747 -2.2461  1.9864  1.3745
 2087SOL     OW17896   3.963   0.753   4.713  0.2595  0.5061  0.3166
 2087SOL    HW117897   3.923   0.767   4.799  0.0044 -1.1521  0.4786
 2087SOL    HW217898   4.017   0.829   4.693 -0.4112  0.5190 -1.3773
 2088SOL     OW17899   0.666   4.018  13.633  0.4704 -0.4672 -0.5682
 2088SOL    HW117900   0.649   4.109  13.655  2.7438  0.1503 -1.3700
 2088SOL    HW217901   0.587   3.975  13.664  0.8196 -0.1177  0.8009
 2089SOL     OW17902   2.457   4.466  11.796  0.2671 -0.8673 -0.3979
 2089SOL    HW117903   2.481   4.469  11.889 -0.9847  1.6234 -0.1280
 2089SOL    HW217904   2.506   4.542  11.765 -0.7626 -0.1183 -0.2056
 2090SOL     OW17905   4.569   0.129   3.868 -0.2168  0.5241  0.3159
 2090SOL    HW117906   4.584   0.077   3.789 -2.4923  0.7079 -0.2227
 2090SOL    HW217907   4.490   0.179   3.849 -0.4486 -0.4338 -1.2163
 2091SOL     OW17908   0.661   1.351  15.608 -0.3718  0.4391 -0.4375
 2091SOL    HW117909   0.621   1.266  15.593  1.3210 -0.0254 -2.2531
 2091SOL    HW217910   0.631   1.401  15.533 -0.8787 -0.3237 -0.7485
 2092SOL     OW17911   3.188   2.070   9.320  0.2114  0.1679 -0.1989
 2092SOL    HW117912   3.154   1.984   9.346  0.1500  0.1828 -0.2295
 2092SOL    HW217913   3.114   2.112   9.277  0.9609 -1.5012 -3.1447
 2093SOL     OW17914   2.303   2.007   4.709 -0.2451 -0.1990 -0.3849
 2093SOL    HW117915   2.331   1.987   4.798 -1.3679  0.9228  0.2131
 2093SOL    HW217916   2.324   1.926   4.663  0.1694  0.3629 -1.2026
 2094SOL     OW17917   0.185   1.450   1.106 -0.5145  0.3861 -0.0111
 2094SOL    HW117918   0.138   1.368   1.125  1.0407 -0.9510 -1.9619
 2094SOL    HW217919   0.269   1.420   1.072 -1.3918 -0.8236 -1.1290
 2095SOL     OW17920   4.597   2.585   7.621  0.6371 -0.0803  0.1284
 2095SOL    HW117921   4.619   2.549   7.535  2.0419  1.0147  0.0273
 2095SOL    HW217922   4.654   2.532   7.678 -1.8492 -2.0962  0.7264
 2096SOL     OW17923   2.103   0.941   8.217  0.3808  0.0012  0.2457
 2096SOL    HW117924   2.141   1.002   8.153  2.2496 -1.1943  0.2100
 2096SOL    HW217925   2.051   1.003   8.268 -0.4209  0.3775 -1.0436
 2097SOL     OW17926   3.254   2.140   2.066 -0.0461  0.2095  0.5885
 2097SOL    HW117927   3.299   2.078   2.009  0.9749  0.6819  0.8898
 2097SOL    HW217928   3.298   2.133   2.150  0.7504 -1.2187  0.0506
 2098SOL     OW17929   3.260   1.765   5.291  0.0656 -0.0842 -0.4796
 2098SOL    HW117930   3.247   1.811   5.208  0.2182  1.0672  0.1389
 2098SOL    HW217931   3.181   1.788   5.339 -0.3194 -2.8248  0.1607
 2099SOL     OW17932   3.678   4.209   6.861 -0.2757 -0.3731 -0.3724
 2099SOL    HW117933   3.741   4.157   6.909 -0.1016  1.8734  1.8583
 2099SOL    HW217934   3.725   4.292   6.850 -0.0935 -0.4482 -0.1410
 2100SOL     OW17935   0.908   3.223  13.112 -0.3319 -0.1428 -0.3756
 2100SOL    HW117936   0.971   3.199  13.045 -1.5389 -0.6473 -1.3321
 2100SOL    HW217937   0.821   3.212  13.074  0.1122 -1.2107 -1.0601
 2101SOL     OW17938   0.830   4.629   7.514  0.3237 -0.3965  0.4117
 2101SOL    HW117939   0.876   4.606   7.433 -1.5248  4.1109 -1.9040
 2101SOL    HW217940   0.797   4.542   7.540  2.9494 -1.3306  0.5627
 2102SOL     OW17941   4.221   2.042  16.153 -0.8101  0.5369 -0.4265
 2102SOL    HW117942   4.290   1.995  16.108 -0.8766 -0.3799  0.4404
 2102SOL    HW217943   4.240   2.129  16.117  0.0122  0.1525 -0.9085
 2103SOL     OW17944   2.513   4.479   7.502  0.2152 -0.1558  0.8588
 2103SOL    HW117945   2.449   4.412   7.477 -0.7524  1.1379 -0.1775
 2103SOL    HW217946   2.493   4.492   7.595 -0.1697 -2.8351  1.1564
 2104SOL     OW17947   2.925   2.560  12.086 -0.0234 -0.0801 -0.2561
 2104SOL    HW117948   2.845   2.599  12.051  0.0538  0.5272  0.2336
 2104SOL    HW217949   2.989   2.622  12.050  0.9052 -0.6337  0.4139
 2105SOL     OW17950   0.655   0.765   8.980  0.0653 -0.0633  0.3832
 2105SOL    HW117951   0.698   0.706   8.918  0.1257 -0.1814  0.5378
 2105SOL    HW217952   0.695   0.747   9.065  1.0964  2.3817  0.3969
 2106SOL     OW17953   1.399   0.431  16.946 -0.1281  0.2388  0.0859
 2106SOL    HW117954   1.440   0.457  16.864  1.2274 -0.8926  0.4025
 2106SOL    HW217955   1.343   0.506  16.967 -1.2993 -0.8711  0.9598
 2107SOL     OW17956   2.955   1.050   3.475  0.1369  0.3488  0.3941
 2107SOL    HW117957   2.954   1.123   3.412 -1.1130  0.0466  0.0695
 2107SOL    HW217958   2.862   1.047   3.499 -1.0428 -0.6770 -4.2788
 2108SOL     OW17959   2.030   0.391   0.996  0.5453  0.0823  0.2405
 2108SOL    HW117960   2.076   0.452   0.939  1.3796 -2.0199 -1.3403
 2108SOL    HW217961   2.055   0.301   0.976 -5.6283 -0.9704 -2.7318
 2109SOL     OW17962   1.890   3.129   9.775 -0.3631  0.4262 -0.2132
 2109SOL    HW117963   1.881   3.074   9.853  2.7167  0.9466  0.5247
 2109SOL    HW217964   1.845   3.077   9.708 -1.7847  2.0289 -0.4978
 2110SOL     OW17965   1.493   1.549  11.507 -0.1030 -0.5061  0.3240
 2110SOL    HW117966   1.490   1.644  11.492  0.2646 -0.9546 -2.5322
 2110SOL    HW217967   1.467   1.543  11.599 -2.2678  1.1142 -0.1769
 2111SOL     OW17968   0.864   1.758   6.892  0.1298 -0.6115  0.3099
 2111SOL    HW117969   0.897   1.783   6.806  0.0890 -1.4334  0.0524
 2111SOL    HW217970   0.928   1.699   6.930  1.7041  0.3074 -0.9333
 2112SOL     OW17971   1.016   1.342   7.620 -0.4984  0.4175  0.1654
 2112SOL    HW117972   1.004   1.352   7.715  1.3501  0.4279  0.3927
 2112SOL    HW217973   0.997   1.430   7.589 -1.0882 -0.0246 -0.7288
 2113SOL     OW17974   1.949   3.956   7.689  0.0469 -0.5604 -0.2783
 2113SOL    HW117975   1.896   3.894   7.739  0.3469 -1.0927 -0.6209
 2113SOL    HW217976   1.886   3.994   7.628  0.0392  2.4338  1.6046
 2114SOL     OW17977   0.995   0.185   6.588 -0.3075  0.1178  0.1065
 2114SOL    HW117978   1.064   0.216   6.646  3.5038 -3.3206 -2.5817
 2114SOL    HW217979   0.963   0.269   6.553  0.5385  0.3927  0.0083
 2115SOL     OW17980   4.584   3.352  11.717 -0.7242  0.5869  0.2238
 2115SOL    HW117981   4.645   3.315  11.782  1.2541  3.8177  0.2464
 2115SOL    HW217982   4.539   3.274  11.687  0.0367  0.6530 -1.0773
 2116SOL     OW17983   3.064   3.409   4.246 -0.6874 -0.0681  0.3686
 2116SOL    HW117984   3.014   3.348   4.300  0.2292 -0.5418  0.6757
 2116SOL    HW217985   3.006   3.412   4.170  1.7600 -0.4929 -1.5432
 2117SOL     OW17986   0.301   4.530  11.091  0.1574  0.1829  0.2144
 2117SOL    HW117987   0.341   4.593  11.152 -2.4701  0.4839  1.6768
 2117SOL    HW217988   0.371   4.515  11.028  0.6580  1.0953  0.5451
 2118SOL     OW17989   2.925   0.709   7.952 -0.1128 -0.1594  0.0718
 2118SOL    HW117990   2.861   0.755   7.898  0.1906  1.1829  0.8481
 2118SOL    HW217991   2.992   0.777   7.957  0.3849 -0.6812  0.5300
 2119SOL     OW17992   3.583   1.105   3.282 -0.2917 -0.2116  0.5254
 2119SOL    HW117993   3.542   1.160   3.349 -2.0204 -2.1630  1.0588
 2119SOL    HW217994   3.613   1.032   3.335 -0.3630  0.6852  1.7990
 2120SOL     OW17995   2.984   3.794  11.715  0.6496 -0.0679 -0.3569
 2120SOL    HW117996   2.957   3.835  11.633 -3.3287 -0.9349  0.5230
 2120SOL    HW217997   2.960   3.702  11.701 -1.6172  0.4104  0.4197
 2121SOL     OW17998   0.223   2.120  10.863 -0.7672 -0.1397 -0.5157
 2121SOL    HW117999   0.309   2.117  10.822  0.4599 -0.0307  2.0562
 2121SOL    HW218000   0.240   2.192  10.925  0.5169  0.7032 -1.8421
 2122SOL     OW18001   3.698   3.789   8.732  0.4109 -0.1284  0.6869
 2122SOL    HW118002   3.697   3.874   8.687 -3.0193 -0.8545 -0.5488
 2122SOL    HW218003   3.758   3.729   8.688 -0.5363  0.0718 -0.8352
 2123SOL     OW18004   2.986   0.883   4.072 -0.5227 -0.2524 -0.1602
 2123SOL    HW118005   2.925   0.847   4.007 -2.1432 -1.4034  1.9717
 2123SOL    HW218006   2.934   0.875   4.152  0.4626 -0.1775  0.4776
 2124SOL     OW18007   0.241   1.736   0.744  0.0749  0.4214 -0.1387
 2124SOL    HW118008   0.278   1.651   0.720  1.8286  1.3178 -0.6276
 2124SOL    HW218009   0.150   1.741   0.715 -0.4324  0.3958  1.4365
 2125SOL     OW18010   0.350   1.633  12.190  0.1600 -0.0315  0.0125
 2125SOL    HW118011   0.394   1.631  12.276  0.3299 -1.9440 -0.1137
 2125SOL    HW218012   0.341   1.728  12.183  1.7694  0.1736  0.5824
 2126SOL     OW18013   4.569   2.603   6.390  0.6793  0.1180 -0.3336
 2126SOL    HW118014   4.656   2.643   6.382  0.1974  1.2881  0.1870
 2126SOL    HW218015   4.590   2.537   6.456 -0.6541  1.8636  1.8629
 2127SOL     OW18016   2.123   0.415  13.550 -0.2071 -0.0819 -0.4279
 2127SOL    HW118017   2.067   0.366  13.610  1.5249  0.0752  1.3396
 2127SOL    HW218018   2.110   0.373  13.465  0.3192 -0.8200 -0.1501
 2128SOL     OW18019   2.313   0.410   6.495 -0.0555  0.3215 -0.2141
 2128SOL    HW118020   2.329   0.502   6.513  0.2714  0.5385 -1.5983
 2128SOL    HW218021   2.228   0.417   6.451 -0.2120  2.0286  0.3929
 2129SOL     OW18022   4.656   0.608   9.905  0.0307 -0.0675  0.6344
 2129SOL    HW118023   4.571   0.613   9.947  0.1698 -2.7175  1.2593
 2129SOL    HW218024   4.648   0.672   9.834 -1.1087  0.5609  1.3385
 2130SOL     OW18025   4.193   0.062   9.090 -0.0710 -0.0429  0.0847
 2130SOL    HW118026   4.170   0.125   9.022 -0.1000  0.5549  0.6500
 2130SOL    HW218027   4.224   4.717   9.046  0.1915  0.6584 -0.9946
 2131SOL     OW18028   1.732   0.192   6.726  0.1838 -0.2417  0.1947
 2131SOL    HW118029   1.786   0.271   6.730  0.6118 -0.5158 -0.2171
 2131SOL    HW218030   1.750   0.172   6.817  1.3085  0.3683  0.0979
 2132SOL     OW18031   2.139   4.437   8.738 -0.7135 -0.0376 -0.3079
 2132SOL    HW118032   2.194   4.427   8.660 -1.3423  1.2204 -0.8997
 2132SOL    HW218033   2.159   4.526   8.765  1.1478 -0.2258 -1.0632
 2133SOL     OW18034   0.639   3.370   4.376  0.4314 -0.1526 -0.0855
 2133SOL    HW118035   0.586   3.370   4.457  0.0709 -1.4209 -0.3139
 2133SOL    HW218036   0.572   3.374   4.308  0.9359 -2.4461 -0.7249
 2134SOL     OW18037   2.197   4.332   5.566  0.2353  0.1539 -0.7310
 2134SOL    HW118038   2.105   4.359   5.555 -0.4168 -0.9787  1.9779
 2134SOL    HW218039   2.228   4.422   5.574  2.3881 -0.7585  1.3067
 2135SOL     OW18040   2.980   2.102  16.424  0.0819  0.1758  0.4805
 2135SOL    HW118041   3.033   2.147  16.359 -0.2035  0.3803  0.3897
 2135SOL    HW218042   3.029   2.021  16.432 -1.9751 -1.0439  0.8898
 2136SOL     OW18043   1.607   2.856   5.247  0.0509  0.3560 -0.5149
 2136SOL    HW118044   1.685   2.839   5.194 -0.9764  1.2520 -2.3277
 2136SOL    HW218045   1.634   2.936   5.293  1.0308 -0.2011 -0.1432
 2137SOL     OW18046   4.423   0.403  12.472  0.3809 -0.1686 -0.7777
 2137SOL    HW118047   4.460   0.489  12.490  2.1199 -0.8029 -1.3290
 2137SOL    HW218048   4.467   0.338  12.527  0.4385 -1.5809 -2.4681
 2138SOL     OW18049   1.401   0.943   0.656 -0.4007  0.1891  0.4967
 2138SOL    HW118050   1.492   0.953   0.685 -0.3455 -0.6683  0.6347
 2138SOL    HW218051   1.420   0.865   0.603 -2.7493 -0.3984  0.5143
 2139SOL     OW18052   1.172   1.453   6.027 -0.1207  0.6101  0.7882
 2139SOL    HW118053   1.220   1.402   5.962 -0.5929 -0.2813  1.1366
 2139SOL    HW218054   1.131   1.513   5.966 -0.0101  1.6075  1.6934
 2140SOL     OW18055   2.655   4.363   6.317 -0.3850 -0.1097 -0.7062
 2140SOL    HW118056   2.708   4.333   6.242  0.8134  0.9650 -0.2896
 2140SOL    HW218057   2.579   4.313   6.288 -0.4784 -0.0881 -0.5007
 2141SOL     OW18058   0.225   1.572   1.823 -0.3363 -0.4670 -0.2789
 2141SOL    HW118059   0.193   1.526   1.901 -3.9471  2.3478 -0.0629
 2141SOL    HW218060   0.183   1.658   1.837  1.0595  0.4475 -1.7391
 2142SOL     OW18061   0.923   4.703   6.395  0.5067  0.3045  0.1895
 2142SOL    HW118062   0.859   4.714   6.325  0.3914 -0.3229  0.2043
 2142SOL    HW218063   0.926   0.057   6.432  0.4154  0.0724  0.7551
 2143SOL     OW18064   0.725   3.185  12.918  0.0058  0.4264 -0.1649
 2143SOL    HW118065   0.709   3.094  12.944  0.4934 -0.1263 -1.7890
 2143SOL    HW218066   0.780   3.176  12.839 -0.3508  3.8136 -0.8004
 2144SOL     OW18067   1.920   0.989  15.432  0.0327 -0.6721  0.3986
 2144SOL    HW118068   1.904   1.012  15.341  1.3849 -0.8705  0.1049
 2144SOL    HW218069   1.995   0.929  15.423  3.8259  3.9136  1.2501
 2145SOL     OW18070   2.612   2.057  14.274  0.6089  0.3080  0.9201
 2145SOL    HW118071   2.519   2.035  14.262  0.3344  1.8686  0.1070
 2145SOL    HW218072   2.621   2.143  14.233  1.4731  0.5117  1.5526
 2146SOL     OW18073   3.978   0.092   1.148  0.1740  0.0201 -0.1226
 2146SOL    HW118074   3.929   0.082   1.230 -1.0276 -5.2724 -1.5187
 2146SOL    HW218075   4.069   0.101   1.177  0.2568  0.5289 -0.5415
 2147SOL     OW18076   2.768   2.339  16.515 -0.1786  0.0385 -0.3245
 2147SOL    HW118077   2.782   2.249  16.483  3.0512 -0.1263  1.6587
 2147SOL    HW218078   2.679   2.311  16.537 -0.8738  2.9605  0.5197
 2148SOL     OW18079   0.510   2.702   2.743 -0.3012 -0.6776 -0.2489
 2148SOL    HW118080   0.591   2.733   2.784 -1.1428  0.7990  0.2906
 2148SOL    HW218081   0.476   2.777   2.694 -0.6626 -1.0559 -0.5762
 2149SOL     OW18082   3.798   1.854  13.449 -0.6634  0.9253  0.1190
 2149SOL    HW118083   3.825   1.769  13.413  1.2272  0.5508  2.4261
 2149SOL    HW218084   3.870   1.910  13.420  0.7158 -0.7234  0.3343
 2150SOL     OW18085   2.242   2.970  11.605  0.3484 -0.8862  0.1466
 2150SOL    HW118086   2.306   2.995  11.539 -0.0656  2.2953  0.9616
 2150SOL    HW218087   2.270   2.886  11.642 -0.1636 -1.1379 -0.0446
 2151SOL     OW18088   2.604   4.677  11.735 -0.3266  0.2090  1.1132
 2151SOL    HW118089   2.583   0.034  11.714 -0.3976  0.1247  0.8242
 2151SOL    HW218090   2.700   4.675  11.739 -0.1206 -0.4750 -3.8575
 2152SOL     OW18091   1.852   1.896   1.803  0.0605  0.7390  0.3901
 2152SOL    HW118092   1.814   1.954   1.737  0.3019 -1.6514 -1.8559
 2152SOL    HW218093   1.810   1.812   1.784 -0.2730  0.6346  1.5677
 2153SOL     OW18094   0.318   4.604  12.001  0.1175 -0.5372  0.1572
 2153SOL    HW118095   0.321   4.610  12.096  0.1017  0.5580  0.0947
 2153SOL    HW218096   0.356   4.519  11.978 -1.3431 -0.9593 -0.7155
 2154SOL     OW18097   4.715   3.012   4.552  0.5722 -0.8740  0.3371
 2154SOL    HW118098   4.648   3.053   4.497  0.8610  1.5492  1.7656
 2154SOL    HW218099   4.708   2.921   4.523 -1.1136 -0.4984 -0.4245
 2155SOL     OW18100   2.986   1.618  11.723 -0.1210 -0.9637 -0.1092
 2155SOL    HW118101   3.007   1.565  11.799  1.9734  2.0899  1.4527
 2155SOL    HW218102   2.901   1.650  11.753  1.2106  0.1993  2.3539
 2156SOL     OW18103   1.956   1.861  10.264 -0.3216  0.4350  0.1260
 2156SOL    HW118104   2.002   1.944  10.248  0.1537  0.2876  0.7066
 2156SOL    HW218105   1.872   1.879  10.223  0.1498 -0.9336 -1.4444
 2157SOL     OW18106   0.457   4.102   3.145 -0.1025  0.0131 -0.1126
 2157SOL    HW118107   0.467   4.189   3.184  0.4757  0.7259 -1.8768
 2157SOL    HW218108   0.478   4.056   3.226  0.5386 -1.2127 -0.9752
 2158SOL     OW18109   1.338   3.843   9.290  0.1221 -0.2561 -0.0125
 2158SOL    HW118110   1.426   3.821   9.259  0.6184  0.9025  0.5784
 2158SOL    HW218111   1.330   3.931   9.254  0.9186  0.4177  1.4433
 2159SOL     OW18112   3.306   0.400   1.600  0.5657  0.7188  0.5227
 2159SOL    HW118113   3.216   0.407   1.633  0.1733 -2.1698  0.0373
 2159SOL    HW218114   3.282   0.390   1.508 -0.5611  0.3877  0.8488
 2160SOL     OW18115   2.153   3.600  14.893 -0.3949  0.2204 -0.2841
 2160SOL    HW118116   2.234   3.565  14.931  1.2682  1.7736 -2.4310
 2160SOL    HW218117   2.175   3.621  14.802 -1.4481  1.6257 -0.2099
 2161SOL     OW18118   1.808   2.585   2.199  0.0967  0.6157 -0.0571
 2161SOL    HW118119   1.855   2.607   2.119  0.9260  1.2000  0.5997
 2161SOL    HW218120   1.719   2.564   2.169 -0.0138  0.0741  0.6439
 2162SOL     OW18121   0.919   3.562   8.618  0.0883 -0.4389  0.5912
 2162SOL    HW118122   0.870   3.589   8.540 -0.3372 -1.7976  0.3762
 2162SOL    HW218123   0.863   3.513   8.678  1.4700 -1.1814  1.2661
 2163SOL     OW18124   3.115   0.368  11.850 -0.6953 -0.6068 -0.6895
 2163SOL    HW118125   3.181   0.437  11.843 -1.6195  0.3396 -0.0870
 2163SOL    HW218126   3.145   0.296  11.905 -0.4533 -1.3545 -1.8034
 2164SOL     OW18127   3.278   3.063   6.836 -0.0328 -0.0939 -0.6994
 2164SOL    HW118128   3.300   2.970   6.840  0.0870 -0.0161  0.6092
 2164SOL    HW218129   3.214   3.072   6.907  0.4859 -2.0756  0.0049
 2165SOL     OW18130   0.583   1.214   2.811  0.2018  1.0455 -0.0364
 2165SOL    HW118131   0.540   1.176   2.888 -0.1188  1.8498  0.1889
 2165SOL    HW218132   0.672   1.218   2.847  0.1565  3.4900 -0.2048
 2166SOL     OW18133   3.140   2.040   5.781  0.7730 -0.3045 -0.5020
 2166SOL    HW118134   3.213   2.048   5.842  0.1493 -1.2848  0.3563
 2166SOL    HW218135   3.091   1.968   5.821  0.4080  1.1814  1.7546
 2167SOL     OW18136   2.967   2.339   8.980 -0.5448 -0.2380  0.2037
 2167SOL    HW118137   3.059   2.356   8.960 -0.7785  1.1715  0.3241
 2167SOL    HW218138   2.956   2.251   8.944 -0.8376 -0.4013  0.6897
 2168SOL     OW18139   1.392   2.257   1.810  0.1373  0.2024 -0.6708
 2168SOL    HW118140   1.365   2.274   1.900 -0.4681 -0.2792 -0.7564
 2168SOL    HW218141   1.354   2.330   1.761  0.1096  0.2712 -0.5480
 2169SOL     OW18142   2.387   4.069   2.229 -0.0268  0.5883  0.3182
 2169SOL    HW118143   2.311   4.036   2.180  0.6678  0.0206 -0.3651
 2169SOL    HW218144   2.370   4.034   2.317 -2.9368  1.2266  0.0322
 2170SOL     OW18145   0.979   3.451   5.301  0.5795 -0.0671  0.2974
 2170SOL    HW118146   0.999   3.473   5.391  0.8803 -1.4215  0.5725
 2170SOL    HW218147   1.034   3.373   5.286 -1.9351 -2.3933  3.3284
 2171SOL     OW18148   0.429   4.625   6.476 -0.2907  0.1837 -0.4482
 2171SOL    HW118149   0.463   4.561   6.538  2.2574  2.8100  0.8703
 2171SOL    HW218150   0.405   4.566   6.405  0.1404  0.8502 -1.1512
 2172SOL     OW18151   2.850   0.125   9.864 -0.6084  0.2823 -0.3015
 2172SOL    HW118152   2.804   0.179   9.799 -0.1351  0.8522 -0.1562
 2172SOL    HW218153   2.857   0.184   9.938  0.1177 -0.5467  0.2971
 2173SOL     OW18154   0.836   4.241   7.250  0.4239  0.4258  0.0976
 2173SOL    HW118155   0.857   4.239   7.157 -2.1915  1.7011 -0.5109
 2173SOL    HW218156   0.779   4.165   7.246  0.6975  0.3866 -2.7246
 2174SOL     OW18157   2.438   1.024  13.248 -0.3029 -0.0949 -0.3349
 2174SOL    HW118158   2.492   0.945  13.237  2.5627  1.6673  1.1233
 2174SOL    HW218159   2.421   1.054  13.160  0.9859 -0.3468 -0.6719
 2175SOL     OW18160   1.827   3.937  11.194 -0.0978  0.2901  0.3904
 2175SOL    HW118161   1.894   4.006  11.187 -0.6627  0.8556  0.5496
 2175SOL    HW218162   1.844   3.917  11.286  3.0984  0.3181 -0.1730
 2176SOL     OW18163   2.588   1.230  12.768 -0.2843 -0.0049 -0.8314
 2176SOL    HW118164   2.510   1.253  12.717 -0.5618  0.7495 -0.0573
 2176SOL    HW218165   2.649   1.298  12.741 -0.6871  0.5285 -0.4033
 2177SOL     OW18166   1.020   1.121   0.914 -0.0017 -0.4228 -0.7749
 2177SOL    HW118167   1.038   1.065   0.839 -1.1520 -1.5295 -0.2343
 2177SOL    HW218168   0.935   1.158   0.889  0.1707  0.3417 -0.2201
 2178SOL     OW18169   0.132   2.711   8.015 -0.0754  0.0220 -0.1152
 2178SOL    HW118170   0.088   2.789   8.049  0.0707  1.3005 -2.8249
 2178SOL    HW218171   0.207   2.697   8.073  0.9599 -2.1873 -1.9746
 2179SOL     OW18172   3.212   3.358   2.308 -0.3757 -0.0656 -0.1306
 2179SOL    HW118173   3.248   3.390   2.390  2.4437 -0.8071 -1.1012
 2179SOL    HW218174   3.140   3.304   2.341 -0.3388 -0.1162 -0.1348
 2180SOL     OW18175   0.271   3.479   9.012 -0.2427  0.0836  0.1352
 2180SOL    HW118176   0.248   3.567   9.043  0.3891 -0.9294  3.5621
 2180SOL    HW218177   0.285   3.434   9.096  1.9462 -1.4643 -1.0803
 2181SOL     OW18178   1.004   3.650   3.374  0.2450 -0.2386 -0.4336
 2181SOL    HW118179   1.096   3.677   3.374  0.5651 -1.3138 -1.2008
 2181SOL    HW218180   0.974   3.679   3.288  1.1231  0.0622 -0.6373
 2182SOL     OW18181   2.522   0.828   7.498 -0.1163  0.3069 -0.1466
 2182SOL    HW118182   2.599   0.851   7.446 -1.3693  1.3946 -1.5065
 2182SOL    HW218183   2.534   0.734   7.511 -2.3330  0.0252 -0.1546
 2183SOL     OW18184   2.969   2.233   7.596 -0.1613  0.0457  0.2275
 2183SOL    HW118185   3.040   2.174   7.570 -1.0250 -0.7848 -0.2298
 2183SOL    HW218186   3.015   2.294   7.653  1.1122 -2.7587  2.2094
 2184SOL     OW18187   4.226   4.532   1.378 -0.4547 -0.1107 -0.0039
 2184SOL    HW118188   4.234   4.469   1.306  1.2462  1.7851 -1.4727
 2184SOL    HW218189   4.134   4.559   1.369 -0.3394  0.3370  0.1374
 2185SOL     OW18190   1.177   1.982  10.809 -0.2295 -0.2218  0.3636
 2185SOL    HW118191   1.225   1.900  10.796  0.8415  0.9004 -2.6538
 2185SOL    HW218192   1.098   1.966  10.758 -0.2552  0.8924  0.0468
 2186SOL     OW18193   3.408   3.519  14.951  0.1004  0.2502 -0.0356
 2186SOL    HW118194   3.335   3.458  14.953 -0.7929  1.4446  2.6850
 2186SOL    HW218195   3.459   3.494  15.028 -0.2626 -0.0788  0.0954
 2187SOL     OW18196   2.225   1.387  15.178 -0.1567  0.7566 -0.0032
 2187SOL    HW118197   2.148   1.418  15.131 -1.0920  1.5040  1.9969
 2187SOL    HW218198   2.270   1.327  15.118 -2.5307 -1.6009  0.5294
 2188SOL     OW18199   1.228   0.029  16.578 -0.0307 -0.0810  0.7384
 2188SOL    HW118200   1.277   0.091  16.524  0.1789  0.1778  1.2212
 2188SOL    HW218201   1.278   0.029  16.660 -0.9442 -1.8274  1.2966
 2189SOL     OW18202   1.712   4.038  13.655 -0.4406 -0.2605 -0.3080
 2189SOL    HW118203   1.697   3.962  13.711 -1.4175  1.3097  1.5567
 2189SOL    HW218204   1.782   3.990  13.610 -0.0483  1.5243 -1.6305
 2190SOL     OW18205   0.663   1.904  12.427  0.0712 -0.1921 -0.0497
 2190SOL    HW118206   0.634   1.857  12.349  0.6306 -0.3505 -0.1598
 2190SOL    HW218207   0.749   1.866  12.442  1.0310  2.4400  1.0642
 2191SOL     OW18208   2.653   3.048   4.458 -0.1139 -0.2719  0.1862
 2191SOL    HW118209   2.685   2.973   4.409  0.4096  1.6461 -2.4095
 2191SOL    HW218210   2.634   2.997   4.537  2.1750 -1.3074  0.0564
 2192SOL     OW18211   4.497   3.769   2.600  0.3411  0.1792 -0.0980
 2192SOL    HW118212   4.559   3.770   2.528 -1.3589 -0.2913 -1.5757
 2192SOL    HW218213   4.443   3.693   2.578 -1.0698  1.3277 -0.6692
 2193SOL     OW18214   3.244   4.223  17.477  0.1454  0.2701 -0.5747
 2193SOL    HW118215   3.157   4.241  17.440 -0.0801 -4.2191 -2.2188
 2193SOL    HW218216   3.267   4.307  17.517 -2.0139  0.8368 -0.5124
 2194SOL     OW18217   1.218   3.123  15.409  0.2809 -0.5046  0.1597
 2194SOL    HW118218   1.247   3.037  15.441 -1.2694 -0.4351  1.7548
 2194SOL    HW218219   1.286   3.142  15.344 -0.4517  0.0422 -0.4365
 2195SOL     OW18220   2.855   2.115   3.438 -0.2192 -0.0519  0.2771
 2195SOL    HW118221   2.915   2.108   3.364  3.0411  0.4468  2.8616
 2195SOL    HW218222   2.798   2.188   3.415  0.1811  0.0717 -0.3163
 2196SOL     OW18223   4.701   3.282  16.230  0.0210 -0.0215  0.2249
 2196SOL    HW118224   0.027   3.256  16.299  0.3729 -1.6201 -0.6780
 2196SOL    HW218225   4.685   3.372  16.257  0.4800  0.3671 -0.8063
 2197SOL     OW18226   3.584   1.199   7.643  0.0998  0.1408 -0.3735
 2197SOL    HW118227   3.602   1.166   7.731 -1.8931  1.0308  0.3724
 2197SOL    HW218228   3.631   1.283   7.642  0.5188 -0.1070 -1.6613
 2198SOL     OW18229   3.670   3.489   0.361 -0.3970  0.0929 -0.2723
 2198SOL    HW118230   3.593   3.529   0.319 -1.1885 -0.5247  0.5860
 2198SOL    HW218231   3.729   3.564   0.367  1.6768 -1.4326 -1.4679
 2199SOL     OW18232   3.661   2.125  11.762 -0.0710  0.4684 -0.0761
 2199SOL    HW118233   3.647   2.163  11.849 -0.5169  0.5971 -0.2055
 2199SOL    HW218234   3.572   2.095  11.741  0.6461 -1.0852 -0.8438
 2200SOL     OW18235   2.168   3.329   7.609 -0.3966  0.1972  0.3251
 2200SOL    HW118236   2.109   3.258   7.585  0.0751 -0.0685 -0.0505
 2200SOL    HW218237   2.203   3.289   7.689 -0.6821  1.0283  0.8668
 2201SOL     OW18238   3.075   4.413  13.526  0.1598 -0.4422  0.1321
 2201SOL    HW118239   3.048   4.467  13.601  1.1287  0.4331 -0.1608
 2201SOL    HW218240   3.132   4.477  13.483 -0.9172  0.1216 -0.4619
 2202SOL     OW18241   3.684   3.322  15.001  0.4293  0.1529  0.1215
 2202SOL    HW118242   3.650   3.239  15.035 -0.9691  0.7373  0.1704
 2202SOL    HW218243   3.657   3.305  14.911 -0.6182 -0.4243  0.5489
 2203SOL     OW18244   3.482   1.908   3.139  0.2516  0.1888  0.2564
 2203SOL    HW118245   3.552   1.869   3.191  1.1738  1.1213 -0.2893
 2203SOL    HW218246   3.525   1.884   3.056 -1.2564 -2.1608  0.1626
 2204SOL     OW18247   2.237   1.326   0.436 -0.0700  0.0150 -0.4080
 2204SOL    HW118248   2.201   1.237   0.429  1.1638 -0.6372  1.3732
 2204SOL    HW218249   2.264   1.321   0.528 -0.2168  0.3439 -0.3474
 2205SOL     OW18250   3.550   3.133   8.464  0.0440 -0.1591 -0.4461
 2205SOL    HW118251   3.642   3.158   8.473 -0.0143  0.7469 -2.3793
 2205SOL    HW218252   3.561   3.044   8.498 -1.6740  0.7015  2.4108
 2206SOL     OW18253   3.550   0.144   7.876 -0.0127 -0.5046 -0.1900
 2206SOL    HW118254   3.554   0.157   7.971 -0.6745  0.9045 -0.3562
 2206SOL    HW218255   3.618   0.201   7.840 -0.6857  1.3893  1.5227
 2207SOL     OW18256   1.335   1.180  12.047  0.0106  0.3004  0.6464
 2207SOL    HW118257   1.416   1.131  12.034 -0.6164 -0.8146  0.9955
 2207SOL    HW218258   1.294   1.168  11.961  0.9259  1.1783  0.0793
 2208SOL     OW18259   4.496   4.451   6.214 -0.0916 -0.4272 -0.2749
 2208SOL    HW118260   4.410   4.464   6.254 -0.0670 -0.6289 -0.1543
 2208SOL    HW218261   4.517   4.366   6.254  0.9480 -0.8938 -1.8146
 2209SOL     OW18262   0.210   0.919   4.414 -0.6563 -0.3899 -0.1309
 2209SOL    HW118263   0.241   0.842   4.366 -0.5074 -0.9955  0.9387
 2209SOL    HW218264   0.121   0.899   4.442 -0.6996  0.3745  0.2732
 2210SOL     OW18265   4.033   4.593   3.183 -0.0303  0.2602  0.5353
 2210SOL    HW118266   4.019   4.687   3.175  1.1431  0.3148 -0.9300
 2210SOL    HW218267   4.110   4.587   3.127 -0.0104  1.7419  0.4097
 2211SOL     OW18268   3.385   2.987   9.752 -0.1254  0.5628 -0.0598
 2211SOL    HW118269   3.400   3.082   9.748 -0.3705  0.5667 -0.9546
 2211SOL    HW218270   3.457   2.960   9.694 -1.6370 -1.0319 -1.1927
 2212SOL     OW18271   1.080   3.239  17.652 -0.0547  0.1000 -0.1855
 2212SOL    HW118272   1.130   3.167  17.692  1.6657  0.7846 -1.0823
 2212SOL    HW218273   1.133   3.309  17.690  0.3395 -0.1011 -0.3657
 2213SOL     OW18274   0.440   0.203   6.213  0.0918  0.4003 -0.0986
 2213SOL    HW118275   0.355   0.210   6.258  0.1271 -1.7558  0.3266
 2213SOL    HW218276   0.496   0.220   6.289 -1.1757 -1.3286  1.2341
 2214SOL     OW18277   2.083   2.200  14.660 -0.4856  0.1466  0.0480
 2214SOL    HW118278   2.015   2.260  14.629  0.7246  1.6046  0.2094
 2214SOL    HW218279   2.156   2.255  14.633  0.3796 -0.9754  0.1007
 2215SOL     OW18280   4.495   0.532   4.454 -0.0280 -0.0879 -0.0405
 2215SOL    HW118281   4.401   0.551   4.455 -0.5363 -2.5879 -0.8549
 2215SOL    HW218282   4.492   0.471   4.527 -0.1847 -0.0118  0.0176
 2216SOL     OW18283   0.049   3.727   1.184  0.1656  0.4468  0.0339
 2216SOL    HW118284   0.022   3.767   1.102 -1.2504  0.4018  0.4783
 2216SOL    HW218285   0.072   3.638   1.156  0.3739  0.6096 -0.3171
 2217SOL     OW18286   0.413   3.353   4.220  0.2044 -0.0492  0.2289
 2217SOL    HW118287   0.418   3.337   4.126 -2.0594 -3.1002  0.6663
 2217SOL    HW218288   0.359   3.278   4.243 -0.0874  0.6914  1.9834
 2218SOL     OW18289   0.500   4.726   6.866 -0.0612  0.0455  0.1135
 2218SOL    HW118290   0.556   4.664   6.912  0.7798 -0.5483 -1.7225
 2218SOL    HW218291   0.553   0.072   6.872 -2.5550  1.5955  1.5354
 2219SOL     OW18292   1.315   3.702   2.616 -0.6149 -0.0035 -0.1723
 2219SOL    HW118293   1.321   3.730   2.707 -2.2859 -0.5836  0.1225
 2219SOL    HW218294   1.395   3.650   2.616  0.7186  2.0205  2.0762
 2220SOL     OW18295   2.711   2.879   6.954  0.2306 -0.4152  0.5852
 2220SOL    HW118296   2.684   2.965   6.921  5.3120  1.3216  0.9256
 2220SOL    HW218297   2.635   2.855   7.006  0.1552  1.6099  1.4180
 2221SOL     OW18298   1.843   4.253   5.692  1.0628  0.0308 -0.0781
 2221SOL    HW118299   1.854   4.312   5.618  0.5137  3.2451  2.3782
 2221SOL    HW218300   1.903   4.285   5.759  2.0471 -1.3026 -0.3219
 2222SOL     OW18301   2.075   1.706   5.985 -0.0890  0.1631 -0.5785
 2222SOL    HW118302   2.062   1.754   6.066  0.6683 -1.7391  0.6601
 2222SOL    HW218303   2.049   1.757   5.908 -0.0269 -1.9723 -2.0197
 2223SOL     OW18304   1.995   3.415   7.910 -0.1661 -0.2826  0.1258
 2223SOL    HW118305   1.946   3.396   7.990 -0.0430  1.2151  0.5422
 2223SOL    HW218306   2.035   3.330   7.890  0.4296 -0.1033  0.5591
 2224SOL     OW18307   1.585   3.207  15.926 -0.2339  0.3522  0.4544
 2224SOL    HW118308   1.505   3.164  15.897 -1.4475  0.2565  3.9451
 2224SOL    HW218309   1.658   3.164  15.880 -1.0023 -1.8002  1.2489
 2225SOL     OW18310   4.709   2.321   9.267  0.2571 -0.1436  0.0686
 2225SOL    HW118311   4.624   2.278   9.257  0.9987 -1.7036  0.4271
 2225SOL    HW218312   4.691   2.389   9.331 -0.5500  0.0613 -0.3743
 2226SOL     OW18313   3.732   1.216  14.948 -0.4532  0.3666  0.6296
 2226SOL    HW118314   3.738   1.311  14.943  0.5197  0.2620 -0.1946
 2226SOL    HW218315   3.669   1.209  14.877 -3.2211  0.7205  3.0816
 2227SOL     OW18316   1.046   1.441  10.189  0.2572  0.5322 -0.4274
 2227SOL    HW118317   1.000   1.524  10.176  0.9409  1.5160  3.4070
 2227SOL    HW218318   1.060   1.424  10.096 -1.7057 -1.9689 -0.2446
 2228SOL     OW18319   3.114   1.214   8.251 -0.1219  0.2994 -0.0744
 2228SOL    HW118320   3.140   1.284   8.312 -0.5754 -0.3545  0.8766
 2228SOL    HW218321   3.145   1.138   8.301 -0.2997 -0.5263 -1.2366
 2229SOL     OW18322   2.831   3.842   1.723 -0.7631  0.2209 -0.5112
 2229SOL    HW118323   2.863   3.922   1.765 -1.8265 -1.0583  2.7129
 2229SOL    HW218324   2.893   3.849   1.651 -0.7784 -1.2044 -0.6630
 2230SOL     OW18325   1.782   4.333   2.268 -0.9267  0.3099 -0.0085
 2230SOL    HW118326   1.694   4.314   2.301 -0.3599 -2.8223 -0.2743
 2230SOL    HW218327   1.766   4.381   2.187  0.0277  0.1625 -0.2819
 2231SOL     OW18328   1.934   3.334   6.568  0.0386  0.1203  0.5450
 2231SOL    HW118329   1.965   3.418   6.603  1.2483 -0.7257  1.5178
 2231SOL    HW218330   2.012   3.281   6.583 -1.2602 -2.1893 -0.9510
 2232SOL     OW18331   1.603   3.018   4.052 -0.3903  0.8668 -0.8912
 2232SOL    HW118332   1.684   2.972   4.031 -1.9378 -2.6594  0.9784
 2232SOL    HW218333   1.640   3.102   4.081 -0.9196  0.3865  1.1747
 2233SOL     OW18334   4.131   3.723   7.470  0.3329 -0.1452 -0.1272
 2233SOL    HW118335   4.066   3.665   7.509 -0.0556  0.0582 -0.4634
 2233SOL    HW218336   4.160   3.667   7.398  1.5439 -0.2344  0.4256
 2234SOL     OW18337   0.681   2.971   6.443 -0.4537  0.8855  0.4936
 2234SOL    HW118338   0.597   3.011   6.423 -0.8369  0.4570  1.2407
 2234SOL    HW218339   0.692   2.933   6.355  1.1572  0.9400  0.6711
 2235SOL     OW18340   1.349   3.526   5.004  0.0091 -0.3379 -0.0592
 2235SOL    HW118341   1.358   3.444   5.053  1.5279 -0.2512 -0.1926
 2235SOL    HW218342   1.370   3.497   4.915 -0.0704  2.2836 -0.9253
 2236SOL     OW18343   2.369   4.107   8.767  0.1617  0.2596  0.2909
 2236SOL    HW118344   2.301   4.077   8.706  0.1824  0.1928  0.3005
 2236SOL    HW218345   2.326   4.154   8.839 -1.4299 -1.9563  0.7856
 2237SOL     OW18346   1.747   0.458   4.844  0.4383 -0.1332 -0.1521
 2237SOL    HW118347   1.829   0.488   4.804  1.2631  0.6386  2.1438
 2237SOL    HW218348   1.767   0.365   4.846 -0.0121 -0.2729 -2.2816
 2238SOL     OW18349   4.183   4.093   1.029  0.1523  0.3284 -0.3461
 2238SOL    HW118350   4.117   4.100   0.961  0.4093  1.4569 -0.4788
 2238SOL    HW218351   4.145   4.126   1.110  1.8410  1.5467 -0.0421
 2239SOL     OW18352   2.663   2.977   9.179  0.5841 -0.3613 -0.3865
 2239SOL    HW118353   2.628   3.005   9.264 -1.0730 -0.8641 -0.9029
 2239SOL    HW218354   2.590   2.929   9.141 -1.5186  1.8354  0.8884
 2240SOL     OW18355   4.378   3.052   0.725  0.4038  0.8187  0.1006
 2240SOL    HW118356   4.442   3.081   0.790 -0.3464  0.3847  1.0367
 2240SOL    HW218357   4.375   2.958   0.744 -2.5571  0.3803 -2.4710
 2241SOL     OW18358   2.994   3.248  13.749 -0.0803  0.2683 -0.2440
 2241SOL    HW118359   2.948   3.167  13.769  1.2865 -0.2951  0.6101
 2241SOL    HW218360   3.070   3.226  13.695 -0.5737  0.8511 -1.1699
 2242SOL     OW18361   1.996   0.121   0.725  0.0479 -0.4773  0.4565
 2242SOL    HW118362   1.911   0.145   0.762  0.4071 -0.0023  0.9683
 2242SOL    HW218363   2.053   0.141   0.799  1.2961  0.3315 -0.7278
 2243SOL     OW18364   0.157   1.021   5.601  0.8432 -0.3221  0.3924
 2243SOL    HW118365   0.222   1.085   5.628 -0.0184  1.3433 -1.5003
 2243SOL    HW218366   0.080   1.058   5.645 -1.2271 -2.9524 -1.0427
 2244SOL     OW18367   3.489   3.969   7.598  0.2222  0.4756  0.2838
 2244SOL    HW118368   3.424   4.037   7.581 -1.0296 -0.6681  0.5386
 2244SOL    HW218369   3.538   4.011   7.669  0.9202  0.6380 -0.2902
 2245SOL     OW18370   2.464   2.422   3.555  0.0503 -0.3150  0.4136
 2245SOL    HW118371   2.498   2.441   3.642 -0.8018 -0.6408  0.8200
 2245SOL    HW218372   2.369   2.427   3.566 -0.1132 -0.2528 -1.0208
 2246SOL     OW18373   2.872   1.729   9.510  0.1903 -0.7445 -0.3856
 2246SOL    HW118374   2.823   1.804   9.544  0.1219 -0.9416 -0.0472
 2246SOL    HW218375   2.830   1.662   9.564  1.2199 -0.8174  0.3297
 2247SOL     OW18376   0.254   4.710  12.935 -0.6483  0.4134  0.3241
 2247SOL    HW118377   0.347   4.727  12.949  0.0283 -1.5748 -1.7263
 2247SOL    HW218378   0.226   4.694  13.025 -1.7082  0.0908 -0.0582
 2248SOL     OW18379   1.128   2.844   8.398 -0.5656 -0.4057  0.1790
 2248SOL    HW118380   1.183   2.863   8.323 -0.4895  0.1322  0.3730
 2248SOL    HW218381   1.202   2.828   8.456  0.5656  0.7848 -0.9674
 2249SOL     OW18382   1.121   2.786   7.748  0.1546  0.0757  0.1119
 2249SOL    HW118383   1.108   2.862   7.804  0.8964 -0.8489  1.5409
 2249SOL    HW218384   1.060   2.790   7.674  0.4040 -1.6939 -0.1822
 2250SOL     OW18385   2.750   0.246   5.267 -0.5243 -0.2976  0.2880
 2250SOL    HW118386   2.809   0.252   5.342 -0.0134  1.6276 -0.2737
 2250SOL    HW218387   2.764   0.152   5.254  0.6655 -0.5904  3.6804
 2251SOL     OW18388   0.117   3.158   2.826 -0.0515  0.6626  0.6353
 2251SOL    HW118389   0.052   3.189   2.762 -0.2730  0.0266  0.5595
 2251SOL    HW218390   0.096   3.210   2.904  1.7629  1.7530  0.3972
 2252SOL     OW18391   0.834   2.679   6.568 -0.1604  0.6787  0.3202
 2252SOL    HW118392   0.874   2.647   6.649  1.6989 -0.9859 -1.2474
 2252SOL    HW218393   0.873   2.765   6.549 -0.7857  0.6363 -1.1111
 2253SOL     OW18394   1.592   3.830   8.667  0.9967  0.4395  0.0502
 2253SOL    HW118395   1.520   3.891   8.682 -1.2279 -2.4422  1.0247
 2253SOL    HW218396   1.655   3.891   8.628  0.4905  1.6692  1.1436
 2254SOL     OW18397   4.714   2.731   5.079  0.4295 -0.0190 -0.2805
 2254SOL    HW118398   0.047   2.692   5.134  1.0488  3.6008  1.5511
 2254SOL    HW218399   0.032   2.786   5.021 -0.8608  0.8939 -0.5943
 2255SOL     OW18400   2.129   0.315   1.716 -0.1616 -0.0241 -0.4686
 2255SOL    HW118401   2.179   0.390   1.750  0.3575 -0.5721 -0.0362
 2255SOL    HW218402   2.077   0.355   1.647 -0.4454 -1.5781 -1.1324
 2256SOL     OW18403   2.684   4.233   3.859  0.4620 -0.0353 -0.1126
 2256SOL    HW118404   2.701   4.289   3.934 -1.6717  1.0621 -0.4402
 2256SOL    HW218405   2.748   4.263   3.794  0.1245  0.4288 -0.2338
 2257SOL     OW18406   4.476   1.385   1.716  0.1134  0.2652  0.0004
 2257SOL    HW118407   4.478   1.397   1.811 -0.6552  2.9365 -0.3307
 2257SOL    HW218408   4.498   1.474   1.688 -0.3671  0.2356 -0.4633
 2258SOL     OW18409   2.357   1.726   1.781 -0.0038 -0.4373 -0.0969
 2258SOL    HW118410   2.363   1.634   1.755 -0.8768  0.1909 -2.6038
 2258SOL    HW218411   2.293   1.751   1.713  0.3403 -1.2144 -0.7124
 2259SOL     OW18412   4.315   3.409   0.200  0.2525  0.4098  0.0017
 2259SOL    HW118413   4.250   3.445   0.261  1.7995  2.1851  0.5873
 2259SOL    HW218414   4.340   3.333   0.252  2.2969 -0.0626 -1.6422
 2260SOL     OW18415   1.604   4.611  14.101 -0.5720  0.7034 -0.4831
 2260SOL    HW118416   1.567   4.672  14.037 -0.9968 -1.5766 -2.3854
 2260SOL    HW218417   1.588   4.670  14.175 -0.1233 -1.0453  1.0019
 2261SOL     OW18418   4.590   2.762  14.392 -0.0222  0.0846 -0.4792
 2261SOL    HW118419   4.653   2.690  14.386  0.1139  0.2704 -1.3913
 2261SOL    HW218420   4.647   2.839  14.394 -0.2883  0.2964 -0.8772
 2262SOL     OW18421   0.431   2.122   7.683 -0.2967  0.1181 -0.3708
 2262SOL    HW118422   0.496   2.099   7.750 -0.4512  0.3060 -0.1558
 2262SOL    HW218423   0.454   2.215   7.671  2.2311 -0.4972 -0.2775
 2263SOL     OW18424   0.555   3.844   3.915 -0.8395  0.1658  0.3005
 2263SOL    HW118425   0.610   3.870   3.841  0.7917 -2.1713  0.7127
 2263SOL    HW218426   0.621   3.792   3.961 -0.8784  1.2039  1.5336
 2264SOL     OW18427   1.589   1.036   2.255 -0.0712  0.2897 -0.2020
 2264SOL    HW118428   1.544   1.049   2.171 -1.6610 -1.5579  0.3814
 2264SOL    HW218429   1.578   1.129   2.278  2.5883  0.4180  0.4885
 2265SOL     OW18430   1.367   4.601   8.066  0.1814 -0.2656 -0.3778
 2265SOL    HW118431   1.435   4.593   7.999 -2.0896 -0.1711 -2.6860
 2265SOL    HW218432   1.292   4.626   8.013  0.4863  0.9799 -0.2111
 2266SOL     OW18433   2.469   0.508   5.059  0.4023 -0.5392  0.5440
 2266SOL    HW118434   2.415   0.477   5.132 -1.2418  2.3744  0.5795
 2266SOL    HW218435   2.468   0.434   4.999 -1.8691 -1.3875  1.6083
 2267SOL     OW18436   0.415   2.563   1.769  0.3291 -1.0574  0.2277
 2267SOL    HW118437   0.374   2.624   1.830 -1.0893 -1.0433 -0.7416
 2267SOL    HW218438   0.352   2.561   1.697  0.6014  1.1832 -0.0632
 2268SOL     OW18439   3.726   3.820   9.938 -0.0558 -0.1085 -0.7160
 2268SOL    HW118440   3.728   3.772   9.856 -2.0311 -2.2123  0.4809
 2268SOL    HW218441   3.719   3.754  10.007 -3.4713 -1.7063 -2.5707
 2269SOL     OW18442   1.807   1.728  15.437  0.4295  0.1550 -0.5970
 2269SOL    HW118443   1.893   1.707  15.401  1.7521  4.7575 -0.1806
 2269SOL    HW218444   1.794   1.823  15.434  0.9396  0.2887  1.5455
 2270SOL     OW18445   0.920   0.793   2.251 -0.5332  0.2128  0.3568
 2270SOL    HW118446   0.934   0.868   2.193  0.7817  0.0764  0.5101
 2270SOL    HW218447   0.843   0.753   2.211  0.7300  0.2695 -2.1555
 2271SOL     OW18448   3.774   2.163   5.796 -0.0956  0.6765  0.9479
 2271SOL    HW118449   3.732   2.180   5.881  0.6957  0.1105  1.4511
 2271SOL    HW218450   3.731   2.224   5.736 -1.0761 -0.5143  0.4370
 2272SOL     OW18451   1.670   1.914   6.073 -0.0350  0.1369  0.0723
 2272SOL    HW118452   1.726   1.924   5.996  0.2205  0.0130  0.2416
 2272SOL    HW218453   1.657   2.005   6.101  0.4435  0.4658 -0.7617
 2273SOL     OW18454   0.826   1.252   5.396  0.2701 -0.4911  0.4564
 2273SOL    HW118455   0.790   1.331   5.356  0.3911 -0.9409 -0.5442
 2273SOL    HW218456   0.760   1.245   5.466 -2.8197 -0.0492 -2.3986
 2274SOL     OW18457   0.632   2.591  15.792  0.2591  0.5991  0.7183
 2274SOL    HW118458   0.553   2.641  15.771 -0.1216  0.6089  2.1267
 2274SOL    HW218459   0.605   2.499  15.794  1.4101  0.2343 -0.5766
 2275SOL     OW18460   1.416   0.629  10.708  0.0742  0.2603  0.0385
 2275SOL    HW118461   1.446   0.627  10.799  1.1924 -0.5615 -0.3532
 2275SOL    HW218462   1.389   0.537  10.703 -0.7443  0.4711  0.6636
 2276SOL     OW18463   2.823   2.445   8.134 -0.3927 -0.5865  0.2102
 2276SOL    HW118464   2.824   2.365   8.186 -0.3739  0.0147  1.1380
 2276SOL    HW218465   2.844   2.516   8.194 -1.2850 -0.1779  0.0318
 2277SOL     OW18466   0.054   2.939   3.161  0.2136 -0.0515  0.3527
 2277SOL    HW118467   0.145   2.916   3.146  0.0661  0.5610 -1.5734
 2277SOL    HW218468   0.066   3.033   3.175  0.0107  0.0289  0.0073
 2278SOL     OW18469   0.760   3.241   1.237  0.4310 -0.5989  0.3758
 2278SOL    HW118470   0.772   3.333   1.210 -1.0631 -0.2790  0.8257
 2278SOL    HW218471   0.768   3.184   1.160  1.6070 -1.5772  1.2380
 2279SOL     OW18472   2.587   4.647   3.747  0.3451  0.1110 -0.5447
 2279SOL    HW118473   2.672   4.643   3.790 -0.1161  0.0199  0.3476
 2279SOL    HW218474   2.563   4.733   3.781  0.8047 -0.3746  0.9888
 2280SOL     OW18475   2.998   3.385   2.791 -0.4689  0.5977 -0.0672
 2280SOL    HW118476   2.941   3.334   2.734  0.0997  1.4969 -1.4294
 2280SOL    HW218477   2.936   3.453   2.818  0.0408  0.0978  2.3787
 2281SOL     OW18478   3.823   0.018   5.749 -0.5286  0.7970  0.2869
 2281SOL    HW118479   3.765   4.681   5.775  0.0892 -0.4112 -1.6842
 2281SOL    HW218480   3.882   4.704   5.692  0.0306  0.8669  0.8012
 2282SOL     OW18481   2.455   0.054   1.976 -0.1721  0.3027  0.3010
 2282SOL    HW118482   2.522   0.100   2.026  0.2072  0.4294 -0.3215
 2282SOL    HW218483   2.398   0.036   2.050 -0.0852  3.0069  1.0182
 2283SOL     OW18484   0.589   2.073   7.900  0.2289 -0.2268 -0.1280
 2283SOL    HW118485   0.539   2.017   7.959  1.7100 -1.6399 -0.2262
 2283SOL    HW218486   0.678   2.041   7.913 -0.3671 -1.7507  0.1041
 2284SOL     OW18487   2.383   1.779   4.569  0.2034 -0.5023 -0.3264
 2284SOL    HW118488   2.330   1.722   4.514  0.4786 -1.5315  0.4628
 2284SOL    HW218489   2.475   1.754   4.555  1.0539  2.5430 -0.2968
 2285SOL     OW18490   0.485   3.201   9.003  0.3186  0.9743  0.5090
 2285SOL    HW118491   0.429   3.271   8.969  1.8455  2.1754  0.4497
 2285SOL    HW218492   0.530   3.245   9.075 -0.0091  1.6038  0.3288
 2286SOL     OW18493   4.493   0.457   9.497 -0.0629  0.1278 -0.3938
 2286SOL    HW118494   4.420   0.420   9.546 -0.4310  1.9630  0.4310
 2286SOL    HW218495   4.561   0.390   9.504  1.1493  0.9925 -3.5474
 2287SOL     OW18496   1.264   2.442   7.699  0.0943 -0.1871  0.2047
 2287SOL    HW118497   1.334   2.481   7.647 -0.1856  3.2215  2.4039
 2287SOL    HW218498   1.201   2.406   7.637 -0.5322 -1.7974  1.7571
 2288SOL     OW18499   0.221   2.416   7.326 -0.1174 -0.2049 -0.2553
 2288SOL    HW118500   0.299   2.460   7.292  0.0894  0.1372  0.6611
 2288SOL    HW218501   0.182   2.489   7.373 -0.6700 -0.3697 -0.4525
 2289SOL     OW18502   2.357   4.158   8.087 -0.0196 -0.3935  0.4137
 2289SOL    HW118503   2.330   4.199   8.005 -1.0348 -2.4751 -0.3043
 2289SOL    HW218504   2.385   4.242   8.124  2.1189  0.8532 -4.0489
 2290SOL     OW18505   4.398   2.207   8.607  0.3950 -0.3170  0.2093
 2290SOL    HW118506   4.378   2.300   8.593 -1.0983 -0.5120  1.0369
 2290SOL    HW218507   4.383   2.196   8.701  1.0009 -0.9624  0.2246
 2291SOL     OW18508   2.621   4.326  16.769 -0.1482 -0.2112  0.0239
 2291SOL    HW118509   2.650   4.405  16.815  2.5955 -0.9915 -0.3545
 2291SOL    HW218510   2.625   4.366  16.682 -2.2868  0.3824  0.2066
 2292SOL     OW18511   3.519   2.004   8.796 -0.0722 -0.4640 -0.6051
 2292SOL    HW118512   3.596   2.034   8.845 -1.2976  0.6147  0.6720
 2292SOL    HW218513   3.450   2.018   8.861 -0.0757 -0.7230 -0.5541
 2293SOL     OW18514   2.892   3.635   2.853 -0.3161  0.0036 -0.0901
 2293SOL    HW118515   2.959   3.678   2.799  1.3110  1.0323  2.7865
 2293SOL    HW218516   2.814   3.689   2.840 -2.6196 -2.9291  1.7493
 2294SOL     OW18517   1.595   3.808   9.230  0.7811 -0.4446 -0.4948
 2294SOL    HW118518   1.611   3.874   9.162 -1.1297 -2.0175 -2.4931
 2294SOL    HW218519   1.686   3.800   9.258  0.6487 -0.0238  0.0432
 2295SOL     OW18520   3.655   4.723   4.746  0.0947  0.3861  0.2061
 2295SOL    HW118521   3.612   4.640   4.767  0.5089  0.3283  0.8123
 2295SOL    HW218522   3.635   0.026   4.832  1.0833 -1.1655  1.1031
 2296SOL     OW18523   1.122   3.433   3.843 -0.0715 -0.1637 -0.3503
 2296SOL    HW118524   1.123   3.449   3.937  1.9935 -1.7027 -0.1002
 2296SOL    HW218525   1.041   3.383   3.830 -0.7671  1.2856 -1.6068
 2297SOL     OW18526   3.206   3.154   6.461 -0.2896 -0.2422  0.2312
 2297SOL    HW118527   3.237   3.064   6.469  1.1052  0.0539 -1.9233
 2297SOL    HW218528   3.114   3.133   6.447 -0.7598  1.5025  0.6269
 2298SOL     OW18529   0.461   4.016   2.892  0.2053 -0.1950 -0.3640
 2298SOL    HW118530   0.385   3.959   2.885 -0.0441  0.2474 -1.3927
 2298SOL    HW218531   0.438   4.066   2.970 -1.2465 -1.2420 -0.1141
 2299SOL     OW18532   3.377   1.045   2.130  0.0718  0.6953  0.3055
 2299SOL    HW118533   3.357   1.073   2.219  0.4251  1.8342  0.0273
 2299SOL    HW218534   3.292   1.025   2.090  1.4336 -2.3290 -1.0731
 2300SOL     OW18535   0.714   1.527   2.175  0.6148 -0.0885  0.2828
 2300SOL    HW118536   0.736   1.489   2.260 -0.4765 -0.0354  0.5890
 2300SOL    HW218537   0.637   1.576   2.202  0.6859  0.2370 -0.0979
 2301SOL     OW18538   1.238   0.457   4.577 -0.0823 -0.0378  0.4009
 2301SOL    HW118539   1.204   0.379   4.621 -2.6926  0.3815 -0.8313
 2301SOL    HW218540   1.266   0.423   4.492  0.4526  0.1843  0.4932
 2302SOL     OW18541   4.682   4.586   6.353  0.0006 -0.0954  0.0493
 2302SOL    HW118542   0.010   4.535   6.301 -0.5721  1.5708 -2.2917
 2302SOL    HW218543   4.604   4.570   6.299  0.7777 -0.0441 -1.1053
 2303SOL     OW18544   0.815   0.189  12.119 -0.6257 -0.9881 -0.2182
 2303SOL    HW118545   0.786   0.257  12.058  2.3072  1.7153  1.4606
 2303SOL    HW218546   0.764   0.209  12.198 -0.3334 -0.1391 -0.2501
 2304SOL     OW18547   0.112   2.118   0.655  0.1536  0.1727 -0.2897
 2304SOL    HW118548   0.129   2.188   0.591  1.2734  1.7567  1.7309
 2304SOL    HW218549   0.202   2.085   0.658 -0.1243 -0.5962 -0.5516
 2305SOL     OW18550   1.521   0.380   5.666 -0.3638 -0.0894  0.6893
 2305SOL    HW118551   1.464   0.304   5.681 -1.4406  1.0185  2.1261
 2305SOL    HW218552   1.599   0.329   5.642  0.6965  1.0112  1.8427
 2306SOL     OW18553   0.190   0.033   8.944  0.0141  0.3705  0.0093
 2306SOL    HW118554   0.206   4.726   8.859  0.4175 -0.0569  0.2933
 2306SOL    HW218555   0.129   0.100   8.915  0.8319  1.1046 -0.0170
 2307SOL     OW18556   3.324   2.902   3.577 -0.2066 -0.0178 -0.6565
 2307SOL    HW118557   3.348   2.811   3.592 -3.8508 -0.8721 -0.0061
 2307SOL    HW218558   3.230   2.903   3.559 -0.1329  0.9121 -1.0141
 2308SOL     OW18559   2.895   3.524  14.698 -0.0160 -0.2643 -0.2252
 2308SOL    HW118560   2.813   3.481  14.676 -0.5394  0.2193  0.7605
 2308SOL    HW218561   2.868   3.613  14.722 -1.3481 -1.5789  3.2548
 2309SOL     OW18562   3.780   2.967  14.372  0.2250 -0.3661 -0.2157
 2309SOL    HW118563   3.823   2.903  14.315 -0.4176 -0.2019 -0.8941
 2309SOL    HW218564   3.701   2.986  14.321  0.7004  0.1518 -0.7687
 2310SOL     OW18565   4.011   0.859   7.460  0.0256 -0.1561  0.0605
 2310SOL    HW118566   4.000   0.933   7.520 -0.3315 -0.4637  0.3716
 2310SOL    HW218567   3.974   0.885   7.376  0.9749 -1.3976 -0.7469
 2311SOL     OW18568   0.267   2.773   4.296 -0.6642 -0.5334 -0.1738
 2311SOL    HW118569   0.217   2.691   4.290  0.5299 -1.1922 -1.0183
 2311SOL    HW218570   0.199   2.840   4.294 -0.8358 -0.6915  0.2488
 2312SOL     OW18571   0.683   4.127   1.811  0.1950  0.1307 -0.5579
 2312SOL    HW118572   0.721   4.057   1.864  0.7748  1.0958  0.3256
 2312SOL    HW218573   0.596   4.099   1.784  0.4442 -2.4527  1.2843
 2313SOL     OW18574   0.153   2.610   9.805  0.0390  0.4752  0.0933
 2313SOL    HW118575   0.130   2.686   9.859 -1.7767 -0.6620  0.9060
 2313SOL    HW218576   0.068   2.590   9.766 -0.2016  1.6191  0.0337
 2314SOL     OW18577   3.897   3.484   5.178  0.6327 -0.0710 -0.4822
 2314SOL    HW118578   3.945   3.503   5.259  0.3278  1.5935 -0.6887
 2314SOL    HW218579   3.894   3.568   5.131 -0.1217  0.1216 -0.1005
 2315SOL     OW18580   1.087   1.195  11.229  0.1847  0.2608 -0.1436
 2315SOL    HW118581   1.169   1.163  11.266  0.3080 -0.8083 -1.3616
 2315SOL    HW218582   1.027   1.148  11.287  0.3859  1.2238  0.8476
 2316SOL     OW18583   3.865   3.514  17.454  0.8280 -0.3739  0.1928
 2316SOL    HW118584   3.851   3.609  17.446 -1.4643 -1.0190 -3.0172
 2316SOL    HW218585   3.957   3.510  17.479  0.8169  0.4078  0.3802
 2317SOL     OW18586   1.004   2.352  15.787 -0.4291  0.2034 -0.3783
 2317SOL    HW118587   0.971   2.384  15.871 -1.1268 -0.3506 -0.4426
 2317SOL    HW218588   0.928   2.297  15.767  0.9119 -1.0829 -1.9170
 2318SOL     OW18589   3.844   3.051   5.877  0.2141 -0.0315  0.5729
 2318SOL    HW118590   3.800   3.071   5.959 -2.2729  0.4768 -0.8766
 2318SOL    HW218591   3.885   3.132   5.848  0.5507 -0.5104 -0.2992
 2319SOL     OW18592   3.390   0.591  11.804 -0.3858 -0.0111 -0.2392
 2319SOL    HW118593   3.410   0.645  11.881 -1.6625 -1.2316  0.9403
 2319SOL    HW218594   3.438   0.510  11.816  0.9092  0.6308 -1.0914
 2320SOL     OW18595   3.553   0.399   6.573 -0.2011  0.3799 -0.3895
 2320SOL    HW118596   3.619   0.366   6.512 -0.2183 -0.0893 -0.1568
 2320SOL    HW218597   3.598   0.374   6.653 -0.3040 -1.5629 -0.9294
 2321SOL     OW18598   0.031   4.554   3.409  0.1657  0.1115 -0.5336
 2321SOL    HW118599   4.704   4.560   3.336 -0.4551  0.1931 -0.0049
 2321SOL    HW218600   0.110   4.586   3.365  0.8521 -1.6185 -0.5866
 2322SOL     OW18601   1.676   3.250   9.163  0.0591  0.1220  0.2421
 2322SOL    HW118602   1.648   3.160   9.151  1.3915 -0.3512  0.6066
 2322SOL    HW218603   1.733   3.237   9.239 -1.0137 -0.1904  0.9786
 2323SOL     OW18604   2.948   3.033   4.223 -0.0231 -0.4594 -0.2175
 2323SOL    HW118605   2.852   3.033   4.215  0.2786 -1.0784 -3.7005
 2323SOL    HW218606   2.977   3.017   4.133  1.3481 -4.4824  0.9649
 2324SOL     OW18607   4.311   0.806   6.825  0.6510 -0.1318  0.3983
 2324SOL    HW118608   4.335   0.715   6.841  0.7939  0.1455  1.7160
 2324SOL    HW218609   4.396   0.849   6.836 -0.1215  1.0531  1.6246
 2325SOL     OW18610   1.302   3.708   3.677 -0.3914  0.4143  0.4654
 2325SOL    HW118611   1.388   3.707   3.635 -0.5571 -2.0186  0.2126
 2325SOL    HW218612   1.325   3.635   3.734 -2.6496 -0.9990 -0.4435
 2326SOL     OW18613   3.774   2.412  14.328  0.0222  0.8082  0.7896
 2326SOL    HW118614   3.820   2.474  14.271 -0.3316  0.2218 -0.1393
 2326SOL    HW218615   3.687   2.402  14.289  0.1931  1.3575  0.2694
 2327SOL     OW18616   4.202   1.482  10.314  0.3862 -0.0710 -0.0663
 2327SOL    HW118617   4.143   1.557  10.311  0.3740 -0.0304  0.9957
 2327SOL    HW218618   4.144   1.414  10.350 -0.2982  2.3585  3.4175
 2328SOL     OW18619   0.583   1.151   2.280  0.3128  0.1083 -0.2384
 2328SOL    HW118620   0.674   1.167   2.305 -0.7423  2.1878  2.2755
 2328SOL    HW218621   0.610   1.096   2.206 -1.5873  1.1848 -1.7246
 2329SOL     OW18622   2.471   4.333   5.202  0.0585  0.5298  0.2671
 2329SOL    HW118623   2.506   4.299   5.284 -1.2034  1.0425  1.0107
 2329SOL    HW218624   2.385   4.290   5.205 -0.6329  2.0084  1.4527
 2330SOL     OW18625   1.102   1.713   9.081 -0.2610 -0.3264 -0.1046
 2330SOL    HW118626   1.062   1.667   9.007 -1.7470  0.2357  0.3518
 2330SOL    HW218627   1.144   1.637   9.122  0.6840  1.1076  1.5639
 2331SOL     OW18628   2.719   4.697   5.220 -0.2207  0.0968  0.4615
 2331SOL    HW118629   2.780   4.650   5.276 -1.3529 -2.2574 -0.2655
 2331SOL    HW218630   2.778   4.710   5.146  2.1922 -2.5353  1.9615
 2332SOL     OW18631   2.410   0.176  10.650 -0.7777  0.2766  0.1732
 2332SOL    HW118632   2.495   0.192  10.610 -1.2003  1.9532 -0.0507
 2332SOL    HW218633   2.433   0.119  10.724 -1.3106  2.9271  2.3850
 2333SOL     OW18634   3.556   0.187   2.307  0.2532 -0.1283 -0.4656
 2333SOL    HW118635   3.528   0.216   2.220 -0.2743 -0.1046 -0.2908
 2333SOL    HW218636   3.476   0.139   2.329  0.0968  0.4836  0.3080
 2334SOL     OW18637   3.683   1.870   4.296 -0.4031  0.1184 -0.1026
 2334SOL    HW118638   3.599   1.913   4.314 -1.3598 -2.2128  0.8598
 2334SOL    HW218639   3.648   1.782   4.290  0.6719 -0.1324 -2.8935
 2335SOL     OW18640   0.003   0.867   6.494  0.4123 -0.2590  0.1326
 2335SOL    HW118641   4.721   0.961   6.488 -0.6549 -0.4204  0.4648
 2335SOL    HW218642   0.044   0.873   6.580  1.3807 -0.0361 -0.3505
 2336SOL     OW18643   1.754   0.773   2.825  0.1420  0.2254 -0.0342
 2336SOL    HW118644   1.678   0.722   2.796  0.2507  0.6768 -1.0947
 2336SOL    HW218645   1.817   0.707   2.797 -0.5689  0.2420 -1.6193
 2337SOL     OW18646   1.799   0.127  15.124  0.6115 -0.0098 -0.6115
 2337SOL    HW118647   1.817   0.210  15.168  1.5139  0.0829 -1.1683
 2337SOL    HW218648   1.862   0.127  15.052  1.2153  0.5131 -0.0826
 2338SOL     OW18649   1.560   0.178   4.565  0.4708 -0.0578  0.1827
 2338SOL    HW118650   1.518   0.105   4.519  1.1183 -0.7325  0.6693
 2338SOL    HW218651   1.535   0.166   4.657  2.2653 -1.0682  0.5343
 2339SOL     OW18652   0.610   4.458  12.216  0.0161  0.4096 -0.4940
 2339SOL    HW118653   0.590   4.551  12.226  1.8343  0.7357 -0.0302
 2339SOL    HW218654   0.705   4.453  12.211  0.0346 -0.3432  0.4283
 2340SOL     OW18655   2.169   4.122   8.394 -0.1151 -0.1594 -0.0634
 2340SOL    HW118656   2.145   4.062   8.323  0.8981 -0.8888  0.2215
 2340SOL    HW218657   2.171   4.064   8.470  0.1500 -1.4607 -1.0696
 2341SOL     OW18658   0.703   1.698   1.039  0.0449 -0.3677  0.7935
 2341SOL    HW118659   0.754   1.770   1.076 -0.7243  0.1802  0.7963
 2341SOL    HW218660   0.727   1.625   1.096  0.4217  0.3941  1.6062
 2342SOL     OW18661   3.091   1.966   4.136  0.0131  0.2505 -0.5300
 2342SOL    HW118662   3.100   1.956   4.041  0.7370  4.9689 -0.9511
 2342SOL    HW218663   3.147   1.898   4.172 -1.2254 -0.5432 -0.0871
 2343SOL     OW18664   0.695   3.348   3.131 -0.2672  0.1277 -0.5733
 2343SOL    HW118665   0.742   3.425   3.099  0.9036 -0.0973  0.6114
 2343SOL    HW218666   0.646   3.325   3.051  1.0485  0.4423 -1.4645
 2344SOL     OW18667   2.393   1.241  14.512  0.0152 -0.0073 -0.3922
 2344SOL    HW118668   2.378   1.190  14.432 -0.5715 -1.0244  0.3675
 2344SOL    HW218669   2.346   1.324  14.511 -1.5392 -0.8895 -0.4441
 2345SOL     OW18670   1.173   1.131   6.235  0.3092  0.6518  0.3133
 2345SOL    HW118671   1.212   1.045   6.250 -0.7618  0.1148 -0.0105
 2345SOL    HW218672   1.175   1.140   6.139  1.2497  2.7941  0.5425
 2346SOL     OW18673   3.500   2.788   8.359  0.1257 -0.3520 -0.1516
 2346SOL    HW118674   3.451   2.738   8.293 -2.3698 -0.2563  1.6209
 2346SOL    HW218675   3.430   2.836   8.403  0.7094  0.7002 -0.3849
 2347SOL     OW18676   2.426   3.250  11.772 -0.1259  0.2007 -0.1175
 2347SOL    HW118677   2.485   3.246  11.847 -1.8419  0.5556  1.2468
 2347SOL    HW218678   2.486   3.250  11.698 -0.3539 -0.8188 -0.2939
 2348SOL     OW18679   0.717   2.119   4.779  0.2954 -0.2319 -0.5378
 2348SOL    HW118680   0.762   2.075   4.852 -1.7223 -3.4353 -1.2077
 2348SOL    HW218681   0.689   2.206   4.806 -1.2929 -1.6471  2.4977
 2349SOL     OW18682   2.233   4.622   5.690  0.1351  0.1794 -0.2123
 2349SOL    HW118683   2.303   4.667   5.642  0.1181  1.0946  0.6263
 2349SOL    HW218684   2.150   4.656   5.659  0.0988 -2.0825 -2.6289
 2350SOL     OW18685   3.418   1.787  15.432 -0.2921 -0.3845 -0.4250
 2350SOL    HW118686   3.345   1.751  15.482  1.0973 -1.7340  0.6319
 2350SOL    HW218687   3.373   1.806  15.350  0.8431 -0.6904 -1.1135
 2351SOL     OW18688   1.981   3.588   3.133 -0.5003 -0.3496 -0.0041
 2351SOL    HW118689   2.019   3.570   3.219  2.7918  0.5777 -1.3064
 2351SOL    HW218690   2.028   3.668   3.114  0.8023 -0.3986  3.0363
 2352SOL     OW18691   2.570   2.445   4.316 -0.4354  0.1401 -0.1545
 2352SOL    HW118692   2.545   2.426   4.226  0.7889 -0.2147 -0.4177
 2352SOL    HW218693   2.493   2.498   4.337 -0.2547 -0.3235  1.7265
 2353SOL     OW18694   3.945   3.952  17.606  0.5349 -0.5295  0.8732
 2353SOL    HW118695   3.989   4.037  17.609 -0.9700  0.2827 -0.3659
 2353SOL    HW218696   3.953   3.931  17.700  0.2587  1.7188  1.3937
 2354SOL     OW18697   4.246   2.854   7.300 -0.0020 -0.0282  0.1072
 2354SOL    HW118698   4.264   2.933   7.351  0.5178  0.6312 -1.0720
 2354SOL    HW218699   4.306   2.791   7.340 -1.1045  0.5449  2.6323
 2355SOL     OW18700   0.151   2.174   7.168 -0.4032 -0.4166 -0.6096
 2355SOL    HW118701   0.139   2.245   7.104 -2.2475 -0.3290 -0.1834
 2355SOL    HW218702   0.194   2.219   7.240 -2.1583  1.8645 -0.9676
 2356SOL     OW18703   0.565   2.564   6.633  0.4096  0.0427 -0.0956
 2356SOL    HW118704   0.583   2.640   6.689  1.5894 -2.0676  2.3523
 2356SOL    HW218705   0.650   2.556   6.589  0.3499 -1.9518  0.1786
 2357SOL     OW18706   3.694   2.262   2.798 -0.2130 -0.3254 -0.2662
 2357SOL    HW118707   3.770   2.278   2.855 -1.1129 -2.7520  1.5821
 2357SOL    HW218708   3.726   2.186   2.751  2.3760 -0.7168  2.1410
 2358SOL     OW18709   0.688   0.461   8.071 -0.7359 -0.0516 -0.1133
 2358SOL    HW118710   0.754   0.496   8.010 -1.3768  1.1362 -0.1279
 2358SOL    HW218711   0.720   0.483   8.158  0.7293 -1.0351 -0.3922
 2359SOL     OW18712   4.488   1.953   4.377 -0.0312  0.0897 -0.3938
 2359SOL    HW118713   4.449   1.879   4.331  1.4358 -0.5819 -0.5762
 2359SOL    HW218714   4.439   1.953   4.459 -1.5525 -1.1593 -1.3017
 2360SOL     OW18715   1.113   0.723   6.696  0.4693  0.3943  0.1057
 2360SOL    HW118716   1.062   0.697   6.772  4.1582 -2.8482  1.5206
 2360SOL    HW218717   1.111   0.818   6.694 -1.5985  0.3972  2.7013
 2361SOL     OW18718   0.059   0.031   4.583  0.0051 -0.1761  0.7287
 2361SOL    HW118719   4.722   0.081   4.622 -0.6140  0.3232 -1.0456
 2361SOL    HW218720   0.074   0.078   4.501  0.5274  0.3692  1.1378
 2362SOL     OW18721   4.487   1.345   7.784  0.5925 -0.2014 -0.1984
 2362SOL    HW118722   4.432   1.267   7.789  1.8824 -1.1157 -0.2787
 2362SOL    HW218723   4.444   1.415   7.833 -1.1625 -0.7123 -1.0059
 2363SOL     OW18724   0.193   3.718   5.770  0.0106  0.0868 -0.0057
 2363SOL    HW118725   0.240   3.692   5.691  0.5452  0.8286  0.0640
 2363SOL    HW218726   0.228   3.806   5.785 -1.2854  0.7179 -0.6570
 2364SOL     OW18727   4.190   2.066   1.898  0.4422  0.5148 -0.1139
 2364SOL    HW118728   4.252   2.031   1.834  0.0636 -0.0928 -0.1488
 2364SOL    HW218729   4.190   2.003   1.970 -1.4955 -1.9386 -2.2875
 2365SOL     OW18730   3.388   3.394  10.785  0.3854  0.2000 -0.0215
 2365SOL    HW118731   3.462   3.345  10.821 -0.1597  0.0257  0.8483
 2365SOL    HW218732   3.323   3.386  10.855  0.9404  1.5871  0.6627
 2366SOL     OW18733   2.955   4.163   2.080 -0.0606  0.4717 -0.0256
 2366SOL    HW118734   2.891   4.118   2.024 -1.3037  1.3874  0.6705
 2366SOL    HW218735   3.039   4.136   2.043 -0.2789  2.0298 -1.6529
 2367SOL     OW18736   1.098   0.752   8.169 -0.1836  0.5006 -0.2376
 2367SOL    HW118737   1.185   0.731   8.135  0.1087 -1.1926  1.5427
 2367SOL    HW218738   1.124   0.816   8.236 -1.3097  0.0670  0.6067
 2368SOL     OW18739   2.897   3.010   9.413 -0.2377  0.6457 -0.5586
 2368SOL    HW118740   2.916   2.917   9.398  0.2237  0.3942  1.5176
 2368SOL    HW218741   2.811   3.006   9.453 -0.2173  0.2047 -0.5617
 2369SOL     OW18742   3.338   4.479  11.926 -0.7394 -0.0950  0.4492
 2369SOL    HW118743   3.429   4.449  11.933 -0.2647  1.5428  1.2711
 2369SOL    HW218744   3.305   4.408  11.871 -1.2892  1.4992 -1.2766
 2370SOL     OW18745   1.995   0.399   8.744  0.1085 -0.7720 -0.0978
 2370SOL    HW118746   2.000   0.467   8.812  0.2750 -2.1522  1.2874
 2370SOL    HW218747   1.917   0.422   8.694  1.0846 -1.6443 -1.9883
 2371SOL     OW18748   2.245   0.969  12.094  0.3008 -0.2571  0.1492
 2371SOL    HW118749   2.338   0.983  12.113  0.2379 -2.2367  1.8833
 2371SOL    HW218750   2.204   1.040  12.143  2.7068  1.2582 -0.0522
 2372SOL     OW18751   2.615   4.145   9.519 -0.5567  0.0151  0.3187
 2372SOL    HW118752   2.694   4.156   9.572 -1.1392 -0.3577  1.2669
 2372SOL    HW218753   2.652   4.077   9.462  2.1686  1.8461 -0.1141
 2373SOL     OW18754   1.875   4.449   7.110  1.3928 -0.1782 -0.5294
 2373SOL    HW118755   1.875   4.544   7.110 -0.2932 -0.1692  1.0710
 2373SOL    HW218756   1.927   4.423   7.186  1.5940  1.9406  0.0316
 2374SOL     OW18757   3.566   4.368  13.834 -0.3507  0.4374  0.3117
 2374SOL    HW118758   3.626   4.312  13.785  0.2972 -1.7867  3.6220
 2374SOL    HW218759   3.477   4.337  13.815  0.2578 -0.8908 -0.3898
 2375SOL     OW18760   0.713   3.890   5.586 -0.3513  0.0810 -0.6881
 2375SOL    HW118761   0.780   3.894   5.655 -0.7707  1.3941 -0.3627
 2375SOL    HW218762   0.767   3.861   5.512  0.9425  1.3822 -0.2716
 2376SOL     OW18763   2.590   1.820   8.126 -0.4416 -0.0047  0.4419
 2376SOL    HW118764   2.570   1.895   8.181  1.6670 -0.0930  1.3381
 2376SOL    HW218765   2.631   1.863   8.051  0.4058  0.2677  1.0647
 2377SOL     OW18766   1.858   4.437   0.978 -0.1291  0.4209 -0.0049
 2377SOL    HW118767   1.843   4.508   1.039  2.0784  1.1959 -0.3559
 2377SOL    HW218768   1.922   4.475   0.918  1.0102 -0.7256  0.4772
 2378SOL     OW18769   2.822   1.097   8.478  0.0364  0.3244 -0.1412
 2378SOL    HW118770   2.878   1.066   8.406 -1.2299 -0.7788 -0.6460
 2378SOL    HW218771   2.884   1.128   8.544  1.4592  0.4484 -1.5316
 2379SOL     OW18772   1.051   4.648   6.705 -0.1826  0.3243 -0.3666
 2379SOL    HW118773   1.093   4.721   6.750  0.9606 -1.2055  1.0343
 2379SOL    HW218774   1.004   4.703   6.642 -2.2621 -2.9851 -1.6960
 2380SOL     OW18775   3.674   0.287  11.194  0.1627 -0.8640  0.1717
 2380SOL    HW118776   3.691   0.235  11.115  2.1370  2.1955 -1.3975
 2380SOL    HW218777   3.649   0.370  11.155 -0.3243 -0.6168  1.0099
 2381SOL     OW18778   3.084   0.304   4.537  0.2492 -0.2259 -0.7448
 2381SOL    HW118779   3.053   0.241   4.472  1.5191  1.0799 -2.6108
 2381SOL    HW218780   3.114   0.253   4.613 -1.9728 -1.7425 -0.8932
 2382SOL     OW18781   0.466   0.422   5.550  0.5533 -0.4625 -0.0602
 2382SOL    HW118782   0.404   0.454   5.615  1.2262  0.8788 -0.0770
 2382SOL    HW218783   0.496   0.505   5.512  0.6574 -0.0033  1.0077
 2383SOL     OW18784   3.684   1.979   7.352  0.4523 -0.2187  0.0703
 2383SOL    HW118785   3.685   1.891   7.392 -0.5032  0.7462  2.2480
 2383SOL    HW218786   3.724   2.037   7.416 -0.7263  0.5338  0.1393
 2384SOL     OW18787   1.183   0.222   7.370 -0.0264  0.4308 -0.0056
 2384SOL    HW118788   1.205   0.186   7.284  2.7897  1.4935  0.2857
 2384SOL    HW218789   1.265   0.223   7.419  0.5472  3.9069 -1.0546
 2385SOL     OW18790   3.862   1.678  17.044  0.1596 -0.1959  0.3652
 2385SOL    HW118791   3.904   1.745  17.098  0.7177  0.7447 -1.2372
 2385SOL    HW218792   3.935   1.651  16.988 -0.3112 -0.0786 -0.3038
 2386SOL     OW18793   0.032   1.949   6.146  0.5682  0.4933 -0.0457
 2386SOL    HW118794   0.099   2.013   6.121 -0.4126  0.7449 -2.0175
 2386SOL    HW218795   0.076   1.864   6.148 -2.7923 -1.2171  1.1623
 2387SOL     OW18796   2.097   2.752   6.165  0.0900  0.0265  0.1818
 2387SOL    HW118797   2.180   2.739   6.211 -0.2292 -3.5380 -0.2285
 2387SOL    HW218798   2.038   2.700   6.220  1.5027 -1.3506  0.4168
 2388SOL     OW18799   4.264   2.448  12.152 -0.5915  0.7331 -0.2228
 2388SOL    HW118800   4.225   2.524  12.110 -1.0295  0.8088  0.3232
 2388SOL    HW218801   4.272   2.479  12.242  1.0978 -1.2889  0.3347
 2389SOL     OW18802   3.443   3.497   8.363 -0.8187  0.3556 -0.5114
 2389SOL    HW118803   3.451   3.425   8.426  1.5945  2.4669  1.6097
 2389SOL    HW218804   3.353   3.526   8.374 -1.1133 -2.0620  3.5013
 2390SOL     OW18805   1.879   1.718   3.670  0.1117  0.1154  0.1858
 2390SOL    HW118806   1.833   1.764   3.599 -0.0364  0.3853  0.4561
 2390SOL    HW218807   1.890   1.793   3.729  1.9441  0.8424 -1.1135
 2391SOL     OW18808   3.665   0.505  11.032  0.1357 -0.0600  0.2986
 2391SOL    HW118809   3.594   0.567  11.026  1.6238  1.7461  1.5065
 2391SOL    HW218810   3.709   0.513  10.947 -0.3456 -0.4359  0.0110
 2392SOL     OW18811   3.744   2.748   9.899 -0.1171 -0.0902  0.4044
 2392SOL    HW118812   3.771   2.676   9.956 -2.2887 -1.3470 -0.1325
 2392SOL    HW218813   3.654   2.764   9.928  0.1301  0.3354  0.9361
 2393SOL     OW18814   3.752   0.739   5.234 -0.2957 -0.1618 -0.8473
 2393SOL    HW118815   3.674   0.783   5.267 -1.3631 -1.9838 -0.9451
 2393SOL    HW218816   3.814   0.809   5.211 -0.1445 -0.0074  0.0152
 2394SOL     OW18817   0.605   3.388   9.162  0.1744 -0.2826 -0.0232
 2394SOL    HW118818   0.636   3.468   9.119 -2.6046  0.0476 -1.3716
 2394SOL    HW218819   0.660   3.386   9.240  0.7678  2.0071 -0.3718
 2395SOL     OW18820   2.008   3.127   6.119 -0.1973  0.6444 -0.1846
 2395SOL    HW118821   2.001   3.205   6.174  0.7226  0.9081 -0.4494
 2395SOL    HW218822   1.913   3.113   6.108 -0.2966  0.6840  0.6196
 2396SOL     OW18823   1.706   0.521   2.975  0.2517 -0.0887  0.5061
 2396SOL    HW118824   1.654   0.567   3.040  1.2482  3.4957 -1.2316
 2396SOL    HW218825   1.787   0.503   3.023 -0.2539 -2.0284  0.6380
 2397SOL     OW18826   3.142   3.595   0.082 -0.1250 -0.4417 -0.1306
 2397SOL    HW118827   3.184   3.511   0.096 -2.5408 -1.3245  1.7451
 2397SOL    HW218828   3.181   3.613  17.733 -0.5278 -0.5009 -0.3256
 2398SOL     OW18829   4.504   2.560   3.041 -0.2690 -0.2372 -0.0032
 2398SOL    HW118830   4.557   2.481   3.049 -1.4168 -1.2297 -2.1125
 2398SOL    HW218831   4.464   2.543   2.956  1.7076 -0.0690 -0.9627
 2399SOL     OW18832   3.389   3.765   0.145 -0.1310  0.1859 -0.0069
 2399SOL    HW118833   3.373   3.729   0.058  4.4363  1.3934 -1.3671
 2399SOL    HW218834   3.302   3.784   0.180  0.2751  0.4667  0.8721
 2400SOL     OW18835   0.067   1.720  11.360 -0.0168 -0.4946 -0.0703
 2400SOL    HW118836   0.149   1.760  11.332 -0.0176 -1.4677 -1.5107
 2400SOL    HW218837   0.033   1.804  11.390 -0.7821 -1.9396  3.1647
 2401SOL     OW18838   1.386   0.858  11.468 -0.0690 -0.0427  0.2186
 2401SOL    HW118839   1.472   0.818  11.482 -1.0955 -2.8051 -1.4619
 2401SOL    HW218840   1.360   0.870  11.559 -0.9620 -0.4667  0.0107
 2402SOL     OW18841   2.732   3.143   1.950  0.5368  0.0407 -0.6084
 2402SOL    HW118842   2.668   3.078   1.979 -0.5511  2.5708  2.7103
 2402SOL    HW218843   2.755   3.111   1.863  0.9225 -2.0487  0.2764
 2403SOL     OW18844   3.237   3.073   2.717  0.5815  0.3765  0.0288
 2403SOL    HW118845   3.276   3.158   2.736  0.5803 -0.5005  3.9864
 2403SOL    HW218846   3.299   3.037   2.653 -1.8745 -1.7118 -1.1788
 2404SOL     OW18847   4.420   2.049   5.828 -0.2893 -0.5160  0.0030
 2404SOL    HW118848   4.467   1.977   5.869 -1.0609  0.4597  2.6320
 2404SOL    HW218849   4.364   2.000   5.768  1.5722  0.1516 -2.2645
 2405SOL     OW18850   1.454   1.836   9.282 -0.1644 -0.1407 -0.0188
 2405SOL    HW118851   1.501   1.812   9.362 -2.5611  1.6401  1.9207
 2405SOL    HW218852   1.363   1.842   9.309 -0.4293  0.8584 -1.1266
 2406SOL     OW18853   1.833   2.858   3.107 -0.0705 -0.2797 -0.2182
 2406SOL    HW118854   1.765   2.919   3.135  0.2432  0.2734 -0.6622
 2406SOL    HW218855   1.801   2.774   3.141  0.5375  0.0269  1.0949
 2407SOL     OW18856   2.116   1.594   7.406  0.0876  0.1775 -0.7807
 2407SOL    HW118857   2.034   1.547   7.423  1.3549 -0.9049  2.1896
 2407SOL    HW218858   2.124   1.576   7.312  1.2289 -0.2662 -0.5898
 2408SOL     OW18859   3.485   1.525  12.236  0.2106  0.5081  0.0258
 2408SOL    HW118860   3.536   1.574  12.171  0.5498 -3.4556 -2.7202
 2408SOL    HW218861   3.534   1.443  12.235  0.9929  0.9873 -1.5041
 2409SOL     OW18862   2.182   1.053   3.380  0.0319 -0.1188  0.3747
 2409SOL    HW118863   2.157   1.020   3.466 -0.4423  2.5075  1.2480
 2409SOL    HW218864   2.119   1.124   3.370 -0.4083 -0.6387 -0.5265
 2410SOL     OW18865   0.169   4.481   0.711 -0.1204 -0.0571  0.9863
 2410SOL    HW118866   0.119   4.451   0.635 -1.5610 -1.5198  2.4937
 2410SOL    HW218867   0.258   4.489   0.676  0.8094 -1.9669  2.8721
 2411SOL     OW18868   2.507   2.518   1.313 -0.1978 -0.1269 -0.4649
 2411SOL    HW118869   2.538   2.562   1.234 -1.8967 -0.9176 -1.5779
 2411SOL    HW218870   2.576   2.547   1.372  0.7677 -2.1921 -0.6045
 2412SOL     OW18871   0.565   4.634   2.635 -0.1116 -0.4333 -0.7124
 2412SOL    HW118872   0.531   4.622   2.546 -2.0377 -0.7463  0.0631
 2412SOL    HW218873   0.617   4.554   2.640  1.2929  0.5287  0.3149
 2413SOL     OW18874   3.432   2.503   9.222  0.6585  0.4647 -0.2459
 2413SOL    HW118875   3.426   2.591   9.184  0.7577 -0.2097 -1.8039
 2413SOL    HW218876   3.444   2.445   9.147 -1.5441  1.1736 -1.1512
 2414SOL     OW18877   4.108   0.175   3.649 -0.0568 -0.0089 -0.6164
 2414SOL    HW118878   4.038   0.148   3.709  0.4991  0.5024  0.2509
 2414SOL    HW218879   4.074   0.258   3.614  1.4918  1.3534  1.1078
 2415SOL     OW18880   0.095   0.441   8.468 -0.5936 -0.3379  0.1946
 2415SOL    HW118881   0.036   0.457   8.542 -1.5309 -1.0256 -0.4023
 2415SOL    HW218882   0.027   0.437   8.401  0.4720  0.2581 -0.9190
 2416SOL     OW18883   1.615   0.641  17.539 -0.3362  0.4920  0.1905
 2416SOL    HW118884   1.631   0.705  17.608  0.0861 -0.3516  0.8868
 2416SOL    HW218885   1.538   0.689  17.509 -0.5064 -0.1545 -0.4071
 2417SOL     OW18886   3.691   2.840   6.154  0.3949 -0.6581 -0.2029
 2417SOL    HW118887   3.675   2.809   6.242 -1.3125 -0.1677 -0.3507
 2417SOL    HW218888   3.783   2.858   6.175 -0.0544  1.5081 -0.0665
 2418SOL     OW18889   3.220   1.310   0.945 -0.2666  0.1637 -0.0766
 2418SOL    HW118890   3.237   1.394   0.903  1.2756  0.3778  0.9708
 2418SOL    HW218891   3.308   1.274   0.942  0.2215  1.2908  0.5170
 2419SOL     OW18892   0.564   4.420   3.028 -0.3039 -0.1506 -0.8000
 2419SOL    HW118893   0.485   4.462   2.995  0.7589  0.8161 -2.1115
 2419SOL    HW218894   0.537   4.382   3.111  1.3755  0.6448  0.1118
 2420SOL     OW18895   3.578   1.489   7.277 -0.6046 -0.0286 -0.1861
 2420SOL    HW118896   3.594   1.397   7.299 -0.4198  0.5221  1.9753
 2420SOL    HW218897   3.590   1.503   7.183 -1.6727 -0.4789 -0.3907
 2421SOL     OW18898   0.452   1.985   2.927 -0.1708  0.1139 -0.0580
 2421SOL    HW118899   0.458   2.067   2.878 -0.3140 -0.1972 -0.5934
 2421SOL    HW218900   0.543   1.956   2.925 -0.6829 -1.6422  2.1271
 2422SOL     OW18901   2.752   0.796   2.521  0.1828  0.5995 -0.4645
 2422SOL    HW118902   2.837   0.754   2.530 -0.8520 -1.7758 -1.6862
 2422SOL    HW218903   2.778   0.887   2.531  0.0266  0.4464  1.3640
 2423SOL     OW18904   1.160   0.708   3.931 -0.0420 -0.2499 -0.0629
 2423SOL    HW118905   1.127   0.766   3.862  0.3491 -1.3727 -1.2063
 2423SOL    HW218906   1.196   0.777   3.987 -1.9276  2.7666 -2.5359
 2424SOL     OW18907   4.044   0.767   6.982 -0.5180  0.2531 -0.2446
 2424SOL    HW118908   4.016   0.695   6.926 -2.9428 -0.1232  1.4434
 2424SOL    HW218909   3.991   0.835   6.939 -1.0549 -0.0672 -0.0883
 2425SOL     OW18910   3.332   4.022  11.878 -0.2392  0.0064  0.2040
 2425SOL    HW118911   3.316   3.938  11.836 -0.7656  0.6269 -0.8340
 2425SOL    HW218912   3.353   3.995  11.968 -1.9848 -1.0609  0.2827
 2426SOL     OW18913   0.190   3.341   3.920  0.6768 -0.5673  0.2695
 2426SOL    HW118914   0.203   3.411   3.983 -1.1017  0.0212  0.0058
 2426SOL    HW218915   0.097   3.319   3.926 -0.5648  4.5494 -0.7395
 2427SOL     OW18916   3.185   0.023   5.419  0.2279 -0.2253 -0.1866
 2427SOL    HW118917   3.104   0.032   5.468  0.5896  1.7154  0.0685
 2427SOL    HW218918   3.148   0.050   5.335 -0.0545 -0.6633 -0.1991
 2428SOL     OW18919   4.609   3.079   8.410 -0.1394  0.3127  0.1532
 2428SOL    HW118920   4.643   3.043   8.491 -2.1866 -0.6273  0.5862
 2428SOL    HW218921   4.692   3.118   8.382  0.7403 -1.4831  0.2826
 2429SOL     OW18922   0.053   3.875   6.285 -0.3600 -0.5106  0.1317
 2429SOL    HW118923   0.135   3.921   6.267 -0.0316 -1.9129 -1.9005
 2429SOL    HW218924   0.001   3.896   6.208  0.8217  0.8341 -0.2996
 2430SOL     OW18925   1.592   2.652   4.330 -0.5260  0.7520 -0.0757
 2430SOL    HW118926   1.615   2.745   4.343  0.0883  0.6830 -0.7070
 2430SOL    HW218927   1.671   2.609   4.363 -0.7403  1.3447  1.2294
 2431SOL     OW18928   2.017   4.510  12.652 -0.5695  0.7775  0.3003
 2431SOL    HW118929   1.927   4.541  12.641 -0.1980  1.6930 -0.1135
 2431SOL    HW218930   2.029   4.444  12.583 -2.2760  0.0238  0.7258
 2432SOL     OW18931   2.866   0.806   4.686 -0.3225 -0.1333  0.0391
 2432SOL    HW118932   2.875   0.729   4.742 -1.0569 -0.3968 -0.2027
 2432SOL    HW218933   2.771   0.816   4.677  0.1803  2.2260 -2.8209
 2433SOL     OW18934   4.242   1.860   5.716  0.0813 -0.0298 -0.2641
 2433SOL    HW118935   4.215   1.801   5.646 -2.5252  0.4973  0.2714
 2433SOL    HW218936   4.157   1.890   5.748 -0.5737 -1.0719 -1.0335
 2434SOL     OW18937   3.840   4.184   7.835  0.0324  0.1123  0.2558
 2434SOL    HW118938   3.776   4.114   7.824 -0.5235  0.9087 -1.5377
 2434SOL    HW218939   3.795   4.254   7.789 -2.1143 -0.3588  1.6528
 2435SOL     OW18940   0.850   3.336   7.837  0.5342 -0.3856 -0.3527
 2435SOL    HW118941   0.923   3.306   7.890  0.8039  0.4080 -0.2754
 2435SOL    HW218942   0.782   3.354   7.902  1.1484  0.2413  0.1158
 2436SOL     OW18943   4.265   0.088  17.398 -0.0486 -0.5303  0.7417
 2436SOL    HW118944   4.182   0.049  17.371  0.4141 -1.2773  0.4186
 2436SOL    HW218945   4.243   0.158  17.460  0.3401 -0.4831  0.8295
 2437SOL     OW18946   0.963   1.623  15.131 -0.7525  0.0279  0.3530
 2437SOL    HW118947   0.958   1.561  15.058  1.1846  1.1480 -0.7144
 2437SOL    HW218948   1.007   1.702  15.100  3.2497 -2.7388 -0.9766
 2438SOL     OW18949   4.664   2.329   7.137  0.1970  0.1509 -0.2386
 2438SOL    HW118950   4.645   2.394   7.204 -0.4733 -1.1998  0.8864
 2438SOL    HW218951   4.696   2.253   7.185 -0.6355 -1.4199 -2.1529
 2439SOL     OW18952   1.507   0.835   2.404 -0.4140 -0.5271 -0.8702
 2439SOL    HW118953   1.578   0.869   2.458 -2.4995 -0.4365  1.8034
 2439SOL    HW218954   1.513   0.911   2.345  1.7387 -0.3623 -0.4144
 2440SOL     OW18955   2.356   2.937   8.543 -0.5027  0.3063 -0.4622
 2440SOL    HW118956   2.428   2.878   8.521 -0.9298  0.2272 -1.6525
 2440SOL    HW218957   2.386   2.994   8.614  0.6135 -1.5107  0.5087
 2441SOL     OW18958   0.563   2.380   6.066  0.0444  0.3163  0.1989
 2441SOL    HW118959   0.475   2.364   6.032 -0.1349 -1.1107  1.3285
 2441SOL    HW218960   0.542   2.421   6.150 -1.5076  2.8584 -1.4413
 2442SOL     OW18961   4.023   3.605   7.005 -0.8322 -0.4618  0.3621
 2442SOL    HW118962   4.080   3.630   6.932 -1.7629 -0.6258 -0.4158
 2442SOL    HW218963   4.030   3.682   7.061  0.1096  0.5220 -1.1184
 2443SOL     OW18964   2.088   0.124   6.102  0.1109 -0.0316  0.1171
 2443SOL    HW118965   2.134   0.101   6.183  1.4650 -0.9988 -0.9373
 2443SOL    HW218966   2.140   0.074   6.039  1.2683  0.2375  0.8640
 2444SOL     OW18967   3.819   2.803  16.055 -0.4363 -0.5078 -0.9745
 2444SOL    HW118968   3.825   2.853  15.974 -0.7595 -0.6519 -1.0853
 2444SOL    HW218969   3.848   2.869  16.119 -1.7913  0.5226 -1.4253
 2445SOL     OW18970   1.373   3.068  15.761  0.5358  0.0206 -0.1245
 2445SOL    HW118971   1.416   3.125  15.698  0.0515  0.4247 -0.0923
 2445SOL    HW218972   1.421   2.985  15.756  0.1935 -0.1342 -0.8631
 2446SOL     OW18973   0.893   2.516   8.720 -0.3045 -0.0339 -0.4271
 2446SOL    HW118974   0.968   2.457   8.708  0.5810  1.1960 -0.9280
 2446SOL    HW218975   0.946   2.589   8.752 -2.6984  2.3469 -1.8602
 2447SOL     OW18976   1.774   3.097  15.776 -0.7620  0.0213 -0.0454
 2447SOL    HW118977   1.855   3.062  15.813 -0.7202  1.9860  1.7814
 2447SOL    HW218978   1.780   3.153  15.699 -0.1902 -2.5400 -1.8575
 2448SOL     OW18979   3.383   0.407   4.466 -0.0020 -0.3626  0.0760
 2448SOL    HW118980   3.313   0.346   4.491 -1.0038  0.7092 -0.1250
 2448SOL    HW218981   3.458   0.347   4.466 -1.5390 -2.3178  0.0950
 2449SOL     OW18982   2.195   2.662   8.184  0.4781  0.2013  0.1329
 2449SOL    HW118983   2.114   2.658   8.235  0.8261 -1.9753  0.5218
 2449SOL    HW218984   2.232   2.737   8.229 -1.1813 -0.7494  3.1075
 2450SOL     OW18985   3.718   4.137   0.312  0.2732  0.1814 -0.0926
 2450SOL    HW118986   3.642   4.079   0.303  0.2190  0.0539  1.2713
 2450SOL    HW218987   3.688   4.227   0.323 -0.1998 -0.2071  1.7528
 2451SOL     OW18988   2.568   2.840   6.172  0.0892 -0.2004  0.3572
 2451SOL    HW118989   2.632   2.900   6.133 -1.2034  0.1573 -1.2334
 2451SOL    HW218990   2.535   2.794   6.095  0.7902  0.0256 -0.0870
 2452SOL     OW18991   1.698   4.642  10.359  0.2959  0.1718  0.0544
 2452SOL    HW118992   1.762   4.604  10.420  0.3274  3.7095  2.2079
 2452SOL    HW218993   1.766   4.678  10.303  0.0113  0.8468  0.1429
 2453SOL     OW18994   0.680   3.518  15.079 -0.0761  0.5125  0.2370
 2453SOL    HW118995   0.681   3.613  15.093  2.4180 -0.0151  3.6666
 2453SOL    HW218996   0.772   3.510  15.053 -0.3248 -0.1438 -0.4074
 2454SOL     OW18997   2.245   3.230   7.874 -0.2454 -0.4725  0.3076
 2454SOL    HW118998   2.172   3.168   7.874 -2.3874  2.0714 -0.0659
 2454SOL    HW218999   2.320   3.174   7.896 -0.1716 -0.1386  0.9382
 2455SOL     OW19000   2.495   2.859  11.489  0.5814 -0.0263 -0.9284
 2455SOL    HW119001   2.461   2.774  11.460 -1.0565  0.2877  0.0667
 2455SOL    HW219002   2.583   2.838  11.522  0.0828 -0.4725  0.1391
 2456SOL     OW19003   2.241   0.794  17.581  0.0628  0.0751  0.3624
 2456SOL    HW119004   2.272   0.884  17.589  1.8572 -0.7196  2.4589
 2456SOL    HW219005   2.181   0.785  17.656  0.6797 -1.1393  0.7154
 2457SOL     OW19006   2.777   4.132  16.905 -0.1820 -0.3162  0.1012
 2457SOL    HW119007   2.720   4.195  16.861 -0.9405  1.3821  3.4987
 2457SOL    HW219008   2.798   4.084  16.825 -0.3068  0.3521 -0.3277
 2458SOL     OW19009   0.370   3.701  13.388  0.0734 -0.5641  0.5436
 2458SOL    HW119010   0.365   3.664  13.300  2.4165  1.6940 -0.5373
 2458SOL    HW219011   0.281   3.708  13.420 -0.0487 -2.2931  0.5925
 2459SOL     OW19012   0.870   0.546  13.687  0.4135  0.2877  0.0896
 2459SOL    HW119013   0.779   0.545  13.718  0.7855 -2.1923  1.1160
 2459SOL    HW219014   0.863   0.543  13.591 -1.7841  0.9321  0.2354
 2460SOL     OW19015   1.368   0.911   8.979 -0.2215  0.0457  0.1926
 2460SOL    HW119016   1.374   0.899   8.885  4.0649 -0.9256  0.5942
 2460SOL    HW219017   1.287   0.864   9.000 -0.7531  1.3488  1.0597
 2461SOL     OW19018   4.303   2.965  11.386  0.3059 -0.2388 -0.0083
 2461SOL    HW119019   4.294   2.966  11.291 -0.9332 -2.4552  0.0784
 2461SOL    HW219020   4.274   2.875  11.401  0.4283 -0.2918 -0.0904
 2462SOL     OW19021   0.625   2.909  13.655  0.2909 -0.0976  0.1667
 2462SOL    HW119022   0.557   2.842  13.648  0.4206 -0.2257  0.1240
 2462SOL    HW219023   0.647   2.917  13.562 -2.6646  2.0040 -0.3518
 2463SOL     OW19024   2.176   1.127   8.052 -0.7132  0.7559  0.3850
 2463SOL    HW119025   2.184   1.192   7.981 -1.0467  2.3635  1.8313
 2463SOL    HW219026   2.259   1.142   8.098 -0.4290 -1.4004  0.5602
 2464SOL     OW19027   3.297   2.477   2.949 -0.2067  0.4027 -0.6552
 2464SOL    HW119028   3.254   2.474   2.864 -2.4194  1.8992  0.4193
 2464SOL    HW219029   3.386   2.493   2.917  0.3630 -1.0261  0.1900
 2465SOL     OW19030   1.807   4.550   0.487 -0.3883  0.3909 -0.3390
 2465SOL    HW119031   1.747   4.568   0.414 -1.2094 -1.6434 -0.1557
 2465SOL    HW219032   1.890   4.540   0.442 -1.4369  1.0536 -2.4506
 2466SOL     OW19033   3.813   4.580   8.124  0.3614 -0.2393  0.1871
 2466SOL    HW119034   3.730   4.556   8.081  0.7447  0.2654 -0.8417
 2466SOL    HW219035   3.861   4.498   8.128 -1.3516 -1.2109  0.8858
 2467SOL     OW19036   4.698   3.294   1.913  0.2293 -0.4073 -0.1690
 2467SOL    HW119037   4.616   3.247   1.930  0.1879 -0.7975 -1.4074
 2467SOL    HW219038   4.699   3.361   1.981  0.1714  0.5478 -1.0982
 2468SOL     OW19039   4.464   3.296   7.328 -0.0384 -0.9673  0.1291
 2468SOL    HW119040   4.467   3.207   7.362  3.1020 -0.6238  0.7435
 2468SOL    HW219041   4.537   3.293   7.265 -0.2470  0.1691 -0.1671
 2469SOL     OW19042   3.767   2.305   0.894  0.1462 -0.1950 -0.1912
 2469SOL    HW119043   3.842   2.356   0.863  0.6761 -0.6752  0.3188
 2469SOL    HW219044   3.732   2.359   0.965  0.4602 -0.0218 -0.1693
 2470SOL     OW19045   0.599   1.574  11.669 -0.1061 -0.1496 -0.3612
 2470SOL    HW119046   0.563   1.538  11.750 -2.0064 -0.8807 -1.5522
 2470SOL    HW219047   0.617   1.666  11.693  0.1420 -0.1575 -0.5200
 2471SOL     OW19048   2.143   3.431   7.132 -0.7539 -0.5640 -0.4474
 2471SOL    HW119049   2.174   3.424   7.223  2.1954  2.0506 -1.2531
 2471SOL    HW219050   2.205   3.490   7.090 -2.5139 -0.7176 -3.2395
 2472SOL     OW19051   3.381   2.528   3.858 -0.1998  0.3108 -0.3521
 2472SOL    HW119052   3.344   2.613   3.878 -1.2994 -0.6717  1.7916
 2472SOL    HW219053   3.398   2.540   3.764  0.4542  3.0717  0.1131
 2473SOL     OW19054   2.134   2.899   9.767  0.1770 -0.1150 -0.0711
 2473SOL    HW119055   2.154   2.875   9.677 -1.3299  1.7937 -0.9145
 2473SOL    HW219056   2.090   2.821   9.800 -0.4299 -0.0631 -0.7630
 2474SOL     OW19057   0.534   3.946  12.523 -0.4136  0.1939  0.1272
 2474SOL    HW119058   0.617   3.991  12.506  1.0368 -2.4114  0.2906
 2474SOL    HW219059   0.470   4.015  12.503 -0.1345  0.2459 -0.5772
 2475SOL     OW19060   3.482   0.857  14.739 -0.2176 -0.2853 -0.2630
 2475SOL    HW119061   3.436   0.822  14.662  1.3256  0.7007 -1.6505
 2475SOL    HW219062   3.457   0.790  14.802  0.4718 -0.7806 -0.5123
 2476SOL     OW19063   1.419   3.707  15.798 -1.1734  0.3049  0.3844
 2476SOL    HW119064   1.438   3.614  15.803 -1.6036  0.1540 -0.7752
 2476SOL    HW219065   1.329   3.707  15.832 -1.1506  0.5439  0.4497
 2477SOL     OW19066   1.974   2.681   8.352 -0.3126  0.1175  0.2369
 2477SOL    HW119067   1.889   2.711   8.384 -0.1781  0.7187  0.0237
 2477SOL    HW219068   2.026   2.752   8.388 -0.1909 -0.1280  0.5566
 2478SOL     OW19069   0.460   2.714   3.102  0.3534 -0.0520 -0.0765
 2478SOL    HW119070   0.380   2.664   3.114  1.3255 -1.5266  0.2617
 2478SOL    HW219071   0.432   2.801   3.129 -2.5527 -1.0918  0.2561
 2479SOL     OW19072   1.275   0.001   3.361  0.5013 -0.5116  0.4173
 2479SOL    HW119073   1.314   0.016   3.275 -0.4668  2.1302  0.4502
 2479SOL    HW219074   1.183   0.019   3.342  1.0762  1.2034 -0.7144
 2480SOL     OW19075   2.870   1.346   7.229  0.3406  0.3863 -0.3355
 2480SOL    HW119076   2.933   1.327   7.160  1.7840 -0.0340  1.1076
 2480SOL    HW219077   2.804   1.399   7.183 -0.6929 -0.2887  0.3484
 2481SOL     OW19078   2.834   1.004  15.511  0.1233 -0.4790 -0.1341
 2481SOL    HW119079   2.847   1.099  15.507  1.3193 -0.6926 -1.1827
 2481SOL    HW219080   2.914   0.975  15.553  0.9092 -0.1510 -1.4088
 2482SOL     OW19081   3.341   4.491   5.885 -0.2119  0.7734  0.6642
 2482SOL    HW119082   3.316   4.543   5.961  1.6705  1.8853  0.5247
 2482SOL    HW219083   3.260   4.495   5.835  0.8747  1.0005 -1.0996
 2483SOL     OW19084   2.241   1.371   7.566  0.1084 -0.1897  0.7065
 2483SOL    HW119085   2.233   1.453   7.516 -1.2531 -0.3504  0.6420
 2483SOL    HW219086   2.238   1.304   7.498  0.7226 -0.9696  1.4614
 2484SOL     OW19087   3.704   3.115   8.097  0.4618  0.0142 -0.3278
 2484SOL    HW119088   3.698   3.023   8.123  1.7831 -0.0901 -0.3773
 2484SOL    HW219089   3.616   3.151   8.096  0.6925  0.5681 -0.8402
 2485SOL     OW19090   3.710   0.324   6.780 -0.0887 -0.3276 -0.1396
 2485SOL    HW119091   3.672   0.266   6.846 -0.5094 -0.2066 -0.2766
 2485SOL    HW219092   3.790   0.279   6.754  0.3811 -0.4861  1.5658
 2486SOL     OW19093   3.109   3.844  10.515  0.0071 -0.1583  0.0544
 2486SOL    HW119094   3.129   3.904  10.443  0.0676  2.0152  1.8613
 2486SOL    HW219095   3.108   3.759  10.472  1.3523  0.0582 -0.4114
 2487SOL     OW19096   3.036   2.821   8.827 -0.2842  0.2501 -0.2172
 2487SOL    HW119097   3.000   2.820   8.738 -2.5854 -1.8762  0.7367
 2487SOL    HW219098   2.953   2.849   8.865  0.1661 -0.0721  0.9851
 2488SOL     OW19099   4.665   3.904   1.344  0.0149 -0.0217 -0.0931
 2488SOL    HW119100   4.721   3.841   1.299  0.1422  0.4070 -0.5350
 2488SOL    HW219101   4.618   3.956   1.279  2.8341  2.2591 -0.2964
 2489SOL     OW19102   2.968   4.725  13.430 -0.1891  0.3313 -0.4199
 2489SOL    HW119103   3.013   0.071  13.456 -3.1282  1.3584  1.4807
 2489SOL    HW219104   3.046   4.670  13.423 -0.1690  0.4127 -0.8331
 2490SOL     OW19105   1.031   2.808  16.029 -0.1934  0.1259 -0.5079
 2490SOL    HW119106   1.095   2.832  15.961 -0.5178  0.1730 -0.7919
 2490SOL    HW219107   0.967   2.761  15.976  0.0002 -0.7480  0.0351
 2491SOL     OW19108   3.360   2.498  12.001 -0.0612 -0.6368  0.1737
 2491SOL    HW119109   3.305   2.569  12.033 -1.3614 -1.3376 -0.5141
 2491SOL    HW219110   3.414   2.486  12.080  1.8129  0.0596 -0.9961
 2492SOL     OW19111   0.817   2.485  10.725  0.3671 -0.2051  0.6491
 2492SOL    HW119112   0.910   2.507  10.734  0.1152 -0.8717  4.8824
 2492SOL    HW219113   0.823   2.390  10.729 -0.9818 -0.3072  0.1077
 2493SOL     OW19114   3.196   4.707   2.921 -0.6120  0.6822  0.2615
 2493SOL    HW119115   3.245   0.054   2.930  0.9317 -0.2002 -0.2679
 2493SOL    HW219116   3.211   4.664   3.005  2.3207  1.6660  0.2195
 2494SOL     OW19117   2.191   0.587   2.908  0.5158  0.3164  0.1882
 2494SOL    HW119118   2.227   0.508   2.867 -2.5059  0.4644 -2.7833
 2494SOL    HW219119   2.256   0.605   2.976  0.1222  0.3262  0.5614
 2495SOL     OW19120   2.547   0.544   2.336  0.1705  0.2026 -0.6024
 2495SOL    HW119121   2.589   0.571   2.254 -0.0878 -1.1104 -1.1648
 2495SOL    HW219122   2.479   0.483   2.306  0.2871 -0.7717  1.1204
 2496SOL     OW19123   0.578   2.354   2.610  0.4089 -0.4648 -0.4789
 2496SOL    HW119124   0.505   2.393   2.657 -0.1522 -0.0391 -1.6838
 2496SOL    HW219125   0.563   2.389   2.522  0.7888 -2.4544 -1.3355
 2497SOL     OW19126   0.995   4.530   4.549  0.4498 -0.6898 -0.2742
 2497SOL    HW119127   1.019   4.451   4.500 -1.8467  1.0279 -4.2193
 2497SOL    HW219128   0.955   4.576   4.476 -1.6334 -1.1724  0.5597
 2498SOL     OW19129   2.462   2.632   6.658  0.4905  0.9006  0.4502
 2498SOL    HW119130   2.486   2.721   6.629  0.0708  0.2613 -1.8405
 2498SOL    HW219131   2.547   2.601   6.690 -0.3935 -0.3364  1.5668
 2499SOL     OW19132   0.627   4.669   3.142 -0.5035  0.2524  0.4241
 2499SOL    HW119133   0.626   4.582   3.102 -0.5444 -0.0843  1.1428
 2499SOL    HW219134   0.601   0.001   3.079 -0.0606  1.6326  1.6995
 2500SOL     OW19135   4.506   2.150   2.091 -0.2474 -0.0061 -0.1506
 2500SOL    HW119136   4.570   2.160   2.020 -1.2822  3.3678 -0.6300
 2500SOL    HW219137   4.469   2.063   2.079 -1.8876  0.2432  3.2180
 2501SOL     OW19138   1.859   1.093   5.795  0.1096  0.3232  0.3243
 2501SOL    HW119139   1.861   1.109   5.701  1.3871  2.6278  0.7463
 2501SOL    HW219140   1.877   0.999   5.802  0.6018  0.5393  1.9749
 2502SOL     OW19141   1.937   3.135   8.579  0.2361  0.4023  0.5035
 2502SOL    HW119142   1.922   3.219   8.535  2.0436 -0.0138 -0.9046
 2502SOL    HW219143   1.864   3.075   8.559  0.3755 -0.3522  2.3388
 2503SOL     OW19144   4.633   3.930  12.782  0.0727  0.1072 -0.0075
 2503SOL    HW119145   4.726   3.948  12.770 -0.2589  0.8962 -1.5491
 2503SOL    HW219146   4.618   3.895  12.694  1.5732  2.2844 -1.1560
 2504SOL     OW19147   1.426   1.028   1.171  0.4255  0.3184 -0.1361
 2504SOL    HW119148   1.427   0.948   1.223  1.6900  0.5327  0.1646
 2504SOL    HW219149   1.374   0.990   1.100 -0.0626  0.8711 -0.0735
 2505SOL     OW19150   0.979   1.448   2.364 -0.1197  0.1482  0.0876
 2505SOL    HW119151   0.971   1.543   2.349 -1.0060 -0.3329 -2.3440
 2505SOL    HW219152   0.942   1.438   2.452  0.5005 -2.0133  0.1009
 2506SOL     OW19153   1.791   1.592  12.101 -0.1564 -0.0452 -0.0702
 2506SOL    HW119154   1.804   1.588  12.006  0.4065 -0.9160  0.0391
 2506SOL    HW219155   1.703   1.631  12.100  0.7876  2.0790  0.7313
 2507SOL     OW19156   3.304   4.463   9.567 -0.2124  0.6528 -0.4792
 2507SOL    HW119157   3.278   4.482   9.657  0.5718  2.1948 -0.5716
 2507SOL    HW219158   3.330   4.551   9.538 -0.2194  0.9890  0.5559
 2508SOL     OW19159   2.473   3.633   7.779  0.5556  0.2195 -0.5992
 2508SOL    HW119160   2.417   3.596   7.711  0.7428 -1.0070 -0.0955
 2508SOL    HW219161   2.422   3.707   7.811 -0.7715 -0.5578 -0.9193
 2509SOL     OW19162   3.322   1.746  17.647 -0.4892 -0.2592 -0.4045
 2509SOL    HW119163   3.369   1.725  17.728 -1.4401 -0.8409 -0.0016
 2509SOL    HW219164   3.318   1.842  17.652 -4.1436 -0.4316  0.1435
 2510SOL     OW19165   0.542   0.041   9.153 -0.2982  0.2735 -0.1737
 2510SOL    HW119166   0.633   0.017   9.138 -1.0457 -1.5954 -1.6799
 2510SOL    HW219167   0.497   0.005   9.076  1.0892 -2.7006  0.4194
 2511SOL     OW19168   4.676   3.240   9.521  0.0967  0.4152  0.5000
 2511SOL    HW119169   4.673   3.164   9.463 -2.7294 -0.5391  1.9510
 2511SOL    HW219170   4.636   3.304   9.462 -0.1901  0.5162  0.8089
 2512SOL     OW19171   2.601   1.214   7.396 -0.0512 -0.5869  0.0430
 2512SOL    HW119172   2.588   1.303   7.362 -0.3071 -1.2394 -1.5856
 2512SOL    HW219173   2.690   1.191   7.373 -0.9796 -3.9822 -0.1654
 2513SOL     OW19174   4.648   3.429   3.457 -0.0325  0.5005  0.5843
 2513SOL    HW119175   4.640   3.334   3.470  0.5601  0.4848  0.8152
 2513SOL    HW219176   4.580   3.464   3.515 -1.4633 -1.6613  0.2058
 2514SOL     OW19177   1.509   3.500   1.794 -0.0751 -0.0394  0.2236
 2514SOL    HW119178   1.456   3.440   1.741  1.1441 -1.2312  0.3461
 2514SOL    HW219179   1.554   3.439   1.852  2.0273  0.3856 -0.9941
 2515SOL     OW19180   3.221   2.268   8.093  0.3323  0.1165 -0.0534
 2515SOL    HW119181   3.147   2.234   8.143  1.1243 -1.0412  0.3271
 2515SOL    HW219182   3.236   2.351   8.138 -1.4062  0.0162  0.6874
 2516SOL     OW19183   1.076   2.475  16.923  0.2749  0.2762 -0.4793
 2516SOL    HW119184   1.054   2.383  16.939  1.0735  0.1041 -0.4181
 2516SOL    HW219185   0.995   2.501  16.878  0.9713  0.4036 -1.6545
 2517SOL     OW19186   2.784   0.383  15.205  0.2814  0.9719  0.6715
 2517SOL    HW119187   2.840   0.446  15.251 -1.2151  3.1080 -0.4413
 2517SOL    HW219188   2.773   0.313  15.269  0.5309 -0.2713 -0.6545
 2518SOL     OW19189   1.253   4.223   8.677  0.3849  0.1845  0.0336
 2518SOL    HW119190   1.242   4.312   8.643  1.8473 -0.4631 -2.1232
 2518SOL    HW219191   1.161   4.202   8.695  0.6471 -0.0345  1.0930
 2519SOL     OW19192   3.632   2.454  17.083  0.1065 -0.3923  0.0285
 2519SOL    HW119193   3.726   2.455  17.101  0.1452 -1.6926 -0.0967
 2519SOL    HW219194   3.607   2.362  17.089  1.7824 -0.6965  2.5261
 2520SOL     OW19195   1.660   2.193   2.529 -0.2500 -0.1721 -0.1506
 2520SOL    HW119196   1.712   2.124   2.571 -0.0771  0.6956  1.0548
 2520SOL    HW219197   1.644   2.157   2.442  0.5796  1.3991 -0.9427
 2521SOL     OW19198   0.488   3.957  13.247 -0.6589 -0.2377  0.6513
 2521SOL    HW119199   0.582   3.950  13.264 -0.2395 -0.0133 -1.5274
 2521SOL    HW219200   0.447   3.886  13.296 -0.9652 -0.8586 -0.4999
 2522SOL     OW19201   0.208   4.123   3.375  0.4680 -0.0601  0.3832
 2522SOL    HW119202   0.257   4.044   3.400  1.1946 -0.5706 -2.6553
 2522SOL    HW219203   0.192   4.088   3.287 -0.3828  1.9324 -0.2424
 2523SOL     OW19204   3.458   2.044   9.357 -0.2672  0.0954 -0.3554
 2523SOL    HW119205   3.365   2.037   9.336 -0.3499 -0.5302  0.2052
 2523SOL    HW219206   3.505   2.031   9.274 -0.5536 -1.4599 -0.2717
 2524SOL     OW19207   4.569   3.205   5.414 -0.3491  0.2714 -0.0744
 2524SOL    HW119208   4.572   3.140   5.484  4.4439  1.9825  1.3053
 2524SOL    HW219209   4.474   3.221   5.413  0.1679  3.5107  0.3759
 2525SOL     OW19210   3.447   2.499   8.894  0.3211  0.1794  0.0353
 2525SOL    HW119211   3.524   2.491   8.838 -2.2765 -3.7395 -2.9644
 2525SOL    HW219212   3.402   2.573   8.853 -0.1676 -0.8159 -1.2283
 2526SOL     OW19213   3.944   0.859   4.160 -0.1422 -1.2310 -0.1316
 2526SOL    HW119214   4.016   0.896   4.212 -0.9422 -2.7285  2.0695
 2526SOL    HW219215   3.891   0.938   4.154 -1.0529 -1.6186  2.7261
 2527SOL     OW19216   4.471   1.910  17.648  0.0631  0.2555 -0.5951
 2527SOL    HW119217   4.518   1.828  17.667 -0.0664  0.3186 -0.0163
 2527SOL    HW219218   4.465   1.905  17.552  1.2505 -2.0259 -0.5637
 2528SOL     OW19219   2.121   4.583   8.308 -0.5389  0.1154 -0.3196
 2528SOL    HW119220   2.194   4.633   8.271 -0.4272 -0.2780 -0.6434
 2528SOL    HW219221   2.156   4.535   8.383  0.3371 -1.6574 -1.8573
 2529SOL     OW19222   3.957   0.493   8.385 -0.4202 -0.1766  0.3248
 2529SOL    HW119223   3.972   0.429   8.315 -1.6915 -1.3481  1.1295
 2529SOL    HW219224   3.943   0.441   8.464 -2.0119  1.4555  1.1290
 2530SOL     OW19225   1.251   1.130   2.857  0.2977 -0.4261 -0.1136
 2530SOL    HW119226   1.242   1.071   2.932  0.4339 -1.1603 -0.6757
 2530SOL    HW219227   1.196   1.087   2.792  1.0316  0.2146 -1.1546
 2531SOL     OW19228   4.717   0.875  15.146  0.0631  0.1814  0.2783
 2531SOL    HW119229   0.072   0.842  15.153 -0.7475 -2.4198 -1.7625
 2531SOL    HW219230   4.668   0.829  15.215  0.2039  1.4179  1.2057
 2532SOL     OW19231   4.009   4.110   4.043  0.0629 -0.4256  0.1604
 2532SOL    HW119232   3.982   4.034   4.096  0.3593 -0.1545  0.7002
 2532SOL    HW219233   3.921   4.148   4.052  0.8939  1.5932 -0.2896
 2533SOL     OW19234   1.461   3.765   3.455  0.1976  0.1912 -0.2840
 2533SOL    HW119235   1.502   3.833   3.401 -0.2292  0.3774 -0.3779
 2533SOL    HW219236   1.414   3.718   3.386 -1.6336  1.0493  0.3709
 2534SOL     OW19237   3.774   3.720  14.449  0.0796  0.0813  0.0781
 2534SOL    HW119238   3.739   3.644  14.494 -1.0363  0.4721 -0.1314
 2534SOL    HW219239   3.857   3.736  14.494 -1.3808  1.2629  2.3380
 2535SOL     OW19240   2.694   0.064   4.521 -0.1599 -0.0429  0.5289
 2535SOL    HW119241   2.666   0.055   4.612  2.1580 -0.0389  1.2403
 2535SOL    HW219242   2.686   4.704   4.511 -0.8682 -0.1667  2.2653
 2536SOL     OW19243   1.763   3.445   9.012  0.3485  0.0106  0.1110
 2536SOL    HW119244   1.696   3.407   9.068  0.4416 -1.8420 -1.0472
 2536SOL    HW219245   1.717   3.511   8.959 -0.0503 -1.1142 -0.9294
 2537SOL     OW19246   0.389   1.181   5.196  0.2721 -0.1454  0.6725
 2537SOL    HW119247   0.360   1.250   5.257 -1.4562 -2.3724  2.3479
 2537SOL    HW219248   0.462   1.140   5.243 -0.0304  0.4736  1.6926
 2538SOL     OW19249   3.963   1.994   8.856 -0.2944  0.3872  0.0780
 2538SOL    HW119250   3.991   1.903   8.862 -0.4176  0.3503  0.0772
 2538SOL    HW219251   3.975   2.004   8.761 -0.2059 -0.4065  0.0065
 2539SOL     OW19252   2.544   3.441   5.616 -0.0530 -0.1028 -0.1189
 2539SOL    HW119253   2.570   3.497   5.689  2.2199 -0.3098 -0.7446
 2539SOL    HW219254   2.557   3.500   5.541  0.1264 -0.8884 -0.7115
 2540SOL     OW19255   0.765   2.090   5.259 -0.1262 -0.4164 -0.0496
 2540SOL    HW119256   0.844   2.074   5.207  0.0424  2.3786 -0.6367
 2540SOL    HW219257   0.802   2.131   5.337 -3.5083 -2.7152  2.7378
 2541SOL     OW19258   3.068   3.708   3.941 -0.2009 -0.3517  0.2863
 2541SOL    HW119259   3.113   3.782   3.981 -1.0219  0.1003  0.3904
 2541SOL    HW219260   3.148   3.678   3.898  0.5079  1.3389  0.4514
 2542SOL     OW19261   1.422   3.558   5.847  0.3746 -0.2773  0.3036
 2542SOL    HW119262   1.362   3.488   5.821 -0.2142  0.4353 -0.2501
 2542SOL    HW219263   1.379   3.599   5.922 -0.9152  1.3478 -1.3298
 2543SOL     OW19264   2.472   3.121   6.877 -0.0468  0.1040 -0.3121
 2543SOL    HW119265   2.409   3.100   6.946  0.0777 -2.1416 -0.8619
 2543SOL    HW219266   2.416   3.167   6.815 -0.2634  0.3778  0.0875
 2544SOL     OW19267   3.105   0.897  11.253  0.1376 -0.2072 -0.4655
 2544SOL    HW119268   3.198   0.884  11.231  0.2539  0.6242 -0.4666
 2544SOL    HW219269   3.093   0.991  11.241 -1.1491 -0.7249 -3.2152
 2545SOL     OW19270   0.608   1.928   0.709  0.0389  0.3134  0.4244
 2545SOL    HW119271   0.701   1.906   0.702 -0.2365 -0.9329  0.7410
 2545SOL    HW219272   0.569   1.850   0.747  2.0329 -0.3401  1.1078
 2546SOL     OW19273   0.025   1.341   3.604  0.0756  0.6067 -0.5946
 2546SOL    HW119274   0.045   1.343   3.510  0.2928  1.6398 -0.5363
 2546SOL    HW219275   4.687   1.404   3.603 -0.3893  0.0673 -0.4991
 2547SOL     OW19276   2.510   2.775   7.124  0.2974 -0.0372 -0.1821
 2547SOL    HW119277   2.472   2.688   7.109 -1.3817  0.1830  2.7361
 2547SOL    HW219278   2.437   2.828   7.092  0.0277 -0.1377  0.2670
 2548SOL     OW19279   0.117   2.337   9.543  0.1773 -0.3079  0.1098
 2548SOL    HW119280   0.067   2.417   9.525 -3.1926 -2.4308 -0.0168
 2548SOL    HW219281   0.154   2.368   9.626  0.5692 -1.1875  0.2628
 2549SOL     OW19282   2.061   2.305   1.989 -0.3516 -0.3560  0.2356
 2549SOL    HW119283   2.029   2.357   2.063  0.1594  0.9825 -0.4846
 2549SOL    HW219284   2.155   2.301   2.007 -0.2048  2.8284  0.2029
 2550SOL     OW19285   0.062   0.750   1.190 -0.2661 -0.0225 -0.5498
 2550SOL    HW119286   0.055   0.655   1.196 -1.5593  0.2457  2.5942
 2550SOL    HW219287   4.708   0.786   1.199 -0.0676 -0.0259  1.6012
 2551SOL     OW19288   0.138   4.487   6.605 -0.4263 -0.0322 -0.1980
 2551SOL    HW119289   0.198   4.555   6.573 -0.0649  0.7094  2.0777
 2551SOL    HW219290   0.080   4.487   6.529 -0.2837 -0.3188 -0.3050
 2552SOL     OW19291   2.320   1.486   6.786 -0.2701 -0.2031  0.4808
 2552SOL    HW119292   2.317   1.403   6.833 -0.3602 -0.3405  0.2341
 2552SOL    HW219293   2.229   1.510   6.764 -0.4983 -0.6381  0.9488
 2553SOL     OW19294   1.291   4.614   2.497  0.8328  0.1971  0.1906
 2553SOL    HW119295   1.279   4.557   2.574 -0.9485  2.0805  1.3305
 2553SOL    HW219296   1.290   4.695   2.549  1.2478  0.8711 -0.8646
 2554SOL     OW19297   0.154   0.304   7.797  0.5323  0.0472  0.4134
 2554SOL    HW119298   0.156   0.351   7.880 -0.7030  2.0095 -0.6624
 2554SOL    HW219299   0.084   0.351   7.752 -0.0128 -0.0852  1.1199
 2555SOL     OW19300   0.405   3.085   6.411  0.5101  0.5587 -0.1898
 2555SOL    HW119301   0.443   3.084   6.323 -0.0261 -0.3482 -0.4174
 2555SOL    HW219302   0.336   3.150   6.397  0.9073  1.1606  0.7007
 2556SOL     OW19303   3.793   4.374  14.020 -0.2369 -0.2133 -0.0367
 2556SOL    HW119304   3.798   4.343  14.111  0.9305  0.3268  0.0870
 2556SOL    HW219305   3.698   4.370  14.010 -0.1181 -2.6618 -0.1412
 2557SOL     OW19306   0.832   4.620   8.364 -0.0719  0.4100 -0.4316
 2557SOL    HW119307   0.910   4.674   8.359  0.7505 -0.4445  2.6663
 2557SOL    HW219308   0.757   4.677   8.378 -0.2391  0.5071 -1.7103
 2558SOL     OW19309   0.370   3.028   2.857 -0.0609  0.0144 -0.3157
 2558SOL    HW119310   0.371   2.988   2.770  1.0667 -1.6652  0.4849
 2558SOL    HW219311   0.296   3.089   2.849  1.1314  1.4149 -0.6177
 2559SOL     OW19312   1.347   1.228   5.554 -0.1007  0.6309 -0.1014
 2559SOL    HW119313   1.368   1.264   5.468  1.2056 -0.9304 -0.4361
 2559SOL    HW219314   1.252   1.230   5.540 -0.2320  0.7914  0.7967
 2560SOL     OW19315   4.063   1.717   3.035  0.8455  0.5105  0.6591
 2560SOL    HW119316   4.156   1.717   3.012  0.2739 -1.1358 -1.6173
 2560SOL    HW219317   4.052   1.676   3.121  1.2030  1.9182  1.3707
 2561SOL     OW19318   1.417   1.928   8.632  0.1641 -0.1013  0.0914
 2561SOL    HW119319   1.489   1.970   8.678 -0.4317  1.3274 -0.2969
 2561SOL    HW219320   1.438   1.836   8.650 -0.5192 -0.9199 -3.2743
 2562SOL     OW19321   3.931   1.929   2.633  0.0341  0.4534 -0.4419
 2562SOL    HW119322   3.879   1.884   2.567 -2.5407  1.9525  0.5543
 2562SOL    HW219323   3.927   2.021   2.605 -1.2935  0.4918 -0.1269
 2563SOL     OW19324   3.457   1.556   6.747  0.0150  0.4866 -0.0851
 2563SOL    HW119325   3.439   1.610   6.671 -0.8320 -0.9552 -0.9130
 2563SOL    HW219326   3.490   1.484   6.693  0.3991 -0.6666  1.6658
 2564SOL     OW19327   0.984   0.690  16.567 -0.1114  0.3844  0.4277
 2564SOL    HW119328   0.980   0.693  16.662  2.3565 -0.2357  0.5277
 2564SOL    HW219329   0.896   0.655  16.551 -0.7374  1.2117  2.0671
 2565SOL     OW19330   3.701   1.488   6.294  0.2456  0.1506 -0.6666
 2565SOL    HW119331   3.782   1.514   6.248  1.0553  0.1383  0.7518
 2565SOL    HW219332   3.659   1.572   6.311  0.9625  0.1025  1.3335
 2566SOL     OW19333   1.041   4.480   6.293 -0.0626  0.3293 -0.3997
 2566SOL    HW119334   1.122   4.531   6.291 -0.1627  0.5836  2.4955
 2566SOL    HW219335   0.988   4.552   6.328 -0.8328 -1.3276  1.8437
 2567SOL     OW19336   0.758   2.684  14.900  0.1999 -0.2483  0.0766
 2567SOL    HW119337   0.784   2.693  14.809  0.3720  1.2302  0.2716
 2567SOL    HW219338   0.703   2.761  14.916  4.2341  2.7047 -0.0759
 2568SOL     OW19339   1.434   3.197   8.039 -0.3187 -0.3384 -0.2094
 2568SOL    HW119340   1.389   3.231   8.116 -0.2074 -2.1399  0.6474
 2568SOL    HW219341   1.524   3.227   8.052 -1.0504  2.2403 -1.0487
 2569SOL     OW19342   1.208   0.982  13.850 -0.0118 -0.0577  0.3289
 2569SOL    HW119343   1.288   0.939  13.878  1.1922  1.3092 -1.0467
 2569SOL    HW219344   1.241   1.031  13.775  0.0528 -0.5098  0.0646
 2570SOL     OW19345   1.810   2.981   2.824  0.7652 -0.1282  0.1179
 2570SOL    HW119346   1.791   2.888   2.814  0.5781 -0.2013  1.2181
 2570SOL    HW219347   1.876   2.977   2.893  0.7043 -3.3407  0.0049
 2571SOL     OW19348   0.837   3.720  14.334 -0.4498 -0.2713 -0.6110
 2571SOL    HW119349   0.921   3.733  14.290 -0.0680  1.0697  0.5268
 2571SOL    HW219350   0.817   3.632  14.302  4.1520 -1.9726  1.2789
 2572SOL     OW19351   1.116   3.307  16.772  0.1098 -0.5836 -0.1502
 2572SOL    HW119352   1.050   3.269  16.830 -0.4504  1.5287  0.6275
 2572SOL    HW219353   1.070   3.291  16.689 -1.9935  0.1558  0.8522
 2573SOL     OW19354   0.034   2.955  14.323  0.1933 -0.2430  0.0424
 2573SOL    HW119355   0.122   2.979  14.296  0.7490 -1.5004  0.7289
 2573SOL    HW219356   4.726   3.037  14.296 -1.1965 -0.6872  0.8665
 2574SOL     OW19357   0.988   0.041   3.007 -0.0614 -0.1496  0.2283
 2574SOL    HW119358   0.963   0.031   2.915  2.4255 -0.8477 -0.3560
 2574SOL    HW219359   0.995   4.682   3.028 -0.7124  0.3487  2.6535
 2575SOL     OW19360   3.241   4.460   3.715 -0.4311  0.1895  0.0854
 2575SOL    HW119361   3.211   4.371   3.736 -0.0711  0.0039 -0.1796
 2575SOL    HW219362   3.293   4.439   3.637  0.3292 -0.1402  0.6833
 2576SOL     OW19363   1.752   4.194   5.934  0.4393  0.3110 -0.6169
 2576SOL    HW119364   1.756   4.186   5.839  1.1465  0.9295 -0.6368
 2576SOL    HW219365   1.805   4.273   5.943 -2.2316  1.8246  2.0087
 2577SOL     OW19366   3.650   2.439   8.751  0.4851 -0.2108 -0.9061
 2577SOL    HW119367   3.716   2.491   8.705  2.5735 -1.4516  0.6824
 2577SOL    HW219368   3.706   2.403   8.820  0.0026  4.1055  1.7475
 2578SOL     OW19369   3.843   4.032   6.994  0.3761 -0.5970 -0.3469
 2578SOL    HW119370   3.882   4.019   7.081  1.1289 -0.0474 -0.6006
 2578SOL    HW219371   3.787   3.955   6.988  2.0729 -1.6126 -2.9997
 2579SOL     OW19372   2.225   0.493  12.125 -0.0582 -0.0268  0.3181
 2579SOL    HW119373   2.307   0.454  12.156  0.4858 -0.3410 -1.5033
 2579SOL    HW219374   2.266   0.571  12.089 -1.9843 -0.2502 -2.3549
 2580SOL     OW19375   4.004   0.680  17.107 -0.0188 -0.4923 -0.0690
 2580SOL    HW119376   4.007   0.588  17.082  1.8993 -0.1624 -1.0447
 2580SOL    HW219377   4.092   0.695  17.073  0.2411 -1.1681  0.2974
 2581SOL     OW19378   3.276   0.781   8.901  0.2871 -0.1133  0.0618
 2581SOL    HW119379   3.245   0.694   8.924 -0.6436  0.1780 -0.1052
 2581SOL    HW219380   3.229   0.786   8.817  0.8617  0.4385 -0.2296
 2582SOL     OW19381   1.340   0.258  17.566  0.3934 -0.4729  0.4611
 2582SOL    HW119382   1.370   0.298  17.485 -0.7671 -1.9994 -0.7180
 2582SOL    HW219383   1.259   0.227  17.527  0.8865  0.3696 -1.2328
 2583SOL     OW19384   2.504   2.461   2.639 -0.7173  0.0366  0.5800
 2583SOL    HW119385   2.470   2.544   2.604  0.8654  0.6758  0.5805
 2583SOL    HW219386   2.425   2.407   2.642 -1.2538  0.8101  0.4346
 2584SOL     OW19387   0.038   0.140  15.905 -0.1336  0.0217  0.5023
 2584SOL    HW119388   0.057   0.046  15.908 -0.2126 -0.1041 -4.1719
 2584SOL    HW219389   4.717   0.143  15.983  1.1897 -1.1547  1.5037
 2585SOL     OW19390   0.518   0.652   8.235 -0.6633  0.0119  0.1243
 2585SOL    HW119391   0.446   0.666   8.297 -0.7014 -1.5602  0.4289
 2585SOL    HW219392   0.540   0.564   8.267 -0.6592 -0.6507 -1.7317
 2586SOL     OW19393   3.588   3.487   6.330  0.1565  0.2860 -0.2515
 2586SOL    HW119394   3.579   3.400   6.291 -1.1788 -0.0068  0.7196
 2586SOL    HW219395   3.532   3.475   6.407  0.8906 -0.5356  0.1440
 2587SOL     OW19396   2.340   1.588   9.693 -0.1724 -0.4510  0.3730
 2587SOL    HW119397   2.279   1.567   9.765 -3.2249  2.9698 -1.2395
 2587SOL    HW219398   2.297   1.530   9.630 -2.1420  0.5745  0.7759
 2588SOL     OW19399   3.853   2.259   9.531  0.6982  0.9421  0.7147
 2588SOL    HW119400   3.858   2.326   9.463 -3.4595  2.2263  1.6979
 2588SOL    HW219401   3.939   2.277   9.569  0.7393 -0.1525  1.1230
 2589SOL     OW19402   1.543   1.790   7.876 -0.1607 -0.2679  0.1501
 2589SOL    HW119403   1.468   1.819   7.928 -1.0190 -1.3845 -0.4673
 2589SOL    HW219404   1.531   1.695   7.868 -1.5090 -0.2185  1.5869
 2590SOL     OW19405   0.117   1.716   7.079 -0.3871 -0.0855 -0.2721
 2590SOL    HW119406   0.136   1.627   7.051 -0.3869 -0.1585 -0.0415
 2590SOL    HW219407   0.174   1.717   7.156 -0.5727 -0.2710 -0.1314
 2591SOL     OW19408   1.324   4.362   5.927  0.8676 -0.2864  0.1909
 2591SOL    HW119409   1.230   4.355   5.911  0.6191 -0.7365  1.9260
 2591SOL    HW219410   1.360   4.314   5.852 -1.1070  0.7733 -1.4643
 2592SOL     OW19411   0.853   3.830   9.510 -0.0662 -0.2942  0.5649
 2592SOL    HW119412   0.948   3.837   9.501 -0.2088 -0.3457 -1.0590
 2592SOL    HW219413   0.849   3.865   9.599  4.1086 -1.6035  1.2297
 2593SOL     OW19414   0.338   3.220   7.294 -0.3610  0.0593 -0.0566
 2593SOL    HW119415   0.255   3.266   7.297 -1.4644 -2.0518  1.3127
 2593SOL    HW219416   0.385   3.299   7.267  1.2263 -1.0641 -0.6071
 2594SOL     OW19417   1.675   1.617   7.576 -0.1943  0.0880 -0.0696
 2594SOL    HW119418   1.738   1.578   7.515  1.0567 -0.0879  1.3322
 2594SOL    HW219419   1.692   1.573   7.660  1.0994 -1.6801 -1.2510
 2595SOL     OW19420   2.111   0.741  10.604 -0.4759  0.2264 -0.3825
 2595SOL    HW119421   2.070   0.797  10.539 -3.2379  1.1186  2.1374
 2595SOL    HW219422   2.039   0.693  10.646 -0.5912 -0.1008 -0.9570
 2596SOL     OW19423   0.631   2.602  13.467  0.0558  0.1593 -0.1098
 2596SOL    HW119424   0.708   2.648  13.433  0.0739 -0.7631 -1.3372
 2596SOL    HW219425   0.668   2.552  13.539 -2.4972  0.0553  1.1422
 2597SOL     OW19426   0.240   2.376   8.256  0.3860  0.1042  0.0005
 2597SOL    HW119427   0.196   2.337   8.181  0.2241 -1.1022  0.7246
 2597SOL    HW219428   0.251   2.470   8.242  0.4890  0.4435  2.3893
 2598SOL     OW19429   1.860   2.162  16.113  0.6412 -0.4443  0.6221
 2598SOL    HW119430   1.882   2.248  16.149  0.0798  1.1214 -2.7318
 2598SOL    HW219431   1.801   2.191  16.043  1.9065  0.5010 -0.0432
 2599SOL     OW19432   4.228   0.771   3.303  0.9252 -0.2357 -0.0967
 2599SOL    HW119433   4.209   0.678   3.315 -0.8699  0.2204  0.5160
 2599SOL    HW219434   4.200   0.806   3.219  1.1896 -1.8588 -0.8637
 2600SOL     OW19435   2.139   3.708   7.566 -0.1664 -0.6121 -0.7909
 2600SOL    HW119436   2.126   3.762   7.488  1.0561 -1.4067 -1.5430
 2600SOL    HW219437   2.165   3.774   7.630 -0.3161 -1.3956  0.0929
 2601SOL     OW19438   2.509   0.615   6.835  0.6754  0.1489  0.0361
 2601SOL    HW119439   2.487   0.637   6.925  1.7687 -1.8899  0.8051
 2601SOL    HW219440   2.446   0.670   6.787 -0.4862  0.7961  2.2905
 2602SOL     OW19441   4.048   2.455   3.378 -0.4892  0.5087  0.4773
 2602SOL    HW119442   4.138   2.470   3.407 -0.4920  1.3124  0.0856
 2602SOL    HW219443   4.011   2.495   3.456 -2.4242 -1.1473  0.3970
 2603SOL     OW19444   3.180   3.834   0.425 -0.3935  0.0348 -0.4604
 2603SOL    HW119445   3.149   3.924   0.431 -0.7857 -0.2896  2.5050
 2603SOL    HW219446   3.139   3.802   0.505 -1.5765  0.2827 -0.9695
 2604SOL     OW19447   1.457   1.632   8.308 -0.1119 -0.2825 -0.0140
 2604SOL    HW119448   1.498   1.707   8.264 -0.4809 -0.0043  0.1199
 2604SOL    HW219449   1.530   1.591   8.354 -0.1884 -0.0393  0.3282
 2605SOL     OW19450   0.844   0.137   1.780 -0.0852  0.1497 -0.0527
 2605SOL    HW119451   0.893   0.055   1.785  0.2862  0.4097  0.6253
 2605SOL    HW219452   0.757   0.105   1.758 -0.9798  2.1500  0.6380
 2606SOL     OW19453   4.653   1.684  16.126  0.0632 -0.3127  0.8830
 2606SOL    HW119454   4.716   1.648  16.063  0.2675 -0.1969  1.0212
 2606SOL    HW219455   4.687   1.642  16.204  2.6241  0.9595  0.4342
 2607SOL     OW19456   2.208   1.589  16.037 -0.1926  0.2588 -0.6253
 2607SOL    HW119457   2.160   1.527  16.092  2.3199 -0.5468  0.6474
 2607SOL    HW219458   2.293   1.546  16.042 -0.9561 -1.2071 -0.2774
 2608SOL     OW19459   1.318   0.650   2.383  1.0708 -0.3873 -0.3376
 2608SOL    HW119460   1.391   0.711   2.380 -0.1521  1.1392  1.3065
 2608SOL    HW219461   1.343   0.579   2.443 -0.1027 -0.3452  0.1975
 2609SOL     OW19462   0.850   1.387   1.456  0.7384 -0.1712 -0.0407
 2609SOL    HW119463   0.908   1.313   1.439  2.3165  0.8146  1.0906
 2609SOL    HW219464   0.868   1.407   1.547  0.8486 -0.1383 -0.0698
 2610SOL     OW19465   3.638   3.575  14.808 -0.0367 -0.5404 -0.4613
 2610SOL    HW119466   3.616   3.535  14.724  0.4710  1.1147 -1.3830
 2610SOL    HW219467   3.560   3.551  14.858 -0.5511  1.3433 -0.3437
 2611SOL     OW19468   0.371   0.535   2.572  0.0406  0.4051  0.1818
 2611SOL    HW119469   0.426   0.550   2.495 -1.8455 -0.1319 -1.2667
 2611SOL    HW219470   0.299   0.488   2.530 -0.1446 -0.0339  0.9854
 2612SOL     OW19471   0.190   2.156   6.043  0.0121 -0.3834 -0.3498
 2612SOL    HW119472   0.179   2.166   5.949  0.2844  0.5119 -0.2872
 2612SOL    HW219473   0.107   2.194   6.071  0.2449 -0.6634  0.7227
 2613SOL     OW19474   1.274   4.147   9.780  0.0428 -0.5763 -0.6028
 2613SOL    HW119475   1.194   4.104   9.811  0.6389 -1.3937 -0.2150
 2613SOL    HW219476   1.248   4.167   9.690  0.0278 -0.3346 -0.5437
 2614SOL     OW19477   1.232   1.641   1.100  0.6850  0.0218  0.1541
 2614SOL    HW119478   1.141   1.614   1.112  0.8421 -1.3106 -1.7167
 2614SOL    HW219479   1.225   1.734   1.120  0.3341  0.2873 -1.2248
 2615SOL     OW19480   1.608   4.287   4.850 -0.3929  0.3341  0.1653
 2615SOL    HW119481   1.701   4.267   4.839 -0.9713 -0.2331 -3.9770
 2615SOL    HW219482   1.583   4.245   4.931  0.2595 -0.3182  0.0207
 2616SOL     OW19483   0.080   3.358   3.021  0.5371 -0.2186  0.3537
 2616SOL    HW119484   0.022   3.421   3.064 -0.1941 -0.3206 -0.4771
 2616SOL    HW219485   0.119   3.327   3.103  1.6287 -0.2210 -0.1736
 2617SOL     OW19486   3.017   4.210   1.407  0.2001 -0.0577 -0.1621
 2617SOL    HW119487   2.930   4.241   1.433  0.2105 -0.4659  0.3708
 2617SOL    HW219488   3.070   4.279   1.445 -2.3173  0.5696  2.1475
 2618SOL     OW19489   1.022   3.693   2.205 -0.4541  0.1165  0.0177
 2618SOL    HW119490   1.038   3.784   2.183  0.8259 -0.6578 -2.2094
 2618SOL    HW219491   1.104   3.671   2.250 -0.7331 -2.9404 -0.9237
 2619SOL     OW19492   2.068   0.429   6.351  0.6601  0.7240  0.6609
 2619SOL    HW119493   2.105   0.451   6.265  1.2406  1.9999  1.2397
 2619SOL    HW219494   2.044   0.339   6.331 -0.0925  1.1653 -0.4115
 2620SOL     OW19495   2.959   3.647   8.523 -0.2887 -0.3914  0.2645
 2620SOL    HW119496   3.011   3.659   8.603 -0.8841  0.6089  0.5016
 2620SOL    HW219497   2.913   3.731   8.530 -0.7006 -0.2423 -4.1343
 2621SOL     OW19498   3.186   3.899  12.133  0.2364 -0.0243  0.2727
 2621SOL    HW119499   3.263   3.956  12.139 -0.0620  0.5856 -1.6980
 2621SOL    HW219500   3.237   3.819  12.123 -1.2616 -0.9102 -0.2961
 2622SOL     OW19501   2.060   2.660   6.956  0.3743  0.0097 -0.5168
 2622SOL    HW119502   2.109   2.578   6.955  0.0569 -0.1976  0.3809
 2622SOL    HW219503   2.013   2.648   6.874 -3.0290  0.9835  1.2739
 2623SOL     OW19504   4.187   3.625   5.035  0.0393 -0.5288  0.0085
 2623SOL    HW119505   4.105   3.653   5.076  0.2278  2.0317 -1.3925
 2623SOL    HW219506   4.257   3.661   5.090 -0.6346  3.3698 -1.6958
 2624SOL     OW19507   0.709   4.398   2.657  0.0385 -0.4794 -0.0892
 2624SOL    HW119508   0.798   4.427   2.640 -0.4192  0.9199 -0.0787
 2624SOL    HW219509   0.718   4.309   2.622 -2.3847 -0.3470 -1.0589
 2625SOL     OW19510   1.336   3.052   5.326  0.2859  0.5537  0.3496
 2625SOL    HW119511   1.366   3.132   5.284  0.0884  0.2849 -0.3063
 2625SOL    HW219512   1.417   3.020   5.367  0.0374 -0.1655  0.2902
 2626SOL     OW19513   2.293   2.301   3.859 -0.0293  0.1511  0.1666
 2626SOL    HW119514   2.319   2.216   3.894 -1.7490 -0.6615 -0.5696
 2626SOL    HW219515   2.198   2.296   3.861 -0.0965  1.2489  0.0481
 2627SOL     OW19516   3.466   1.207   3.055  0.0852 -0.0449 -0.6153
 2627SOL    HW119517   3.499   1.200   3.144 -1.6740  1.9820  0.2153
 2627SOL    HW219518   3.404   1.134   3.061  1.6111 -1.3464 -0.7448
 2628SOL     OW19519   4.438   1.498   7.142 -0.1691 -0.2145  0.1062
 2628SOL    HW119520   4.360   1.550   7.125 -0.3565 -0.5653 -0.0975
 2628SOL    HW219521   4.426   1.407   7.114  1.2240 -1.0343  2.1388
 2629SOL     OW19522   2.266   2.335   2.701 -0.4731 -0.3046  0.3908
 2629SOL    HW119523   2.231   2.259   2.655  2.4939 -1.6321  0.3123
 2629SOL    HW219524   2.183   2.378   2.720 -2.3480 -3.5842 -0.4637
 2630SOL     OW19525   3.633   3.576  14.022 -0.0662  0.2687  0.2763
 2630SOL    HW119526   3.556   3.527  13.993  0.5800 -0.2144 -0.6095
 2630SOL    HW219527   3.698   3.540  13.963  0.6830  1.1431  0.5667
 2631SOL     OW19528   3.701   1.804   5.646  0.2938  0.2766 -0.3097
 2631SOL    HW119529   3.745   1.792   5.730 -0.3201 -0.9138 -0.1561
 2631SOL    HW219530   3.649   1.723   5.646 -1.8224  1.6380  3.4547
 2632SOL     OW19531   0.500   4.297   6.811  0.3042 -0.1502  0.2591
 2632SOL    HW119532   0.406   4.311   6.821  0.3769 -0.6650  1.6797
 2632SOL    HW219533   0.532   4.327   6.896 -0.3849  1.6471 -0.1276
 2633SOL     OW19534   3.289   1.641  13.958 -0.6150 -0.2993  0.0055
 2633SOL    HW119535   3.216   1.650  13.896 -0.4222 -2.6977 -0.5945
 2633SOL    HW219536   3.331   1.727  13.949 -1.2024 -0.1887 -1.6863
 2634SOL     OW19537   1.760   2.284   1.663  0.0210  0.2719  0.0655
 2634SOL    HW119538   1.762   2.259   1.756 -3.3771  0.6293  0.2297
 2634SOL    HW219539   1.788   2.375   1.667 -1.5546  0.8063 -1.8208
 2635SOL     OW19540   3.483   1.652  14.643  0.4193 -0.2981  0.1241
 2635SOL    HW119541   3.460   1.564  14.616 -0.3168 -0.0317 -0.1068
 2635SOL    HW219542   3.573   1.638  14.614  0.3472 -1.5786  0.5288
 2636SOL     OW19543   4.312   2.310   6.221 -0.2087 -0.4258  0.5502
 2636SOL    HW119544   4.376   2.346   6.160 -0.8347  1.3573  0.9281
 2636SOL    HW219545   4.250   2.382   6.229  0.2048 -0.0386  0.2793
 2637SOL     OW19546   0.257   0.624  14.964  0.1050  0.2395  0.1052
 2637SOL    HW119547   0.239   0.687  15.034 -0.7108  2.8662 -2.4854
 2637SOL    HW219548   0.318   0.559  14.999  1.2564  1.7544  0.8855
 2638SOL     OW19549   1.283   3.934   8.356 -0.1354 -0.4269 -0.1576
 2638SOL    HW119550   1.336   4.003   8.396 -1.0356  0.2105 -0.0664
 2638SOL    HW219551   1.248   3.980   8.280 -0.1476  1.7472  1.1425
 2639SOL     OW19552   3.364   1.925   3.801 -0.0154 -0.2292 -0.0078
 2639SOL    HW119553   3.359   2.003   3.856  0.0407 -0.3090  0.1091
 2639SOL    HW219554   3.278   1.890   3.820 -0.1894 -0.3468 -0.9829
 2640SOL     OW19555   2.832   2.700   7.765  0.4086 -0.3553 -0.4313
 2640SOL    HW119556   2.784   2.779   7.789  1.4304 -0.1067  0.7548
 2640SOL    HW219557   2.883   2.718   7.686  1.8706 -0.3510  0.5134
 2641SOL     OW19558   2.564   3.839   1.656 -0.0263 -0.4589 -0.0613
 2641SOL    HW119559   2.659   3.845   1.666 -0.1662  1.7123  0.0343
 2641SOL    HW219560   2.553   3.895   1.579  1.5582 -1.3021 -0.8813
 2642SOL     OW19561   3.733   3.860  14.224 -0.0702  0.4246  0.1088
 2642SOL    HW119562   3.656   3.806  14.208  0.8562  0.0740 -3.0071
 2642SOL    HW219563   3.743   3.811  14.306 -1.4231  1.8875  1.1717
 2643SOL     OW19564   2.547   3.975   1.425 -0.3401  0.6622 -0.1422
 2643SOL    HW119565   2.462   4.019   1.433 -0.9968 -0.3835 -1.5990
 2643SOL    HW219566   2.552   3.950   1.333 -1.1808  1.4382 -0.3989
 2644SOL     OW19567   1.912   1.890   3.871 -0.1065 -0.0367 -0.1088
 2644SOL    HW119568   1.819   1.901   3.893  0.3473  2.2679  0.6251
 2644SOL    HW219569   1.932   1.983   3.861  1.7830 -0.3650  0.6451
 2645SOL     OW19570   1.025   1.138   2.155  0.0145 -0.0950 -0.2160
 2645SOL    HW119571   1.053   1.053   2.121 -1.0745 -0.4851 -0.1448
 2645SOL    HW219572   0.999   1.184   2.075 -1.4685 -3.1336 -1.4791
 2646SOL     OW19573   4.380   3.916   3.956 -0.0911  0.3665 -0.0932
 2646SOL    HW119574   4.317   3.846   3.937  0.5972 -0.3643  0.3510
 2646SOL    HW219575   4.360   3.925   4.049 -1.8084  0.3701 -0.4605
 2647SOL     OW19576   2.765   2.587   5.740 -0.8630  0.1061  0.7262
 2647SOL    HW119577   2.782   2.553   5.827  0.6632 -0.6736  0.1102
 2647SOL    HW219578   2.849   2.564   5.700  0.1442  1.8348  1.8220
 2648SOL     OW19579   3.773   1.657   3.983 -0.2365  0.1936  0.0584
 2648SOL    HW119580   3.762   1.690   3.893  2.0870  0.4503 -0.1130
 2648SOL    HW219581   3.859   1.693   4.004  0.1429 -0.1243 -0.9358
 2649SOL     OW19582   2.260   0.859   7.896  0.2510  0.2381 -0.4351
 2649SOL    HW119583   2.268   0.840   7.803  0.1883 -0.7602 -0.2408
 2649SOL    HW219584   2.250   0.954   7.897 -1.2335  0.0660  1.1533
 2650SOL     OW19585   4.477   0.539   7.190 -0.7158 -0.3331  0.3121
 2650SOL    HW119586   4.512   0.509   7.106 -1.3288  0.1607 -0.1147
 2650SOL    HW219587   4.389   0.570   7.166  0.2535  0.3105 -2.4043
 2651SOL     OW19588   1.010   0.792  10.671  0.3702 -0.0783 -0.5825
 2651SOL    HW119589   1.039   0.847  10.743 -0.5302 -0.7880  0.3334
 2651SOL    HW219590   1.044   0.851  10.604 -0.9257  0.7213 -0.5344
 2652SOL     OW19591   4.315   2.502   5.216 -0.4527  0.3399  0.3137
 2652SOL    HW119592   4.334   2.478   5.307 -0.2911 -1.4543 -0.1867
 2652SOL    HW219593   4.290   2.594   5.227  1.8124  1.0689 -0.6824
 2653SOL     OW19594   2.982   0.962   6.862  0.4390  0.0672  0.0084
 2653SOL    HW119595   3.031   0.885   6.835  0.1019 -1.0818  2.6405
 2653SOL    HW219596   2.905   0.953   6.805  1.7499 -0.6481 -1.6419
 2654SOL     OW19597   0.739   4.243   2.888  0.2132 -0.5023 -0.2865
 2654SOL    HW119598   0.688   4.310   2.934  2.4794  0.8444  0.2845
 2654SOL    HW219599   0.750   4.284   2.803 -0.3307 -0.4264 -0.3228
 2655SOL     OW19600   2.754   2.659   9.021  0.5474  0.1139 -0.0024
 2655SOL    HW119601   2.746   2.652   8.926  1.2430  2.9112 -0.2864
 2655SOL    HW219602   2.683   2.608   9.060  0.5094 -1.3902 -2.0362
 2656SOL     OW19603   2.222   3.065   9.432  0.1304  0.3899  0.2414
 2656SOL    HW119604   2.186   3.091   9.517  1.6646  1.8747  0.4391
 2656SOL    HW219605   2.228   3.143   9.377 -1.7374  0.8013  0.5983
 2657SOL     OW19606   0.082   4.615  17.011 -0.1647 -0.0352  0.3331
 2657SOL    HW119607   0.134   4.636  17.089  2.0001  1.5862 -1.5796
 2657SOL    HW219608   0.095   4.692  16.957  0.2084  0.3010  0.9050
 2658SOL     OW19609   1.181   0.813   1.344 -0.5230  0.0435 -0.1486
 2658SOL    HW119610   1.276   0.813   1.338 -0.4361  1.0087  0.9969
 2658SOL    HW219611   1.152   0.874   1.277 -3.1987 -0.7009  0.3403
 2659SOL     OW19612   2.804   2.667   6.193  0.2245 -0.2686  0.1683
 2659SOL    HW119613   2.834   2.745   6.240  2.9963 -0.1536 -1.7959
 2659SOL    HW219614   2.720   2.707   6.169  0.0112 -1.4932 -1.1386
 2660SOL     OW19615   2.603   1.167   6.292  0.5299  0.4434 -0.1094
 2660SOL    HW119616   2.649   1.112   6.355 -1.7693  0.1536  1.3123
 2660SOL    HW219617   2.678   1.221   6.267 -0.0625  2.5720  2.6388
 2661SOL     OW19618   0.897   2.278   0.078 -0.2438 -0.1418  0.6034
 2661SOL    HW119619   0.904   2.208   0.144  0.0468 -0.7860 -0.1120
 2661SOL    HW219620   0.928   2.352   0.130 -1.1778  0.4340  0.3373
 2662SOL     OW19621   4.381   4.288   9.024  0.1885 -0.2128 -0.3740
 2662SOL    HW119622   4.379   4.192   9.025 -0.8300 -0.1824  0.1023
 2662SOL    HW219623   4.454   4.302   9.085  0.6949 -1.3726 -0.7091
 2663SOL     OW19624   2.862   3.134  16.297  0.3269  0.1679 -0.5317
 2663SOL    HW119625   2.806   3.085  16.237  0.8950 -2.9652  1.5132
 2663SOL    HW219626   2.841   3.096  16.382 -2.0283 -0.7048 -1.4985
 2664SOL     OW19627   3.432   3.765   3.108 -0.0960  0.7486  0.3147
 2664SOL    HW119628   3.388   3.850   3.102 -0.9015  0.2980 -0.2297
 2664SOL    HW219629   3.383   3.729   3.183  0.3312 -0.0732  0.2009
 2665SOL     OW19630   3.118   1.808  14.993  0.0801 -0.0019 -0.4058
 2665SOL    HW119631   3.141   1.776  14.906  1.3985 -0.3723  0.0758
 2665SOL    HW219632   3.024   1.813  14.974 -0.2769 -2.4721  0.8203
 2666SOL     OW19633   4.693   2.117   1.840  0.3376  0.4355  0.3308
 2666SOL    HW119634   4.707   2.165   1.758 -0.1037 -2.1507 -1.2609
 2666SOL    HW219635   0.038   2.143   1.886  0.7866 -1.3885  0.5510
 2667SOL     OW19636   0.569   4.161   5.877 -0.3907  0.6286  0.1147
 2667SOL    HW119637   0.562   4.132   5.786  0.3761  1.2180 -0.1245
 2667SOL    HW219638   0.542   4.252   5.863 -0.0903  0.3134 -2.5353
 2668SOL     OW19639   0.656   2.972   3.270  0.1156  0.1820  0.4150
 2668SOL    HW119640   0.602   3.049   3.254 -1.4791 -0.5999  1.9744
 2668SOL    HW219641   0.685   2.992   3.360 -4.6626 -2.2490  2.4776
 2669SOL     OW19642   0.720   2.780   4.359 -0.3118  0.2124 -0.2464
 2669SOL    HW119643   0.737   2.690   4.388 -0.5362  1.1856  2.9448
 2669SOL    HW219644   0.678   2.821   4.435 -0.9766  1.1454 -1.1340
 2670SOL     OW19645   0.941   2.570   2.204  0.1067 -0.1572 -0.0195
 2670SOL    HW119646   1.019   2.547   2.152 -0.6766  1.8810 -2.0962
 2670SOL    HW219647   0.977   2.652   2.236  0.2194  0.0136 -0.5809
 2671SOL     OW19648   1.045   3.669   1.825 -0.0028 -0.6018 -0.8673
 2671SOL    HW119649   1.007   3.599   1.878  2.6675 -0.7185  0.8685
 2671SOL    HW219650   1.051   3.629   1.738 -0.5913  3.3631 -2.7106
 2672SOL     OW19651   2.166   0.468   6.945  0.4887  0.2784 -0.1332
 2672SOL    HW119652   2.185   0.554   6.907  1.6687 -0.5422 -1.3928
 2672SOL    HW219653   2.089   0.488   6.998 -0.8111 -2.1417 -1.1331
 2673SOL     OW19654   0.981   2.741   4.185 -0.4272  0.9684 -0.5791
 2673SOL    HW119655   0.931   2.763   4.263 -0.5881  0.3690 -0.5103
 2673SOL    HW219656   1.005   2.649   4.200 -0.6049  1.0638  0.2957
 2674SOL     OW19657   3.172   3.407   6.554 -0.1935 -0.3016  0.0318
 2674SOL    HW119658   3.165   3.444   6.466  0.0287  0.4086  0.3156
 2674SOL    HW219659   3.172   3.313   6.533 -0.3555 -0.6037  1.3964
 2675SOL     OW19660   1.741   4.007   2.494 -0.3477  0.0777 -0.9284
 2675SOL    HW119661   1.788   4.089   2.476 -0.0235  0.4291  1.6048
 2675SOL    HW219662   1.709   4.015   2.583  0.5968 -1.8516 -0.4261
 2676SOL     OW19663   0.894   2.975   6.257  0.0842  0.0880 -0.5184
 2676SOL    HW119664   0.949   3.010   6.187  1.0963 -0.9888 -0.2598
 2676SOL    HW219665   0.859   2.894   6.221  1.6680 -0.8937  0.1457
 2677SOL     OW19666   2.971   3.452  15.957  0.4943 -0.5517  0.0827
 2677SOL    HW119667   2.930   3.529  15.916  0.4596 -1.2572 -1.1985
 2677SOL    HW219668   2.911   3.441  16.031  0.5717  1.2404  0.4206
 2678SOL     OW19669   1.840   3.360   4.178 -0.1175 -0.1714 -0.3636
 2678SOL    HW119670   1.847   3.315   4.262 -0.9794 -2.0048 -1.2687
 2678SOL    HW219671   1.927   3.339   4.145 -0.4933 -0.1427 -1.3544
 2679SOL     OW19672   3.610   0.814  10.954 -0.0376  0.3715  0.3235
 2679SOL    HW119673   3.594   0.895  11.002  0.9828  1.2701 -0.8665
 2679SOL    HW219674   3.662   0.840  10.879 -0.4489  0.2572 -0.0013
 2680SOL     OW19675   1.524   0.667   3.564  0.0325  0.4903  0.0736
 2680SOL    HW119676   1.441   0.623   3.544 -0.5913  1.2802  0.8920
 2680SOL    HW219677   1.524   0.662   3.660 -1.7454 -0.8166  0.0136
 2681SOL     OW19678   1.928   3.328   6.306 -0.0064  0.7860  0.5018
 2681SOL    HW119679   1.936   3.334   6.401  0.4871 -0.7411  0.5520
 2681SOL    HW219680   1.932   3.421   6.285 -0.9892  0.8487  0.6171
 2682SOL     OW19681   3.612   1.212   5.115  0.0084  0.3338 -0.2192
 2682SOL    HW119682   3.642   1.287   5.166  0.8438  0.4355 -0.8604
 2682SOL    HW219683   3.564   1.253   5.044 -0.4190  2.9490  1.5594
 2683SOL     OW19684   2.717   3.096   4.142  0.1267  0.1321  0.1422
 2683SOL    HW119685   2.638   3.047   4.119 -0.2336  0.7398  0.1080
 2683SOL    HW219686   2.754   3.114   4.056 -1.1376  0.8756 -0.2436
 2684SOL     OW19687   3.125   1.839  12.873 -0.0092 -1.0942  0.1511
 2684SOL    HW119688   3.085   1.761  12.912 -2.3145 -0.7948 -1.6193
 2684SOL    HW219689   3.058   1.904  12.898  0.9293 -0.6970  1.6050
 2685SOL     OW19690   3.879   1.546   6.085 -0.1416  0.3356  0.1528
 2685SOL    HW119691   3.925   1.619   6.044  0.7159  0.8534  2.0513
 2685SOL    HW219692   3.854   1.499   6.005 -2.4731  1.1793  0.3972
 2686SOL     OW19693   1.523   1.769   4.184 -0.3086  0.7388  0.0788
 2686SOL    HW119694   1.445   1.715   4.172 -0.3825  0.4537  1.8801
 2686SOL    HW219695   1.492   1.846   4.136  1.2005  0.4716 -1.3518
 2687SOL     OW19696   2.954   4.266   2.726  0.0089  0.3742  0.6501
 2687SOL    HW119697   3.024   4.329   2.710  1.4711 -1.1179  1.1837
 2687SOL    HW219698   2.987   4.221   2.804  1.3878 -0.6130 -0.5026
 2688SOL     OW19699   3.021   0.984   2.773  0.3080  0.1266  0.2530
 2688SOL    HW119700   2.927   0.975   2.790  0.4761  1.1653  1.7303
 2688SOL    HW219701   3.046   0.898   2.806  2.2126  0.3559 -0.5828
 2689SOL     OW19702   0.988   2.027   5.113  0.0253  0.1985 -0.1496
 2689SOL    HW119703   0.995   1.979   5.031  0.0972 -0.3207  0.1580
 2689SOL    HW219704   1.047   2.101   5.102 -2.5137  2.0092 -1.5656
 2690SOL     OW19705   0.165   2.187   7.489  0.0983  0.4737  0.3633
 2690SOL    HW119706   0.199   2.269   7.454 -0.9268  1.6884  2.1919
 2690SOL    HW219707   0.226   2.117   7.464 -2.6074 -1.4767 -0.8103
 2691SOL     OW19708   0.090   0.886   7.883  0.0864  0.2735 -0.2082
 2691SOL    HW119709   0.020   0.922   7.936 -0.1471 -1.4150  0.6407
 2691SOL    HW219710   0.159   0.889   7.950  0.0118  0.2045 -0.1281
 2692SOL     OW19711   2.585   2.828   8.224  0.7627  0.6377 -0.2951
 2692SOL    HW119712   2.549   2.909   8.259  0.0339  0.3176 -0.2949
 2692SOL    HW219713   2.525   2.809   8.151  2.9636  0.3590 -2.0332
 2693SOL     OW19714   0.542   4.425   5.050  0.1577 -0.0710 -0.3641
 2693SOL    HW119715   0.511   4.380   5.129 -1.3569  0.1091 -0.8484
 2693SOL    HW219716   0.469   4.425   4.988 -0.9353  0.8500  0.9316
 2694SOL     OW19717   2.663   0.926  16.612  0.1097 -0.4803  0.3854
 2694SOL    HW119718   2.734   0.989  16.603  1.0391 -1.7746 -1.2903
 2694SOL    HW219719   2.719   0.850  16.628  0.1127 -0.3209  1.1311
 2695SOL     OW19720   0.065   1.211   0.753 -0.1621 -0.3831  0.4044
 2695SOL    HW119721   4.723   1.242   0.802  0.1426  0.1078  0.5686
 2695SOL    HW219722   0.019   1.140   0.709  1.8075 -0.4254 -1.5964
 2696SOL     OW19723   3.347   3.725   8.669 -0.4108 -0.8478  0.3172
 2696SOL    HW119724   3.401   3.654   8.702  2.2138  2.2580  2.6067
 2696SOL    HW219725   3.410   3.778   8.620  1.2210 -1.3885  1.8685
 2697SOL     OW19726   1.647   3.381   6.485  0.6207 -0.4161  0.2332
 2697SOL    HW119727   1.609   3.294   6.497  0.4104 -0.7155 -2.6831
 2697SOL    HW219728   1.725   3.377   6.541 -1.8381 -1.1620  3.5894
 2698SOL     OW19729   0.301   4.711   6.714  0.2847 -0.5392 -0.1543
 2698SOL    HW119730   0.377   0.004   6.764 -0.4858  0.0527  0.6858
 2698SOL    HW219731   0.343   4.721   6.628  0.7585 -0.4393  0.0939
 2699SOL     OW19732   0.069   3.218   3.242  0.2755 -0.1557 -0.4307
 2699SOL    HW119733   4.712   3.233   3.267  0.5104 -2.4428  1.7194
 2699SOL    HW219734   0.106   3.190   3.325 -1.1994 -1.9421 -0.3897
 2700SOL     OW19735   3.582   3.252   3.675 -0.3363 -0.3049 -0.6062
 2700SOL    HW119736   3.575   3.186   3.606  0.0795 -0.0854 -0.8600
 2700SOL    HW219737   3.509   3.309   3.652 -0.2735 -1.5344 -3.8926
 2701SOL     OW19738   2.480   3.091   3.043  0.2516 -0.6816  0.3209
 2701SOL    HW119739   2.425   3.013   3.035 -0.3716  0.0128 -2.0783
 2701SOL    HW219740   2.446   3.130   3.123 -1.3814  2.4119 -1.9127
 2702SOL     OW19741   0.584   1.725   3.622 -0.3416  0.4057 -0.6050
 2702SOL    HW119742   0.522   1.684   3.681  0.0201  0.2154 -0.3581
 2702SOL    HW219743   0.577   1.811   3.663  1.2005 -0.4806  1.5062
 2703SOL     OW19744   1.602   1.432  14.687  0.0397 -0.5190 -0.3556
 2703SOL    HW119745   1.579   1.448  14.596  0.1197 -1.9026 -0.6158
 2703SOL    HW219746   1.545   1.498  14.726  0.6905 -0.3653  0.3570
 2704SOL     OW19747   0.234   1.494   1.366  0.4991  0.1898  0.5959
 2704SOL    HW119748   0.154   1.448   1.393 -1.0807  1.1953 -2.2912
 2704SOL    HW219749   0.216   1.518   1.275  1.2477  1.0202  0.6709
 2705SOL     OW19750   2.934   0.625   4.891  0.2074 -0.0178  0.3053
 2705SOL    HW119751   2.992   0.586   4.957 -1.3405 -2.5181  0.1629
 2705SOL    HW219752   2.872   0.669   4.949  1.1731  0.4229  1.0112
 2706SOL     OW19753   2.067   3.712   1.630  0.3523 -0.2419 -0.0306
 2706SOL    HW119754   2.133   3.682   1.567 -0.5292 -2.9535  0.3438
 2706SOL    HW219755   2.117   3.793   1.644 -0.5348  0.5780 -1.5403
 2707SOL     OW19756   0.668   1.569  15.798 -0.2782  0.3217  0.1302
 2707SOL    HW119757   0.639   1.486  15.760 -1.2816  1.6316 -1.9751
 2707SOL    HW219758   0.698   1.606  15.715 -1.0512  0.7354  0.0349
 2708SOL     OW19759   0.720   0.975  10.779 -0.6026 -0.1643 -0.6536
 2708SOL    HW119760   0.721   0.944  10.869  0.3169  0.5376 -0.4242
 2708SOL    HW219761   0.652   1.041  10.793 -0.1786  0.4794 -1.6342
 2709SOL     OW19762   2.708   0.402   5.710 -0.8271  0.2067 -0.2522
 2709SOL    HW119763   2.756   0.418   5.629 -2.4695 -0.0522 -1.2682
 2709SOL    HW219764   2.625   0.397   5.663 -0.7683  1.9663 -0.5355
 2710SOL     OW19765   4.044   2.394   5.613 -0.0854 -0.2729  0.0085
 2710SOL    HW119766   4.004   2.354   5.536 -1.8179 -1.0524  1.3165
 2710SOL    HW219767   3.961   2.429   5.647  0.4845  2.1770 -1.0836
 2711SOL     OW19768   2.602   1.644   4.520  0.5845  0.4442 -0.2875
 2711SOL    HW119769   2.630   1.613   4.434 -0.3841 -3.1018  0.6575
 2711SOL    HW219770   2.547   1.575   4.559  0.5074  1.1243  0.8144
 2712SOL     OW19771   4.718   2.872   3.494 -0.5568 -0.3472  0.5149
 2712SOL    HW119772   0.075   2.872   3.466 -1.2103 -1.2729 -1.6512
 2712SOL    HW219773   4.716   2.784   3.532 -2.1742 -0.1701  0.8462
 2713SOL     OW19774   1.200   4.089  11.650 -0.1622  0.2291  0.4834
 2713SOL    HW119775   1.181   4.030  11.576 -1.1256 -1.5191  2.1346
 2713SOL    HW219776   1.113   4.104  11.685 -1.1875  1.9224 -2.7630
 2714SOL     OW19777   3.359   2.176   7.850  0.4838 -0.1006 -0.4669
 2714SOL    HW119778   3.312   2.189   7.933 -0.3097  1.6679 -1.1888
 2714SOL    HW219779   3.368   2.266   7.820 -2.1176  0.4687  0.4093
 2715SOL     OW19780   4.229   2.240   5.741 -0.1955 -0.0042 -0.0673
 2715SOL    HW119781   4.158   2.304   5.736  0.8619  1.0555 -1.3501
 2715SOL    HW219782   4.226   2.224   5.835 -1.3620  0.5291 -0.0095
 2716SOL     OW19783   3.819   0.651  12.804 -0.0946  0.1071  0.1815
 2716SOL    HW119784   3.868   0.575  12.838 -0.8233 -0.4617 -0.0373
 2716SOL    HW219785   3.727   0.634  12.825 -0.0827  1.3020  1.1904
 2717SOL     OW19786   3.521   4.671   3.164  0.4856  0.3819  0.0597
 2717SOL    HW119787   3.534   4.690   3.071  0.1523  0.3106 -0.0027
 2717SOL    HW219788   3.592   4.727   3.195  1.3034  0.8206 -2.6540
 2718SOL     OW19789   0.505   3.140   8.472  0.0355  0.1843 -0.1759
 2718SOL    HW119790   0.524   3.134   8.566  0.7651  0.8549 -0.2829
 2718SOL    HW219791   0.411   3.159   8.479  0.1936  1.1542 -0.6204
 2719SOL     OW19792   2.225   0.101  16.046 -0.0281  0.2373  0.0238
 2719SOL    HW119793   2.254   0.085  15.956  0.9963 -2.5174  0.8321
 2719SOL    HW219794   2.224   0.196  16.051 -0.2055  0.2959 -1.1923
 2720SOL     OW19795   0.453   4.711   3.608 -0.7733  0.3384  0.1185
 2720SOL    HW119796   0.408   0.055   3.642 -1.0768  0.3605 -0.3240
 2720SOL    HW219797   0.388   4.644   3.631  0.0705  0.0466  1.6346
 2721SOL     OW19798   0.710   2.812   3.060 -0.4567  0.0469 -0.4507
 2721SOL    HW119799   0.638   2.749   3.066 -1.6368  1.4264 -0.1192
 2721SOL    HW219800   0.677   2.883   3.116  2.3266  0.2507  0.8898
 2722SOL     OW19801   4.733   1.835   3.192 -0.2988 -0.1729 -0.3010
 2722SOL    HW119802   0.060   1.885   3.244 -0.5288  0.8925 -1.0556
 2722SOL    HW219803   0.033   1.745   3.189 -2.3686 -1.0379  2.1406
 2723SOL     OW19804   0.296   3.885   8.901 -0.2640  0.1613  0.5348
 2723SOL    HW119805   0.319   3.841   8.982 -0.2535 -0.6741  0.0871
 2723SOL    HW219806   0.292   3.973   8.938  0.2259  0.7542 -0.8103
 2724SOL     OW19807   3.961   2.289   2.352 -0.1365  0.5256  0.1125
 2724SOL    HW119808   3.886   2.337   2.387  0.3668 -0.7089  2.8868
 2724SOL    HW219809   3.923   2.201   2.349 -0.6891  0.7493  0.7074
 2725SOL     OW19810   0.655   3.314   3.628  0.1862 -0.5590 -0.0848
 2725SOL    HW119811   0.644   3.374   3.701 -2.6675 -0.7923 -0.3330
 2725SOL    HW219812   0.675   3.369   3.552 -2.3070 -0.6618 -0.8232
 2726SOL     OW19813   2.765   3.430   9.406  0.5062 -0.6414 -0.2414
 2726SOL    HW119814   2.794   3.470   9.488  0.5783 -0.0857 -0.5438
 2726SOL    HW219815   2.764   3.515   9.363 -0.4285 -0.4751  0.0986
 2727SOL     OW19816   0.770   2.644   9.391 -0.5332 -0.6592 -0.0325
 2727SOL    HW119817   0.769   2.739   9.403 -1.7486 -0.8120  1.0436
 2727SOL    HW219818   0.695   2.619   9.444  0.1428 -0.5908  0.9574
 2728SOL     OW19819   1.964   3.364   0.506 -0.3797  0.2518  0.2820
 2728SOL    HW119820   2.059   3.374   0.497 -0.2759 -1.6476 -0.7195
 2728SOL    HW219821   1.951   3.459   0.516 -2.0176  0.0522  0.0455
 2729SOL     OW19822   2.667   0.220   8.814 -0.0325 -0.2484  0.1269
 2729SOL    HW119823   2.599   0.156   8.794 -0.9789  0.6390  0.4684
 2729SOL    HW219824   2.735   0.153   8.820  0.8867  0.7439  0.8727
 2730SOL     OW19825   4.667   1.783   3.705 -0.4405  0.0090  0.0228
 2730SOL    HW119826   4.670   1.753   3.795 -1.7394  0.6588  0.2875
 2730SOL    HW219827   0.027   1.792   3.692 -0.0346 -0.0400  3.0049
 2731SOL     OW19828   4.419   1.485  10.133 -0.4715 -0.4463 -0.1730
 2731SOL    HW119829   4.457   1.567  10.163 -0.9378 -1.4445  3.2313
 2731SOL    HW219830   4.331   1.489  10.170 -1.0874  0.5581 -1.7445
 2732SOL     OW19831   0.150   4.632   7.591 -0.1530  0.1304 -0.0046
 2732SOL    HW119832   0.212   4.587   7.534  0.0327  0.4469 -0.0572
 2732SOL    HW219833   0.161   4.726   7.575  0.6015 -0.2049 -1.4199
 2733SOL     OW19834   3.759   0.342  15.182  0.5956 -0.3049 -0.5853
 2733SOL    HW119835   3.853   0.336  15.167  0.8145  1.5922 -0.0336
 2733SOL    HW219836   3.746   0.303  15.269  2.3859  3.3094  1.3051
 2734SOL     OW19837   2.039   1.532   5.399 -0.0925  0.0358  0.0850
 2734SOL    HW119838   2.045   1.577   5.315 -1.2172 -1.3617 -0.7537
 2734SOL    HW219839   2.058   1.439   5.387  0.3206  0.2077 -0.5734
 2735SOL     OW19840   3.521   0.182   7.587  0.0187  0.6964 -0.2879
 2735SOL    HW119841   3.485   0.169   7.500  0.9177  0.9934 -0.6973
 2735SOL    HW219842   3.454   0.234   7.631  0.2539  0.5597  0.2366
 2736SOL     OW19843   1.706   3.693   6.081 -0.2668 -0.2901  0.4709
 2736SOL    HW119844   1.719   3.769   6.024  1.0767 -0.7442  0.1731
 2736SOL    HW219845   1.648   3.733   6.145  0.1802 -1.3440  1.5327
 2737SOL     OW19846   3.848   0.701  12.086 -0.0368  0.4714  0.8621
 2737SOL    HW119847   3.862   0.749  12.167  2.6094  0.4949  0.4212
 2737SOL    HW219848   3.903   0.625  12.105 -2.1743 -1.2992  0.0083
 2738SOL     OW19849   3.111   2.479  15.227 -0.2356 -0.1498 -0.1247
 2738SOL    HW119850   3.204   2.476  15.205 -0.3238  2.5330 -0.9672
 2738SOL    HW219851   3.088   2.572  15.221  0.9568  0.1975  0.5441
 2739SOL     OW19852   1.495   2.036   3.634  0.4689  0.4536  0.0380
 2739SOL    HW119853   1.525   2.073   3.550  0.3606  0.3133 -0.0618
 2739SOL    HW219854   1.417   1.991   3.602  2.9130 -1.8438 -2.7681
 2740SOL     OW19855   3.520   4.286  10.417 -0.3987  0.5666 -0.6476
 2740SOL    HW119856   3.452   4.306  10.481  0.7716  1.8108  0.2017
 2740SOL    HW219857   3.592   4.334  10.458  0.9183 -1.3512 -0.7303
 2741SOL     OW19858   0.991   1.875   9.577  0.3520 -0.0622  0.3268
 2741SOL    HW119859   0.995   1.780   9.586  0.3231 -0.1080 -0.1744
 2741SOL    HW219860   0.918   1.893   9.518 -0.8587 -0.2601  1.7744
 2742SOL     OW19861   3.468   4.640   2.113  0.0860  0.1587  0.3475
 2742SOL    HW119862   3.405   4.661   2.044  1.3016 -1.9108 -1.3960
 2742SOL    HW219863   3.531   4.711   2.102 -0.0616  0.5339  1.9717
 2743SOL     OW19864   0.711   1.641   4.721 -0.1592 -0.1128 -0.0744
 2743SOL    HW119865   0.634   1.694   4.739  1.9204  2.6858  0.5168
 2743SOL    HW219866   0.720   1.584   4.797  2.4364  0.2575 -0.0856
 2744SOL     OW19867   3.954   4.188  11.123 -0.1918  0.2952 -0.5557
 2744SOL    HW119868   3.963   4.160  11.031 -0.9977  0.8986 -0.8148
 2744SOL    HW219869   3.950   4.283  11.121  0.0748  0.3455  2.1417
 2745SOL     OW19870   2.922   2.873  10.081  0.0995  0.0326 -0.4899
 2745SOL    HW119871   2.936   2.865  10.175 -0.8242 -2.7085 -0.5812
 2745SOL    HW219872   3.002   2.922  10.060 -0.0480  0.1974 -0.6646
 2746SOL     OW19873   3.169   3.281   4.531  0.0169  0.2960  0.0499
 2746SOL    HW119874   3.075   3.268   4.518  0.0537  0.0032  0.0705
 2746SOL    HW219875   3.194   3.217   4.598  0.5896 -0.1420 -0.5777
 2747SOL     OW19876   3.617   3.266   4.867  0.2529 -0.0165  0.0160
 2747SOL    HW119877   3.629   3.335   4.802 -2.7003  0.5976  0.1437
 2747SOL    HW219878   3.577   3.197   4.814  2.4044 -1.7789  0.6790
 2748SOL     OW19879   1.516   0.787   4.334 -0.2913  0.6417 -0.0473
 2748SOL    HW119880   1.567   0.717   4.376 -2.4631 -3.4899 -4.2717
 2748SOL    HW219881   1.533   0.869   4.380 -0.4844  0.6548 -0.0027
 2749SOL     OW19882   2.439   2.528   8.453 -0.6822  0.0273  0.1408
 2749SOL    HW119883   2.457   2.620   8.474 -1.3050 -0.0405  1.0021
 2749SOL    HW219884   2.522   2.481   8.460  0.0046  1.2584  0.3588
 2750SOL     OW19885   2.790   2.419   9.414  0.2265 -0.0244  0.1754
 2750SOL    HW119886   2.775   2.409   9.320  0.1250  0.1394  0.1749
 2750SOL    HW219887   2.701   2.436   9.442  0.8305  0.1816  1.9756
 2751SOL     OW19888   1.357   2.060   2.519  0.0926 -0.4449 -0.2038
 2751SOL    HW119889   1.373   1.974   2.481  0.1636  0.1695 -1.5413
 2751SOL    HW219890   1.333   2.030   2.607  3.1270  0.7849  1.0495
 2752SOL     OW19891   2.264   3.062   4.582  0.1856 -0.2428 -0.3534
 2752SOL    HW119892   2.354   3.097   4.587 -0.6860  1.9107  0.4817
 2752SOL    HW219893   2.273   2.996   4.651  0.9993 -1.6499 -1.8212
 2753SOL     OW19894   3.115   1.007   1.988  0.3283  0.1643  0.1984
 2753SOL    HW119895   3.075   0.928   1.950  1.8563 -0.4228 -0.1733
 2753SOL    HW219896   3.143   1.049   1.907 -2.3666  3.0293  0.7170
 2754SOL     OW19897   2.198   0.286  14.652  0.0080 -0.1948  0.1609
 2754SOL    HW119898   2.141   0.360  14.668  1.0497  0.2457  1.8683
 2754SOL    HW219899   2.144   0.214  14.620 -0.5339 -0.1274  0.9290
 2755SOL     OW19900   1.352   4.580   8.721 -0.1743  0.1987 -0.0671
 2755SOL    HW119901   1.259   4.598   8.733 -0.3902  0.4199 -2.0964
 2755SOL    HW219902   1.364   4.622   8.636  2.3766 -0.7706 -0.1850
 2756SOL     OW19903   0.679   1.096   6.266 -0.1289 -0.3416  0.7183
 2756SOL    HW119904   0.755   1.037   6.260 -0.0979 -0.2638  0.3336
 2756SOL    HW219905   0.609   1.031   6.261 -1.3455  1.1710 -1.5360
 2757SOL     OW19906   4.052   0.374   5.235 -0.0857  0.2181 -0.4117
 2757SOL    HW119907   4.143   0.344   5.243 -0.2734 -0.9091 -2.3326
 2757SOL    HW219908   4.062   0.469   5.225 -0.4271  0.4116  1.1354
 2758SOL     OW19909   0.043   0.431  12.579  0.2416  0.1504 -0.2349
 2758SOL    HW119910   0.130   0.467  12.561  0.5622 -0.8722 -0.7342
 2758SOL    HW219911   4.725   0.495  12.531 -0.9020 -0.4255  0.2342
 2759SOL     OW19912   0.194   3.972   1.636  0.4806 -0.1336 -0.5265
 2759SOL    HW119913   0.119   3.913   1.628  0.0716  0.2416  0.5459
 2759SOL    HW219914   0.140   4.050   1.645  0.6633 -0.0696  0.0025
 2760SOL     OW19915   1.328   1.306  16.235 -0.0198 -0.0134  0.9977
 2760SOL    HW119916   1.236   1.281  16.229  0.8281 -2.4136 -2.2723
 2760SOL    HW219917   1.360   1.264  16.154 -0.5103  0.6096  0.4849
 2761SOL     OW19918   4.014   2.957   9.329 -0.0468 -0.0919  0.4440
 2761SOL    HW119919   4.064   2.996   9.257  0.6217 -1.3516  0.2235
 2761SOL    HW219920   3.989   3.034   9.381  0.4860  0.1786  0.2983
 2762SOL     OW19921   1.098   1.315   4.146  0.6753  0.3686  0.6646
 2762SOL    HW119922   1.193   1.320   4.151  0.7014  0.7257 -0.3503
 2762SOL    HW219923   1.084   1.365   4.226 -2.5130 -0.0307  0.3390
 2763SOL     OW19924   2.384   2.451   1.873 -0.2304  0.3818  0.1424
 2763SOL    HW119925   2.306   2.500   1.846  0.8290  2.0232  0.0322
 2763SOL    HW219926   2.372   2.371   1.821  0.7439  0.4880 -0.2559
 2764SOL     OW19927   3.895   0.414  16.791  0.5064  0.2042  0.5904
 2764SOL    HW119928   3.939   0.414  16.707  0.1887 -1.1352  0.4204
 2764SOL    HW219929   3.803   0.400  16.767  0.5599  0.6294  0.1572
 2765SOL     OW19930   0.162   3.583   2.874  0.6396 -0.5395 -0.0347
 2765SOL    HW119931   0.148   3.518   2.943 -1.6989 -0.7884 -0.7641
 2765SOL    HW219932   0.105   3.555   2.803  0.3905  1.0429 -0.4596
 2766SOL     OW19933   1.929   2.912   9.398  0.4069  0.7112  0.5791
 2766SOL    HW119934   2.007   2.932   9.346  0.0912  1.3920  0.3619
 2766SOL    HW219935   1.967   2.833   9.435 -0.2274  0.3029  0.3533
 2767SOL     OW19936   1.336   3.122   6.283  0.1182  0.3324  0.5322
 2767SOL    HW119937   1.418   3.118   6.333  1.2332  1.4254 -1.2053
 2767SOL    HW219938   1.362   3.149   6.195  1.2801 -2.2066  0.0935
 2768SOL     OW19939   2.214   1.599   3.543  0.8227  0.0191 -0.1609
 2768SOL    HW119940   2.193   1.642   3.460 -3.1861 -1.7065 -0.0302
 2768SOL    HW219941   2.268   1.532   3.501  1.6217  0.1088  0.7394
 2769SOL     OW19942   3.045   0.895  10.965 -0.0541 -0.2429 -0.2907
 2769SOL    HW119943   3.044   0.985  10.998  0.1802  0.1287 -1.3058
 2769SOL    HW219944   3.130   0.865  10.997  0.2217 -2.2080 -2.8918
 2770SOL     OW19945   3.748   0.312   2.979  0.5409  0.5736 -0.2574
 2770SOL    HW119946   3.795   0.301   2.896 -0.4548 -0.5270 -0.6832
 2770SOL    HW219947   3.738   0.407   2.980  0.4129  0.5449  0.9407
 2771SOL     OW19948   3.320   4.643   4.955 -0.2363  0.7516  0.3283
 2771SOL    HW119949   3.351   4.567   4.906 -1.2075  1.3052 -1.1341
 2771SOL    HW219950   3.401   4.681   4.990  1.1005 -0.1567 -1.7651
 2772SOL     OW19951   4.215   4.325   8.818  0.1531  0.1808  0.3057
 2772SOL    HW119952   4.275   4.362   8.754  1.8311 -2.1522  0.5091
 2772SOL    HW219953   4.271   4.326   8.896  0.9723  0.2206 -0.2922
 2773SOL     OW19954   1.309   2.253   2.939 -0.1151  0.3655 -0.0087
 2773SOL    HW119955   1.391   2.298   2.957 -0.0601 -0.4156  1.7708
 2773SOL    HW219956   1.346   2.173   2.901  0.8031  1.3346 -1.1353
 2774SOL     OW19957   2.299   4.286   7.489  0.7313 -0.2967  0.0040
 2774SOL    HW119958   2.313   4.196   7.461  0.1549 -0.3958  0.0201
 2774SOL    HW219959   2.206   4.280   7.511  0.5081  1.1638 -0.4784
 2775SOL     OW19960   1.323   3.739  17.598  0.1165  0.0066  0.3954
 2775SOL    HW119961   1.377   3.721  17.521  0.2785 -2.7426  1.1415
 2775SOL    HW219962   1.310   3.834  17.595 -1.5558 -0.2268  0.5712
 2776SOL     OW19963   4.136   4.563   7.304  0.2074  0.1257  0.6888
 2776SOL    HW119964   4.051   4.606   7.316  0.2857  0.0851  1.4061
 2776SOL    HW219965   4.146   4.538   7.396 -2.6767 -0.4295  0.8505
 2777SOL     OW19966   2.374   1.213   2.328 -0.0629 -0.0300  0.3569
 2777SOL    HW119967   2.313   1.284   2.347  0.1045  0.3116 -0.4024
 2777SOL    HW219968   2.420   1.200   2.411 -2.3211 -2.2469  1.2801
 2778SOL     OW19969   2.341   1.337   8.774  0.2972  0.1699  0.3461
 2778SOL    HW119970   2.358   1.305   8.685  1.2708 -1.0823  0.9800
 2778SOL    HW219971   2.371   1.262   8.826 -0.2701 -0.5941 -0.4297
 2779SOL     OW19972   0.730   2.017   8.779 -0.3332  0.0392 -0.0273
 2779SOL    HW119973   0.786   1.967   8.839 -0.2715  0.4495  0.2601
 2779SOL    HW219974   0.690   2.072   8.846  1.7678 -0.3058  1.5185
 2780SOL     OW19975   1.364   1.551   1.791 -0.1119  0.1689  0.1693
 2780SOL    HW119976   1.375   1.588   1.703 -0.6266 -2.0582 -0.8260
 2780SOL    HW219977   1.332   1.464   1.768 -1.2742  0.3998  0.8803
 2781SOL     OW19978   1.798   3.848   7.415  0.5332 -0.0477  0.5767
 2781SOL    HW119979   1.799   3.771   7.357  1.6006  0.1059  0.3902
 2781SOL    HW219980   1.757   3.809   7.492 -0.1455 -0.8145 -0.1621
 2782SOL     OW19981   0.130   3.233   4.588  0.3638 -0.1243  0.3835
 2782SOL    HW119982   0.070   3.159   4.584  0.1492  0.1417 -1.1602
 2782SOL    HW219983   0.098   3.270   4.671 -2.3770  0.0711 -0.7892
 2783SOL     OW19984   3.114   0.024   7.047  0.1126 -0.1999  0.1981
 2783SOL    HW119985   3.055   0.002   6.974 -1.9693  2.3014  1.1082
 2783SOL    HW219986   3.087   0.112   7.072  2.5401 -0.4989  3.7713
 2784SOL     OW19987   3.558   0.697   5.976  0.0536  0.3482  0.2964
 2784SOL    HW119988   3.591   0.633   5.914  0.2820 -0.2797  1.0607
 2784SOL    HW219989   3.526   0.647   6.051 -0.8424 -0.6242 -0.7516
 2785SOL     OW19990   4.573   4.525   0.442 -0.2861  0.5891 -0.7205
 2785SOL    HW119991   4.665   4.530   0.417  0.5864  1.0633  2.5524
 2785SOL    HW219992   4.572   4.596   0.507 -2.3320 -0.1277  0.0045
 2786SOL     OW19993   4.523   0.332  11.608  0.1134 -0.0869  1.1528
 2786SOL    HW119994   4.517   0.236  11.604  0.8122 -0.0490 -0.6752
 2786SOL    HW219995   4.432   0.354  11.590  0.2411  0.6511  1.4013
 2787SOL     OW19996   0.242   4.430  10.703  0.0512  0.1766 -0.2047
 2787SOL    HW119997   0.273   4.341  10.691 -2.2403 -0.5888 -0.4506
 2787SOL    HW219998   0.195   4.437  10.620  1.6083 -1.7932 -1.2357
 2788SOL     OW19999   0.366   1.484   5.142 -0.3332 -0.0543  0.0421
 2788SOL    HW120000   0.394   1.568   5.178  0.2372 -0.6502  0.9593
 2788SOL    HW220001   0.339   1.515   5.055 -2.6460 -0.4281  0.6443
 2789SOL     OW20002   2.671   0.838   8.293 -0.5486 -0.0941  0.3061
 2789SOL    HW120003   2.620   0.854   8.373 -0.7329 -0.4402  0.2577
 2789SOL    HW220004   2.753   0.818   8.338 -0.8965 -0.3795  0.8195
 2790SOL     OW20005   4.392   2.176   8.891 -0.8863  0.4845  0.2010
 2790SOL    HW120006   4.391   2.081   8.882  1.7964  0.4037  0.9045
 2790SOL    HW220007   4.485   2.192   8.903 -1.3290  0.1675  4.0883
 2791SOL     OW20008   3.175   4.264  14.443  0.3654 -0.0267 -0.0131
 2791SOL    HW120009   3.084   4.234  14.449 -0.0672  1.3967  0.5524
 2791SOL    HW220010   3.210   4.180  14.469  0.2740 -0.8267 -2.4419
 2792SOL     OW20011   1.288   4.006   5.867 -0.6825  0.6863  0.1543
 2792SOL    HW120012   1.223   4.056   5.817  0.0455  0.2476 -1.2326
 2792SOL    HW220013   1.251   4.021   5.954  0.2853  0.2033  0.6361
 2793SOL     OW20014   0.602   3.132   7.445  0.0246 -0.4746 -0.5204
 2793SOL    HW120015   0.555   3.106   7.524  0.2605 -2.3872 -1.0022
 2793SOL    HW220016   0.538   3.146   7.375 -1.0978  0.8914  0.7760
 2794SOL     OW20017   3.374   4.133  17.713 -0.3486  0.1912 -0.2175
 2794SOL    HW120018   3.346   4.164  17.627  1.2213 -1.4147 -1.3177
 2794SOL    HW220019   3.309   4.181   0.028  0.4274  0.9317  0.0654
 2795SOL     OW20020   3.730   2.064   4.713 -0.0965  0.1474  0.0095
 2795SOL    HW120021   3.756   2.035   4.800 -1.3766  1.1234  0.7111
 2795SOL    HW220022   3.764   1.993   4.658  0.6071 -0.1018  0.7650
 2796SOL     OW20023   1.134   3.851   9.508 -0.1532  0.4584 -0.0617
 2796SOL    HW120024   1.180   3.814   9.584  1.8421  1.4963 -0.7774
 2796SOL    HW220025   1.178   3.820   9.429 -0.3149 -1.2581  0.5217
 2797SOL     OW20026   2.067   3.006   3.073  0.0290 -0.4193  0.1100
 2797SOL    HW120027   2.082   3.085   3.125  0.3888  0.0152 -0.6483
 2797SOL    HW220028   1.988   2.962   3.105  0.0927 -0.7302 -0.1584
 2798SOL     OW20029   4.145   3.705   3.342  0.6656  0.4252 -0.2539
 2798SOL    HW120030   4.080   3.738   3.403  1.3002 -0.0357  0.6773
 2798SOL    HW220031   4.225   3.729   3.388 -0.3236 -0.0106  1.6628
 2799SOL     OW20032   1.726   2.925  14.585  0.3192 -0.5227  0.1092
 2799SOL    HW120033   1.712   2.878  14.668 -3.2816 -1.6823 -1.1352
 2799SOL    HW220034   1.665   2.878  14.528  0.6681 -2.1698  1.1216
 2800SOL     OW20035   2.433   3.092  17.230  0.5159  0.4163 -0.0669
 2800SOL    HW120036   2.508   3.058  17.280 -0.6965 -0.3916  1.2285
 2800SOL    HW220037   2.473   3.123  17.150 -1.0717  0.4346 -0.8524
 2801SOL     OW20038   1.290   1.740   7.527 -0.3193  0.2489  0.2149
 2801SOL    HW120039   1.269   1.669   7.588  1.1410  0.3144  0.7944
 2801SOL    HW220040   1.340   1.794   7.588 -0.7840  0.5481  0.3373
 2802SOL     OW20041   0.144   2.971   6.460 -0.0647  0.2412 -0.0570
 2802SOL    HW120042   0.238   2.987   6.446 -0.1747  0.5454 -0.4509
 2802SOL    HW220043   0.118   3.036   6.526  2.0494 -0.3733  1.3958
 2803SOL     OW20044   3.910   2.079   1.890 -0.1774  0.4195 -0.2740
 2803SOL    HW120045   4.005   2.074   1.892 -0.3130 -2.6444 -0.4466
 2803SOL    HW220046   3.885   1.993   1.855  0.2227  1.1427 -2.3721
 2804SOL     OW20047   3.902   3.251   8.253 -0.0590  0.0159  0.5677
 2804SOL    HW120048   3.907   3.338   8.212  0.0376 -0.0992  0.3366
 2804SOL    HW220049   3.839   3.215   8.191 -2.8952 -0.7302  3.8164
 2805SOL     OW20050   4.115   1.516   6.496  0.5426  0.3319  0.8815
 2805SOL    HW120051   4.194   1.567   6.516  2.0992 -2.0511  0.8064
 2805SOL    HW220052   4.130   1.481   6.408 -0.2922  2.5956 -0.1737
 2806SOL     OW20053   1.654   1.201  15.315  0.7451  0.2910  0.2282
 2806SOL    HW120054   1.700   1.282  15.339  1.7551 -0.1583 -0.1645
 2806SOL    HW220055   1.565   1.220  15.343  1.2824  1.3794  1.2474
 2807SOL     OW20056   0.153   1.832  16.316 -0.6224 -0.5291  0.4636
 2807SOL    HW120057   0.130   1.739  16.320  0.1654 -0.7522 -0.2076
 2807SOL    HW220058   0.082   1.869  16.367 -0.0635  1.9460 -0.5753
 2808SOL     OW20059   1.140   3.305  15.216  0.0697 -0.1648  0.1746
 2808SOL    HW120060   1.179   3.262  15.140  0.3354  2.4177 -1.1605
 2808SOL    HW220061   1.148   3.237  15.283 -0.5165 -0.2072  0.2021
 2809SOL     OW20062   0.110   1.718  17.612  0.0809  0.3446  0.2484
 2809SOL    HW120063   0.125   1.624  17.618  3.1386  0.9596  1.9929
 2809SOL    HW220064   0.112   1.735  17.518  2.3620  0.4563  0.3260
 2810SOL     OW20065   0.613   0.034  12.824 -0.0751  0.1944 -0.2923
 2810SOL    HW120066   0.704   0.049  12.849  0.0151 -3.6984  1.7728
 2810SOL    HW220067   0.570   0.027  12.910 -0.3239  0.8153 -0.3704
 2811SOL     OW20068   4.357   0.102  15.773  0.4274 -0.0602 -0.2583
 2811SOL    HW120069   4.451   0.092  15.759  0.3611 -3.5443  1.7697
 2811SOL    HW220070   4.358   0.195  15.799  0.8050 -0.0343 -0.3645
 2812SOL     OW20071   0.692   0.523   2.021 -0.1475 -0.2366 -0.1947
 2812SOL    HW120072   0.700   0.485   1.933 -1.4660 -3.4526  1.0956
 2812SOL    HW220073   0.773   0.488   2.057 -1.0242 -2.1875 -0.1372
 2813SOL     OW20074   0.491   1.109   1.691  0.4708 -0.6973  0.1014
 2813SOL    HW120075   0.426   1.052   1.651  1.0338 -1.0384 -0.3289
 2813SOL    HW220076   0.437   1.183   1.720 -0.4403  0.3015 -4.1484
 2814SOL     OW20077   3.972   1.917   6.168  0.3772 -0.1466  1.2279
 2814SOL    HW120078   3.880   1.891   6.176  0.0902  0.2746 -0.8767
 2814SOL    HW220079   4.007   1.900   6.256  0.6358  3.8697  1.8684
 2815SOL     OW20080   2.798   1.392   5.666 -0.1164  0.6464  0.0094
 2815SOL    HW120081   2.857   1.462   5.696  1.4565  0.0475 -1.6821
 2815SOL    HW220082   2.734   1.445   5.619 -0.8822  0.1118  0.4561
 2816SOL     OW20083   2.310   1.107   6.483 -0.3375  0.3664  0.3912
 2816SOL    HW120084   2.316   1.200   6.461  0.4302 -0.1967 -1.7342
 2816SOL    HW220085   2.222   1.112   6.522 -0.9136 -1.0120 -0.7200
 2817SOL     OW20086   3.356   4.075  12.483 -0.2636  0.3854  0.2819
 2817SOL    HW120087   3.353   4.060  12.388  0.4513  0.2399  0.2765
 2817SOL    HW220088   3.272   4.114  12.503 -1.2103 -1.2511 -0.5146
 2818SOL     OW20089   0.532   0.081   1.687  0.6941 -0.1227  0.3445
 2818SOL    HW120090   0.496   0.155   1.638  0.5141  1.0908  2.3318
 2818SOL    HW220091   0.481   0.006   1.655  0.4877 -0.0993  0.6211
 2819SOL     OW20092   3.112   2.577   6.985 -0.2296 -0.5443 -0.2465
 2819SOL    HW120093   3.054   2.650   6.962 -0.1113 -1.3678 -3.1427
 2819SOL    HW220094   3.046   2.514   7.015 -1.4013 -0.0854 -1.8733
 2820SOL     OW20095   3.185   2.782   2.019 -0.0587  0.5748  0.3481
 2820SOL    HW120096   3.146   2.706   1.976  0.0397  0.6501  0.1283
 2820SOL    HW220097   3.260   2.804   1.965  0.6673 -1.9564  0.3244
 2821SOL     OW20098   2.813   0.277   3.849 -0.1099 -0.5642 -0.6344
 2821SOL    HW120099   2.722   0.252   3.838 -0.7413  0.8429  1.3255
 2821SOL    HW220100   2.835   0.326   3.770  3.4699 -2.1974 -0.6809
 2822SOL     OW20101   3.391   4.061   5.480 -0.2331  0.0930 -0.0908
 2822SOL    HW120102   3.329   3.991   5.463 -0.8854  1.1710 -2.1115
 2822SOL    HW220103   3.330   4.135   5.489 -1.3248 -0.8888  0.5764
 2823SOL     OW20104   1.255   4.639   6.332  0.1910  0.0487  0.1437
 2823SOL    HW120105   1.227   4.729   6.346 -0.8989 -0.2058 -0.4189
 2823SOL    HW220106   1.349   4.651   6.314  0.2477 -1.9685 -0.8972
 2824SOL     OW20107   1.878   4.574  17.332  0.2543  0.3313 -0.2717
 2824SOL    HW120108   1.819   4.599  17.260 -0.8954  3.6471  1.7779
 2824SOL    HW220109   1.959   4.613  17.301  0.4999  0.2679  0.3005
 2825SOL     OW20110   3.097   0.475  16.722  0.5072  0.0770 -0.4064
 2825SOL    HW120111   3.184   0.455  16.688  0.6159 -0.4735  0.1996
 2825SOL    HW220112   3.076   0.392  16.765 -0.1538  0.8358  0.7395
 2826SOL     OW20113   4.114   1.272   7.006 -0.2851 -0.2565 -0.0455
 2826SOL    HW120114   4.066   1.272   6.923  0.8980 -0.4589 -0.7250
 2826SOL    HW220115   4.068   1.345   7.048  1.0732 -0.5149  1.8500
 2827SOL     OW20116   1.716   1.395   9.378  0.4551  0.2037  0.3284
 2827SOL    HW120117   1.685   1.439   9.299 -0.3326 -0.4014  0.2929
 2827SOL    HW220118   1.809   1.414   9.372  0.2561  1.2046  0.4726
 2828SOL     OW20119   3.792   0.926  14.846 -0.3889  0.3011  0.0321
 2828SOL    HW120120   3.762   0.904  14.757 -1.0063  0.8610  0.0986
 2828SOL    HW220121   3.733   0.998  14.867 -0.0990  0.1670  1.2666
 2829SOL     OW20122   0.015   3.037  15.517 -0.0544 -0.1543 -0.3839
 2829SOL    HW120123   4.710   3.049  15.431 -2.7176  0.2449  0.8839
 2829SOL    HW220124   4.701   3.099  15.571  0.8553  1.0139 -0.9330
 2830SOL     OW20125   2.404   4.150   4.068 -0.2252 -0.2318  0.1153
 2830SOL    HW120126   2.482   4.142   4.124 -1.0282 -1.2462  1.1131
 2830SOL    HW220127   2.334   4.143   4.133 -1.8980 -0.7415 -1.7408
 2831SOL     OW20128   0.442   2.577   4.393 -0.1037 -0.1829 -0.0308
 2831SOL    HW120129   0.361   2.561   4.345  0.6923  3.1889 -2.5258
 2831SOL    HW220130   0.414   2.647   4.451  2.4844  2.2877 -1.7318
 2832SOL     OW20131   4.324   2.476   7.104  0.3451  0.5949  0.4225
 2832SOL    HW120132   4.319   2.420   7.027  1.0426 -0.5671  1.2138
 2832SOL    HW220133   4.332   2.404   7.167  0.0316 -0.1087 -0.3371
 2833SOL     OW20134   3.327   0.360  16.369  0.0912  0.2562 -0.2605
 2833SOL    HW120135   3.256   0.329  16.427 -0.5971  1.2944 -0.5537
 2833SOL    HW220136   3.356   0.442  16.408 -1.3797  1.0938 -0.9225
 2834SOL     OW20137   2.076   0.965   6.353  0.6679 -0.2370  0.1898
 2834SOL    HW120138   2.002   0.995   6.405  0.1287  1.0654 -1.3089
 2834SOL    HW220139   2.114   1.048   6.322  0.2401  0.2721  1.0262
 2835SOL     OW20140   3.362   2.950   2.313  0.3304  0.5283 -0.3752
 2835SOL    HW120141   3.428   2.929   2.247  0.3159 -1.8666  0.3773
 2835SOL    HW220142   3.290   2.915   2.261 -0.5847 -0.3006  1.4343
 2836SOL     OW20143   4.020   3.764  16.761  0.1273 -0.2722  0.3379
 2836SOL    HW120144   3.934   3.780  16.799 -0.1993  1.6529 -1.2060
 2836SOL    HW220145   4.067   3.848  16.759  1.4422 -1.0267 -0.4335
 2837SOL     OW20146   4.589   2.994  15.302 -0.7401  1.0704  0.2202
 2837SOL    HW120147   4.621   2.904  15.299  0.0274  1.4446 -2.8951
 2837SOL    HW220148   4.624   3.028  15.220  1.4768  2.4223  1.7078
 2838SOL     OW20149   0.938   1.571  14.870  0.4005  0.0910  0.1253
 2838SOL    HW120150   0.993   1.504  14.830  1.2368  0.6847  0.2644
 2838SOL    HW220151   0.852   1.532  14.857  1.3557 -2.5545  1.8674
 2839SOL     OW20152   0.019   1.759   8.127  0.9647  0.5868  0.3339
 2839SOL    HW120153   4.707   1.819   8.185 -1.8494  0.4169 -1.7770
 2839SOL    HW220154   0.104   1.758   8.172  2.0285 -0.0115 -1.6615
 2840SOL     OW20155   4.552   4.423  17.529  0.1613  0.4105 -0.0138
 2840SOL    HW120156   4.576   4.495  17.587 -0.3926  1.0848 -0.6336
 2840SOL    HW220157   4.522   4.472  17.453  2.5144  0.2623 -1.0372
 2841SOL     OW20158   4.279   1.031   2.738 -0.0541 -0.5021 -0.2315
 2841SOL    HW120159   4.350   0.971   2.760  0.5645  0.6975  0.9812
 2841SOL    HW220160   4.211   0.970   2.769 -1.0968  0.7493 -0.0646
 2842SOL     OW20161   4.515   3.202   0.213 -0.2956 -0.4293  0.0619
 2842SOL    HW120162   4.468   3.200   0.296 -0.3172  0.9743  0.0854
 2842SOL    HW220163   4.453   3.176   0.144 -0.5240  1.4151 -0.4316
 2843SOL     OW20164   2.608   4.123   4.225  0.0367  0.7676  0.4080
 2843SOL    HW120165   2.638   4.078   4.146  2.4284 -1.9762  2.9196
 2843SOL    HW220166   2.686   4.107   4.277  0.3911  1.3853  0.0742
 2844SOL     OW20167   3.482   1.685   6.322 -0.1064  0.0566  0.4538
 2844SOL    HW120168   3.412   1.658   6.381  1.9918  0.7536  3.2536
 2844SOL    HW220169   3.546   1.699   6.392 -0.0031 -1.4574  0.6516
 2845SOL     OW20170   3.601   0.282  12.805 -0.2787  0.3750 -0.2408
 2845SOL    HW120171   3.569   0.192  12.813 -0.7206  0.1475 -4.8320
 2845SOL    HW220172   3.615   0.304  12.897  1.0468 -0.4601 -0.2514
 2846SOL     OW20173   2.564   3.267   5.273 -0.1396  0.1611 -0.1129
 2846SOL    HW120174   2.480   3.310   5.292  1.7538  3.7753  0.1685
 2846SOL    HW220175   2.548   3.175   5.294 -0.8333  0.5166  0.9276
 2847SOL     OW20176   0.488   0.740   3.399  0.2153  0.2215  0.6463
 2847SOL    HW120177   0.455   0.770   3.314  3.6218  0.3577 -0.6227
 2847SOL    HW220178   0.408   0.735   3.451  0.4405 -1.4771  0.8286
 2848SOL     OW20179   1.150   0.698   1.762  0.8135  0.2391  0.3336
 2848SOL    HW120180   1.165   0.704   1.856 -0.6754  1.6603  0.4886
 2848SOL    HW220181   1.242   0.684   1.743  0.4554 -0.6227 -0.7877
 2849SOL     OW20182   2.426   0.610   3.562 -0.0877 -0.4980  0.0732
 2849SOL    HW120183   2.401   0.702   3.553 -0.8638 -0.8627 -1.4449
 2849SOL    HW220184   2.382   0.575   3.485  0.6014 -1.3826  0.0796
 2850SOL     OW20185   1.772   0.765   6.015  0.3901 -0.8955  0.4261
 2850SOL    HW120186   1.786   0.670   6.012 -2.8347 -1.3574  0.1908
 2850SOL    HW220187   1.858   0.789   6.049  1.1288 -1.8891 -0.7111
 2851SOL     OW20188   3.342   0.799   8.208 -0.1740  0.4783 -0.0652
 2851SOL    HW120189   3.410   0.754   8.258 -1.7335 -0.7019  0.9967
 2851SOL    HW220190   3.324   0.734   8.140 -1.4549  0.1452  0.6014
 2852SOL     OW20191   0.098   4.378  16.818  0.3610  0.0057 -0.2587
 2852SOL    HW120192   0.175   4.390  16.762  1.6861  1.9285  1.9583
 2852SOL    HW220193   0.061   4.464  16.837 -1.0724 -0.5288 -0.6572
 2853SOL     OW20194   0.061   2.230   1.212 -0.2251 -0.1484  0.0988
 2853SOL    HW120195   0.124   2.160   1.223  1.7272  1.7879  1.3021
 2853SOL    HW220196   0.064   2.243   1.117 -0.4997 -0.3935  0.0577
 2854SOL     OW20197   1.388   2.540   8.648 -0.3141  0.0179 -0.1865
 2854SOL    HW120198   1.343   2.624   8.636  1.0837  0.9462  1.1177
 2854SOL    HW220199   1.314   2.481   8.667  0.0528 -0.3402  0.1317
 2855SOL     OW20200   1.308   4.329   1.826  0.1006 -0.0274  0.5325
 2855SOL    HW120201   1.262   4.403   1.867 -1.0998 -0.4500 -0.0447
 2855SOL    HW220202   1.385   4.330   1.884  0.7555 -0.9298 -0.3347
 2856SOL     OW20203   0.265   4.027   5.261 -0.0882  0.1693 -0.0644
 2856SOL    HW120204   0.307   4.037   5.175 -0.7439 -2.5689 -0.7012
 2856SOL    HW220205   0.251   3.933   5.254  0.0580  0.2430 -1.3646
 2857SOL     OW20206   0.144   0.231   6.712  0.4375 -0.5052  0.4636
 2857SOL    HW120207   0.235   0.258   6.706 -0.5031  2.1423 -2.0584
 2857SOL    HW220208   0.157   0.137   6.713  0.6484 -0.4875 -1.0366
 2858SOL     OW20209   4.472   0.959   7.721  0.1853 -0.1693  0.4681
 2858SOL    HW120210   4.418   1.017   7.775 -1.2043 -1.7218  0.7407
 2858SOL    HW220211   4.448   0.981   7.631 -1.0210 -0.3320  0.7454
 2859SOL     OW20212   0.807   4.364   2.379  0.3233 -0.0294 -0.5759
 2859SOL    HW120213   0.752   4.375   2.302 -2.0654  2.5898  1.4781
 2859SOL    HW220214   0.759   4.299   2.430 -2.4497  2.0308 -0.5866
 2860SOL     OW20215   4.274   4.513   0.765  0.8022 -0.4198 -0.2673
 2860SOL    HW120216   4.267   4.498   0.670 -0.5120  0.5825 -0.3305
 2860SOL    HW220217   4.184   4.498   0.795  0.9276 -2.2743 -0.8143
 2861SOL     OW20218   4.013   3.940   5.609 -0.4817  0.4046 -0.0573
 2861SOL    HW120219   4.015   3.933   5.705 -1.5867 -0.3157 -0.0803
 2861SOL    HW220220   3.955   3.868   5.586  1.3361 -0.2511 -2.5354
 2862SOL     OW20221   2.044   0.855   7.541  0.2007 -0.0885 -0.2113
 2862SOL    HW120222   1.984   0.780   7.548  1.1812 -0.8028  0.5523
 2862SOL    HW220223   2.038   0.869   7.447 -2.3118 -0.6860 -0.1526
 2863SOL     OW20224   2.263   0.564  16.570  0.0222  0.1189  0.2289
 2863SOL    HW120225   2.341   0.510  16.560 -0.6198 -1.4449  3.6096
 2863SOL    HW220226   2.191   0.513  16.534  0.2417 -0.9493  1.3072
 2864SOL     OW20227   4.093   4.209   2.640  0.6640  1.3051  0.4609
 2864SOL    HW120228   4.037   4.144   2.681  0.2742  0.2733 -1.7163
 2864SOL    HW220229   4.160   4.147   2.613 -0.7665 -0.2669  0.5387
 2865SOL     OW20230   2.782   0.233   0.656 -0.4690 -0.2291 -0.0152
 2865SOL    HW120231   2.739   0.189   0.729 -0.6500 -0.1872 -0.0959
 2865SOL    HW220232   2.837   0.163   0.621  0.5469 -1.1873  3.4337
 2866SOL     OW20233   1.276   1.996   6.764 -0.2227 -0.4543 -0.1651
 2866SOL    HW120234   1.340   1.944   6.812 -0.5654 -2.8669 -2.3203
 2866SOL    HW220235   1.202   2.008   6.823 -0.1231 -0.0425 -0.1232
 2867SOL     OW20236   3.397   3.816   6.954  0.5530 -0.3864 -0.1747
 2867SOL    HW120237   3.361   3.736   6.917  2.8211 -0.2348 -2.7206
 2867SOL    HW220238   3.403   3.875   6.878 -2.4922  0.3466  0.1656
 2868SOL     OW20239   2.837   3.681   4.388 -0.1185 -0.1124  0.0310
 2868SOL    HW120240   2.921   3.704   4.350  0.3031  0.6428  1.4050
 2868SOL    HW220241   2.786   3.678   4.307 -1.4643  1.2959  0.8273
 2869SOL     OW20242   1.469   1.755   6.416 -0.4144 -0.3078 -0.3110
 2869SOL    HW120243   1.402   1.824   6.423  1.0316  1.1271 -0.5402
 2869SOL    HW220244   1.533   1.780   6.482 -1.2545 -2.0968  1.1777
 2870SOL     OW20245   1.693   4.223   8.913 -0.0041  0.1987  0.4651
 2870SOL    HW120246   1.767   4.284   8.904 -0.6377  0.6647 -1.5447
 2870SOL    HW220247   1.632   4.252   8.846 -0.3118 -1.1011  0.1805
 2871SOL     OW20248   3.637   4.052  17.013 -0.6550 -0.7596 -0.5622
 2871SOL    HW120249   3.710   4.113  17.000 -1.1426  0.1021  0.6574
 2871SOL    HW220250   3.624   4.058  17.108 -0.2490  0.2829 -0.5728
 2872SOL     OW20251   1.670   4.446   6.624 -0.0755 -0.3049  0.4130
 2872SOL    HW120252   1.602   4.415   6.563 -1.5480  1.4174  1.1957
 2872SOL    HW220253   1.663   4.539   6.603  0.5793 -0.0576  1.3030
 2873SOL     OW20254   1.070   4.408   9.028  0.0870  0.4577 -0.0058
 2873SOL    HW120255   1.145   4.465   9.010  1.0806 -0.9017 -0.1330
 2873SOL    HW220256   1.072   4.412   9.124  0.3772  1.0663 -0.0366
 2874SOL     OW20257   2.412   2.243  12.488 -0.5274  0.3554 -0.5065
 2874SOL    HW120258   2.488   2.284  12.529 -1.0209 -2.0865  2.8823
 2874SOL    HW220259   2.452   2.180  12.428 -1.5109 -1.1424  0.4086
 2875SOL     OW20260   1.431   4.408  17.653 -0.4331  0.0557  0.3347
 2875SOL    HW120261   1.384   4.481  17.693 -0.6819 -0.3904  0.8584
 2875SOL    HW220262   1.424   4.345  17.724 -0.3536 -0.0119  0.2835
 2876SOL     OW20263   4.514   3.692   6.688  0.0214 -0.0855  0.0629
 2876SOL    HW120264   4.605   3.663   6.686 -0.7420 -2.5107  0.2819
 2876SOL    HW220265   4.517   3.787   6.674 -1.3897 -0.1437 -0.5900
 2877SOL     OW20266   3.351   1.848  11.842 -0.5710  0.1694  0.4193
 2877SOL    HW120267   3.380   1.899  11.917  2.3640  0.7431 -1.1009
 2877SOL    HW220268   3.376   1.903  11.767 -0.9453 -1.2173 -0.7307
 2878SOL     OW20269   3.356   4.306   2.173  0.1467  0.8296 -0.3886
 2878SOL    HW120270   3.335   4.379   2.116 -1.5177  0.7819  0.1493
 2878SOL    HW220271   3.316   4.234   2.125  0.7043  0.7390 -0.7101
 2879SOL     OW20272   3.002   1.490  13.126 -0.4138 -0.0866 -0.1721
 2879SOL    HW120273   3.021   1.431  13.053  0.6001 -1.4563  1.1716
 2879SOL    HW220274   3.092   1.523  13.132 -0.5574  0.3571 -0.4642
 2880SOL     OW20275   4.716   4.336   7.384  0.5926  0.0922 -0.2451
 2880SOL    HW120276   0.032   4.417   7.378  0.6662  0.2882  2.8559
 2880SOL    HW220277   4.680   4.336   7.473  0.5280  0.6663 -0.2675
 2881SOL     OW20278   3.712   0.484   2.077 -0.3147 -0.0515  0.2351
 2881SOL    HW120279   3.651   0.520   2.141  0.3031 -0.8851  1.3006
 2881SOL    HW220280   3.785   0.545   2.080 -1.2790  1.1520 -0.7942
 2882SOL     OW20281   1.404   0.191   0.725  0.5119 -0.6086  0.4132
 2882SOL    HW120282   1.454   0.227   0.798 -1.5227  2.6163  0.2274
 2882SOL    HW220283   1.329   0.157   0.772 -0.1419  0.6820  0.3226
 2883SOL     OW20284   3.708   2.646  12.981  0.1846 -0.0566  0.4711
 2883SOL    HW120285   3.717   2.552  12.994 -1.0122 -0.4913 -1.7577
 2883SOL    HW220286   3.775   2.690  13.032  0.7895 -0.1752 -0.2231
 2884SOL     OW20287   1.288   3.267  12.491  0.2026  0.0356  0.4458
 2884SOL    HW120288   1.197   3.271  12.462  1.1553  0.0740 -2.5285
 2884SOL    HW220289   1.286   3.214  12.570 -2.5198  0.0226  0.3600
 2885SOL     OW20290   2.173   4.204   5.115 -0.1976 -0.0861 -0.3636
 2885SOL    HW120291   2.193   4.170   5.202 -0.4043  2.2807  0.5841
 2885SOL    HW220292   2.090   4.158   5.107  0.4706 -1.6061  1.3782
 2886SOL     OW20293   4.670   0.656  12.766 -0.0151 -0.3955  0.0226
 2886SOL    HW120294   4.632   0.655  12.678  0.3395 -1.1856 -0.1220
 2886SOL    HW220295   4.634   0.575  12.803  0.1334 -0.6608 -0.4052
 2887SOL     OW20296   1.319   2.601   7.245 -0.0133 -0.0644  0.3909
 2887SOL    HW120297   1.274   2.623   7.327 -0.5094  1.8087 -0.3831
 2887SOL    HW220298   1.260   2.640   7.181  0.4263  1.4325  0.8855
 2888SOL     OW20299   3.905   4.375   0.046  0.3036  0.3727 -0.6058
 2888SOL    HW120300   3.813   4.396   0.029  0.1470 -0.3817 -0.7148
 2888SOL    HW220301   3.905   4.379   0.141 -0.9230  2.0675 -0.6780
 2889SOL     OW20302   4.170   3.519  11.872  0.1072  0.4281 -0.6815
 2889SOL    HW120303   4.092   3.501  11.819 -0.5974  0.9475  0.1791
 2889SOL    HW220304   4.203   3.430  11.877 -2.0743 -0.2091  2.0444
 2890SOL     OW20305   0.020   2.045   5.531 -0.4564 -0.0087  0.1594
 2890SOL    HW120306   4.669   2.033   5.573 -0.1531  0.2113  0.8267
 2890SOL    HW220307   0.060   1.958   5.520 -0.3787  0.0315  0.1230
 2891SOL     OW20308   2.059   0.094   2.290  0.1343 -0.0816  0.4520
 2891SOL    HW120309   2.074   0.082   2.384 -1.2844  1.1828  0.8318
 2891SOL    HW220310   2.031   0.005   2.266  0.4415 -0.6131  2.0782
 2892SOL     OW20311   0.255   3.429  12.591 -0.2933 -0.5148  0.1651
 2892SOL    HW120312   0.187   3.496  12.603 -1.1221 -1.1957 -0.7748
 2892SOL    HW220313   0.239   3.366  12.661  2.1350 -0.5888  0.6750
 2893SOL     OW20314   0.711   0.273   6.053 -0.4323  0.0460  0.0853
 2893SOL    HW120315   0.689   0.196   6.000  1.0745 -0.9645  0.8971
 2893SOL    HW220316   0.626   0.314   6.069 -0.6476 -0.7473  1.0288
 2894SOL     OW20317   2.060   3.163   8.829  0.2351  0.3421 -0.1998
 2894SOL    HW120318   2.008   3.148   8.751 -0.1149 -0.2333  0.1415
 2894SOL    HW220319   1.995   3.211   8.880 -0.8461 -1.1732 -0.1359
 2895SOL     OW20320   1.091   1.670   0.298  0.5039 -0.0130  0.4220
 2895SOL    HW120321   1.181   1.655   0.268 -0.5003 -0.6470 -2.2648
 2895SOL    HW220322   1.056   1.715   0.221  0.3217 -2.3201 -0.8587
 2896SOL     OW20323   1.087   0.570  10.498 -0.0234  0.2067  0.0905
 2896SOL    HW120324   1.105   0.620  10.418  0.7320  1.1750  0.8603
 2896SOL    HW220325   1.071   0.638  10.563  2.7211  1.6596 -0.7602
 2897SOL     OW20326   0.659   3.825   8.439 -0.4885  0.6151 -0.1440
 2897SOL    HW120327   0.655   3.817   8.534  0.4088 -0.9619 -0.2416
 2897SOL    HW220328   0.567   3.837   8.418 -0.2388  1.1224 -0.9470
 2898SOL     OW20329   2.212   3.312  11.625 -0.4316 -0.3391  0.6199
 2898SOL    HW120330   2.270   3.263  11.683  0.9656  0.4333 -0.1363
 2898SOL    HW220331   2.191   3.251  11.554  0.4772  0.8772 -0.7111
 2899SOL     OW20332   4.535   0.342   9.775  0.1593  0.0572  0.6915
 2899SOL    HW120333   4.573   0.428   9.792  1.5191 -0.6066  1.0213
 2899SOL    HW220334   4.613   0.298   9.740 -1.2880 -0.7384 -1.5479
 2900SOL     OW20335   2.602   3.189   9.356  0.0390  0.0724 -0.0132
 2900SOL    HW120336   2.653   3.267   9.379 -3.4027  2.2592  0.3182
 2900SOL    HW220337   2.535   3.229   9.300 -0.0301  1.7227  1.2443
 2901SOL     OW20338   0.602   2.018   3.708 -0.1474 -0.1937  0.3334
 2901SOL    HW120339   0.537   2.079   3.675 -0.7103 -1.6111 -1.1507
 2901SOL    HW220340   0.677   2.050   3.656 -0.0934 -0.1278  0.4514
 2902SOL     OW20341   4.031   0.103  15.202 -0.2717  0.1690 -0.2143
 2902SOL    HW120342   4.107   0.120  15.258 -1.1354 -0.4330  1.1365
 2902SOL    HW220343   4.045   0.167  15.132  4.3660  1.1716  1.6697
 2903SOL     OW20344   4.338   1.547  14.997 -0.2054  0.3050 -0.7262
 2903SOL    HW120345   4.255   1.501  15.006  0.0113  0.2287  0.9090
 2903SOL    HW220346   4.327   1.601  14.919  2.8750 -0.1680 -1.4631
 2904SOL     OW20347   1.477   3.214   8.898 -0.3182 -0.0351  0.1717
 2904SOL    HW120348   1.455   3.274   8.827 -4.4448 -1.2606  0.3857
 2904SOL    HW220349   1.453   3.264   8.976 -0.2234 -0.4471  0.4698
 2905SOL     OW20350   0.416   0.148   2.388  0.3863 -0.1304  0.3220
 2905SOL    HW120351   0.384   0.155   2.479 -0.2770  1.9719 -0.0617
 2905SOL    HW220352   0.338   0.112   2.346  0.1356 -0.7446  1.3031
 2906SOL     OW20353   4.375   0.548  10.729  0.4857  0.0193 -0.1484
 2906SOL    HW120354   4.470   0.556  10.741  0.6355  1.3615 -2.1292
 2906SOL    HW220355   4.348   0.528  10.819  0.0161  1.7109  0.0958
 2907SOL     OW20356   2.313   2.813  10.916  0.0343  0.1169  0.4602
 2907SOL    HW120357   2.230   2.859  10.905 -0.8520 -0.6160  4.1315
 2907SOL    HW220358   2.274   2.732  10.947 -1.9723  1.9344  2.6815
 2908SOL     OW20359   4.159   4.705   5.043  0.1584 -0.0352 -0.3878
 2908SOL    HW120360   4.116   0.019   4.972  1.2901 -2.1921 -2.5353
 2908SOL    HW220361   4.090   4.652   5.082 -0.2888  0.7274 -0.1273
 2909SOL     OW20362   4.413   3.998  12.563  0.0058 -0.1506  0.2436
 2909SOL    HW120363   4.320   3.974  12.573  0.0570  0.6556  2.7437
 2909SOL    HW220364   4.415   4.059  12.636 -0.7260 -1.3980  1.3208
 2910SOL     OW20365   2.978   4.104  12.675 -0.2698 -0.0042  0.1868
 2910SOL    HW120366   3.022   4.186  12.653 -0.4494 -0.3350 -1.3832
 2910SOL    HW220367   2.996   4.087  12.768  1.0187  1.0769  0.1244
 2911SOL     OW20368   1.449   1.220   0.790  0.1126 -0.2122  0.7284
 2911SOL    HW120369   1.385   1.287   0.767  0.6606  0.4456  1.1055
 2911SOL    HW220370   1.422   1.155   0.726 -2.8715 -0.1994  2.0005
 2912SOL     OW20371   4.182   1.441   4.069 -0.3607 -0.8552 -1.2409
 2912SOL    HW120372   4.121   1.369   4.053 -0.5659 -0.7512 -0.9272
 2912SOL    HW220373   4.171   1.482   3.983 -2.4476  0.1297 -0.4996
 2913SOL     OW20374   2.252   3.111   2.428 -0.3056  0.1609  0.2662
 2913SOL    HW120375   2.333   3.119   2.377 -1.4694  3.2567 -1.1090
 2913SOL    HW220376   2.189   3.110   2.356  2.4751  0.1038 -2.1784
 2914SOL     OW20377   3.062   0.413   3.696  0.1421  0.2674  0.4201
 2914SOL    HW120378   3.093   0.369   3.775  0.6854 -1.5317 -0.7883
 2914SOL    HW220379   3.020   0.496   3.719 -1.5770  0.1743 -2.3089
 2915SOL     OW20380   0.450   1.166   3.061 -0.0880  0.0298 -0.1364
 2915SOL    HW120381   0.413   1.109   3.128  0.9872 -0.7694 -0.2217
 2915SOL    HW220382   0.477   1.240   3.115 -1.3958 -0.8100  1.6571
 2916SOL     OW20383   0.466   3.441   6.457  0.4389 -0.4750 -0.2387
 2916SOL    HW120384   0.419   3.474   6.533  0.7041  1.5924 -0.9759
 2916SOL    HW220385   0.392   3.403   6.410  0.3418  0.1737 -0.6070
 2917SOL     OW20386   1.442   2.647   3.225  0.4455 -0.5984  0.2530
 2917SOL    HW120387   1.358   2.691   3.239  0.6071 -0.7144  1.6250
 2917SOL    HW220388   1.488   2.684   3.300  2.5280 -1.9795 -0.3460
 2918SOL     OW20389   2.065   1.915  16.978 -0.4939  0.0045  0.2295
 2918SOL    HW120390   2.030   1.997  17.013  1.2989  1.9020 -2.4322
 2918SOL    HW220391   2.058   1.850  17.048 -0.9660  0.3035  0.4647
 2919SOL     OW20392   4.390   0.065   5.451 -0.1318 -0.7645 -0.3146
 2919SOL    HW120393   4.442   0.091   5.527 -1.3103 -0.0032  0.2553
 2919SOL    HW220394   4.301   0.071   5.488  0.7314 -0.6552  1.7734
 2920SOL     OW20395   2.688   2.941  12.298  0.4937  0.6385 -0.4473
 2920SOL    HW120396   2.696   2.955  12.392  3.5426 -1.8190 -0.3505
 2920SOL    HW220397   2.730   3.018  12.259 -1.0737  1.3308 -0.7467
 2921SOL     OW20398   3.320   4.283  12.976  0.2398  0.3660 -0.4819
 2921SOL    HW120399   3.308   4.330  13.059  2.8008 -1.0599  0.7062
 2921SOL    HW220400   3.228   4.270  12.953  0.1056 -0.2580  0.4047
 2922SOL     OW20401   1.556   3.424  10.748  0.3842 -0.4161 -0.2192
 2922SOL    HW120402   1.640   3.388  10.719 -0.3393  0.8571 -3.8994
 2922SOL    HW220403   1.500   3.346  10.746 -0.5900  0.2611  1.2233
 2923SOL     OW20404   0.272   2.419   6.340 -0.6216  0.1878 -0.2194
 2923SOL    HW120405   0.360   2.397   6.369 -0.0281  2.5047 -0.2114
 2923SOL    HW220406   0.243   2.496   6.389  0.5564 -0.7222  1.8720
 2924SOL     OW20407   3.475   3.735   6.309 -0.0235  0.1102  0.8504
 2924SOL    HW120408   3.540   3.666   6.317  0.5409  0.5858  0.3730
 2924SOL    HW220409   3.411   3.697   6.248 -0.4824  0.9724  0.7828
 2925SOL     OW20410   3.579   3.771   0.603 -0.3861 -0.6274 -0.2660
 2925SOL    HW120411   3.515   3.741   0.539 -0.5847 -0.9825  0.1018
 2925SOL    HW220412   3.573   3.703   0.670 -0.9667 -0.4608 -0.1524
 2926SOL     OW20413   4.442   3.717   4.614 -0.0985  0.4667  0.4425
 2926SOL    HW120414   4.379   3.708   4.686  0.4719  0.9713  0.9967
 2926SOL    HW220415   4.425   3.804   4.578 -0.1417 -0.0485 -0.8084
 2927SOL     OW20416   2.589   0.488  15.017  0.0166  0.6255 -0.7799
 2927SOL    HW120417   2.643   0.508  14.941 -0.5667 -1.0804 -1.6507
 2927SOL    HW220418   2.655   0.475  15.084 -0.5982  0.5321 -0.1939
 2928SOL     OW20419   0.942   3.154  17.444  0.1843 -0.0684  0.4733
 2928SOL    HW120420   0.975   3.066  17.464 -0.2601 -0.5036 -0.6758
 2928SOL    HW220421   0.991   3.204  17.509 -0.5575  1.0590  0.1680
 2929SOL     OW20422   4.456   4.707   4.889 -0.6005  0.7210 -0.2978
 2929SOL    HW120423   4.375   0.001   4.931 -0.8491  1.2975 -1.1642
 2929SOL    HW220424   4.412   4.647   4.828 -2.8949  0.3906  1.6833
 2930SOL     OW20425   3.284   0.364   3.527 -0.1081  0.4652 -0.3203
 2930SOL    HW120426   3.267   0.423   3.453 -0.2383  1.6319  0.6448
 2930SOL    HW220427   3.206   0.377   3.580  0.4275  0.5981  0.4345
 2931SOL     OW20428   3.010   0.948   7.153 -0.2556  0.1524 -0.1626
 2931SOL    HW120429   3.022   0.975   7.062  1.7129  1.3581  0.4606
 2931SOL    HW220430   2.915   0.938   7.146 -0.3615  1.0816  0.0231
 2932SOL     OW20431   3.066   3.218   7.886 -0.6225  0.4770 -0.4513
 2932SOL    HW120432   3.160   3.217   7.903 -0.7921  1.9397  0.5604
 2932SOL    HW220433   3.022   3.193   7.967  0.4089 -2.1746 -0.7092
 2933SOL     OW20434   0.430   4.390  10.477  0.0628 -0.6640  0.0067
 2933SOL    HW120435   0.516   4.433  10.479 -0.5923  0.8121 -3.4694
 2933SOL    HW220436   0.388   4.459  10.426  0.1680 -1.5591 -1.2830
 2934SOL     OW20437   1.736   4.168   9.282 -0.0671  0.3733  0.2728
 2934SOL    HW120438   1.797   4.183   9.354  0.3792 -0.9742  0.1722
 2934SOL    HW220439   1.657   4.172   9.336  0.2027 -1.0810  0.7864
 2935SOL     OW20440   2.389   1.545   9.280  0.5023  0.4812  0.0823
 2935SOL    HW120441   2.421   1.459   9.307  0.5899 -0.0039 -1.5320
 2935SOL    HW220442   2.332   1.518   9.207  1.8847 -3.2927  0.4122
 2936SOL     OW20443   3.537   1.349   6.608 -0.0003 -0.8386 -0.2646
 2936SOL    HW120444   3.569   1.273   6.559 -1.0334 -0.9570 -0.7566
 2936SOL    HW220445   3.616   1.393   6.637 -1.2610 -0.8462  3.1253
 2937SOL     OW20446   0.588   0.477   4.306  0.1465 -0.0914  0.1652
 2937SOL    HW120447   0.622   0.523   4.230  0.4954 -0.4289  0.1165
 2937SOL    HW220448   0.590   0.545   4.374  0.1991  0.2899 -0.2200
 2938SOL     OW20449   3.051   1.850   4.782 -0.5497 -0.7290  0.3543
 2938SOL    HW120450   3.026   1.941   4.799 -4.0423 -1.5431 -0.6324
 2938SOL    HW220451   3.049   1.834   4.688  0.5167 -0.6069  0.3072
 2939SOL     OW20452   4.501   0.124  17.250 -0.1322  0.1689 -0.4093
 2939SOL    HW120453   4.432   0.112  17.317 -1.2939 -2.5771 -2.0851
 2939SOL    HW220454   4.457   0.082  17.176 -0.2215 -0.0289 -0.2470
 2940SOL     OW20455   1.086   3.669   5.996 -0.5496  0.0132  0.4200
 2940SOL    HW120456   1.095   3.631   6.083  2.1625 -3.5673 -1.3773
 2940SOL    HW220457   1.170   3.714   5.989 -1.0470  0.9358  0.3622
 2941SOL     OW20458   3.127   1.403   3.702 -0.2800 -0.0891 -0.2072
 2941SOL    HW120459   3.174   1.472   3.655 -2.5828  1.4423 -0.2704
 2941SOL    HW220460   3.197   1.383   3.765  0.3437  1.0158 -0.5298
 2942SOL     OW20461   2.968   3.251  11.264 -0.5140  0.2106  0.0172
 2942SOL    HW120462   2.924   3.251  11.179  1.5213  0.7506 -1.0116
 2942SOL    HW220463   3.056   3.223  11.242  0.3694  0.8999  2.6829
 2943SOL     OW20464   3.461   2.974   1.815 -0.1997  0.4627 -0.5956
 2943SOL    HW120465   3.530   2.948   1.753 -1.2129 -0.2994 -1.4075
 2943SOL    HW220466   3.386   2.922   1.786  0.1348 -0.2855 -0.0997
 2944SOL     OW20467   4.622   0.910  12.892 -0.1316 -0.1742  0.0355
 2944SOL    HW120468   4.643   0.895  12.984  1.0619  0.3775 -0.1460
 2944SOL    HW220469   4.616   0.816  12.871 -1.5987 -0.1742  0.4484
 2945SOL     OW20470   4.222   0.970   8.378 -0.0922 -0.1593 -0.7842
 2945SOL    HW120471   4.166   1.021   8.435  2.5166  1.9306 -0.0625
 2945SOL    HW220472   4.307   0.968   8.422  0.7241  1.6397 -2.2678
 2946SOL     OW20473   1.861   2.795   4.296  0.4764 -0.2718  0.5823
 2946SOL    HW120474   1.795   2.863   4.312  0.8055 -0.1081  1.2342
 2946SOL    HW220475   1.940   2.848   4.299 -0.6736  1.4717  0.2566
 2947SOL     OW20476   1.082   3.743   9.233 -0.2082  0.0532 -0.7187
 2947SOL    HW120477   1.056   3.817   9.177 -0.1304  0.9991  0.5097
 2947SOL    HW220478   1.176   3.752   9.239 -0.2492  0.7421 -1.1129
 2948SOL     OW20479   2.298   1.115   0.231  0.3650  0.3742  0.1379
 2948SOL    HW120480   2.332   1.193   0.190  2.1969  0.7908  2.4657
 2948SOL    HW220481   2.363   1.093   0.298  1.3284  2.2070 -0.2202
 2949SOL     OW20482   3.462   0.764   4.996 -0.2160  0.3062  0.2121
 2949SOL    HW120483   3.523   0.837   4.986  0.6627 -0.7870 -2.4942
 2949SOL    HW220484   3.490   0.707   4.924 -1.2317  0.4485 -0.2926
 2950SOL     OW20485   3.655   0.808   7.261  0.7944  0.4733 -0.1574
 2950SOL    HW120486   3.564   0.784   7.244  0.2989  2.0678  0.2833
 2950SOL    HW220487   3.641   0.839   7.350 -1.5906  1.1197 -0.7500
 2951SOL     OW20488   3.096   2.133   2.665  0.0120 -0.0803  0.1903
 2951SOL    HW120489   3.091   2.125   2.760  4.2336 -1.2034  0.3465
 2951SOL    HW220490   3.042   2.211   2.653  1.1720  0.8404  0.9387
 2952SOL     OW20491   0.691   0.626  15.520  0.0990  0.6998 -0.0237
 2952SOL    HW120492   0.786   0.616  15.509 -0.1928 -0.8951 -1.1655
 2952SOL    HW220493   0.698   0.615  15.614 -1.5521  0.3788  0.0580
 2953SOL     OW20494   1.480   4.288   7.127 -0.2925  0.0148 -0.3623
 2953SOL    HW120495   1.402   4.303   7.073 -0.3382 -1.7370 -0.7626
 2953SOL    HW220496   1.449   4.289   7.217 -0.6325 -0.7361 -0.4737
 2954SOL     OW20497   1.940   2.466  10.932  0.4329  0.0949  0.6396
 2954SOL    HW120498   1.849   2.440  10.926  0.4177  0.4852 -0.9685
 2954SOL    HW220499   1.979   2.379  10.943 -0.7348 -0.5579 -0.3751
 2955SOL     OW20500   3.535   3.157   4.408  0.6579 -0.5279 -0.1459
 2955SOL    HW120501   3.534   3.088   4.342  1.1106  1.6049 -2.3799
 2955SOL    HW220502   3.539   3.100   4.485 -0.9204  0.0707  0.3807
 2956SOL     OW20503   3.678   1.127  13.303  0.3447 -0.3733 -0.3897
 2956SOL    HW120504   3.638   1.212  13.323  1.5218 -0.1989  1.2436
 2956SOL    HW220505   3.731   1.121  13.383  1.7945 -0.7396 -1.3879
 2957SOL     OW20506   3.766   2.676   9.349 -0.0280  0.0407 -0.4723
 2957SOL    HW120507   3.711   2.607   9.388 -1.0649  1.2626  0.2265
 2957SOL    HW220508   3.752   2.650   9.258 -1.7962  0.8464 -0.4271
 2958SOL     OW20509   2.851   0.610   7.161 -0.0372 -0.4081 -0.3752
 2958SOL    HW120510   2.822   0.529   7.119  0.8477 -0.8428 -0.1525
 2958SOL    HW220511   2.945   0.593   7.168  0.2494  1.4704  0.2368
 2959SOL     OW20512   2.349   3.400   2.567  0.3236 -0.4206  0.3114
 2959SOL    HW120513   2.414   3.418   2.636 -0.4162 -0.2317  0.9638
 2959SOL    HW220514   2.269   3.436   2.606  0.2819  0.1952 -0.3433
 2960SOL     OW20515   2.263   3.603   5.857 -0.0693 -0.3180 -0.4571
 2960SOL    HW120516   2.228   3.567   5.775 -0.3950 -1.4105  0.1640
 2960SOL    HW220517   2.254   3.530   5.918  1.0026 -0.1666 -0.1227
 2961SOL     OW20518   3.406   1.107   2.676  0.3654  0.6006 -0.1580
 2961SOL    HW120519   3.387   1.047   2.604  0.6949  0.9681 -0.5551
 2961SOL    HW220520   3.363   1.053   2.742  0.1969 -0.3466 -1.0457
 2962SOL     OW20521   0.863   4.318   4.118 -0.5471 -0.3547  0.5350
 2962SOL    HW120522   0.912   4.390   4.078  1.1631 -1.2292  1.0385
 2962SOL    HW220523   0.867   4.254   4.046 -2.9072 -1.9371  1.8137
 2963SOL     OW20524   0.290   3.340   3.652  0.2066 -0.1850  0.2069
 2963SOL    HW120525   0.351   3.413   3.666  1.3949 -1.3557  1.1183
 2963SOL    HW220526   0.232   3.354   3.727  0.8290  1.8813  0.3011
 2964SOL     OW20527   0.545   4.704   4.924 -0.3668  0.5900 -0.6799
 2964SOL    HW120528   0.556   4.609   4.919  0.5018  0.7443 -1.8547
 2964SOL    HW220529   0.625   0.005   4.962  0.3580 -1.7220 -0.0322
 2965SOL     OW20530   1.799   4.697   8.748  0.1091 -0.1723  0.5823
 2965SOL    HW120531   1.785   4.683   8.842 -1.3924 -0.3888  0.3186
 2965SOL    HW220532   1.841   4.617   8.715 -0.7031 -0.7642  0.9929
 2966SOL     OW20533   2.626   1.444   2.675  0.2010  0.2243  0.0052
 2966SOL    HW120534   2.660   1.423   2.587 -0.7833 -2.3863  0.2579
 2966SOL    HW220535   2.682   1.519   2.698 -0.8236  1.2632 -0.8927
 2967SOL     OW20536   1.558   1.607  15.537  0.5468 -0.5635 -0.4390
 2967SOL    HW120537   1.626   1.665  15.502  0.2671  0.6709  1.0711
 2967SOL    HW220538   1.559   1.640  15.627  0.8608  0.2282 -0.7296
 2968SOL     OW20539   1.063   4.232   1.392  0.2140 -0.1075 -0.4142
 2968SOL    HW120540   1.151   4.209   1.421 -0.6050 -1.7187  0.7959
 2968SOL    HW220541   1.037   4.277   1.472  0.5810 -1.4203  0.4384
 2969SOL     OW20542   3.939   1.862   4.198 -0.2854 -0.1403  0.2875
 2969SOL    HW120543   3.854   1.872   4.240 -0.6339 -1.6093 -0.0834
 2969SOL    HW220544   3.964   1.772   4.221  1.5097 -0.0500 -1.3056
 2970SOL     OW20545   0.573   3.184  15.418  0.2505 -0.3270 -0.0287
 2970SOL    HW120546   0.550   3.114  15.479 -0.7078  0.0067 -0.0217
 2970SOL    HW220547   0.488   3.214  15.387  0.8791 -1.7704 -3.1275
 2971SOL     OW20548   3.784   4.198   5.589 -0.5686  0.7220 -0.1397
 2971SOL    HW120549   3.711   4.240   5.544 -0.6037 -0.2868 -1.0328
 2971SOL    HW220550   3.857   4.226   5.533  0.9166  0.6389  1.7697
 2972SOL     OW20551   1.597   2.806   3.460 -0.6582 -0.6286 -0.2662
 2972SOL    HW120552   1.513   2.782   3.497 -0.7864 -1.2549 -0.9628
 2972SOL    HW220553   1.646   2.725   3.472 -1.1320 -1.1972 -2.1807
 2973SOL     OW20554   4.348   0.900   5.313  0.1139 -0.6640  0.3820
 2973SOL    HW120555   4.320   0.817   5.350 -3.4178  0.2079 -0.3478
 2973SOL    HW220556   4.291   0.961   5.359 -1.1478  1.1291 -3.5336
 2974SOL     OW20557   2.007   3.298  15.693  0.4090 -0.6672  0.3497
 2974SOL    HW120558   2.031   3.374  15.641 -0.5315 -0.5824  0.0336
 2974SOL    HW220559   1.929   3.329  15.740  1.7611  1.7191  0.9697
 2975SOL     OW20560   0.204   1.849   5.395  0.0947 -0.1508 -0.3669
 2975SOL    HW120561   0.148   1.887   5.327 -1.1093 -1.7390 -0.2734
 2975SOL    HW220562   0.175   1.758   5.398 -1.9657  0.5125 -0.1384
 2976SOL     OW20563   4.245   3.883  10.085 -0.8152  0.5464  0.5663
 2976SOL    HW120564   4.285   3.861  10.001 -1.3793  2.0761 -0.0878
 2976SOL    HW220565   4.179   3.814  10.094  0.2574 -0.5045  0.4026
 2977SOL     OW20566   0.065   4.718   2.919  0.2049 -0.5545  0.0165
 2977SOL    HW120567   4.730   4.733   2.854  0.7083 -1.1600 -0.6596
 2977SOL    HW220568   0.106   4.635   2.896  0.1889 -0.4138 -0.5315
 2978SOL     OW20569   3.500   3.458   3.899  0.1783  0.2954  0.1565
 2978SOL    HW120570   3.523   3.365   3.903  0.1118  0.3590  1.7341
 2978SOL    HW220571   3.508   3.484   3.990  0.0942 -0.3159  0.3398
 2979SOL     OW20572   0.980   4.582   1.762 -0.0646  0.0921  0.3651
 2979SOL    HW120573   0.912   4.547   1.820 -0.3007 -0.9114 -0.5276
 2979SOL    HW220574   1.007   4.504   1.715  0.3959  0.2613  0.3488
 2980SOL     OW20575   4.290   0.449  13.268  0.1290  0.1604 -0.0869
 2980SOL    HW120576   4.360   0.432  13.331  1.1970 -0.0904 -1.3423
 2980SOL    HW220577   4.251   0.529  13.304 -2.0885 -0.7155 -0.5218
 2981SOL     OW20578   2.985   4.691   6.802 -0.1009 -0.1940 -0.0046
 2981SOL    HW120579   2.940   0.021   6.747  1.2513 -1.3803 -2.5609
 2981SOL    HW220580   2.922   4.622   6.819  2.9585 -2.8631  0.4771
 2982SOL     OW20581   0.407   1.649   3.353 -0.0493  0.7863  0.1357
 2982SOL    HW120582   0.477   1.694   3.402  1.9873  0.2570 -2.3014
 2982SOL    HW220583   0.324   1.670   3.396 -0.5140  1.2933 -1.0034
 2983SOL     OW20584   2.192   3.938   1.704  0.0912  0.2261 -0.0991
 2983SOL    HW120585   2.269   3.939   1.760 -1.0034  0.4096  1.3928
 2983SOL    HW220586   2.140   4.001   1.754  0.3587 -0.0137  0.4799
 2984SOL     OW20587   2.456   1.267   9.748  0.1855 -0.1527 -0.1055
 2984SOL    HW120588   2.524   1.255   9.682  0.0513  0.2965 -0.3275
 2984SOL    HW220589   2.465   1.181   9.789  0.0322 -0.6453 -1.0909
 2985SOL     OW20590   4.002   3.798   6.156  0.1817 -0.2784 -0.0303
 2985SOL    HW120591   3.974   3.846   6.077  0.3307  0.7972  0.5749
 2985SOL    HW220592   3.916   3.796   6.198 -0.6718  0.6878 -1.7275
 2986SOL     OW20593   4.344   4.247   0.308 -0.2549 -0.2649  0.4250
 2986SOL    HW120594   4.408   4.211   0.368  1.6311  0.7141 -1.0088
 2986SOL    HW220595   4.335   4.171   0.250  0.4833  0.9830 -1.3145
 2987SOL     OW20596   2.913   2.645   3.120 -0.0494  0.0030  0.2833
 2987SOL    HW120597   2.927   2.662   3.027 -0.2928  0.0199  0.2509
 2987SOL    HW220598   2.983   2.581   3.135 -1.1555 -0.9659  1.2916
 2988SOL     OW20599   4.466   1.629   7.414 -0.2795  0.0493  0.0671
 2988SOL    HW120600   4.467   1.623   7.318 -2.4687  0.5258  0.0106
 2988SOL    HW220601   4.559   1.639   7.431 -0.2851  1.5785 -0.7541
 2989SOL     OW20602   4.297   0.183   6.383 -0.0181 -0.4823  0.0172
 2989SOL    HW120603   4.343   0.115   6.334 -0.0540 -0.3404 -0.2111
 2989SOL    HW220604   4.228   0.135   6.429  0.7711  0.6873  2.3959
 2990SOL     OW20605   0.840   1.597  16.020 -0.6853 -0.1813 -0.4797
 2990SOL    HW120606   0.906   1.643  15.969  1.7638  0.1106  2.9108
 2990SOL    HW220607   0.775   1.574  15.954  1.1869 -1.6356 -1.8155
 2991SOL     OW20608   1.653   3.339   1.951 -0.1623 -0.1692  0.4012
 2991SOL    HW120609   1.740   3.299   1.950  0.5011  1.2667 -0.5801
 2991SOL    HW220610   1.621   3.319   2.038 -1.4547 -0.8028 -0.2244
 2992SOL     OW20611   4.380   1.037  11.278  0.8383 -0.5627 -0.5135
 2992SOL    HW120612   4.472   1.058  11.266  0.4457 -0.4101 -3.3049
 2992SOL    HW220613   4.374   0.942  11.290 -0.6812 -0.4063 -0.0627
 2993SOL     OW20614   1.019   1.051   7.530 -0.3263 -0.2688  0.3033
 2993SOL    HW120615   1.004   1.139   7.564 -0.0146 -0.6171  1.3345
 2993SOL    HW220616   1.107   1.019   7.553 -0.3057  1.5757  2.7092
 2994SOL     OW20617   0.715   3.325   6.381  0.0831  0.0299 -0.4651
 2994SOL    HW120618   0.734   3.414   6.351  0.6054  0.7867  2.0419
 2994SOL    HW220619   0.623   3.324   6.408  0.4623  0.4015  0.8760
 2995SOL     OW20620   2.820   4.647   5.794  0.0894  0.1288 -0.4688
 2995SOL    HW120621   2.756   4.652   5.723  0.7647 -0.4241 -1.1195
 2995SOL    HW220622   2.752   4.655   5.861  0.8627  0.5921  0.2562
 2996SOL     OW20623   2.765   0.350   7.085 -0.2189  0.5525 -0.3480
 2996SOL    HW120624   2.696   0.310   7.033 -0.1411 -0.8357  0.6133
 2996SOL    HW220625   2.801   0.279   7.138  0.0522  1.5889  0.8782
 2997SOL     OW20626   3.857   3.569   0.903 -0.2269 -0.2175 -0.0119
 2997SOL    HW120627   3.778   3.561   0.850 -0.4334 -1.7124  0.5195
 2997SOL    HW220628   3.913   3.504   0.859  0.0003  0.3154 -0.5113
 2998SOL     OW20629   0.549   2.959   2.368 -0.3125  0.1887  0.4122
 2998SOL    HW120630   0.516   3.031   2.314 -1.0657 -0.6724 -0.2811
 2998SOL    HW220631   0.619   2.923   2.313 -0.6888  0.9635 -0.5752
 2999SOL     OW20632   1.158   3.419  14.346 -0.2351 -0.2676  0.4792
 2999SOL    HW120633   1.110   3.502  14.354 -2.3356 -1.4792  0.3913
 2999SOL    HW220634   1.189   3.419  14.256 -0.9773  1.4588  0.2350
 3000SOL     OW20635   3.853   0.960   6.877 -0.3056  0.2411  0.1039
 3000SOL    HW120636   3.861   1.007   6.794 -1.0459 -0.1121 -0.1699
 3000SOL    HW220637   3.761   0.933   6.871 -0.6035  0.7611  2.1895
 3001SOL     OW20638   4.725   2.717   1.111 -0.3285  0.7410  0.0203
 3001SOL    HW120639   4.638   2.728   1.073 -0.5507  1.4851  0.7533
 3001SOL    HW220640   0.039   2.724   1.028  0.0706 -0.1006  0.1811
 3002SOL     OW20641   3.684   1.989  10.949  0.0825 -0.5629  0.3481
 3002SOL    HW120642   3.635   1.990  10.867  2.7726 -1.8383 -1.2776
 3002SOL    HW220643   3.715   2.076  10.974  0.5798  0.1011 -2.5921
 3003SOL     OW20644   1.457   0.028   3.794  0.2204  0.4309  0.0356
 3003SOL    HW120645   1.540   4.727   3.762  0.1442 -0.9478  1.3655
 3003SOL    HW220646   1.490   0.116   3.815  1.3168 -0.7721  3.2651
 3004SOL     OW20647   0.657   1.190   7.091 -0.0233 -0.3747 -0.0717
 3004SOL    HW120648   0.739   1.218   7.132 -1.0329  1.0714  0.9733
 3004SOL    HW220649   0.681   1.188   6.998  2.0838  0.6266  0.4545
 3005SOL     OW20650   2.299   3.898   1.006 -0.5313  0.5224  0.4875
 3005SOL    HW120651   2.268   3.832   1.068 -2.6579  0.2030 -0.9412
 3005SOL    HW220652   2.312   3.842   0.929 -0.5323  0.1999  0.7210
 3006SOL     OW20653   3.952   2.791   5.366  0.6325 -0.8205  0.3066
 3006SOL    HW120654   3.936   2.883   5.345  2.4317 -0.4719  0.5058
 3006SOL    HW220655   4.014   2.770   5.296 -0.6228 -0.5556 -0.8715
 3007SOL     OW20656   3.590   2.455  14.761  0.2623 -0.3030 -0.1136
 3007SOL    HW120657   3.621   2.404  14.836 -1.3940 -0.5118  0.4363
 3007SOL    HW220658   3.510   2.406  14.741 -1.9202  3.6149 -0.8313
 3008SOL     OW20659   1.128   4.480   3.207 -0.8269 -0.2360  0.0747
 3008SOL    HW120660   1.098   4.462   3.296 -2.4945  0.7201 -0.2754
 3008SOL    HW220661   1.042   4.468   3.167 -1.2450 -0.9776  1.2073
 3009SOL     OW20662   0.953   1.815   3.524 -0.0650  0.0568  0.4357
 3009SOL    HW120663   0.989   1.730   3.500  0.2809  0.0946  0.8230
 3009SOL    HW220664   0.948   1.863   3.441 -0.4636  0.5244  0.7274
 3010SOL     OW20665   0.678   4.722   3.784 -0.0844  0.2513 -0.4984
 3010SOL    HW120666   0.617   4.708   3.712 -2.6506  0.5117  1.6041
 3010SOL    HW220667   0.731   0.055   3.741 -1.7203  1.3155 -0.8831
 3011SOL     OW20668   4.562   1.383   2.881 -0.7212 -0.1930 -0.2492
 3011SOL    HW120669   4.651   1.406   2.853 -0.4012 -2.5399 -1.1581
 3011SOL    HW220670   4.539   1.314   2.818  0.5990 -2.1333  1.3812
 3012SOL     OW20671   0.008   2.429   5.681 -0.3134  0.2390 -0.0043
 3012SOL    HW120672   4.710   2.455   5.595  0.4262 -1.2474 -0.7364
 3012SOL    HW220673   4.670   2.376   5.713  1.3274 -0.5675  2.4134
 3013SOL     OW20674   3.768   2.899   9.114  0.1028 -0.0007 -0.0559
 3013SOL    HW120675   3.816   2.846   9.178  0.4981 -0.1062 -0.4421
 3013SOL    HW220676   3.707   2.947   9.170 -0.0811  0.4752 -0.6618
 3014SOL     OW20677   1.330   3.076   3.382 -0.0394  0.6210  0.0673
 3014SOL    HW120678   1.346   3.107   3.293  0.0247 -1.8358 -0.7745
 3014SOL    HW220679   1.397   3.133   3.421 -0.6387  3.4023 -2.9360
 3015SOL     OW20680   0.333   4.666  12.264  0.1393  0.1384 -0.4519
 3015SOL    HW120681   0.305   4.605  12.332  1.1214  0.0088 -0.1671
 3015SOL    HW220682   0.310   0.009  12.316  0.5128  0.8152 -1.3014
 3016SOL     OW20683   3.108   0.747   6.032  0.0833 -0.4963  0.6194
 3016SOL    HW120684   3.125   0.821   5.974 -2.9029 -0.2236  0.0766
 3016SOL    HW220685   3.043   0.706   5.975 -1.9559  3.0264  0.4038
 3017SOL     OW20686   1.147   2.500   6.036  0.3323  0.4425 -0.3170
 3017SOL    HW120687   1.217   2.440   6.011  1.0293  1.4689 -0.7908
 3017SOL    HW220688   1.124   2.526   5.947 -0.5773  1.8873  0.3460
 3018SOL     OW20689   3.066   0.246  17.441  0.4917  0.5262  0.2251
 3018SOL    HW120690   3.116   0.180  17.488  0.2960  0.1068 -0.1514
 3018SOL    HW220691   3.007   0.285  17.505  0.8817  1.2015  0.1722
 3019SOL     OW20692   0.307   4.705   4.369 -0.2062 -0.6406 -0.8692
 3019SOL    HW120693   0.235   4.731   4.311 -0.7727 -0.9208 -0.3000
 3019SOL    HW220694   0.388   4.721   4.321 -0.0913  1.3473 -0.0209
 3020SOL     OW20695   3.759   0.832   2.033  0.2249 -0.1731 -0.0086
 3020SOL    HW120696   3.785   0.877   2.113  0.5318  1.1540 -0.8438
 3020SOL    HW220697   3.836   0.777   2.013 -1.0526 -1.1783 -2.1902
 3021SOL     OW20698   4.149   1.578  16.888 -0.2616  0.2240 -0.4682
 3021SOL    HW120699   4.242   1.559  16.902 -0.7282 -0.0346  2.4791
 3021SOL    HW220700   4.163   1.640  16.817  0.3041  1.0206  0.3406
 3022SOL     OW20701   1.935   4.331   6.205 -0.2915 -0.3619  0.1656
 3022SOL    HW120702   1.954   4.327   6.298  0.1546  1.7314  0.1776
 3022SOL    HW220703   1.846   4.299   6.191  0.3023 -2.2439  0.6742
 3023SOL     OW20704   4.030   2.245   7.868  0.2899 -1.0695 -0.7670
 3023SOL    HW120705   4.079   2.169   7.898  1.4148  0.3257  0.9682
 3023SOL    HW220706   4.037   2.301   7.946 -0.6484 -0.4517 -1.1178
 3024SOL     OW20707   1.573   1.530   7.082  0.0313 -0.3634  0.2940
 3024SOL    HW120708   1.543   1.561   7.167  0.2874  2.1014 -0.5107
 3024SOL    HW220709   1.509   1.464   7.057 -0.8032 -0.8545  3.8335
 3025SOL     OW20710   4.683   1.140   6.995  0.1368 -0.0867 -0.2223
 3025SOL    HW120711   4.706   1.200   7.067  1.7126 -1.1404  0.1507
 3025SOL    HW220712   4.710   1.195   6.921  0.1455  1.6497  1.0750
 3026SOL     OW20713   3.508   4.579   4.208  0.4022  0.1974 -0.2110
 3026SOL    HW120714   3.506   4.624   4.124 -1.4254  1.9393  0.7651
 3026SOL    HW220715   3.602   4.566   4.217  0.5338  0.9724 -0.4678
 3027SOL     OW20716   0.132   0.729   5.945 -0.0631  0.1339  0.3416
 3027SOL    HW120717   0.175   0.666   6.003 -1.8516 -1.7738 -0.4148
 3027SOL    HW220718   0.093   0.786   6.011  1.1683  0.1921  1.0125
 3028SOL     OW20719   0.097   3.140  12.561  0.1354  0.4865  0.4051
 3028SOL    HW120720   0.164   3.154  12.494  1.8299 -1.2618  1.7617
 3028SOL    HW220721   0.131   3.062  12.604 -1.1161 -0.5157 -0.4057
 3029SOL     OW20722   4.576   0.693   9.619  0.7437  0.3698  0.0616
 3029SOL    HW120723   4.654   0.674   9.566  0.9379  2.6313 -0.4516
 3029SOL    HW220724   4.532   0.612   9.595  2.7061 -0.1512 -1.7677
 3030SOL     OW20725   0.721   0.682   3.576 -0.0666 -0.0053  0.6047
 3030SOL    HW120726   0.809   0.685   3.536  0.5309  0.7075  1.9722
 3030SOL    HW220727   0.681   0.749   3.520 -1.7944 -0.0537  1.7909
 3031SOL     OW20728   0.014   2.533   6.638  0.2152  0.3870 -0.0899
 3031SOL    HW120729   0.025   2.471   6.710  2.7794 -0.5086 -1.2628
 3031SOL    HW220730   0.101   2.568   6.617 -0.1611  0.7344 -1.0331
 3032SOL     OW20731   3.276   0.203   4.208 -0.1911  0.0803 -0.3695
 3032SOL    HW120732   3.187   0.236   4.220  0.5997  1.8084  0.7713
 3032SOL    HW220733   3.296   0.166   4.294 -4.1019 -0.7425  0.1945
 3033SOL     OW20734   2.307   4.060   3.836  0.3990 -0.6000 -0.0894
 3033SOL    HW120735   2.350   4.125   3.891  0.9190  0.3334 -1.5874
 3033SOL    HW220736   2.342   3.984   3.881  1.6952 -0.1069 -0.2783
 3034SOL     OW20737   3.403   0.146   6.187 -0.8341 -0.0976  0.0696
 3034SOL    HW120738   3.423   0.088   6.260  0.6195  0.1227 -0.1431
 3034SOL    HW220739   3.310   0.164   6.199 -0.9292  0.1637 -0.9894
 3035SOL     OW20740   3.142   4.431   5.248  0.4582 -0.2249  0.2038
 3035SOL    HW120741   3.189   4.396   5.173  1.6654 -0.8524  1.2566
 3035SOL    HW220742   3.172   4.366   5.312  0.9001 -0.5794 -0.3697
 3036SOL     OW20743   0.705   1.765   8.521 -0.0814 -0.0839 -0.5379
 3036SOL    HW120744   0.637   1.777   8.587 -0.1047 -1.7881 -0.2517
 3036SOL    HW220745   0.674   1.688   8.472 -1.3611 -1.8963  3.1107
 3037SOL     OW20746   1.578   3.090   6.422  0.0067 -0.1125  0.0335
 3037SOL    HW120747   1.549   2.999   6.430  0.0108 -0.0308  0.9689
 3037SOL    HW220748   1.607   3.103   6.512  0.3830  1.6238 -0.3381
 3038SOL     OW20749   3.123   0.541   7.247 -0.2194 -0.5767 -0.8270
 3038SOL    HW120750   3.189   0.539   7.177  0.5691  0.3809 -0.1031
 3038SOL    HW220751   3.158   0.616   7.295  2.1619 -0.7025 -2.3905
 3039SOL     OW20752   4.602   3.201   6.612  0.8348  0.0451 -0.1601
 3039SOL    HW120753   4.586   3.118   6.567  0.6711 -0.3999  0.7171
 3039SOL    HW220754   4.514   3.204   6.651  2.1050  1.9539  2.5948
 3040SOL     OW20755   2.844   4.382  15.747 -0.1615 -0.1059 -0.2463
 3040SOL    HW120756   2.880   4.440  15.680  0.7305 -0.7761 -0.3346
 3040SOL    HW220757   2.842   4.432  15.829  1.0916 -2.1560  1.0363
 3041SOL     OW20758   3.235   3.836   2.023 -0.4704 -0.1748  0.0707
 3041SOL    HW120759   3.175   3.785   1.969  1.2338 -1.1380 -0.9074
 3041SOL    HW220760   3.307   3.780   2.052 -0.7535 -1.1249 -1.0689
 3042SOL     OW20761   0.186   2.493   4.309 -0.3838  0.4719  0.2532
 3042SOL    HW120762   0.237   2.426   4.263 -2.0536 -1.4613  1.2269
 3042SOL    HW220763   0.103   2.490   4.262 -1.4896 -1.4549  2.3423
 3043SOL     OW20764   3.711   2.697  14.556 -0.2226 -0.1961  1.0180
 3043SOL    HW120765   3.622   2.692  14.521  0.2564  0.1985 -0.2426
 3043SOL    HW220766   3.690   2.701  14.650 -0.2141 -1.5558  1.0797
 3044SOL     OW20767   1.723   0.985   5.282  0.0194 -0.3663 -0.3155
 3044SOL    HW120768   1.664   0.932   5.335  0.5296 -0.3572  0.2639
 3044SOL    HW220769   1.766   0.923   5.223  0.0859  1.6853 -2.4221
 3045SOL     OW20770   1.998   3.171  16.834 -0.5197  0.1468 -0.2476
 3045SOL    HW120771   1.910   3.136  16.819 -0.1225 -2.1679  2.8080
 3045SOL    HW220772   2.009   3.187  16.928  3.9183  0.6920 -0.8604
 3046SOL     OW20773   0.394   3.800   0.299  0.0581 -0.5461 -0.3550
 3046SOL    HW120774   0.487   3.811   0.283 -0.2692  2.3130 -0.1445
 3046SOL    HW220775   0.380   3.871   0.361 -0.8297 -0.7795 -0.2764
 3047SOL     OW20776   3.976   1.424   5.220  0.3507  0.0738 -0.4963
 3047SOL    HW120777   3.997   1.338   5.183 -0.5789  0.2018 -1.3269
 3047SOL    HW220778   4.048   1.475   5.184 -0.8092  1.5895 -0.6548
 3048SOL     OW20779   1.186   1.315   3.855  0.5004 -0.3628  0.2996
 3048SOL    HW120780   1.147   1.383   3.800  0.4243 -0.4851  0.2035
 3048SOL    HW220781   1.147   1.334   3.941 -1.7038 -1.9907 -0.3408
 3049SOL     OW20782   2.831   3.078   7.402 -0.3945  0.3002  0.2908
 3049SOL    HW120783   2.746   3.039   7.386 -1.1848  1.1655  2.4366
 3049SOL    HW220784   2.816   3.104   7.493  1.5657 -0.0256  0.7222
 3050SOL     OW20785   3.830   3.920   2.934 -0.1706  0.1501 -0.5243
 3050SOL    HW120786   3.870   3.999   2.970 -1.0479 -0.4378  1.7543
 3050SOL    HW220787   3.904   3.860   2.927  1.6016  2.4114 -1.3214
 3051SOL     OW20788   3.749   3.727   3.328 -0.4504 -0.2220 -0.0537
 3051SOL    HW120789   3.809   3.752   3.399  1.9240 -0.3649 -2.0025
 3051SOL    HW220790   3.730   3.807   3.279  0.6243 -0.4614 -0.8531
 3052SOL     OW20791   2.924   4.587   2.767  0.3935 -0.2964 -0.7194
 3052SOL    HW120792   2.998   4.550   2.719 -0.2270 -1.1246 -1.0260
 3052SOL    HW220793   2.962   4.609   2.852  0.2712  0.3827 -0.8379
 3053SOL     OW20794   0.049   0.557  10.386  0.4055  0.0413  0.1066
 3053SOL    HW120795   0.016   0.514  10.465  0.4872 -0.2200 -0.0021
 3053SOL    HW220796   0.138   0.566  10.419  1.3290  1.1907 -2.6819
 3054SOL     OW20797   1.162   2.843   5.214  0.0830  0.0007  1.0204
 3054SOL    HW120798   1.230   2.897   5.253  1.1881 -0.8583  0.2932
 3054SOL    HW220799   1.086   2.893   5.243  0.8053  2.4195 -1.2856
 3055SOL     OW20800   3.701   1.899   6.238 -0.3932 -0.3368  0.0396
 3055SOL    HW120801   3.707   1.974   6.297  1.4623 -0.1713 -0.3739
 3055SOL    HW220802   3.619   1.854   6.260 -0.2695 -0.1356  0.9129
 3056SOL     OW20803   4.597   4.515  14.601 -0.0783  0.1016 -0.1696
 3056SOL    HW120804   4.608   4.482  14.690  0.9465  0.1235 -0.2853
 3056SOL    HW220805   4.501   4.515  14.596 -0.1095  0.5516  0.5074
 3057SOL     OW20806   3.615   1.761   8.014  0.5952  0.2710  0.4310
 3057SOL    HW120807   3.552   1.818   7.970  0.6533 -0.9802 -1.2309
 3057SOL    HW220808   3.567   1.680   8.029  0.5845  0.3235  0.6834
 3058SOL     OW20809   3.588   1.214   8.183  0.0596  0.2470  0.2859
 3058SOL    HW120810   3.587   1.307   8.207 -2.3497  0.1635  0.4718
 3058SOL    HW220811   3.654   1.182   8.245 -1.0688  0.1820  1.4444
 3059SOL     OW20812   1.273   1.936   4.321  0.3503 -0.1013  0.3648
 3059SOL    HW120813   1.253   1.890   4.403  0.8634  1.0606  1.1380
 3059SOL    HW220814   1.368   1.931   4.310  0.3869  2.0534 -0.3246
 3060SOL     OW20815   3.157   0.776  16.013  0.6155  0.3445 -0.2035
 3060SOL    HW120816   3.101   0.840  16.058  1.1617  0.6491  0.0425
 3060SOL    HW220817   3.110   0.693  16.023 -1.4267  1.6377  0.8884
 3061SOL     OW20818   3.580   3.401   3.033 -0.2858  0.3620 -0.5810
 3061SOL    HW120819   3.625   3.380   3.115 -0.3814  0.3088 -0.5421
 3061SOL    HW220820   3.623   3.483   3.010 -1.4799  0.4676 -2.4137
 3062SOL     OW20821   1.707   2.574   7.426  0.4390 -0.2469  0.1412
 3062SOL    HW120822   1.746   2.533   7.349 -0.2469 -2.0393  0.7424
 3062SOL    HW220823   1.784   2.627   7.443 -0.1713  0.8091 -0.3304
 3063SOL     OW20824   4.152   2.532   3.853 -0.0952 -0.8671 -0.2879
 3063SOL    HW120825   4.165   2.527   3.759 -0.1306  3.2217 -0.5430
 3063SOL    HW220826   4.236   2.566   3.884 -0.7642  1.2666 -0.7688
 3064SOL     OW20827   0.323   4.450   8.151  0.2087  0.2777  0.2083
 3064SOL    HW120828   0.243   4.435   8.201  1.7726  0.7065  2.7989
 3064SOL    HW220829   0.358   4.361   8.156 -0.5182 -0.0353 -0.2682
 3065SOL     OW20830   4.161   2.304   1.526  0.0172  0.4798  0.1246
 3065SOL    HW120831   4.177   2.393   1.557  0.7448 -0.4048  2.2540
 3065SOL    HW220832   4.069   2.288   1.550  0.3606 -0.2005  0.9870
 3066SOL     OW20833   2.113   3.860   4.324  0.0800 -0.5551 -0.5432
 3066SOL    HW120834   2.047   3.902   4.269  0.8394  1.4719  0.0818
 3066SOL    HW220835   2.066   3.789   4.366  1.3015  0.4729  2.5436
 3067SOL     OW20836   0.764   3.041   9.899 -0.2564 -0.4135 -0.0318
 3067SOL    HW120837   0.778   2.946   9.901 -1.9637 -0.6293  3.3979
 3067SOL    HW220838   0.762   3.065   9.992  0.0199 -0.8113  0.0756
 3068SOL     OW20839   1.020   0.096   9.491 -0.3667 -0.2457 -0.1226
 3068SOL    HW120840   0.948   0.102   9.429 -0.8474  0.4504  0.4974
 3068SOL    HW220841   1.052   0.187   9.487  2.3378 -1.2805 -2.4963
 3069SOL     OW20842   2.845   1.737  13.455 -0.5452 -0.4110 -0.2506
 3069SOL    HW120843   2.924   1.747  13.402  0.9294  1.3895  2.2730
 3069SOL    HW220844   2.852   1.813  13.513  0.3583  1.4221 -2.7496
 3070SOL     OW20845   3.766   3.135   7.825  0.4545  0.4562  0.1234
 3070SOL    HW120846   3.750   3.164   7.915  2.6728 -0.4375  0.8016
 3070SOL    HW220847   3.775   3.218   7.779  0.8543  0.4989  0.2829
 3071SOL     OW20848   3.419   4.284  15.261 -0.0420  0.3832 -0.5662
 3071SOL    HW120849   3.468   4.229  15.200  0.2975 -0.2705  0.2973
 3071SOL    HW220850   3.481   4.357  15.267  0.7669 -0.2090 -1.6288
 3072SOL     OW20851   1.400   1.467   0.922  0.3026 -0.0976  0.1983
 3072SOL    HW120852   1.340   1.526   0.969  0.9825  1.1992 -0.5653
 3072SOL    HW220853   1.358   1.384   0.942 -0.6578  0.7080  1.4993
 3073SOL     OW20854   0.924   4.065   4.748 -0.4128 -0.1970  0.2039
 3073SOL    HW120855   0.871   4.047   4.825  0.4859 -0.2887  0.8065
 3073SOL    HW220856   0.933   4.160   4.755  2.6446 -0.5615  1.2072
 3074SOL     OW20857   2.674   4.416   2.733 -0.2965 -0.0910  0.4849
 3074SOL    HW120858   2.673   4.341   2.673  1.7778  2.3009 -2.5606
 3074SOL    HW220859   2.766   4.422   2.758  1.2872 -3.2004 -4.6305
 3075SOL     OW20860   3.518   0.345   8.956  0.3736  0.7325 -0.2925
 3075SOL    HW120861   3.614   0.347   8.954  0.4036 -0.0378  0.2125
 3075SOL    HW220862   3.503   0.434   8.925 -1.2633  0.5184 -0.1293
 3076SOL     OW20863   0.235   2.933   1.143  0.2015 -0.3318 -0.0288
 3076SOL    HW120864   0.297   2.981   1.088  0.7183  0.0789  0.8978
 3076SOL    HW220865   0.159   2.992   1.144  1.1105  0.9047 -2.9417
 3077SOL     OW20866   4.515   0.229   2.582 -0.1052 -0.2330 -0.3751
 3077SOL    HW120867   4.420   0.219   2.588 -0.1778  1.7604  1.6959
 3077SOL    HW220868   4.521   0.324   2.572  2.3840 -0.2038  1.3501
 3078SOL     OW20869   1.480   1.365   0.552 -0.3638  0.0959 -0.2658
 3078SOL    HW120870   1.570   1.362   0.586  1.0355  0.5045 -3.8650
 3078SOL    HW220871   1.479   1.306   0.477 -0.9891  2.7094 -2.3021
 3079SOL     OW20872   3.974   3.144   2.175 -0.0404  0.1105  0.4581
 3079SOL    HW120873   4.025   3.209   2.224 -0.1421 -0.1328  0.8836
 3079SOL    HW220874   3.888   3.174   2.204  0.0398  0.5899  0.2111
 3080SOL     OW20875   1.824   3.408   8.670  0.4958  0.2382  0.1678
 3080SOL    HW120876   1.807   3.341   8.737  0.1618  0.5976  0.4382
 3080SOL    HW220877   1.779   3.481   8.711 -2.1640 -0.1851 -2.0119
 3081SOL     OW20878   1.786   2.010  15.735 -0.2241  0.2179  0.1165
 3081SOL    HW120879   1.817   1.919  15.732 -0.5337  0.1426 -1.0192
 3081SOL    HW220880   1.725   2.007  15.808 -2.1463  1.9911 -1.4493
 3082SOL     OW20881   3.011   2.802   8.247 -0.2584  0.5064  0.1308
 3082SOL    HW120882   3.087   2.860   8.255  0.0175  0.3276 -1.1202
 3082SOL    HW220883   3.000   2.814   8.152  2.9910 -0.8231 -0.4214
 3083SOL     OW20884   2.097   1.968   2.164  0.4773 -0.0659 -0.8605
 3083SOL    HW120885   2.171   2.027   2.177  0.6077 -0.6603  1.1245
 3083SOL    HW220886   2.118   1.959   2.070 -0.6661 -1.7303 -0.9560
 3084SOL     OW20887   3.551   3.044  10.255  0.1982  0.3247  0.5596
 3084SOL    HW120888   3.483   3.111  10.256  1.6470  1.8540 -1.7782
 3084SOL    HW220889   3.510   2.959  10.242  0.0326  0.7894 -1.9223
 3085SOL     OW20890   4.367   3.593   9.953 -0.1434 -0.1533 -0.1592
 3085SOL    HW120891   4.367   3.574  10.046 -1.6325 -1.4193 -0.4122
 3085SOL    HW220892   4.281   3.562   9.924 -0.8421  1.0501  0.6700
 3086SOL     OW20893   2.537   3.090   2.332  0.7278 -0.4740  0.4205
 3086SOL    HW120894   2.620   3.124   2.365  1.3442 -1.3511 -0.2140
 3086SOL    HW220895   2.540   3.097   2.236 -0.8314  2.1716  0.5772
 3087SOL     OW20896   2.534   3.525   9.108 -0.0034 -0.0293 -0.3093
 3087SOL    HW120897   2.597   3.582   9.152 -0.0768  0.9311 -1.4643
 3087SOL    HW220898   2.599   3.459   9.082  0.3174 -0.2715  1.1256
 3088SOL     OW20899   0.797   3.811  17.733  0.0705  0.1759 -0.2215
 3088SOL    HW120900   0.892   3.807   0.007 -0.1470 -2.3958  0.6649
 3088SOL    HW220901   0.775   3.887   0.050 -3.1508 -1.0514  0.1921
 3089SOL     OW20902   3.961   3.764   0.136 -0.0122  0.0720  0.2560
 3089SOL    HW120903   3.925   3.761   0.225 -0.6463  1.0755  0.0333
 3089SOL    HW220904   3.883   3.765   0.082  0.8948  0.0351 -1.0457
 3090SOL     OW20905   1.855   2.513   3.875  0.0100 -0.0777 -0.1775
 3090SOL    HW120906   1.823   2.585   3.930 -0.1946 -1.4285  1.4535
 3090SOL    HW220907   1.892   2.465   3.949 -2.7120 -2.0387 -0.0837
 3091SOL     OW20908   1.994   3.432  10.682 -0.1564 -0.2524 -0.2653
 3091SOL    HW120909   1.974   3.480  10.763  0.4555  0.5421 -0.5905
 3091SOL    HW220910   2.084   3.417  10.710 -0.0418  1.4934  0.3429
 3092SOL     OW20911   4.384   0.459   9.179 -0.5569  0.1024  0.1856
 3092SOL    HW120912   4.402   0.375   9.222  2.5277  1.5896  1.8447
 3092SOL    HW220913   4.474   0.487   9.164 -0.2720 -1.8287 -1.6443
 3093SOL     OW20914   0.209   2.451   8.545  0.1364 -0.2782  0.2383
 3093SOL    HW120915   0.205   2.440   8.450  0.6103 -0.5755  0.2535
 3093SOL    HW220916   0.263   2.377   8.574 -0.2122 -0.9892 -0.9242
 3094SOL     OW20917   4.092   3.356   6.483  0.2166 -0.1811  0.5478
 3094SOL    HW120918   3.998   3.345   6.486  0.2952 -0.7513  0.7403
 3094SOL    HW220919   4.126   3.287   6.426  0.0784 -1.8991  2.5570
 3095SOL     OW20920   0.790   1.900   1.188  0.5056  0.3800  0.2363
 3095SOL    HW120921   0.789   1.994   1.202 -1.9979  0.1917  1.2277
 3095SOL    HW220922   0.820   1.869   1.274 -0.5476 -2.5224 -0.4336
 3096SOL     OW20923   2.390   3.440  15.002 -0.2443  0.1252 -0.1696
 3096SOL    HW120924   2.342   3.357  15.005 -0.6975  0.3800 -0.4300
 3096SOL    HW220925   2.481   3.414  14.983 -0.7883 -0.9727 -1.2763
 3097SOL     OW20926   1.383   3.974  13.119  0.0565 -0.4902 -0.3635
 3097SOL    HW120927   1.403   4.024  13.040  0.1842 -0.2792 -0.1988
 3097SOL    HW220928   1.368   3.888  13.080  2.0354 -0.4271 -1.2296
 3098SOL     OW20929   0.250   3.000   0.840 -0.2268 -0.6035  0.6517
 3098SOL    HW120930   0.229   3.094   0.840  0.5432 -0.4317  0.8826
 3098SOL    HW220931   0.329   3.004   0.893  0.4145 -1.7565 -0.2254
 3099SOL     OW20932   4.615   0.196   6.739 -0.1829 -0.0813  0.3091
 3099SOL    HW120933   4.638   0.174   6.648 -0.1505 -0.7176  0.4699
 3099SOL    HW220934   4.704   0.222   6.761 -0.2764 -0.0493  0.6395
 3100SOL     OW20935   0.819   3.118  16.397  0.6244 -0.2353 -0.7679
 3100SOL    HW120936   0.850   3.093  16.310  1.1416 -1.1775 -0.3116
 3100SOL    HW220937   0.815   3.031  16.436 -1.2125 -0.2622 -0.9853
 3101SOL     OW20938   0.111   4.472   2.824 -0.7014  0.0947  0.0468
 3101SOL    HW120939   0.201   4.444   2.805 -0.3918  0.1068  1.5519
 3101SOL    HW220940   0.080   4.411   2.890 -0.1506  0.1327  0.3428
 3102SOL     OW20941   4.420   2.196   5.318 -0.1539  0.4541 -0.3767
 3102SOL    HW120942   4.343   2.166   5.366 -0.6359  1.4127 -0.5342
 3102SOL    HW220943   4.444   2.264   5.381 -1.2827 -1.7859  2.4512
 3103SOL     OW20944   0.171   2.920   9.869 -0.2497 -0.2311 -0.7894
 3103SOL    HW120945   0.092   2.941   9.920  0.2040  1.3268 -0.7495
 3103SOL    HW220946   0.167   2.997   9.814 -0.4981 -0.5161 -1.1710
 3104SOL     OW20947   2.546   2.489  12.576 -0.0781 -0.0194  0.3032
 3104SOL    HW120948   2.621   2.501  12.634 -0.5879 -2.7614  1.5316
 3104SOL    HW220949   2.474   2.516  12.633  0.1151  0.3677  0.3646
 3105SOL     OW20950   1.366   1.312   4.146 -0.4713 -0.5270 -0.4356
 3105SOL    HW120951   1.397   1.318   4.056  1.9844 -1.1578  0.3548
 3105SOL    HW220952   1.450   1.309   4.192 -1.0829 -1.8649  0.5967
 3106SOL     OW20953   0.503   2.593   8.518 -0.1977 -0.6406  0.4188
 3106SOL    HW120954   0.490   2.611   8.425 -0.0025 -3.4897 -0.1485
 3106SOL    HW220955   0.463   2.673   8.551  0.9168  0.6244 -1.2929
 3107SOL     OW20956   1.447   0.354   1.465 -0.3273 -0.3449 -0.3214
 3107SOL    HW120957   1.505   0.386   1.534 -0.8511 -0.4601  0.1759
 3107SOL    HW220958   1.486   0.269   1.446 -0.4638 -0.2613 -0.9747
 3108SOL     OW20959   3.153   0.231   6.833  0.2886 -0.8290 -0.6860
 3108SOL    HW120960   3.085   0.271   6.887  0.6518  1.3470 -1.8614
 3108SOL    HW220961   3.094   0.186   6.772 -0.8973 -0.9346  0.5519
 3109SOL     OW20962   3.937   3.904   5.913 -0.2844  0.0464  0.2924
 3109SOL    HW120963   4.005   3.969   5.929 -1.2915  1.1108  0.2924
 3109SOL    HW220964   3.864   3.966   5.902 -0.1526 -0.0530 -1.1066
 3110SOL     OW20965   2.298   4.413   0.234  0.0353 -0.0908  0.0952
 3110SOL    HW120966   2.273   4.324   0.209 -1.2513  0.8707 -2.0462
 3110SOL    HW220967   2.391   4.395   0.218  0.2401 -0.4633  1.6917
 3111SOL     OW20968   4.186   4.318   4.068 -0.6664  0.2787 -0.2987
 3111SOL    HW120969   4.149   4.232   4.047  0.1625  0.5384 -2.8227
 3111SOL    HW220970   4.248   4.289   4.136 -1.0450  1.1789  0.4369
 3112SOL     OW20971   3.214   1.966   8.621 -0.2820 -0.1919 -0.0998
 3112SOL    HW120972   3.208   2.059   8.642  0.5163 -0.2881  0.5595
 3112SOL    HW220973   3.140   1.972   8.561  1.7698  1.8580 -2.4454
 3113SOL     OW20974   1.274   1.662   6.751 -0.1597  0.3194 -0.2873
 3113SOL    HW120975   1.290   1.704   6.836  4.5336 -0.4477 -0.7572
 3113SOL    HW220976   1.342   1.596   6.739 -0.1176  0.4992 -1.0109
 3114SOL     OW20977   0.726   4.267   9.320 -0.0877 -0.6465 -0.1025
 3114SOL    HW120978   0.800   4.313   9.280  0.7380 -2.4706 -0.6598
 3114SOL    HW220979   0.667   4.343   9.311 -0.9568 -1.1662  1.2458
 3115SOL     OW20980   2.967   1.424   0.357 -0.2553 -0.4523  0.0472
 3115SOL    HW120981   2.953   1.390   0.268 -0.1532  1.6807 -0.7817
 3115SOL    HW220982   2.877   1.422   0.390 -0.2518  2.6264  0.2371
 3116SOL     OW20983   2.391   2.377   3.139 -0.1362  0.4437 -0.7745
 3116SOL    HW120984   2.478   2.418   3.146  0.3511 -0.7032  0.0070
 3116SOL    HW220985   2.407   2.313   3.069 -1.7819  0.5905 -1.2675
 3117SOL     OW20986   3.269   0.558   5.839 -0.0498 -0.1196 -0.0785
 3117SOL    HW120987   3.306   0.475   5.869 -1.4124 -0.8465 -0.3951
 3117SOL    HW220988   3.316   0.563   5.756 -0.2566  0.7202 -0.1369
 3118SOL     OW20989   1.417   4.205   8.981  0.1728  0.3626  0.1977
 3118SOL    HW120990   1.385   4.295   8.981 -1.8905 -0.3764 -2.7535
 3118SOL    HW220991   1.422   4.193   8.886  1.0102  1.3542  0.1199
 3119SOL     OW20992   2.516   3.279   1.179  0.0139  0.2604  0.1729
 3119SOL    HW120993   2.595   3.303   1.228 -0.0359 -0.2404  0.4997
 3119SOL    HW220994   2.509   3.192   1.218 -1.3499  0.3784  0.1768
 3120SOL     OW20995   4.482   2.417   6.051 -0.0021 -0.3218 -0.2662
 3120SOL    HW120996   4.491   2.375   5.965 -1.5822 -1.8174  0.2778
 3120SOL    HW220997   4.571   2.412   6.088 -0.4118 -2.2079  0.4788
 3121SOL     OW20998   1.699   1.246   2.905 -0.5313 -0.0759  0.1825
 3121SOL    HW120999   1.674   1.250   2.813  0.8686 -1.8185 -0.2696
 3121SOL    HW221000   1.617   1.268   2.951 -0.1990 -2.6227  1.9998
 3122SOL     OW21001   2.289   0.465   3.369 -0.5259 -0.1561 -0.3550
 3122SOL    HW121002   2.235   0.534   3.330 -0.1713  0.4521  0.2252
 3122SOL    HW221003   2.288   0.410   3.290 -0.2071  0.0311 -0.4924
 3123SOL     OW21004   0.997   1.930   3.248 -0.5272  0.4258 -0.0650
 3123SOL    HW121005   0.970   1.869   3.179 -2.7536 -0.2450  1.3877
 3123SOL    HW221006   1.064   1.979   3.202 -0.4144 -0.9220 -1.3434
 3124SOL     OW21007   0.420   0.259   6.723 -0.1587  0.0004  0.0652
 3124SOL    HW121008   0.505   0.242   6.763 -0.9728 -0.1782  1.7162
 3124SOL    HW221009   0.398   0.334   6.778  1.6150  0.9113 -0.4540
 3125SOL     OW21010   3.150   1.189   5.416 -0.7989 -0.1460  0.3693
 3125SOL    HW121011   3.201   1.233   5.483  0.3827 -2.1164  0.7582
 3125SOL    HW221012   3.063   1.191   5.457 -0.9989 -1.2144 -0.0119
 3126SOL     OW21013   0.126   3.413   8.779  0.6133 -0.0465 -0.0237
 3126SOL    HW121014   0.186   3.440   8.848  0.8241  0.2285 -0.3105
 3126SOL    HW221015   0.067   3.487   8.796  1.5767  0.2689  1.9587
 3127SOL     OW21016   3.697   4.532   5.851  0.1861 -0.0737 -0.4454
 3127SOL    HW121017   3.780   4.488   5.869 -1.2314 -2.0208  1.3632
 3127SOL    HW221018   3.669   4.546   5.942  1.2745 -0.3429 -0.0695
 3128SOL     OW21019   3.182   2.951  10.326 -0.0278 -0.1852  0.1547
 3128SOL    HW121020   3.254   2.908  10.278 -1.4213 -0.0189 -2.0931
 3128SOL    HW221021   3.107   2.892  10.319 -0.9748  1.0506  0.0158
 3129SOL     OW21022   1.553   0.800  14.461 -0.4657  1.0766 -0.1913
 3129SOL    HW121023   1.622   0.804  14.527  0.9190  3.2224 -1.7481
 3129SOL    HW221024   1.481   0.807  14.523 -0.2067 -2.2407  0.4740
 3130SOL     OW21025   3.238   3.948  15.127  0.8373 -0.1485  0.0410
 3130SOL    HW121026   3.214   3.951  15.220  1.2373  0.1870  0.1307
 3130SOL    HW221027   3.319   3.899  15.143  0.8203  0.0527  0.7711
 3131SOL     OW21028   0.238   3.583   8.173 -0.3133 -0.1642  0.3490
 3131SOL    HW121029   0.187   3.602   8.251  0.7420  0.1221  0.9687
 3131SOL    HW221030   0.231   3.488   8.168 -0.4476 -0.0191 -2.4689
 3132SOL     OW21031   1.763   0.470   1.344 -0.5958 -0.3813  0.1748
 3132SOL    HW121032   1.792   0.466   1.435 -0.2265  1.4420  0.1444
 3132SOL    HW221033   1.839   0.512   1.303  0.4232  0.4398  2.8895
 3133SOL     OW21034   2.237   2.996   6.223  0.8052  0.0589 -0.1409
 3133SOL    HW121035   2.219   2.903   6.214 -0.4285  0.4798 -1.9222
 3133SOL    HW221036   2.156   3.045   6.207  2.6995  2.7927 -1.2547
 3134SOL     OW21037   0.783   1.266  12.511 -0.1706 -0.5666  0.1182
 3134SOL    HW121038   0.735   1.192  12.474 -2.3705  1.1617 -0.4870
 3134SOL    HW221039   0.869   1.261  12.469 -0.7735  1.0050 -1.3375
 3135SOL     OW21040   1.170   0.481   7.951 -0.1020 -0.0301 -0.3894
 3135SOL    HW121041   1.131   0.408   7.905  0.4059  0.3863 -1.4740
 3135SOL    HW221042   1.092   0.536   7.959 -0.5691 -0.6140 -0.9977
 3136SOL     OW21043   0.422   0.608   6.615  0.1215  0.3693  0.6896
 3136SOL    HW121044   0.434   0.688   6.667  0.2529  2.0417 -1.9250
 3136SOL    HW221045   0.513   0.590   6.589 -0.1885  0.8496 -0.6872
 3137SOL     OW21046   1.854   3.709   4.705 -1.0037 -0.3171 -0.0335
 3137SOL    HW121047   1.821   3.798   4.714  0.2397  0.1023  0.3357
 3137SOL    HW221048   1.866   3.686   4.797  3.0287  1.1830 -0.1952
 3138SOL     OW21049   3.465   3.040   2.533 -0.1585  0.6416 -0.3798
 3138SOL    HW121050   3.436   3.000   2.451  3.1809 -0.1436 -1.1968
 3138SOL    HW221051   3.507   3.121   2.505  0.6624  0.3681  0.0321
 3139SOL     OW21052   2.019   0.283   8.459 -0.0771  0.2959  0.6758
 3139SOL    HW121053   2.072   0.209   8.430  1.2717  1.0061  1.2968
 3139SOL    HW221054   2.057   0.295   8.546  0.5290  0.0793  0.4452
 3140SOL     OW21055   0.479   1.780   8.981 -0.3634  0.4015  0.1231
 3140SOL    HW121056   0.570   1.769   9.010  0.6803  1.1468 -2.8555
 3140SOL    HW221057   0.443   1.836   9.050 -1.7650 -0.2350 -0.1076
 3141SOL     OW21058   0.435   1.226   8.327 -0.6324  0.5099  0.3108
 3141SOL    HW121059   0.530   1.232   8.338 -0.7292  1.2733  0.7105
 3141SOL    HW221060   0.432   1.244   8.233  1.4757  1.2475  0.3904
 3142SOL     OW21061   4.686   3.511  16.415 -0.2010  0.6708  0.4756
 3142SOL    HW121062   0.029   3.535  16.465  0.1347 -0.4868  0.5191
 3142SOL    HW221063   4.638   3.594  16.416  2.6282  2.3324 -1.6189
 3143SOL     OW21064   2.700   3.876   9.765 -0.6123 -0.0534 -0.3480
 3143SOL    HW121065   2.780   3.827   9.748 -0.9001 -0.9379  0.8526
 3143SOL    HW221066   2.728   3.966   9.749  2.2182 -0.8219  0.3569
 3144SOL     OW21067   4.703   1.127   6.407  0.3084  0.5479  0.5288
 3144SOL    HW121068   4.657   1.117   6.324  2.4598  1.7159 -0.8108
 3144SOL    HW221069   0.037   1.186   6.377  0.4759  0.8595  1.5435
 3145SOL     OW21070   0.114   3.147   9.727 -0.2184 -0.4085 -0.0459
 3145SOL    HW121071   0.187   3.149   9.665 -0.9222  0.4965 -0.8417
 3145SOL    HW221072   0.054   3.213   9.693  0.5601 -0.2931 -1.1907
 3146SOL     OW21073   4.379   0.973   9.517 -0.4973 -0.1878 -0.3173
 3146SOL    HW121074   4.400   1.005   9.430 -2.6780  0.6724 -0.5327
 3146SOL    HW221075   4.382   0.878   9.507  0.3614 -0.0315 -1.5174
 3147SOL     OW21076   2.363   0.078   1.172  0.6185  0.1067 -0.3058
 3147SOL    HW121077   2.274   0.068   1.138 -0.2533  1.3592  1.5968
 3147SOL    HW221078   2.404   4.726   1.180  0.2531  0.0735  1.2472
 3148SOL     OW21079   2.384   1.567   7.174  0.2400  0.0143 -0.7358
 3148SOL    HW121080   2.386   1.498   7.108 -1.1391 -0.9010  0.1674
 3148SOL    HW221081   2.308   1.622   7.154  0.4923  0.0106 -1.7153
 3149SOL     OW21082   0.683   4.389   7.504  0.7188  0.2588 -0.5358
 3149SOL    HW121083   0.710   4.326   7.570  1.3503  2.4160  1.2479
 3149SOL    HW221084   0.736   4.359   7.430  2.4415  1.6091  0.1496
 3150SOL     OW21085   0.213   3.256  16.678 -0.0737  0.3397 -0.1977
 3150SOL    HW121086   0.226   3.338  16.725 -1.6526  0.0832  0.6744
 3150SOL    HW221087   0.256   3.192  16.735 -0.8803 -0.9606 -1.0486
 3151SOL     OW21088   3.749   3.632   7.237 -0.0782  0.0355  0.2332
 3151SOL    HW121089   3.709   3.714   7.264  0.5136  0.6235 -0.6621
 3151SOL    HW221090   3.778   3.649   7.147 -0.1082  0.8625  0.3797
 3152SOL     OW21091   3.088   2.162   6.593 -0.0960  0.0954 -0.6137
 3152SOL    HW121092   2.997   2.138   6.611 -1.2342  1.6548 -4.1947
 3152SOL    HW221093   3.143   2.144   6.669 -1.3920  1.4701  0.6416
 3153SOL     OW21094   0.987   3.422   0.827 -0.0288 -0.5035  0.5008
 3153SOL    HW121095   1.026   3.435   0.913  1.5714 -0.6041 -0.2173
 3153SOL    HW221096   1.030   3.490   0.776  0.8556 -0.3252  1.4925
 3154SOL     OW21097   2.398   3.267  14.669  0.0080 -0.5251  0.2293
 3154SOL    HW121098   2.477   3.320  14.662 -1.2993  1.0742 -2.1787
 3154SOL    HW221099   2.353   3.301  14.592  2.6380  2.9513  0.2518
 3155SOL     OW21100   4.503   0.697   2.263  0.0770  0.3504 -0.2125
 3155SOL    HW121101   4.567   0.654   2.205 -1.1534 -1.0346 -0.5421
 3155SOL    HW221102   4.502   0.787   2.231 -1.8770 -0.2277 -1.7690
 3156SOL     OW21103   3.476   2.312   8.361  0.1309  0.5428  0.0367
 3156SOL    HW121104   3.489   2.236   8.304  0.0407 -0.2423  1.0584
 3156SOL    HW221105   3.470   2.268   8.446 -0.4457 -0.0397 -0.3013
 3157SOL     OW21106   3.488   1.281   9.223 -0.7623 -0.1409  0.2286
 3157SOL    HW121107   3.450   1.208   9.273 -2.1780  0.2514 -0.2732
 3157SOL    HW221108   3.492   1.345   9.294 -0.3351  1.5240 -1.2971
 3158SOL     OW21109   3.713   2.220   2.052  0.9686  0.0904  0.0439
 3158SOL    HW121110   3.666   2.142   2.080 -0.0207  0.5166 -0.3856
 3158SOL    HW221111   3.783   2.183   1.998 -1.7857 -1.6108 -2.3644
 3159SOL     OW21112   3.837   3.385   8.884  0.4259  0.5216  0.0277
 3159SOL    HW121113   3.928   3.399   8.909  0.6017 -1.3497  0.4522
 3159SOL    HW221114   3.832   3.371   8.789 -0.9503 -1.1562  0.3513
 3160SOL     OW21115   3.029   0.053  17.220  0.4356 -0.1896  0.2128
 3160SOL    HW121116   3.024   0.105  17.301 -0.7170 -0.6168  0.4135
 3160SOL    HW221117   3.103   4.730  17.240  0.3280 -0.2701  0.3782
 3161SOL     OW21118   3.711   4.597   9.716 -0.3953  0.2222  0.0942
 3161SOL    HW121119   3.711   4.596   9.620 -0.2063 -3.4403  0.1635
 3161SOL    HW221120   3.712   4.508   9.750  3.2148  0.0289 -0.5341
 3162SOL     OW21121   3.659   2.169  13.370 -0.7593  0.2415  0.1968
 3162SOL    HW121122   3.722   2.234  13.340  1.0282 -1.6589 -0.1453
 3162SOL    HW221123   3.702   2.152  13.454  1.3114 -0.4309 -0.9921
 3163SOL     OW21124   2.204   0.495  17.493 -0.3122  0.2170 -0.0058
 3163SOL    HW121125   2.252   0.419  17.527  0.6495  0.6345 -0.4484
 3163SOL    HW221126   2.243   0.571  17.535  1.0823 -0.4696 -0.0536
 3164SOL     OW21127   0.935   0.981   2.908 -0.4212  0.0477 -0.1822
 3164SOL    HW121128   0.866   0.915   2.902  1.9911 -2.4430 -0.6498
 3164SOL    HW221129   1.004   0.938   2.857 -0.6804  3.2297 -3.2599
 3165SOL     OW21130   4.075   4.184  17.680  0.0763 -0.0156 -0.1955
 3165SOL    HW121131   4.158   4.200  17.725  0.1784  0.5468 -0.5895
 3165SOL    HW221132   4.018   4.260  17.693  0.2489  0.1655 -0.4957
 3166SOL     OW21133   3.295   0.612   0.276 -0.3280 -0.0108  0.2649
 3166SOL    HW121134   3.319   0.569   0.358 -0.2124 -1.3503 -0.4742
 3166SOL    HW221135   3.357   0.684   0.272  1.2328 -1.3536  0.3406
 3167SOL     OW21136   1.016   2.160   2.584  0.7752  0.1897 -0.2765
 3167SOL    HW121137   1.053   2.192   2.502  2.5448  0.0067  0.4451
 3167SOL    HW221138   0.961   2.233   2.612  1.0314  0.2224  0.1470
 3168SOL     OW21139   2.426   0.394   6.209 -0.1154 -0.2475  0.0780
 3168SOL    HW121140   2.457   0.404   6.299  0.9946  3.3679 -0.6831
 3168SOL    HW221141   2.384   0.478   6.192  0.2471  0.0932  0.8739
 3169SOL     OW21142   2.688   3.962   4.017  0.4724 -0.1500 -0.6685
 3169SOL    HW121143   2.781   3.976   4.030  0.3183 -0.7355  1.0123
 3169SOL    HW221144   2.672   4.025   3.946  2.4256  1.6206  0.4498
 3170SOL     OW21145   1.696   3.627   6.918  0.4036 -0.0499  0.2209
 3170SOL    HW121146   1.749   3.684   6.862 -0.2179  0.8885  0.5804
 3170SOL    HW221147   1.607   3.659   6.903  1.1285  1.7605 -0.1631
 3171SOL     OW21148   3.448   2.844   5.331 -0.1417 -0.4801  0.9434
 3171SOL    HW121149   3.498   2.894   5.394  1.7282  0.1333 -1.0335
 3171SOL    HW221150   3.485   2.881   5.251 -3.3791  1.4606  0.3161
 3172SOL     OW21151   2.456   0.884   4.786 -0.1095  0.0681  0.2342
 3172SOL    HW121152   2.451   0.962   4.731 -1.5573 -0.3268 -0.1882
 3172SOL    HW221153   2.515   0.818   4.749  2.4725  2.3203  0.4222
 3173SOL     OW21154   1.302   1.857   7.249  0.0076  0.9266  0.4345
 3173SOL    HW121155   1.271   1.821   7.332  2.3879  0.2082  1.0163
 3173SOL    HW221156   1.297   1.947   7.284 -0.7661  0.9600  0.2331
 3174SOL     OW21157   2.150   4.630   2.995  0.0329 -0.4297  0.3221
 3174SOL    HW121158   2.087   4.604   3.063  2.0768 -1.9889  1.6185
 3174SOL    HW221159   2.130   4.722   2.981  3.2361  0.4872  1.7984
 3175SOL     OW21160   2.225   2.111  17.395 -0.5743 -0.5131  0.2853
 3175SOL    HW121161   2.183   2.140  17.476  1.9930 -0.6450  1.6559
 3175SOL    HW221162   2.173   2.149  17.324 -1.1598  1.9697  2.0448
 3176SOL     OW21163   1.013   2.465  12.664  0.1552  0.6889  0.0906
 3176SOL    HW121164   0.992   2.480  12.572 -0.1004 -0.5408 -0.0442
 3176SOL    HW221165   0.966   2.539  12.702  1.2096  0.8373  1.1140
 3177SOL     OW21166   4.185   4.321  15.194  0.0098 -0.5116 -0.4244
 3177SOL    HW121167   4.200   4.374  15.116  0.7291  1.7271  1.2118
 3177SOL    HW221168   4.092   4.342  15.201  0.6935  2.7892 -1.1361
 3178SOL     OW21169   0.708   2.534   2.073 -0.0659 -0.0488 -0.6757
 3178SOL    HW121170   0.757   2.543   1.992  0.4491 -1.1072 -0.4802
 3178SOL    HW221171   0.775   2.527   2.142 -0.8003 -1.4772 -0.1102
 3179SOL     OW21172   1.611   2.228   2.070  0.1980 -0.1716 -0.4290
 3179SOL    HW121173   1.671   2.153   2.068  0.9665  0.4784 -2.0667
 3179SOL    HW221174   1.647   2.287   2.003  0.4760 -0.2387 -0.3386
 3180SOL     OW21175   1.755   3.065   8.268 -0.7127 -0.1648 -0.5660
 3180SOL    HW121176   1.850   3.079   8.260 -0.9428  1.3563 -0.6031
 3180SOL    HW221177   1.755   3.034   8.358  0.7678  1.3172 -0.0560
 3181SOL     OW21178   1.023   3.628  14.527 -0.0919  0.5754  0.3501
 3181SOL    HW121179   0.967   3.567  14.574 -1.2514  2.2090  1.1091
 3181SOL    HW221180   0.951   3.678  14.487  0.4075  0.1716 -1.0561
 3182SOL     OW21181   1.243   4.218   6.544 -0.0037  0.1723  0.6271
 3182SOL    HW121182   1.216   4.186   6.630  3.1525 -2.4370  0.6312
 3182SOL    HW221183   1.239   4.314   6.542  1.8489  0.1825 -1.8027
 3183SOL     OW21184   2.824   4.313  17.106  0.6850 -0.1027 -0.0215
 3183SOL    HW121185   2.780   4.239  17.063 -0.1598  1.5835 -2.0688
 3183SOL    HW221186   2.816   4.376  17.034  0.3524 -0.9302 -0.7076
 3184SOL     OW21187   3.351   3.281   6.218 -0.3651  0.2820 -0.0166
 3184SOL    HW121188   3.424   3.229   6.252 -2.5575 -1.6742  1.7156
 3184SOL    HW221189   3.289   3.277   6.290 -0.8085 -2.3346 -0.5474
 3185SOL     OW21190   3.207   2.787   5.457 -0.4573  0.5107 -0.3502
 3185SOL    HW121191   3.283   2.798   5.400 -0.1571 -1.3716 -0.2999
 3185SOL    HW221192   3.128   2.821   5.414 -0.0055  0.4397 -1.2244
 3186SOL     OW21193   2.530   2.629   5.405 -0.7716 -0.1833  0.2452
 3186SOL    HW121194   2.473   2.601   5.333 -1.6451 -0.0771  0.9017
 3186SOL    HW221195   2.556   2.541   5.429  3.6303  1.2166  0.6301
 3187SOL     OW21196   4.672   2.886   1.964 -0.4378  1.4839  0.2439
 3187SOL    HW121197   4.669   2.837   2.046  0.5764  1.2584  0.1555
 3187SOL    HW221198   4.617   2.835   1.905  1.0442  0.4684 -0.2660
 3188SOL     OW21199   0.098   3.468   4.404 -0.2142  0.1828  0.8635
 3188SOL    HW121200   0.118   3.548   4.453 -0.4323  0.7837 -0.0265
 3188SOL    HW221201   0.111   3.394   4.463 -0.6684 -0.0173  0.7040
 3189SOL     OW21202   3.059   0.309   0.187 -0.5250  0.3981 -0.2778
 3189SOL    HW121203   3.098   0.307   0.274 -0.2798  0.4808 -0.3855
 3189SOL    HW221204   3.019   0.395   0.196  0.9185  1.0088  0.2362
 3190SOL     OW21205   1.612   1.325  15.588  0.4370 -0.4021  0.0353
 3190SOL    HW121206   1.601   1.392  15.521 -0.9674 -0.5980  0.0702
 3190SOL    HW221207   1.536   1.341  15.644 -0.1353 -0.5436 -0.6963
 3191SOL     OW21208   1.304   3.322   8.449 -0.4513 -0.4213  0.1760
 3191SOL    HW121209   1.270   3.372   8.523 -0.0763 -0.4411  0.3620
 3191SOL    HW221210   1.250   3.243   8.454 -1.8359  0.6616  2.1537
 3192SOL     OW21211   4.051   1.346   5.913 -0.0697  0.0159  0.4853
 3192SOL    HW121212   3.955   1.340   5.919  0.1492 -1.1093  3.0314
 3192SOL    HW221213   4.073   1.318   6.002 -2.2064  0.4817  1.1737
 3193SOL     OW21214   3.353   2.003  12.903 -0.1707 -0.2739 -0.0406
 3193SOL    HW121215   3.353   1.999  12.999  0.9291  0.9224  0.0056
 3193SOL    HW221216   3.261   1.991  12.884 -0.6370 -2.5586  3.5908
 3194SOL     OW21217   3.291   4.443   7.823  0.8845  0.0012 -0.1677
 3194SOL    HW121218   3.369   4.498   7.825 -0.9872  2.6783 -1.8742
 3194SOL    HW221219   3.237   4.486   7.757 -1.7876  0.6213  2.4132
 3195SOL     OW21220   4.258   3.174   2.057  0.2830 -0.2542  0.2994
 3195SOL    HW121221   4.252   3.244   1.992 -0.8158  0.3354  1.0430
 3195SOL    HW221222   4.170   3.173   2.094  0.1264  1.0640 -0.0392
 3196SOL     OW21223   1.254   1.337   1.686 -0.1115 -0.9857 -0.2973
 3196SOL    HW121224   1.273   1.248   1.716 -1.2258 -0.6833  1.2690
 3196SOL    HW221225   1.252   1.325   1.591 -0.6819 -0.5131 -0.3411
 3197SOL     OW21226   1.596   2.977   8.768  0.6705 -0.9300  0.6169
 3197SOL    HW121227   1.580   2.908   8.832 -1.4845 -0.1360  0.9324
 3197SOL    HW221228   1.519   3.030   8.786  1.5256  0.3962  0.3851
 3198SOL     OW21229   2.642   1.969   3.036 -0.1681  0.1192 -0.2282
 3198SOL    HW121230   2.675   2.028   2.969  0.7939  0.9611  0.9959
 3198SOL    HW221231   2.584   2.016   3.096 -0.3915 -2.2878  1.4422
 3199SOL     OW21232   3.436   1.035   8.328  0.2335 -0.4463  0.6213
 3199SOL    HW121233   3.454   1.098   8.257  0.5717 -0.2917  0.8433
 3199SOL    HW221234   3.418   0.953   8.283  0.9897 -0.0800 -0.3489
 3200SOL     OW21235   3.088   2.410  11.562 -0.4037  0.2743 -0.1635
 3200SOL    HW121236   3.119   2.439  11.648 -1.3678  0.3103  0.1749
 3200SOL    HW221237   3.023   2.476  11.538 -0.5334 -0.7737 -2.7104
 3201SOL     OW21238   2.185   2.864  11.251  0.1367 -0.2241 -0.1785
 3201SOL    HW121239   2.102   2.861  11.299 -0.2699 -1.3915 -0.9784
 3201SOL    HW221240   2.235   2.804  11.305 -0.9304 -1.8083 -0.9599
 3202SOL     OW21241   0.290   3.043   7.888 -0.0365 -0.0255 -0.0152
 3202SOL    HW121242   0.273   3.135   7.909  0.5011 -0.1616  1.0054
 3202SOL    HW221243   0.237   3.040   7.808  0.9194  1.2083 -0.6927
 3203SOL     OW21244   2.481   3.975   4.685 -0.2392 -0.0684 -1.0695
 3203SOL    HW121245   2.479   4.066   4.659 -0.8891  0.3512  0.4234
 3203SOL    HW221246   2.553   3.957   4.624  1.1024 -0.1086  0.4998
 3204SOL     OW21247   0.208   4.645   2.485  0.4140  0.2899 -0.5696
 3204SOL    HW121248   0.213   4.732   2.526 -0.5927  0.2620 -0.3921
 3204SOL    HW221249   0.147   4.601   2.545 -1.3454  0.0884 -2.5160
 3205SOL     OW21250   4.602   2.220   5.116  0.1246 -0.0592 -0.0767
 3205SOL    HW121251   4.606   2.315   5.105 -0.2427  0.0322  0.5984
 3205SOL    HW221252   4.541   2.208   5.188 -1.4959 -0.8719 -1.5667
 3206SOL     OW21253   1.010   0.401   3.643  0.1235 -0.0755 -0.2208
 3206SOL    HW121254   1.010   0.380   3.550 -0.3681  0.5142 -0.3533
 3206SOL    HW221255   1.033   0.494   3.644  1.3149 -0.3939  1.1099
 3207SOL     OW21256   2.416   4.001  16.137  0.3776 -0.4140 -0.5088
 3207SOL    HW121257   2.412   4.066  16.207 -1.0631 -1.4939  0.4134
 3207SOL    HW221258   2.329   4.001  16.097  0.9261 -0.7243 -1.7040
 3208SOL     OW21259   0.349   2.837  17.006  0.4214 -0.6196 -0.0636
 3208SOL    HW121260   0.257   2.819  17.022 -1.0627  4.0705 -3.3518
 3208SOL    HW221261   0.379   2.835  17.096 -0.5550  2.4954  0.3389
 3209SOL     OW21262   2.618   2.569  17.096 -0.6053  0.4631 -0.5074
 3209SOL    HW121263   2.522   2.572  17.088 -0.6170 -2.1602 -1.1454
 3209SOL    HW221264   2.641   2.644  17.041 -0.8537 -0.9501 -2.5448
 3210SOL     OW21265   4.517   0.278   7.382 -0.3647  0.2326  0.0305
 3210SOL    HW121266   4.577   0.345   7.350  2.2672 -3.3031 -2.3858
 3210SOL    HW221267   4.540   0.196   7.337  0.9328  0.5608  0.1108
 3211SOL     OW21268   0.273   2.264   4.594 -0.0081  0.3220  0.6116
 3211SOL    HW121269   0.279   2.234   4.684 -2.0577 -1.5888  0.1177
 3211SOL    HW221270   0.360   2.303   4.587  0.3174 -0.7265 -1.2717
 3212SOL     OW21271   0.827   2.198  10.793  0.1858  0.1897  0.0702
 3212SOL    HW121272   0.879   2.118  10.792  2.0894  1.4291  1.8813
 3212SOL    HW221273   0.783   2.188  10.708  2.6756  1.3266 -1.3580
 3213SOL     OW21274   0.015   0.879   1.719 -0.0533 -0.3398 -0.3440
 3213SOL    HW121275   0.054   0.889   1.632 -0.6500 -0.8335 -0.6711
 3213SOL    HW221276   4.686   0.809   1.702  3.3519 -4.2671  3.3034
 3214SOL     OW21277   1.299   4.149   9.252 -0.3572 -0.2174  0.1360
 3214SOL    HW121278   1.311   4.190   9.166  0.8843 -0.0601  0.3806
 3214SOL    HW221279   1.373   4.190   9.297 -1.1020 -1.4808  2.5046
 3215SOL     OW21280   1.467   4.074   6.690 -0.1216  0.2748  0.3535
 3215SOL    HW121281   1.539   4.110   6.742  0.6894  0.6512 -1.0400
 3215SOL    HW221282   1.390   4.104   6.739 -0.1404  0.6479  0.0958
 3216SOL     OW21283   0.891   2.074   0.260  0.5066 -0.5296  0.3857
 3216SOL    HW121284   0.840   2.072   0.341  1.2017 -1.6832  0.8010
 3216SOL    HW221285   0.885   1.980   0.239 -0.5274 -0.7239  1.5580
 3217SOL     OW21286   1.551   4.520   6.968 -0.3246 -0.0759  0.0922
 3217SOL    HW121287   1.489   4.581   7.009 -0.8798 -0.5696 -0.0246
 3217SOL    HW221288   1.535   4.447   7.028 -0.2937  0.3888  0.6745
 3218SOL     OW21289   4.005   3.468   3.185 -0.4210 -0.0181 -0.2571
 3218SOL    HW121290   3.950   3.533   3.228 -0.0996 -0.4676  0.8317
 3218SOL    HW221291   4.045   3.430   3.263  1.1884 -0.3284 -1.2266
 3219SOL     OW21292   4.044   0.242   6.194 -0.4277  0.2895  0.0308
 3219SOL    HW121293   4.087   0.289   6.266  1.2862 -1.3089  0.0528
 3219SOL    HW221294   4.115   0.188   6.158 -1.1876  1.4240 -3.1793
 3220SOL     OW21295   3.631   1.547  16.970  0.7084 -0.1645  0.0991
 3220SOL    HW121296   3.716   1.583  16.995  0.1900  1.4285 -0.3766
 3220SOL    HW221297   3.570   1.576  17.038 -1.7271 -1.3318 -1.5581
 3221SOL     OW21298   1.780   0.344  11.574  0.1214 -0.2722 -0.3006
 3221SOL    HW121299   1.841   0.318  11.643  1.9661 -0.3795 -1.9672
 3221SOL    HW221300   1.744   0.427  11.604  3.6564  1.4024 -0.6915
 3222SOL     OW21301   3.505   1.749   3.999  0.2589 -0.6684 -0.3356
 3222SOL    HW121302   3.489   1.801   3.921  2.3555  1.0740  0.4191
 3222SOL    HW221303   3.601   1.743   4.003  0.4367  1.4025 -1.8285
 3223SOL     OW21304   3.852   4.347  10.807  0.2302  0.3537  0.4872
 3223SOL    HW121305   3.912   4.273  10.817  0.4677  0.5202  0.3005
 3223SOL    HW221306   3.848   4.389  10.893 -0.5580  0.1830  0.5297
 3224SOL     OW21307   4.004   3.137   4.825  0.0674 -0.3379  0.0608
 3224SOL    HW121308   4.014   3.157   4.732  1.5310 -0.6298  0.1627
 3224SOL    HW221309   3.994   3.222   4.868  3.1518 -0.8963  1.8142
 3225SOL     OW21310   2.594   1.131   9.127 -0.3527  0.6053 -0.1432
 3225SOL    HW121311   2.645   1.064   9.171 -1.8594  1.3835  2.7534
 3225SOL    HW221312   2.525   1.079   9.084 -2.1855 -0.2264  3.8261
 3226SOL     OW21313   1.774   0.222  17.189 -0.0971  0.1403  0.7071
 3226SOL    HW121314   1.852   0.214  17.135 -0.1651  0.0109  0.6288
 3226SOL    HW221315   1.825   0.245  17.266  0.9953 -3.1317  0.9664
 3227SOL     OW21316   4.108   4.534   6.616 -0.2087  0.6108  0.1742
 3227SOL    HW121317   4.019   4.499   6.618 -0.4226  1.2726  2.1343
 3227SOL    HW221318   4.099   4.616   6.568 -1.6148  0.6396  0.4936
 3228SOL     OW21319   0.211   1.444  15.763  0.0976  0.5321 -0.2319
 3228SOL    HW121320   0.128   1.402  15.788  0.6332  0.1661  0.9463
 3228SOL    HW221321   0.182   1.534  15.750 -2.7422 -0.0670  1.7952
 3229SOL     OW21322   1.973   4.545   5.029 -0.3727 -0.2766  0.7629
 3229SOL    HW121323   1.946   4.593   4.951  1.4429 -1.5523 -0.6399
 3229SOL    HW221324   1.977   4.456   4.993  1.1220 -0.1771  0.7065
 3230SOL     OW21325   2.542   1.850   3.403 -0.0676  0.2600  0.1478
 3230SOL    HW121326   2.449   1.839   3.381  0.0439 -3.4799  1.4854
 3230SOL    HW221327   2.543   1.934   3.448 -1.9241 -1.1387  2.8293
 3231SOL     OW21328   3.446   3.360   2.153 -0.3510 -0.6540 -0.2345
 3231SOL    HW121329   3.383   3.369   2.224 -0.4800  0.4554 -0.4869
 3231SOL    HW221330   3.437   3.266   2.142 -0.0368 -0.8456  1.1463
 3232SOL     OW21331   3.625   3.699   4.582 -0.3937  0.0277 -0.0784
 3232SOL    HW121332   3.612   3.767   4.648 -0.9469  0.6132 -0.7883
 3232SOL    HW221333   3.673   3.633   4.632 -0.0077 -0.3230 -0.9182
 3233SOL     OW21334   1.719   1.887   7.627  0.4171 -0.6263 -0.1330
 3233SOL    HW121335   1.691   1.798   7.604 -0.9329 -0.1240 -0.4483
 3233SOL    HW221336   1.737   1.892   7.721  0.9712 -1.8184 -0.1786
 3234SOL     OW21337   0.313   3.476   9.739 -0.1635 -0.5019 -0.7646
 3234SOL    HW121338   0.245   3.457   9.804 -0.1960 -0.7225 -0.8604
 3234SOL    HW221339   0.381   3.413   9.766  0.2286 -0.0815 -0.7803
 3235SOL     OW21340   1.626   4.717   6.583  0.1361  0.4924 -0.0378
 3235SOL    HW121341   1.686   0.044   6.626 -0.3804  0.7646  0.2926
 3235SOL    HW221342   1.555   4.716   6.646  1.5880 -2.2038  1.5713
 3236SOL     OW21343   1.776   3.509   7.446 -0.2212  0.0921  0.3978
 3236SOL    HW121344   1.835   3.485   7.374  0.0498 -2.3406  1.4342
 3236SOL    HW221345   1.838   3.547   7.508 -2.6587  0.2371  2.7083
 3237SOL     OW21346   3.531   4.358  14.373 -0.1328 -0.6257 -0.0875
 3237SOL    HW121347   3.486   4.433  14.335 -1.1531 -0.7586  0.8727
 3237SOL    HW221348   3.496   4.296  14.308 -0.1000  1.8710 -2.4937
 3238SOL     OW21349   0.671   2.960   0.789  0.2374 -0.2244  0.5535
 3238SOL    HW121350   0.681   2.868   0.811  2.2346  0.6039  3.1603
 3238SOL    HW221351   0.735   2.957   0.719 -1.4994  3.1300 -1.1947
 3239SOL     OW21352   0.426   2.685   2.395 -0.2082 -0.7780  0.0709
 3239SOL    HW121353   0.510   2.730   2.382  0.0062 -0.5719  2.2263
 3239SOL    HW221354   0.453   2.594   2.395  3.0653  0.1861  0.0200
 3240SOL     OW21355   3.918   1.429   0.713  1.0752  0.1158 -0.1756
 3240SOL    HW121356   3.836   1.437   0.762  1.9264 -1.2132  1.4396
 3240SOL    HW221357   3.946   1.338   0.720  0.8220  0.0628  0.1588
 3241SOL     OW21358   0.574   4.165   8.256 -0.2811  0.8280 -0.4700
 3241SOL    HW121359   0.591   4.196   8.167 -2.0833  1.5493 -0.5596
 3241SOL    HW221360   0.641   4.097   8.260 -1.0349 -0.0615 -2.5518
 3242SOL     OW21361   3.705   2.855   8.210 -0.1259 -0.1495  0.9117
 3242SOL    HW121362   3.640   2.840   8.279  0.7721 -0.7716  1.6145
 3242SOL    HW221363   3.678   2.789   8.146  1.3241  0.9198 -0.7914
 3243SOL     OW21364   0.279   4.017   1.333  0.4299  0.0591 -0.2901
 3243SOL    HW121365   0.318   3.930   1.335  2.4345  0.9433 -0.6823
 3243SOL    HW221366   0.273   4.043   1.425 -0.5617 -0.9707 -0.0565
 3244SOL     OW21367   1.157   4.456   8.509 -0.0996  0.2480  0.2302
 3244SOL    HW121368   1.218   4.482   8.441 -0.3817  0.0712 -0.0888
 3244SOL    HW221369   1.082   4.428   8.456 -0.6776  1.3474  0.4721
 3245SOL     OW21370   0.931   0.960   3.377  0.6894 -0.6228 -0.5779
 3245SOL    HW121371   0.893   0.880   3.343 -2.7975  0.5977  0.4847
 3245SOL    HW221372   1.023   0.935   3.389  0.5090 -0.4287  1.2926
 3246SOL     OW21373   0.585   3.797   1.747 -0.5037  0.6034 -0.1826
 3246SOL    HW121374   0.543   3.757   1.824 -0.9595 -0.1908 -0.8457
 3246SOL    HW221375   0.584   3.718   1.693 -2.8511  0.5095 -0.0196
 3247SOL     OW21376   0.253   2.765   1.884  0.5195 -0.1081  0.2300
 3247SOL    HW121377   0.194   2.797   1.815  1.1134  2.4324  0.8896
 3247SOL    HW221378   0.289   2.846   1.921 -0.5934  0.3764  0.2646
 3248SOL     OW21379   3.603   0.514  15.053  0.1648  0.2565  0.3643
 3248SOL    HW121380   3.652   0.432  15.053  2.1430  1.4398 -0.2179
 3248SOL    HW221381   3.567   0.528  15.140 -3.0796  2.1746 -1.2751
 3249SOL     OW21382   0.025   4.174   3.596  0.2399 -0.3890 -0.1642
 3249SOL    HW121383   4.693   4.126   3.547 -0.4989 -0.4649  0.9032
 3249SOL    HW221384   0.094   4.173   3.530  0.2233 -1.7318 -0.1566
 3250SOL     OW21385   0.060   4.243   1.623  0.3978  0.3360  0.0446
 3250SOL    HW121386   0.071   4.336   1.600 -0.6392  0.2690 -0.7217
 3250SOL    HW221387   4.710   4.222   1.584 -0.9082  0.4746  2.8242
 3251SOL     OW21388   2.226   1.284  16.613 -0.3372  0.0743 -0.8269
 3251SOL    HW121389   2.284   1.215  16.582 -1.4090 -1.3829  0.3661
 3251SOL    HW221390   2.268   1.361  16.575 -0.3716 -0.5855 -2.1716
 3252SOL     OW21391   0.751   2.433   9.191 -0.6775  0.0335 -0.0952
 3252SOL    HW121392   0.765   2.485   9.270 -0.7371 -0.9129  0.5363
 3252SOL    HW221393   0.726   2.348   9.228 -0.4940 -0.6058 -1.4253
 3253SOL     OW21394   0.947   4.635   7.028  0.4512 -0.2235 -0.2845
 3253SOL    HW121395   0.932   4.727   7.004 -0.2974 -0.1260  0.5770
 3253SOL    HW221396   0.858   4.610   7.005  0.6084  1.0093 -2.2884
 3254SOL     OW21397   1.041   2.208   2.088  0.0731 -0.6767  0.0979
 3254SOL    HW121398   1.110   2.275   2.083 -0.0769 -0.4254  1.4592
 3254SOL    HW221399   1.052   2.171   2.000  1.8910 -0.2191  0.1250
 3255SOL     OW21400   2.025   1.650   4.697 -0.1139  0.2372  0.2058
 3255SOL    HW121401   1.955   1.609   4.646  0.1185  1.8913 -1.4712
 3255SOL    HW221402   2.098   1.597   4.665  2.4061  2.4670  2.1845
 3256SOL     OW21403   3.061   3.457   9.358  0.5856 -0.4566  0.1231
 3256SOL    HW121404   3.067   3.400   9.435  2.4933 -0.8741 -0.3324
 3256SOL    HW221405   2.975   3.426   9.332  0.8061  0.4092 -1.6303
 3257SOL     OW21406   4.374   1.294   7.364 -0.5159  0.4174 -0.3991
 3257SOL    HW121407   4.395   1.387   7.355 -2.5373  0.8459 -0.7784
 3257SOL    HW221408   4.363   1.280   7.270  2.0382  0.9722 -0.7902
 3258SOL     OW21409   1.237   1.121  11.810 -0.0504  0.4366 -0.0943
 3258SOL    HW121410   1.261   1.198  11.758  0.6832 -0.8233 -1.6461
 3258SOL    HW221411   1.293   1.050  11.779  0.5652  0.6053  0.6275
 3259SOL     OW21412   2.625   1.968   5.382  0.2047 -0.2260  0.6592
 3259SOL    HW121413   2.677   2.031   5.332  0.7763 -2.1235 -1.1207
 3259SOL    HW221414   2.557   1.954   5.316 -1.4216  3.0762  1.6286
 3260SOL     OW21415   0.792   3.276   6.098  1.1114  0.3720  0.4824
 3260SOL    HW121416   0.747   3.255   6.179  1.6520 -0.4935  0.5609
 3260SOL    HW221417   0.776   3.199   6.043 -2.6619  0.4085  1.4999
 3261SOL     OW21418   4.322   2.031   5.101 -0.2421 -0.0870 -0.1665
 3261SOL    HW121419   4.264   2.106   5.113  0.0821  0.2971 -0.9633
 3261SOL    HW221420   4.356   2.012   5.188  0.0213 -0.8265 -0.4278
 3262SOL     OW21421   3.332   3.958   6.344  0.3335  0.0726 -0.3878
 3262SOL    HW121422   3.393   4.027   6.318 -0.4405  0.6233 -0.7007
 3262SOL    HW221423   3.391   3.882   6.345 -0.8255 -0.8058  1.1835
 3263SOL     OW21424   4.368   1.230   9.982  0.2070  0.2159 -0.5309
 3263SOL    HW121425   4.400   1.314  10.016  0.1489 -0.2614  0.6835
 3263SOL    HW221426   4.381   1.235   9.887 -2.2331 -0.2349 -0.8798
 3264SOL     OW21427   4.265   0.775   5.774 -0.2822  0.0731  0.2419
 3264SOL    HW121428   4.302   0.861   5.755 -0.2932  0.0413  0.0789
 3264SOL    HW221429   4.176   0.795   5.802 -0.8718 -2.0754 -0.1109
 3265SOL     OW21430   4.018   3.723   4.466  0.0967  0.6241  0.3681
 3265SOL    HW121431   4.049   3.703   4.554 -0.9891 -0.9777  0.3791
 3265SOL    HW221432   4.021   3.633   4.433 -0.4622  1.3562 -1.6962
 3266SOL     OW21433   3.071   1.212  11.601  0.4497 -0.8163 -0.0307
 3266SOL    HW121434   3.140   1.146  11.604  0.6492 -0.5725  0.7448
 3266SOL    HW221435   3.014   1.181  11.530  1.1991 -0.2892 -0.8528
 3267SOL     OW21436   0.777   3.425   3.391  0.5580 -0.2519 -0.3317
 3267SOL    HW121437   0.705   3.400   3.333 -0.2427 -1.1003  1.0271
 3267SOL    HW221438   0.857   3.413   3.340  0.4251  0.7353 -0.7740
 3268SOL     OW21439   3.511   3.968   0.263  0.9089 -0.2974  0.2000
 3268SOL    HW121440   3.453   3.906   0.217  1.2619 -0.2245 -0.3482
 3268SOL    HW221441   3.445   4.033   0.285  1.6699 -0.0767  1.7949
 3269SOL     OW21442   2.576   1.333   4.834 -0.1910  0.4455 -0.3480
 3269SOL    HW121443   2.657   1.337   4.783 -1.0562  2.1722 -1.5556
 3269SOL    HW221444   2.527   1.272   4.778  0.0154  1.2031 -1.3457
 3270SOL     OW21445   1.671   3.359  13.388  0.2643  0.1673  0.3959
 3270SOL    HW121446   1.701   3.316  13.468  1.6796  3.9156  1.9093
 3270SOL    HW221447   1.592   3.405  13.418  0.5731  1.1136 -0.2322
 3271SOL     OW21448   2.157   1.151   5.784 -0.1543  0.2947  0.0505
 3271SOL    HW121449   2.181   1.239   5.756  0.9147 -0.1133 -0.2866
 3271SOL    HW221450   2.064   1.141   5.765 -0.8787  2.1513  2.5352
 3272SOL     OW21451   0.456   1.587   1.121  0.0911  0.0626  0.0281
 3272SOL    HW121452   0.529   1.649   1.123 -0.5962  0.9013 -1.2294
 3272SOL    HW221453   0.391   1.617   1.057 -0.9093  0.9708  1.4787
 3273SOL     OW21454   3.037   3.894  11.431 -0.2360  0.0470  0.0652
 3273SOL    HW121455   3.118   3.876  11.383 -0.6256 -2.7951  0.4650
 3273SOL    HW221456   2.993   3.810  11.418  0.1445 -0.3147  1.1563
 3274SOL     OW21457   4.513   1.347   4.912  0.4011  0.6700 -0.0755
 3274SOL    HW121458   4.568   1.366   4.836  0.5578  1.5122  0.2478
 3274SOL    HW221459   4.584   1.313   4.965 -0.0728  1.0061  0.7832
 3275SOL     OW21460   2.859   2.033   1.670 -0.0239  0.5607  0.1014
 3275SOL    HW121461   2.900   1.973   1.609  2.0730  0.3045  1.7863
 3275SOL    HW221462   2.887   1.987   1.748  1.4175 -0.5721 -1.0922
 3276SOL     OW21463   1.308   1.217   9.657  0.1243  0.0938  0.2784
 3276SOL    HW121464   1.320   1.126   9.686  0.6833  0.0643 -0.0457
 3276SOL    HW221465   1.398   1.248   9.644 -0.5113 -0.3193 -5.1515
 3277SOL     OW21466   0.643   2.622   8.813 -0.2380  0.7308 -0.5147
 3277SOL    HW121467   0.717   2.565   8.789 -0.4135 -0.1216  0.9394
 3277SOL    HW221468   0.578   2.556   8.790  1.7775 -1.8114  1.0367
 3278SOL     OW21469   3.570   0.065   9.428  0.3471  0.0767 -0.0889
 3278SOL    HW121470   3.641   0.001   9.434  2.9521  2.7397 -2.3025
 3278SOL    HW221471   3.592   0.089   9.338 -0.6039  2.4432  0.3299
 3279SOL     OW21472   1.310   1.095   8.659 -0.1915  0.1681 -0.1999
 3279SOL    HW121473   1.382   1.139   8.705 -0.6266  0.2512  0.4001
 3279SOL    HW221474   1.239   1.158   8.668  0.2260  0.6027  0.0407
 3280SOL     OW21475   4.462   0.656   7.919 -0.2889  0.0648  0.1845
 3280SOL    HW121476   4.370   0.677   7.905  0.4311  1.1428 -2.7989
 3280SOL    HW221477   4.485   0.736   7.966 -3.7870  1.6404 -0.7942
 3281SOL     OW21478   4.250   0.252   9.522 -0.1479 -0.1985  0.2032
 3281SOL    HW121479   4.272   0.249   9.615  2.4739 -2.5485 -0.4989
 3281SOL    HW221480   4.177   0.190   9.524  0.6011 -1.1025 -0.3986
 3282SOL     OW21481   2.720   3.077   3.121  0.1338  0.4289 -0.3691
 3282SOL    HW121482   2.731   3.039   3.209 -0.3604  0.7801 -0.1546
 3282SOL    HW221483   2.631   3.053   3.096 -0.1297 -1.7171  2.5758
 3283SOL     OW21484   2.594   1.017   0.102 -0.3540 -0.0305  0.0169
 3283SOL    HW121485   2.564   1.032   0.192 -0.1344 -1.5898  0.3530
 3283SOL    HW221486   2.566   1.098   0.060 -2.7657 -1.1131 -0.4396
 3284SOL     OW21487   0.370   4.611   4.604 -0.0315  0.4074  0.2227
 3284SOL    HW121488   0.409   4.689   4.644 -1.3173  1.0097  0.3314
 3284SOL    HW221489   0.340   4.648   4.521  0.4543  0.5945  0.1298
 3285SOL     OW21490   0.211   2.603   3.140  0.0657  0.2240  0.0980
 3285SOL    HW121491   0.125   2.615   3.179  0.0857  3.1217 -0.7691
 3285SOL    HW221492   0.184   2.552   3.064  1.5488  2.0281 -1.6660
 3286SOL     OW21493   3.871   1.387   2.986  0.1546 -0.3579  0.1909
 3286SOL    HW121494   3.957   1.349   2.970  0.3049  0.0167  0.1018
 3286SOL    HW221495   3.892   1.447   3.058 -0.5719  1.7947 -1.3768
 3287SOL     OW21496   2.672   1.979   8.829 -0.4221  0.1702 -0.4771
 3287SOL    HW121497   2.665   1.888   8.859 -0.0983  0.6611  1.0714
 3287SOL    HW221498   2.581   2.003   8.809 -0.8714 -0.9413  0.1827
 3288SOL     OW21499   0.929   2.811   3.225 -1.0289 -0.6169 -0.5039
 3288SOL    HW121500   0.887   2.851   3.302 -0.1532 -2.2613  0.8413
 3288SOL    HW221501   0.860   2.819   3.160 -1.7874  0.5862  0.4481
 3289SOL     OW21502   4.376   4.035   8.756 -0.4849  0.3024  0.3680
 3289SOL    HW121503   4.294   4.050   8.803 -0.0915  1.3046  0.7511
 3289SOL    HW221504   4.440   4.096   8.794 -1.9289  1.9400  0.1865
 3290SOL     OW21505   3.107   3.820   2.292  0.4665 -0.3183 -0.5291
 3290SOL    HW121506   3.055   3.746   2.261 -2.4120  1.9620 -1.1182
 3290SOL    HW221507   3.190   3.806   2.245  0.4474 -0.4243 -0.5320
 3291SOL     OW21508   4.190   1.580   5.883  0.1465  0.0540  0.1158
 3291SOL    HW121509   4.139   1.641   5.936 -1.9764  0.9679 -3.0325
 3291SOL    HW221510   4.140   1.500   5.898 -0.3621  0.6998  1.8952
 3292SOL     OW21511   1.813   3.787   1.667 -0.5612  0.1866  0.1789
 3292SOL    HW121512   1.898   3.744   1.656 -0.2508  0.2339  2.4254
 3292SOL    HW221513   1.818   3.865   1.612 -3.0613 -0.3362 -0.8119
 3293SOL     OW21514   3.656   2.089   7.106  0.2091 -0.2188 -0.4398
 3293SOL    HW121515   3.719   2.093   7.034 -0.3526  1.1624 -0.8644
 3293SOL    HW221516   3.697   2.046   7.181 -1.8223 -1.8301 -0.2259
 3294SOL     OW21517   0.386   1.145  14.999 -0.0921  0.0275  0.5164
 3294SOL    HW121518   0.380   1.140  14.904  2.7176 -0.0760  0.3434
 3294SOL    HW221519   0.478   1.121  15.014  0.3964  0.7045 -1.4563
 3295SOL     OW21520   2.726   1.864  10.146  0.5428  0.0296  0.1050
 3295SOL    HW121521   2.744   1.786  10.094 -2.8018 -1.7218  1.5887
 3295SOL    HW221522   2.812   1.878  10.186  0.3044  0.6215  0.4222
 3296SOL     OW21523   3.298   4.708  14.817  0.1755 -0.2297  0.2379
 3296SOL    HW121524   3.339   4.683  14.900  0.2141  0.4081  0.4109
 3296SOL    HW221525   3.313   4.627  14.768  1.6521 -0.2551  0.7320
 3297SOL     OW21526   3.728   0.215   6.437  0.1178  0.1685 -0.3469
 3297SOL    HW121527   3.694   0.143   6.491  0.7419  0.4725  0.4523
 3297SOL    HW221528   3.685   0.216   6.352 -0.0117 -0.2445 -0.2847
 3298SOL     OW21529   2.270   3.756   6.836  0.0129 -0.3218 -0.0815
 3298SOL    HW121530   2.309   3.805   6.764 -1.6557  1.3746  0.1700
 3298SOL    HW221531   2.250   3.824   6.900 -0.4124 -0.3630 -0.1673
 3299SOL     OW21532   2.894   1.873  14.846  0.3835  0.0008 -0.5587
 3299SOL    HW121533   2.813   1.915  14.816  1.2911  2.3075  0.2146
 3299SOL    HW221534   2.939   1.854  14.764 -0.4184 -1.4095 -0.6711
 3300SOL     OW21535   1.578   2.237   3.417  0.5488 -0.3896  0.5633
 3300SOL    HW121536   1.670   2.234   3.389 -0.1977 -0.5781 -1.8589
 3300SOL    HW221537   1.535   2.263   3.336 -0.0664 -1.7129  0.4667
 3301SOL     OW21538   3.965   3.737   9.250 -0.2620 -0.4042 -0.1068
 3301SOL    HW121539   3.892   3.676   9.238 -2.1346  1.7699  0.3021
 3301SOL    HW221540   3.966   3.762   9.157  0.6092 -3.6820 -0.9779
 3302SOL     OW21541   1.025   0.085   8.345 -0.5827 -0.1158  0.0962
 3302SOL    HW121542   1.113   0.105   8.315 -0.0250 -0.8992  1.1861
 3302SOL    HW221543   1.017   0.144   8.420 -1.8868 -1.9107  1.3754
 3303SOL     OW21544   0.935   4.047   3.665 -0.3336  0.3493 -0.0828
 3303SOL    HW121545   0.901   4.051   3.576 -1.6136  0.9808  0.4328
 3303SOL    HW221546   0.989   4.125   3.682 -0.5275  0.5506 -0.3949
 3304SOL     OW21547   4.683   0.142   2.080  0.7687 -0.4012 -0.5617
 3304SOL    HW121548   4.627   0.068   2.057 -0.5730  0.5290 -0.2583
 3304SOL    HW221549   4.631   0.213   2.116  0.4805 -1.7512  1.6709
 3305SOL     OW21550   3.533   0.903  12.925 -0.6304  0.0719  0.0240
 3305SOL    HW121551   3.522   0.811  12.900 -2.5437  0.2929  0.0403
 3305SOL    HW221552   3.558   0.901  13.017 -1.4294  2.8770  0.3042
 3306SOL     OW21553   3.179   3.532  10.954  0.1027 -0.1824  0.0014
 3306SOL    HW121554   3.181   3.605  11.016  4.5044  1.1508 -1.7937
 3306SOL    HW221555   3.143   3.570  10.874 -0.5253 -0.7862 -0.0080
 3307SOL     OW21556   1.622   3.547   3.581 -0.3607  0.1781  0.4388
 3307SOL    HW121557   1.630   3.596   3.663 -0.0092  0.2102  0.3831
 3307SOL    HW221558   1.584   3.621   3.534 -1.4828 -1.0462 -0.5680
 3308SOL     OW21559   1.417   2.908  10.986 -1.0376 -0.5387 -0.4767
 3308SOL    HW121560   1.424   3.001  10.969  3.1288 -0.7000  0.2561
 3308SOL    HW221561   1.454   2.879  10.903 -0.9976 -1.0456 -0.2842
 3309SOL     OW21562   1.113   0.691   6.185  0.8620  0.3683  0.2780
 3309SOL    HW121563   1.029   0.708   6.141  0.6130 -0.5843  0.3849
 3309SOL    HW221564   1.171   0.674   6.111  0.4419 -1.0164  0.2675
 3310SOL     OW21565   3.612   2.537  15.169  0.4634  0.4183  0.1432
 3310SOL    HW121566   3.646   2.585  15.244  1.5228 -1.2893  0.7639
 3310SOL    HW221567   3.692   2.537  15.117 -0.8404 -0.5165 -1.8710
 3311SOL     OW21568   4.392   2.092   3.295  0.6418  0.1814 -0.3511
 3311SOL    HW121569   4.443   2.163   3.333 -2.0301  1.9301 -0.0380
 3311SOL    HW221570   4.310   2.083   3.344  0.5471  1.4831 -0.2568
 3312SOL     OW21571   1.286   1.345  11.684  0.4829 -0.4200 -0.3774
 3312SOL    HW121572   1.230   1.420  11.661  2.8581  2.1102  2.0338
 3312SOL    HW221573   1.335   1.393  11.751 -0.9076 -0.3886  0.5913
 3313SOL     OW21574   1.324   3.627   1.991  0.1278 -0.0380 -0.1701
 3313SOL    HW121575   1.390   3.632   1.921  0.4903  2.1178  0.3312
 3313SOL    HW221576   1.252   3.681   1.959 -0.5707 -0.2021  1.1261
 3314SOL     OW21577   0.085   0.999   8.538  0.4775  1.1546 -0.0246
 3314SOL    HW121578   0.032   1.063   8.489  0.4994  1.7082  0.6696
 3314SOL    HW221579   0.153   0.969   8.477 -0.3276 -0.5912 -0.0664
 3315SOL     OW21580   1.453   2.898  14.985 -0.6127  0.1446  0.3927
 3315SOL    HW121581   1.453   2.809  15.019 -2.2420  1.8529  4.8407
 3315SOL    HW221582   1.537   2.926  15.022 -0.8200  1.4328 -0.0908
 3316SOL     OW21583   4.015   4.604  16.211  0.1032 -0.3575 -0.0566
 3316SOL    HW121584   3.981   4.621  16.123  2.9232  0.4487 -1.0066
 3316SOL    HW221585   3.931   4.585  16.253 -0.3877  1.4295 -0.2232
 3317SOL     OW21586   4.491   3.358  13.515  0.5097 -0.1094  0.4167
 3317SOL    HW121587   4.495   3.449  13.545 -2.6380  0.1116  0.0997
 3317SOL    HW221588   4.544   3.367  13.435  0.7622 -1.2758  0.4515
 3318SOL     OW21589   3.362   0.615   3.706  0.7316 -0.2746  0.3242
 3318SOL    HW121590   3.347   0.680   3.637 -0.0757  2.1140  2.7171
 3318SOL    HW221591   3.409   0.546   3.660 -1.9684 -1.5081 -0.5458
 3319SOL     OW21592   1.901   0.474   1.589  0.2773  0.0131  0.1509
 3319SOL    HW121593   1.897   0.478   1.685  0.4323 -1.0410  0.2028
 3319SOL    HW221594   1.901   0.569   1.576  1.1238  0.1037  0.7915
 3320SOL     OW21595   2.461   2.892   8.973  0.1063 -0.0153 -0.7705
 3320SOL    HW121596   2.381   2.888   8.920 -0.3621  1.0449 -0.1721
 3320SOL    HW221597   2.419   2.873   9.057  2.1366 -0.3175  0.1505
 3321SOL     OW21598   1.934   2.591   6.299  0.8293  0.1321  0.1400
 3321SOL    HW121599   1.838   2.585   6.295  1.0397 -1.0534 -3.0936
 3321SOL    HW221600   1.944   2.506   6.342  1.1512 -0.2116 -0.6156
 3322SOL     OW21601   2.298   3.493   3.008  0.0186  0.5396  0.0615
 3322SOL    HW121602   2.278   3.410   2.964  0.5053  0.7273 -0.5100
 3322SOL    HW221603   2.302   3.466   3.100  2.6982  1.2931  0.1423
 3323SOL     OW21604   0.592   2.712   8.267 -0.1844  0.2881 -0.3731
 3323SOL    HW121605   0.639   2.712   8.184  0.2005 -2.0806 -0.1400
 3323SOL    HW221606   0.668   2.726   8.324 -0.9983  1.2308  0.4765
 3324SOL     OW21607   4.556   3.704   6.111 -0.4994  0.0733  0.0118
 3324SOL    HW121608   4.641   3.676   6.077 -0.6687 -0.1242 -0.2459
 3324SOL    HW221609   4.565   3.680   6.204  0.8781  1.1196  0.1619
 3325SOL     OW21610   3.701   3.014   8.879 -0.1831 -0.2463  0.0540
 3325SOL    HW121611   3.728   2.979   8.965  0.5209 -2.6082 -1.1129
 3325SOL    HW221612   3.677   3.104   8.901  0.0494  0.1349 -1.3089
 3326SOL     OW21613   1.934   0.395   6.692 -0.0697 -0.3293 -0.0348
 3326SOL    HW121614   2.025   0.382   6.718  0.9458  2.2423 -2.3526
 3326SOL    HW221615   1.943   0.433   6.605 -2.3150  1.6360  0.5728
 3327SOL     OW21616   0.004   0.439   7.375  0.0827  0.6574 -0.2794
 3327SOL    HW121617   4.700   0.496   7.441  0.4428 -1.8978  2.1453
 3327SOL    HW221618   0.090   0.449   7.416 -0.0375 -0.1580  0.1828
 3328SOL     OW21619   1.041   3.515   8.268 -0.4399 -0.2409 -0.5799
 3328SOL    HW121620   1.101   3.573   8.316  0.6847 -2.6922  1.0270
 3328SOL    HW221621   0.960   3.556   8.298 -0.9263 -1.2352 -0.5473
 3329SOL     OW21622   2.356   3.431   3.252 -0.4675 -0.2765  0.1958
 3329SOL    HW121623   2.372   3.485   3.330  2.3847 -0.3590 -0.3478
 3329SOL    HW221624   2.391   3.346   3.278 -0.5898 -1.1566 -2.5355
 3330SOL     OW21625   0.342   4.276   1.707  0.1683  0.1415  0.1681
 3330SOL    HW121626   0.251   4.260   1.680  0.1841  3.1772 -1.6814
 3330SOL    HW221627   0.369   4.192   1.744  1.5518 -0.6285 -2.6153
 3331SOL     OW21628   3.561   0.943  11.966  0.3130  0.7140 -1.1559
 3331SOL    HW121629   3.532   0.892  12.041  0.7176  1.7624 -0.2833
 3331SOL    HW221630   3.517   1.028  11.975  0.5836  0.8851 -1.4621
 3332SOL     OW21631   1.291   0.090   8.211  0.6891  0.4222 -0.1687
 3332SOL    HW121632   1.314   0.015   8.155  1.9053  0.4925  0.2347
 3332SOL    HW221633   1.319   0.156   8.148  1.4887 -0.8965 -1.2174
 3333SOL     OW21634   1.590   0.692   5.657 -0.1632  0.1460 -0.1072
 3333SOL    HW121635   1.569   0.599   5.655 -1.1791  0.4458 -3.0404
 3333SOL    HW221636   1.523   0.741   5.609  0.9515  0.4730 -1.3123
 3334SOL     OW21637   0.127   4.265  12.424  0.4294  0.0233 -0.5419
 3334SOL    HW121638   0.045   4.228  12.456  0.8584 -1.1678 -0.8094
 3334SOL    HW221639   0.079   4.332  12.376 -1.3008 -0.9028 -0.1258
 3335SOL     OW21640   3.369   3.613   2.109 -0.0802  0.1286  0.7804
 3335SOL    HW121641   3.381   3.519   2.117  0.6992  0.2484  1.0482
 3335SOL    HW221642   3.382   3.640   2.200 -1.2927  0.2102  0.9280
 3336SOL     OW21643   1.318   2.519   4.974  0.0699 -0.3081 -0.6754
 3336SOL    HW121644   1.367   2.602   4.972  0.0793 -0.2069  3.4516
 3336SOL    HW221645   1.230   2.554   4.985  0.2389  0.1427 -0.7201
 3337SOL     OW21646   1.598   0.530   6.825  0.5311  0.1602  0.3834
 3337SOL    HW121647   1.575   0.468   6.755 -2.1714  1.5966  0.0304
 3337SOL    HW221648   1.529   0.590   6.799 -0.8574 -2.2299 -1.5069
 3338SOL     OW21649   3.872   1.778  11.376  0.7222 -0.1114  0.3590
 3338SOL    HW121650   3.817   1.738  11.309 -1.1032  1.3407  0.9982
 3338SOL    HW221651   3.950   1.730  11.347  0.7635  1.1751 -1.6179
 3339SOL     OW21652   3.192   3.920   5.368 -0.1360  0.2302  0.5959
 3339SOL    HW121653   3.243   3.840   5.360  0.3242  0.5170  0.6424
 3339SOL    HW221654   3.107   3.896   5.404  0.7525 -1.7585  1.3267
 3340SOL     OW21655   0.630   0.141  13.964  0.4005 -0.2922  0.1233
 3340SOL    HW121656   0.599   0.085  14.035  0.1528  2.1272  1.9090
 3340SOL    HW221657   0.660   0.219  14.010 -0.6106  0.2208 -0.0795
 3341SOL     OW21658   0.176   3.762   9.380 -0.9289  0.2422 -0.0630
 3341SOL    HW121659   0.174   3.773   9.475 -3.0725 -0.9816  0.0495
 3341SOL    HW221660   0.257   3.715   9.362 -0.0834  2.3370 -1.7325
 3342SOL     OW21661   3.775   1.703   7.051 -0.1366  0.1588 -0.3071
 3342SOL    HW121662   3.839   1.753   7.102  1.4044 -1.5452 -0.5555
 3342SOL    HW221663   3.788   1.612   7.076  2.6435 -0.0696 -2.6730
 3343SOL     OW21664   0.955   2.527   7.740 -0.4611 -0.1347 -0.6732
 3343SOL    HW121665   0.969   2.466   7.667 -3.0708 -0.2304 -1.0968
 3343SOL    HW221666   1.036   2.576   7.750  0.8187 -2.4491  0.4107
 3344SOL     OW21667   2.127   3.737  14.129  0.3356  0.2450 -0.5658
 3344SOL    HW121668   2.184   3.806  14.162  0.7324 -0.2803 -0.1534
 3344SOL    HW221669   2.197   3.677  14.104 -0.9625 -1.8958  0.9568
 3345SOL     OW21670   3.054   3.471   5.062 -0.1516 -0.6003  0.0384
 3345SOL    HW121671   2.962   3.451   5.046  0.0418  0.1306 -2.0830
 3345SOL    HW221672   3.050   3.497   5.154 -0.1175  1.4817 -0.5290
 3346SOL     OW21673   0.574   3.990   7.501 -0.2129 -0.0270  0.1357
 3346SOL    HW121674   0.506   4.025   7.443 -0.3913  0.0178  0.3727
 3346SOL    HW221675   0.515   3.944   7.560 -0.2049 -1.1163 -0.7209
 3347SOL     OW21676   1.389   2.480   4.239 -0.5274 -0.0393 -0.0314
 3347SOL    HW121677   1.464   2.534   4.263 -0.4533 -1.0725  2.0938
 3347SOL    HW221678   1.417   2.391   4.260  0.7653 -0.4676 -3.6210
 3348SOL     OW21679   4.162   3.063   5.617 -0.0533  0.4893 -0.2695
 3348SOL    HW121680   4.213   3.009   5.556  1.9887  1.4464  0.5939
 3348SOL    HW221681   4.132   3.008   5.690  1.0743  1.6201  1.0189
 3349SOL     OW21682   3.835   1.219  17.047  0.0992  0.5966 -0.1527
 3349SOL    HW121683   3.919   1.256  17.019 -0.5286  0.8328 -1.7164
 3349SOL    HW221684   3.783   1.294  17.074  0.0153  0.1453  0.9325
 3350SOL     OW21685   2.458   0.614   5.664  0.4349 -0.2647 -0.6097
 3350SOL    HW121686   2.424   0.666   5.592  1.6672  0.0887 -0.9387
 3350SOL    HW221687   2.410   0.647   5.740  1.5926  2.3805 -1.0448
 3351SOL     OW21688   2.293   1.237   8.487  0.0440  0.0940 -0.1699
 3351SOL    HW121689   2.303   1.257   8.394 -0.4997 -0.7604 -0.4104
 3351SOL    HW221690   2.382   1.203   8.495 -0.5382 -1.4813 -0.3695
 3352SOL     OW21691   2.151   1.996   5.270 -0.4935  0.2600  0.3728
 3352SOL    HW121692   2.113   1.914   5.240 -1.0287  0.2124  1.1931
 3352SOL    HW221693   2.126   1.993   5.362  0.7968 -0.4797  0.7007
 3353SOL     OW21694   3.584   0.820   3.402 -0.2007 -0.4819  0.2267
 3353SOL    HW121695   3.586   0.726   3.384 -2.1341  0.2289 -3.7917
 3353SOL    HW221696   3.500   0.823   3.447 -0.4421 -1.8211 -0.1365
 3354SOL     OW21697   1.782   3.751  11.982 -0.0801 -0.4807  0.4453
 3354SOL    HW121698   1.724   3.716  12.050 -2.5106 -0.4316 -1.5823
 3354SOL    HW221699   1.787   3.679  11.919  1.3916 -0.5139  0.6086
 3355SOL     OW21700   2.270   3.329   5.557  0.1702  0.3116  0.2151
 3355SOL    HW121701   2.209   3.397   5.586 -0.3366 -0.2583  0.4832
 3355SOL    HW221702   2.353   3.373   5.576  0.5874 -0.5023  0.2670
 3356SOL     OW21703   2.092   4.722  12.409  0.1096  0.3367 -0.6443
 3356SOL    HW121704   2.040   0.008  12.487 -0.7160 -2.4298 -0.4636
 3356SOL    HW221705   2.122   4.633  12.429  0.2081 -0.0686 -2.5697
 3357SOL     OW21706   3.661   2.918   5.537 -0.0570  0.8436  0.2979
 3357SOL    HW121707   3.658   3.009   5.509  2.1834 -0.2906 -3.7728
 3357SOL    HW221708   3.626   2.915   5.626 -3.7574  2.1592 -1.1087
 3358SOL     OW21709   0.891   1.674   7.533 -0.4193  0.0944  0.3171
 3358SOL    HW121710   0.832   1.659   7.459  0.0744  2.7741 -0.6087
 3358SOL    HW221711   0.842   1.630   7.603  1.0512 -4.5770 -1.5936
 3359SOL     OW21712   0.617   4.080   7.189 -0.0992  0.0697  0.5370
 3359SOL    HW121713   0.578   4.075   7.277 -2.4718  0.3461 -0.5161
 3359SOL    HW221714   0.612   3.985   7.175 -1.7531  0.6986 -2.9107
 3360SOL     OW21715   1.131   3.028   6.086 -0.4316  0.2046  0.1700
 3360SOL    HW121716   1.148   2.977   6.006 -1.1950 -1.2046  0.9116
 3360SOL    HW221717   1.215   3.027   6.131 -1.1719 -1.4958  1.5140
 3361SOL     OW21718   1.172   0.447   2.731  0.2624  0.4830  0.1121
 3361SOL    HW121719   1.122   0.467   2.810 -0.1484  0.0781 -0.0479
 3361SOL    HW221720   1.120   0.373   2.700  0.7449  0.5041 -0.7573
 3362SOL     OW21721   4.088   2.656  15.800  0.4772 -0.0909 -0.1901
 3362SOL    HW121722   4.097   2.611  15.884 -2.5045  0.8942  0.6818
 3362SOL    HW221723   4.150   2.728  15.806 -0.0124  0.1085  2.4232
 3363SOL     OW21724   0.221   3.343  12.846 -0.2239 -0.1833  0.0200
 3363SOL    HW121725   0.167   3.264  12.835 -1.8070  0.4991  2.9150
 3363SOL    HW221726   0.308   3.307  12.862 -0.0296  1.0495  1.7167
 3364SOL     OW21727   4.061   2.780   3.177  0.0204  0.1820  0.1575
 3364SOL    HW121728   4.115   2.701   3.182 -0.0888 -0.1234 -2.9561
 3364SOL    HW221729   3.981   2.763   3.226 -0.1441 -0.6157 -0.3839
 3365SOL     OW21730   1.050   3.556  16.731 -0.6379  0.2312  0.7413
 3365SOL    HW121731   1.027   3.539  16.640  0.6882 -1.4663  0.7112
 3365SOL    HW221732   1.099   3.475  16.749 -0.6453  0.5904  2.3329
 3366SOL     OW21733   0.791   3.995   8.813  0.1849  0.4208  0.3017
 3366SOL    HW121734   0.789   4.054   8.889 -1.2683 -0.3731  0.8767
 3366SOL    HW221735   0.703   3.959   8.801  1.1955 -1.4563 -1.4037
 3367SOL     OW21736   3.762   0.676   5.586 -0.3905  0.0764  0.0762
 3367SOL    HW121737   3.830   0.735   5.553  0.6663 -1.2958 -0.1924
 3367SOL    HW221738   3.686   0.734   5.592  0.3266  0.8924  1.2807
 3368SOL     OW21739   3.406   4.450   3.501  0.1034 -0.8564 -0.5338
 3368SOL    HW121740   3.460   4.397   3.442  2.1933  1.1344 -0.4093
 3368SOL    HW221741   3.459   4.529   3.493 -2.2462  0.6008 -1.6030
 3369SOL     OW21742   2.007   1.117   9.342  0.2842  0.4618 -0.1378
 3369SOL    HW121743   1.963   1.042   9.383 -1.4471  0.7551 -1.4856
 3369SOL    HW221744   2.043   1.146   9.426 -1.3210  1.7325  0.0950
 3370SOL     OW21745   4.328   4.277   5.504  0.0090 -0.1552  0.2601
 3370SOL    HW121746   4.292   4.193   5.474  0.8498  0.3360 -2.1091
 3370SOL    HW221747   4.413   4.278   5.459  0.0664 -3.0508  0.2644
 3371SOL     OW21748   2.259   2.915   8.266 -0.0606 -0.4454 -0.3602
 3371SOL    HW121749   2.279   2.928   8.358  1.6624  0.4892 -0.8584
 3371SOL    HW221750   2.214   2.992   8.233  2.0000  0.8682 -0.1081
 3372SOL     OW21751   2.896   4.272  16.145  0.2614  0.3803  0.0101
 3372SOL    HW121752   2.884   4.195  16.090  2.2110 -2.1023  3.0204
 3372SOL    HW221753   2.989   4.257  16.164  0.7335  1.3590 -1.5676
 3373SOL     OW21754   3.648   1.130  16.787  0.2976  0.2774  0.1889
 3373SOL    HW121755   3.638   1.140  16.692  0.1069 -1.2418  0.0435
 3373SOL    HW221756   3.743   1.126  16.796  0.3656  2.2516  0.4160
 3374SOL     OW21757   4.556   4.290   0.971 -0.2482 -0.5776  0.6623
 3374SOL    HW121758   4.647   4.313   0.991 -0.0197 -0.6890 -0.2417
 3374SOL    HW221759   4.504   4.361   1.009  1.3253  1.0273 -0.1545
 3375SOL     OW21760   0.542   0.570  15.046  0.3350  0.2552 -0.5510
 3375SOL    HW121761   0.552   0.573  15.141 -2.2831  0.7600 -0.2862
 3375SOL    HW221762   0.610   0.513  15.011 -0.3174 -1.1975  0.5069
 3376SOL     OW21763   4.441   1.395   6.771  0.2380 -0.0661 -0.8221
 3376SOL    HW121764   4.362   1.344   6.790  0.6702  0.6054  2.8720
 3376SOL    HW221765   4.500   1.323   6.751  1.5960  0.3603  1.5853
 3377SOL     OW21766   0.091   1.784   4.577  0.2331 -0.2335 -0.5200
 3377SOL    HW121767   0.027   1.831   4.630 -3.2749 -3.6517 -1.7322
 3377SOL    HW221768   0.075   1.697   4.614  1.4362  0.3884  1.4898
 3378SOL     OW21769   0.889   3.525  13.271 -0.8506  0.3153  0.0057
 3378SOL    HW121770   0.928   3.488  13.192 -0.0427  0.1272  0.4885
 3378SOL    HW221771   0.948   3.484  13.335 -1.1524  2.1006  1.4246
 3379SOL     OW21772   0.957   2.584  12.427 -0.6697  0.5740 -0.5402
 3379SOL    HW121773   0.869   2.552  12.407 -1.7829  3.0602  0.4183
 3379SOL    HW221774   0.998   2.610  12.344 -0.4852 -0.8607 -0.9128
 3380SOL     OW21775   1.690   2.552  12.321  0.7788 -0.1103  0.2666
 3380SOL    HW121776   1.666   2.478  12.376 -3.2868  0.3958 -0.7851
 3380SOL    HW221777   1.766   2.583  12.369  0.8777 -0.6087  0.4276
 3381SOL     OW21778   2.229   0.928   9.547  0.2679  0.2439  0.1068
 3381SOL    HW121779   2.218   0.895   9.458  1.2910 -1.0292  0.4576
 3381SOL    HW221780   2.242   0.844   9.592 -2.9946 -0.5965 -0.5157
 3382SOL     OW21781   1.457   4.587  10.026  0.4070  0.1537  0.3246
 3382SOL    HW121782   1.492   4.674  10.049 -1.6267  0.8810  0.6949
 3382SOL    HW221783   1.521   4.561   9.960 -0.8809 -2.0128 -0.0579
 3383SOL     OW21784   1.481   2.202  15.411  0.0342  0.5860 -0.0376
 3383SOL    HW121785   1.530   2.279  15.384 -0.3765  0.8521 -0.0284
 3383SOL    HW221786   1.390   2.230  15.398 -0.1507 -0.2994 -0.6843
 3384SOL     OW21787   3.027   1.211   2.137  0.5253 -0.1932 -0.2433
 3384SOL    HW121788   3.052   1.162   2.059  0.8775 -0.2205 -0.1138
 3384SOL    HW221789   3.110   1.201   2.184  0.8753 -2.9595 -1.4813
 3385SOL     OW21790   3.797   2.675  11.938  0.1113  0.0367 -0.0686
 3385SOL    HW121791   3.707   2.644  11.933  0.0161  0.2236  0.4996
 3385SOL    HW221792   3.814   2.653  11.847  2.1995  2.3053 -0.2403
 3386SOL     OW21793   1.330   4.195   3.074  0.1786  0.9573  0.0259
 3386SOL    HW121794   1.366   4.209   3.162  0.8650 -2.2150  0.2526
 3386SOL    HW221795   1.305   4.103   3.072  1.4593  0.6486 -2.3903
 3387SOL     OW21796   2.460   4.209   1.678 -0.0791 -0.4521  0.0613
 3387SOL    HW121797   2.391   4.201   1.744 -0.8603  1.6363 -0.4720
 3387SOL    HW221798   2.414   4.185   1.598 -1.5202  0.1497  0.7022
 3388SOL     OW21799   3.338   2.393   6.997  0.1597  0.3947 -0.0919
 3388SOL    HW121800   3.284   2.326   7.039  0.3183  1.9625  2.6198
 3388SOL    HW221801   3.316   2.476   7.038 -2.2264 -0.3265  0.0672
 3389SOL     OW21802   2.985   1.824  17.221  0.4827  0.0142  0.3931
 3389SOL    HW121803   3.014   1.861  17.137 -0.0779  0.8880  0.5786
 3389SOL    HW221804   3.061   1.840  17.276  0.7278 -0.2661  0.1344
 3390SOL     OW21805   1.816   4.089   4.889 -0.0578 -0.4639 -0.1336
 3390SOL    HW121806   1.904   4.087   4.850  0.4954 -1.2419  1.1695
 3390SOL    HW221807   1.822   4.066   4.981 -0.5792  0.6463  0.1779
 3391SOL     OW21808   2.408   4.192   6.010  0.5596 -0.2038 -0.3910
 3391SOL    HW121809   2.413   4.216   6.103  1.1003 -0.1708 -0.4324
 3391SOL    HW221810   2.397   4.098   6.023 -0.0443 -0.0877 -0.0611
 3392SOL     OW21811   3.305   0.596   3.010  0.5331 -0.0232  0.0434
 3392SOL    HW121812   3.345   0.667   3.060 -0.2337  0.3739  0.0900
 3392SOL    HW221813   3.356   0.597   2.929 -0.4758  1.5362 -0.5674
 3393SOL     OW21814   0.500   2.276   0.505 -0.2565  0.3868 -0.3137
 3393SOL    HW121815   0.451   2.210   0.553  1.7544 -1.2093 -0.4813
 3393SOL    HW221816   0.488   2.238   0.418  2.1399  0.8719 -0.8519
 3394SOL     OW21817   2.412   1.274   9.325 -0.0423 -0.2796 -0.4193
 3394SOL    HW121818   2.467   1.239   9.395  0.9976  0.4382 -0.8780
 3394SOL    HW221819   2.453   1.243   9.244  0.7879 -1.9669  0.6454
 3395SOL     OW21820   3.652   1.660  11.219  0.0884 -0.2758  0.5968
 3395SOL    HW121821   3.596   1.735  11.242  0.3099 -0.5720  2.1111
 3395SOL    HW221822   3.659   1.685  11.127 -1.3650 -0.7403  0.3512
 3396SOL     OW21823   2.862   1.338   4.744 -0.1662  0.4314 -0.4279
 3396SOL    HW121824   2.849   1.413   4.801 -0.0878  1.1478 -1.3511
 3396SOL    HW221825   2.946   1.312   4.782  0.3568  1.4078 -0.8903
 3397SOL     OW21826   0.982   0.361  11.108 -0.4134 -0.7194  0.2267
 3397SOL    HW121827   0.944   0.390  11.191 -0.2785  0.7638 -0.2372
 3397SOL    HW221828   0.909   0.304  11.082 -0.1560 -1.0850  0.2999
 3398SOL     OW21829   2.000   3.729   3.721  0.5243 -0.2113  0.5538
 3398SOL    HW121830   1.979   3.647   3.765  1.0693 -0.7115 -0.1038
 3398SOL    HW221831   2.084   3.714   3.677  0.2878 -0.8261  0.3037
 3399SOL     OW21832   3.915   3.721   3.538 -0.2558  0.6045 -0.0590
 3399SOL    HW121833   3.877   3.638   3.567  1.1640  0.0623  0.2319
 3399SOL    HW221834   3.902   3.790   3.603 -0.5448 -0.5808  1.1482
 3400SOL     OW21835   0.497   3.459   7.191 -0.3211  0.2605 -0.0263
 3400SOL    HW121836   0.592   3.455   7.176 -0.3059  0.0579  0.1288
 3400SOL    HW221837   0.486   3.536   7.246  0.5007 -1.6701  2.8173
 3401SOL     OW21838   0.797   3.047   1.017  0.0782  0.0434 -0.2410
 3401SOL    HW121839   0.736   3.023   0.947 -0.6185 -0.5604  0.5773
 3401SOL    HW221840   0.844   2.964   1.023  2.0430  1.1355 -0.5434
 3402SOL     OW21841   0.761   1.425  16.785 -0.0073  0.1128 -0.6750
 3402SOL    HW121842   0.767   1.330  16.788  1.3048  0.1881 -0.9138
 3402SOL    HW221843   0.666   1.432  16.798  0.3349  0.2846  1.7994
 3403SOL     OW21844   0.472   2.885   8.046 -0.4800 -0.3342 -0.0607
 3403SOL    HW121845   0.424   2.819   7.996 -0.4223 -1.4875  1.4063
 3403SOL    HW221846   0.407   2.955   8.045  0.1854  0.2908  0.9933
 3404SOL     OW21847   4.132   4.386   8.365 -0.1966  0.1460 -0.2378
 3404SOL    HW121848   4.226   4.402   8.372 -0.3123 -0.8834  3.5199
 3404SOL    HW221849   4.128   4.313   8.427  2.1919 -0.1992 -0.4904
 3405SOL     OW21850   1.041   3.961   7.150  0.2290 -0.0224 -0.2516
 3405SOL    HW121851   1.032   3.939   7.243  0.1881  0.4390 -0.1456
 3405SOL    HW221852   1.111   3.900   7.129  0.1551  0.2175 -1.2094
 3406SOL     OW21853   0.954   3.818  17.513 -0.2219  0.4007 -0.4306
 3406SOL    HW121854   0.876   3.798  17.564  0.6010  3.6948  2.0613
 3406SOL    HW221855   1.019   3.811  17.583 -0.9245  2.3105  0.3952
 3407SOL     OW21856   3.482   4.343   1.373 -0.3307  0.0213  0.1894
 3407SOL    HW121857   3.570   4.336   1.411 -1.6008 -0.1013  3.1092
 3407SOL    HW221858   3.500   4.284   1.299 -1.0895  0.6950 -0.5298
 3408SOL     OW21859   1.981   2.412   2.364 -0.4676  0.5959 -0.4108
 3408SOL    HW121860   1.940   2.475   2.304 -1.8965 -0.6531 -0.7181
 3408SOL    HW221861   1.968   2.329   2.319 -0.3510  0.8028 -0.8371
 3409SOL     OW21862   1.612   4.170   7.536 -0.1608 -0.4316 -0.0263
 3409SOL    HW121863   1.542   4.185   7.473  0.4844 -1.0181 -0.8757
 3409SOL    HW221864   1.577   4.097   7.586 -1.2759  0.7984  1.0083
 3410SOL     OW21865   4.478   4.208   6.297 -0.3835  0.0159 -0.8095
 3410SOL    HW121866   4.478   4.200   6.393 -0.4840  0.5062 -0.7714
 3410SOL    HW221867   4.486   4.113   6.284 -0.6543 -0.3141  1.3196
 3411SOL     OW21868   2.390   0.655   3.065 -0.7617 -0.3892 -0.0384
 3411SOL    HW121869   2.482   0.639   3.084 -1.2093 -1.3591  1.3335
 3411SOL    HW221870   2.379   0.735   3.116 -1.1532  0.4786 -1.4720
 3412SOL     OW21871   1.136   2.849   6.476 -0.3008 -0.3224 -0.2476
 3412SOL    HW121872   1.169   2.917   6.534 -0.5615  1.3634 -2.0486
 3412SOL    HW221873   1.103   2.905   6.406  0.0865  2.5852  1.8843
 3413SOL     OW21874   1.967   4.265   8.129  0.4229 -0.4450  0.1035
 3413SOL    HW121875   2.052   4.285   8.090  0.6046  1.0706  1.2461
 3413SOL    HW221876   1.933   4.192   8.078 -0.6318 -0.4686  0.8350
 3414SOL     OW21877   4.646   4.537  12.062  0.0029 -0.0756 -0.2732
 3414SOL    HW121878   4.636   4.575  12.149 -1.6048  1.0959 -0.9677
 3414SOL    HW221879   4.612   4.614  12.016  2.0850  0.2728 -1.2380
 3415SOL     OW21880   1.979   3.043   5.359 -0.0861  0.1952 -0.4464
 3415SOL    HW121881   2.008   3.056   5.449  0.4461  1.0666 -0.7396
 3415SOL    HW221882   2.003   2.956   5.328 -0.1096 -0.3354  1.0415
 3416SOL     OW21883   3.596   3.496  11.262 -0.2682  0.1177 -0.4546
 3416SOL    HW121884   3.634   3.438  11.196  2.1443  1.1086  0.0614
 3416SOL    HW221885   3.669   3.505  11.324 -0.7160 -0.0417  0.0957
 3417SOL     OW21886   1.413   2.826   6.033 -0.0923 -0.7019  0.2956
 3417SOL    HW121887   1.375   2.748   6.074 -0.8338  0.2207  1.3523
 3417SOL    HW221888   1.378   2.815   5.945 -0.8202  2.1721  0.2339
 3418SOL     OW21889   0.982   1.434  13.057 -0.3237 -0.2989 -1.1322
 3418SOL    HW121890   0.937   1.401  13.135  1.9773  1.4987  0.9729
 3418SOL    HW221891   1.022   1.514  13.092 -1.1151 -0.8679  1.1178
 3419SOL     OW21892   2.118   1.782   4.924  0.9080  0.2355 -0.4776
 3419SOL    HW121893   2.047   1.839   4.894 -0.6731 -1.3280  0.3207
 3419SOL    HW221894   2.100   1.715   4.858  1.5483  0.9220 -1.3554
 3420SOL     OW21895   2.925   2.863   5.915 -0.0247 -0.5736  0.1266
 3420SOL    HW121896   2.904   2.894   5.827 -0.0727 -0.2658  0.2442
 3420SOL    HW221897   2.889   2.775   5.921  1.4980 -1.2195 -0.5045
 3421SOL     OW21898   3.151   4.214   3.779 -0.2102 -0.5183 -0.6119
 3421SOL    HW121899   3.218   4.155   3.745  0.4901 -0.7108  1.1047
 3421SOL    HW221900   3.147   4.189   3.872  0.2320 -0.1901 -0.5080
 3422SOL     OW21901   4.410   2.284   2.581 -0.2844 -0.2757  0.0908
 3422SOL    HW121902   4.322   2.314   2.602 -1.8322 -3.7423 -1.4645
 3422SOL    HW221903   4.389   2.217   2.517  1.4460  0.0497 -0.8214
 3423SOL     OW21904   2.112   1.461   6.582 -0.1569 -0.4979 -0.0519
 3423SOL    HW121905   2.195   1.424   6.552 -0.5935  0.6306 -2.5877
 3423SOL    HW221906   2.080   1.514   6.509  0.0733  1.7351  1.4560
 3424SOL     OW21907   0.236   2.832   3.393 -0.1261  0.8103 -0.8414
 3424SOL    HW121908   0.313   2.830   3.449 -0.0830 -0.0687 -0.9339
 3424SOL    HW221909   0.266   2.895   3.327 -1.0276  0.5018 -1.5504
 3425SOL     OW21910   3.718   3.873  15.631 -0.1541 -0.2267 -0.2602
 3425SOL    HW121911   3.723   3.821  15.551 -0.4999  0.6111 -0.8365
 3425SOL    HW221912   3.769   3.815  15.687  0.0653  0.2453  0.0269
 3426SOL     OW21913   1.329   2.436   3.964  0.1446  0.0429 -0.5351
 3426SOL    HW121914   1.347   2.453   4.057  2.1128  0.3274 -0.9609
 3426SOL    HW221915   1.242   2.474   3.958 -0.3227 -0.4512  3.0697
 3427SOL     OW21916   3.980   0.274   7.341 -0.1415  0.0425 -0.0654
 3427SOL    HW121917   3.919   0.307   7.275  0.1046 -0.8866 -0.7513
 3427SOL    HW221918   4.058   0.266   7.287 -0.1467  0.7731 -0.1808
 3428SOL     OW21919   3.488   3.051   7.191 -0.5643 -0.4982 -0.2138
 3428SOL    HW121920   3.568   3.103   7.200 -0.5930 -0.2722 -1.3094
 3428SOL    HW221921   3.511   2.992   7.119 -1.0127 -1.4887  0.4553
 3429SOL     OW21922   0.836   3.795  13.625  0.3789  0.4516  0.0570
 3429SOL    HW121923   0.788   3.878  13.625  0.8078  0.6987  0.0876
 3429SOL    HW221924   0.772   3.740  13.669 -0.0400 -0.5184 -1.7258
 3430SOL     OW21925   0.515   4.654   8.848 -0.0743  0.3560 -0.0558
 3430SOL    HW121926   0.531   0.011   8.871  1.0368 -0.3320  1.9843
 3430SOL    HW221927   0.427   4.670   8.814  0.0775 -1.5178 -1.3398
 3431SOL     OW21928   2.950   3.364  10.979 -0.2391 -0.2796  0.6338
 3431SOL    HW121929   3.024   3.310  11.005 -1.1165 -0.6282  2.3841
 3431SOL    HW221930   3.008   3.440  10.966 -0.9025  0.0440 -0.4685
 3432SOL     OW21931   4.517   2.668   7.063  0.1688  0.0346  0.6512
 3432SOL    HW121932   4.458   2.609   7.110 -0.1723 -0.2589 -0.1505
 3432SOL    HW221933   4.521   2.629   6.976  0.2188 -1.3327  1.2646
 3433SOL     OW21934   0.712   2.708   3.472  0.1305 -0.0034 -0.3738
 3433SOL    HW121935   0.692   2.650   3.398  1.1711  0.4828 -1.0321
 3433SOL    HW221936   0.807   2.704   3.477  0.2972  0.5759 -2.8625
 3434SOL     OW21937   0.110   3.176   8.349 -0.4203 -0.5433  0.3514
 3434SOL    HW121938   0.128   3.247   8.410  0.8762 -0.3326 -0.2745
 3434SOL    HW221939   0.194   3.155   8.307 -1.1675  1.5008 -2.1706
 3435SOL     OW21940   2.242   0.047  16.337  0.4785 -0.4369 -0.2589
 3435SOL    HW121941   2.248   0.052  16.241  0.6043  0.4571 -0.2129
 3435SOL    HW221942   2.337   0.042  16.351  0.7118 -0.2968 -1.7982
 3436SOL     OW21943   3.882   3.027   1.402  0.4883 -0.1414  0.6490
 3436SOL    HW121944   3.948   3.018   1.334  2.0306 -3.2061  2.5764
 3436SOL    HW221945   3.933   3.036   1.482  0.4063 -1.1806  0.8124
 3437SOL     OW21946   2.132   2.640  11.033 -0.5998  0.6049  0.0571
 3437SOL    HW121947   2.061   2.576  11.032  0.7933 -0.9782  1.1504
 3437SOL    HW221948   2.124   2.683  11.118  0.4685  0.6140  0.1505
 3438SOL     OW21949   3.794   3.209  11.693 -0.4800  0.4908  0.7018
 3438SOL    HW121950   3.881   3.206  11.653 -0.4383 -3.2382  1.0658
 3438SOL    HW221951   3.741   3.257  11.630 -0.8991 -0.4558  0.3448
 3439SOL     OW21952   1.963   0.219  11.759 -0.0287  0.2049  0.2561
 3439SOL    HW121953   1.981   0.238  11.851 -2.1375 -1.6926  1.0574
 3439SOL    HW221954   1.928   0.130  11.764 -0.8536  0.4002 -2.1457
 3440SOL     OW21955   4.609   0.103   6.045 -0.1638  0.3521  0.0737
 3440SOL    HW121956   4.547   0.042   6.006 -0.3069 -0.5265  1.6541
 3440SOL    HW221957   4.596   0.182   5.993  0.7664  1.2321  1.1535
 3441SOL     OW21958   4.700   4.137   7.176 -0.2544  0.1089  0.2031
 3441SOL    HW121959   4.620   4.100   7.212 -0.2860 -0.8114 -0.7924
 3441SOL    HW221960   4.707   4.208   7.239 -1.6063 -1.2487  1.8969
 3442SOL     OW21961   4.088   4.087   7.852  0.1665 -0.1296 -0.4090
 3442SOL    HW121962   4.009   4.135   7.874  0.8806 -0.0160  1.9457
 3442SOL    HW221963   4.048   4.028   7.789 -2.6233  0.6651  0.6139
 3443SOL     OW21964   4.558   2.381  16.231  0.1622  0.5515  0.2740
 3443SOL    HW121965   4.635   2.349  16.185 -1.2995 -0.4895 -1.4553
 3443SOL    HW221966   4.511   2.304  16.263 -2.7556  1.8268 -0.9011
 3444SOL     OW21967   0.360   2.580   6.137 -0.5927  0.3541  0.1454
 3444SOL    HW121968   0.327   2.503   6.182 -0.6386 -0.6656 -1.6468
 3444SOL    HW221969   0.383   2.643   6.205 -2.4096  3.3119 -1.9549
 3445SOL     OW21970   2.230   2.128   4.074 -0.3722 -0.0505 -0.7983
 3445SOL    HW121971   2.200   2.040   4.049 -1.2631 -0.0225  0.1605
 3445SOL    HW221972   2.145   2.165   4.051 -0.9786 -1.0459 -0.1841
 3446SOL     OW21973   0.009   0.779  13.082 -0.0583 -0.4341  0.1331
 3446SOL    HW121974   0.027   0.790  13.176  0.1409 -0.9305  0.1554
 3446SOL    HW221975   0.088   0.735  13.051  0.8379  1.8946 -0.8641
 3447SOL     OW21976   4.691   2.105  12.944  0.3879  0.1622  0.1062
 3447SOL    HW121977   4.728   2.188  12.973 -1.4068  0.3200  1.9509
 3447SOL    HW221978   4.599   2.112  12.970  0.5854  3.1374 -0.0492
 3448SOL     OW21979   3.243   3.317  15.057  0.2005  0.6646  0.2332
 3448SOL    HW121980   3.184   3.284  14.989  1.5556 -0.5057 -0.3522
 3448SOL    HW221981   3.190   3.330  15.136  1.2481  1.0190  0.8756
 3449SOL     OW21982   3.930   3.835   7.774 -0.4948  0.0211 -0.8392
 3449SOL    HW121983   3.842   3.839   7.736  0.1791 -0.4625 -2.4092
 3449SOL    HW221984   3.950   3.742   7.777  2.7286  0.6831 -1.6129
 3450SOL     OW21985   2.806   2.950   5.694  0.3981  0.0141  0.1637
 3450SOL    HW121986   2.753   2.887   5.645 -0.6135  0.1813  1.0434
 3450SOL    HW221987   2.753   3.029   5.685  2.6454  1.2157 -2.3885
 3451SOL     OW21988   1.061   3.727  10.965 -0.1917  0.2783 -0.1810
 3451SOL    HW121989   1.122   3.654  10.971 -1.6320 -0.8639  0.4453
 3451SOL    HW221990   1.120   3.802  10.971 -0.4962  0.3183  2.1294
 3452SOL     OW21991   3.878   1.148   4.677 -0.0179  0.0753  0.6297
 3452SOL    HW121992   3.964   1.108   4.686  0.1951  0.6393  1.1536
 3452SOL    HW221993   3.847   1.085   4.612 -1.3591  1.0906  0.2699
 3453SOL     OW21994   3.337   0.483   0.521  0.5213  0.0856  0.8460
 3453SOL    HW121995   3.406   0.494   0.586  0.5945 -1.9896  1.0877
 3453SOL    HW221996   3.274   0.553   0.542  0.0860 -0.0840  0.1100
 3454SOL     OW21997   3.939   2.848   6.225  0.3247 -0.3130 -0.5729
 3454SOL    HW121998   3.942   2.848   6.320 -0.6280 -0.7645 -0.5314
 3454SOL    HW221999   4.028   2.878   6.209  0.0413  1.1087  0.5530
 3455SOL     OW22000   2.359   1.722  16.593 -0.3739 -0.5575 -0.5954
 3455SOL    HW122001   2.304   1.700  16.518 -3.0190 -1.3304  1.5764
 3455SOL    HW222002   2.296   1.775  16.642 -1.0607 -2.1752  0.2693
 3456SOL     OW22003   0.541   2.562   9.105  0.0585  0.2673 -0.3652
 3456SOL    HW122004   0.501   2.495   9.050  2.3703 -1.4402 -0.0103
 3456SOL    HW222005   0.629   2.524   9.111  0.3027  0.5740 -2.1015
 3457SOL     OW22006   3.367   2.640  14.760 -0.4958 -0.5935 -0.7243
 3457SOL    HW122007   3.449   2.592  14.755 -0.2296 -0.3742  1.6417
 3457SOL    HW222008   3.296   2.583  14.729  0.9702 -2.3376 -0.8764
 3458SOL     OW22009   2.313   3.749   4.190 -0.5258 -0.2094  0.2124
 3458SOL    HW122010   2.360   3.738   4.273 -0.0466 -2.3325 -0.3523
 3458SOL    HW222011   2.239   3.800   4.224  0.3249  0.1228  1.5684
 3459SOL     OW22012   2.946   0.998   5.209  0.4237 -0.1123 -0.1780
 3459SOL    HW122013   2.985   0.948   5.281  1.2405  2.3140  1.0828
 3459SOL    HW222014   3.028   1.011   5.160 -0.4737  2.8622 -0.8922
 3460SOL     OW22015   1.660   3.113   5.358 -0.2040  0.1959 -0.1896
 3460SOL    HW122016   1.752   3.089   5.363 -0.7907 -1.4383  2.6782
 3460SOL    HW222017   1.663   3.208   5.355 -0.1528  0.1891 -0.4010
 3461SOL     OW22018   3.656   4.507  17.695  0.2674 -0.4259  0.2061
 3461SOL    HW122019   3.613   4.496  17.611  3.2252  2.0292 -1.6280
 3461SOL    HW222020   3.631   4.598  17.715  4.2069  0.6588  0.0827
 3462SOL     OW22021   0.494   2.823  10.739 -0.0546 -0.2202  0.3125
 3462SOL    HW122022   0.440   2.763  10.688  2.1147 -0.4070 -1.8071
 3462SOL    HW222023   0.577   2.802  10.696  0.4675 -0.1124  1.2806
 3463SOL     OW22024   2.217   3.938   7.683 -0.6067 -0.0798  0.3781
 3463SOL    HW122025   2.250   3.979   7.603  2.5123  0.0866  1.7284
 3463SOL    HW222026   2.125   3.963   7.681 -0.5445  0.0793 -0.3937
 3464SOL     OW22027   0.248   1.755   0.297  0.0421 -0.0172 -0.2531
 3464SOL    HW122028   0.171   1.781   0.246  0.0953 -1.4702 -1.0701
 3464SOL    HW222029   0.294   1.836   0.318 -2.0170  1.9007 -3.2416
 3465SOL     OW22030   2.913   3.349  14.918 -0.5863  0.1534 -0.7507
 3465SOL    HW122031   2.976   3.303  14.863 -0.7552  1.0072 -1.6623
 3465SOL    HW222032   2.931   3.442  14.900  0.5425  0.3572  1.4145
 3466SOL     OW22033   0.463   3.480  13.669 -0.4036 -0.1084  0.2844
 3466SOL    HW122034   0.536   3.542  13.671 -0.7343  0.3732 -2.3343
 3466SOL    HW222035   0.388   3.526  13.705 -0.6196  0.8084 -1.2981
 3467SOL     OW22036   0.717   0.116   7.589  0.3857  0.1030 -0.3499
 3467SOL    HW122037   0.685   0.118   7.680  0.3460 -5.1196 -0.2196
 3467SOL    HW222038   0.749   0.026   7.578 -0.7436 -0.2601 -0.5786
 3468SOL     OW22039   1.318   1.965   6.507 -0.4609 -0.1620 -0.1201
 3468SOL    HW122040   1.328   1.964   6.602  1.7891 -0.1786 -0.3551
 3468SOL    HW222041   1.231   2.001   6.489 -0.5929 -0.5181 -0.1945
 3469SOL     OW22042   4.302   3.482   6.996  0.1019  0.1090  0.4226
 3469SOL    HW122043   4.393   3.486   7.023 -0.0503  2.7508  0.4797
 3469SOL    HW222044   4.321   3.521   6.910  1.1749  0.0253  0.6295
 3470SOL     OW22045   3.314   4.460   8.384 -0.2078  0.1095 -0.2863
 3470SOL    HW122046   3.230   4.502   8.362 -1.1032 -0.7306  1.5075
 3470SOL    HW222047   3.304   4.384   8.327  1.2957 -0.0813 -0.2834
 3471SOL     OW22048   3.455   3.956  12.704  0.1126 -0.5866 -0.0504
 3471SOL    HW122049   3.545   3.987  12.704  0.0591 -0.4333  0.7410
 3471SOL    HW222050   3.419   3.989  12.622  0.5317 -0.2036 -0.0813
 3472SOL     OW22051   1.994   4.580   2.230 -0.3529  0.5238  0.7278
 3472SOL    HW122052   2.043   4.518   2.177 -0.9088  0.4798  0.2664
 3472SOL    HW222053   1.916   4.532   2.256 -0.7271  1.4969  1.4251
 3473SOL     OW22054   3.227   4.579  17.223  0.2100 -0.2671 -0.0386
 3473SOL    HW122055   3.313   4.581  17.266 -0.5918  1.9059  1.4958
 3473SOL    HW222056   3.249   4.520  17.151 -1.5570  0.4035 -1.1290
 3474SOL     OW22057   0.989   0.821  15.256  0.4496 -0.2290 -0.2195
 3474SOL    HW122058   1.019   0.862  15.338  1.2585 -0.9992 -0.1363
 3474SOL    HW222059   0.895   0.812  15.273  0.6093  1.1741  1.4585
 3475SOL     OW22060   3.410   4.666  17.696  0.2080  0.1068  0.0437
 3475SOL    HW122061   3.472   4.654   0.031 -0.2241 -2.4194 -0.0255
 3475SOL    HW222062   3.358   0.006  17.727 -0.4628  0.5709 -2.2181
 3476SOL     OW22063   3.962   3.371   7.144 -0.1660  0.6637  0.8673
 3476SOL    HW122064   3.969   3.450   7.090  0.8076  0.0057  0.0514
 3476SOL    HW222065   4.054   3.362   7.169  0.6125  1.6899 -1.6302
 3477SOL     OW22066   3.033   3.133   2.541 -0.8177  0.1798  0.0943
 3477SOL    HW122067   3.101   3.120   2.606  1.2831 -1.1434 -2.3870
 3477SOL    HW222068   2.961   3.169   2.593 -1.7432 -1.3668 -0.0982
 3478SOL     OW22069   1.784   3.145   2.594 -0.3013 -0.3455  0.3548
 3478SOL    HW122070   1.809   3.227   2.636 -0.8427 -1.8066  3.5164
 3478SOL    HW222071   1.836   3.080   2.641  1.1384 -0.2800 -1.1493
 3479SOL     OW22072   3.590   3.535  14.507 -0.1686  0.2799  0.1201
 3479SOL    HW122073   3.606   3.476  14.433 -0.6436  1.7332 -1.1355
 3479SOL    HW222074   3.539   3.604  14.465 -1.9900 -0.8605  0.4732
 3480SOL     OW22075   3.421   4.257   4.856 -0.0349  0.4031 -0.0329
 3480SOL    HW122076   3.397   4.192   4.790 -0.8234  0.6256  0.0290
 3480SOL    HW222077   3.404   4.204   4.935 -1.9789  1.3830  0.2270
 3481SOL     OW22078   0.167   3.079   1.893  0.0437  0.2864  0.2829
 3481SOL    HW122079   0.133   2.994   1.923 -2.6272  1.2409 -0.0857
 3481SOL    HW222080   0.096   3.138   1.917  1.4078  1.5150  1.2515
 3482SOL     OW22081   3.358   0.047   2.555  0.3533 -0.1642  0.7891
 3482SOL    HW122082   3.268   0.070   2.577 -0.2090 -1.3619 -0.2549
 3482SOL    HW222083   3.353   4.689   2.529 -1.4493  0.1956 -0.1591
 3483SOL     OW22084   2.605   3.965   5.982  0.3945  0.1495  0.2710
 3483SOL    HW122085   2.525   3.944   5.934  0.3622 -0.6941  0.7083
 3483SOL    HW222086   2.657   3.985   5.904 -1.0214  1.6616 -0.2869
 3484SOL     OW22087   2.500   0.531  17.583 -0.2870  0.5215 -0.5198
 3484SOL    HW122088   2.503   0.586  17.504  1.8763  0.4819 -0.4822
 3484SOL    HW222089   2.490   0.608  17.639  2.0383  0.1643  0.4053
 3485SOL     OW22090   0.959   0.919  17.677 -0.1760 -0.0877  0.0598
 3485SOL    HW122091   1.045   0.876  17.675 -1.1066 -1.9805  0.6807
 3485SOL    HW222092   0.910   0.863   0.000  1.1433 -0.5450  0.7004
 3486SOL     OW22093   0.946   1.309  16.470  0.3520  0.9455  0.3334
 3486SOL    HW122094   1.018   1.315  16.532 -0.1936 -0.7574  1.1466
 3486SOL    HW222095   0.889   1.382  16.494 -2.3138 -0.5108 -1.5829
 3487SOL     OW22096   3.100   0.723   2.862 -0.1321  0.8705 -0.0690
 3487SOL    HW122097   3.041   0.649   2.880 -0.3404  1.0240 -0.1206
 3487SOL    HW222098   3.168   0.697   2.924 -2.2427 -2.3950  0.8728
 3488SOL     OW22099   4.671   2.442   1.788 -0.7731  0.4926  0.3390
 3488SOL    HW122100   4.672   2.465   1.695 -0.0511  1.2597  0.5399
 3488SOL    HW222101   4.631   2.356   1.775  2.1332 -0.7378 -0.4359
 3489SOL     OW22102   2.481   0.023   8.788 -0.2893  0.5435 -0.1737
 3489SOL    HW122103   2.489   4.704   8.710 -2.0144 -1.1221  0.7899
 3489SOL    HW222104   2.398   4.722   8.819  0.9013 -1.5682  0.6372
 3490SOL     OW22105   0.841   0.857  14.847  0.0815 -0.5111 -0.0493
 3490SOL    HW122106   0.750   0.831  14.860 -0.3812  1.6992  1.1966
 3490SOL    HW222107   0.844   0.856  14.751  0.4433 -0.9115 -0.0319
 3491SOL     OW22108   0.256   3.801   5.117  0.1365  0.1674  0.7698
 3491SOL    HW122109   0.324   3.744   5.081 -0.6123  0.2453 -0.7471
 3491SOL    HW222110   0.191   3.738   5.148  0.0811 -0.5986 -0.8879
 3492SOL     OW22111   4.643   3.778   5.771  0.1873  0.1851  0.4793
 3492SOL    HW122112   4.639   3.870   5.796  1.1615 -0.1314  1.7914
 3492SOL    HW222113   0.000   3.767   5.796 -0.6276 -2.6201  2.2836
 3493SOL     OW22114   1.387   3.859   8.948  0.5722  0.0793 -0.0815
 3493SOL    HW122115   1.468   3.901   8.976  0.8214 -1.1747  1.0606
 3493SOL    HW222116   1.385   3.901   8.861 -0.4035  0.3398  0.0659
 3494SOL     OW22117   1.905   2.442  11.524  0.0491 -0.3493  0.1667
 3494SOL    HW122118   1.980   2.389  11.550  2.1575  2.6252  0.0713
 3494SOL    HW222119   1.856   2.452  11.606 -1.7397  2.8469 -1.2776
 3495SOL     OW22120   4.543   2.485   8.457 -0.1570 -0.3274  0.2061
 3495SOL    HW122121   4.453   2.484   8.489 -0.1742 -2.9594  0.1068
 3495SOL    HW222122   4.557   2.392   8.438 -0.6388 -0.0983 -1.2448
 3496SOL     OW22123   2.666   0.439  10.135 -0.2367  0.2909  0.5386
 3496SOL    HW122124   2.626   0.499  10.198  1.1789 -1.7151  3.3262
 3496SOL    HW222125   2.595   0.424  10.073 -0.0143  0.4403  0.2446
 3497SOL     OW22126   1.614   1.387  12.753 -0.0088 -0.4335 -0.0578
 3497SOL    HW122127   1.532   1.359  12.795  0.5757 -3.5266 -0.9945
 3497SOL    HW222128   1.667   1.324  12.802 -2.9850 -0.8122  2.6620
 3498SOL     OW22129   2.190   2.519   4.125  0.0250 -0.8965 -0.4335
 3498SOL    HW122130   2.233   2.592   4.169 -1.6330  0.5661 -1.2350
 3498SOL    HW222131   2.200   2.546   4.034  0.2538 -1.7534 -0.6681
 3499SOL     OW22132   2.891   0.553   6.834 -0.1780 -0.1253  0.2114
 3499SOL    HW122133   2.896   0.570   6.928 -2.1795 -0.4046  0.3691
 3499SOL    HW222134   2.797   0.543   6.816 -0.1966 -1.7336  1.1550
 3500SOL     OW22135   1.032   2.409   1.137  0.3053 -0.3045 -0.2661
 3500SOL    HW122136   0.963   2.441   1.079  1.9657  0.7812 -1.6477
 3500SOL    HW222137   1.028   2.319   1.105 -0.1936 -0.5125  0.3833
 3501SOL     OW22138   4.413   4.070   7.363  0.4437  0.1079 -0.6599
 3501SOL    HW122139   4.375   4.030   7.284 -1.5650 -0.0708  0.3956
 3501SOL    HW222140   4.454   3.990   7.396 -0.4626 -0.0632  0.0470
 3502SOL     OW22141   1.137   0.717  11.350 -0.4271  0.8228 -0.2569
 3502SOL    HW122142   1.192   0.774  11.404 -0.9151  1.3586 -0.3245
 3502SOL    HW222143   1.194   0.654  11.306 -0.5619 -0.9166  2.0550
 3503SOL     OW22144   1.010   3.342   3.556  0.2084  0.3595 -0.5841
 3503SOL    HW122145   1.080   3.394   3.516 -1.1851  1.0897 -2.0459
 3503SOL    HW222146   0.930   3.356   3.507  0.3074  1.5093 -0.4172
 3504SOL     OW22147   3.652   0.219   8.119  0.4269  0.1503  0.2995
 3504SOL    HW122148   3.725   0.210   8.179  0.9579 -0.5334 -0.4559
 3504SOL    HW222149   3.592   0.277   8.167 -0.7521 -1.4338  0.7270
 3505SOL     OW22150   4.356   1.669   6.869  0.0790 -0.3079 -0.3591
 3505SOL    HW122151   4.367   1.575   6.852  0.9614  0.1091 -2.0855
 3505SOL    HW222152   4.447   1.697   6.869 -0.5138  1.6908 -2.5993
 3506SOL     OW22153   3.438   0.591   6.231  0.3477  0.2424  0.1893
 3506SOL    HW122154   3.407   0.584   6.321 -1.7574  0.1434 -0.5603
 3506SOL    HW222155   3.368   0.547   6.184  0.6012 -0.8128  0.7956
 3507SOL     OW22156   3.533   0.825   6.565 -0.4167  0.1175  0.0144
 3507SOL    HW122157   3.604   0.760   6.559 -0.7347 -0.1984 -0.3287
 3507SOL    HW222158   3.532   0.854   6.657  1.3907 -0.6339  0.2850
 3508SOL     OW22159   0.581   4.208  16.903  0.2238 -0.2452 -0.0627
 3508SOL    HW122160   0.564   4.209  16.998  0.7160 -2.2104  0.0385
 3508SOL    HW222161   0.487   4.197  16.886 -0.2569  1.4873  1.4136
 3509SOL     OW22162   1.149   3.005   7.925  0.7818  0.2599  0.2736
 3509SOL    HW122163   1.059   3.025   7.898  0.4152 -0.2850  1.1040
 3509SOL    HW222164   1.208   3.021   7.851  1.1661 -0.3068  0.4601
 3510SOL     OW22165   1.748   4.190   2.722  0.2076  0.1815 -0.0878
 3510SOL    HW122166   1.777   4.115   2.773 -1.4032 -1.0768 -1.0091
 3510SOL    HW222167   1.829   4.241   2.716  0.6072 -0.6773 -2.1983
 3511SOL     OW22168   0.057   4.375  11.863 -0.0247  0.5324  0.1705
 3511SOL    HW122169   0.024   4.434  11.931  0.9144 -1.5992  2.4991
 3511SOL    HW222170   4.708   4.332  11.842  1.6802 -3.2796  1.2639
 3512SOL     OW22171   3.953   1.731   5.493 -0.2981  0.2412 -0.1092
 3512SOL    HW122172   3.920   1.709   5.581 -1.3070 -0.9386 -0.7840
 3512SOL    HW222173   4.041   1.695   5.499 -0.9022 -1.3674 -0.8804
 3513SOL     OW22174   3.133   1.638   8.275 -0.4930 -0.3373 -0.2588
 3513SOL    HW122175   3.129   1.577   8.348 -2.3151 -0.9084 -0.8277
 3513SOL    HW222176   3.195   1.705   8.303 -1.2454  0.3774 -0.2952
 3514SOL     OW22177   2.266   0.921  15.126  0.5821  0.3257 -0.2054
 3514SOL    HW122178   2.186   0.934  15.077  0.2464  1.0459  0.5433
 3514SOL    HW222179   2.228   0.904  15.213 -0.4269 -0.2181 -0.7535
 3515SOL     OW22180   4.648   0.897   6.061  0.2068  0.4012  0.7085
 3515SOL    HW122181   4.610   0.821   6.018  1.0998  1.5990 -2.2168
 3515SOL    HW222182   4.592   0.894   6.139 -1.5346 -0.2906 -0.5716
 3516SOL     OW22183   4.322   2.632   8.781  1.3617 -0.1444 -0.7109
 3516SOL    HW122184   4.245   2.626   8.837  1.5889  2.9171 -0.0706
 3516SOL    HW222185   4.392   2.647   8.845  0.6170 -1.2558  0.3490
 3517SOL     OW22186   0.372   1.565   6.658  0.2149 -0.0550 -0.3858
 3517SOL    HW122187   0.375   1.620   6.737  0.9698  1.6520 -1.6147
 3517SOL    HW222188   0.335   1.622   6.591 -1.4338  1.2308  1.5976
 3518SOL     OW22189   2.728   4.327   3.294 -0.5157  0.2137  0.0759
 3518SOL    HW122190   2.722   4.255   3.357  2.7448 -2.3021 -2.5090
 3518SOL    HW222191   2.821   4.344   3.306 -0.4292 -0.9894  1.0964
 3519SOL     OW22192   3.153   3.487  11.513  0.0939  0.7324  0.2578
 3519SOL    HW122193   3.229   3.513  11.460  2.5579  0.5758  3.7323
 3519SOL    HW222194   3.083   3.527  11.461  0.1051  0.2448 -0.1376
 3520SOL     OW22195   1.967   0.886   2.523  0.0920 -0.8089  0.3561
 3520SOL    HW122196   1.963   0.806   2.575 -3.3587 -0.2513  0.9410
 3520SOL    HW222197   2.062   0.892   2.513  0.0026 -0.4639 -0.3050
 3521SOL     OW22198   0.262   1.693   7.312 -0.5761  0.4299 -0.0310
 3521SOL    HW122199   0.308   1.715   7.393  1.7770 -0.4161 -1.1285
 3521SOL    HW222200   0.266   1.601   7.339  1.1118  0.1293 -1.3387
 3522SOL     OW22201   0.977   4.662  17.644  0.5820 -0.1716  0.3651
 3522SOL    HW122202   0.971   4.638  17.737  0.2927 -1.0410  0.1132
 3522SOL    HW222203   1.065   4.700  17.645  0.1927  0.7636 -0.3221
 3523SOL     OW22204   2.772   2.337   2.419  0.0873  0.1726 -0.1443
 3523SOL    HW122205   2.810   2.296   2.341  1.4035  0.5848  0.2856
 3523SOL    HW222206   2.847   2.357   2.475 -0.4771  1.5113  0.1213
 3524SOL     OW22207   1.291   2.348   5.600 -0.0165 -0.8208 -0.4153
 3524SOL    HW122208   1.209   2.313   5.634  0.1751  1.2384  2.1801
 3524SOL    HW222209   1.262   2.381   5.515 -2.2487 -1.1354  0.2240
 3525SOL     OW22210   4.621   0.932   2.829  0.4374  0.0406 -0.2007
 3525SOL    HW122211   4.568   0.872   2.776 -0.9863  1.0424  0.0692
 3525SOL    HW222212   4.669   0.973   2.757  0.1580 -0.7252 -0.8314
 3526SOL     OW22213   4.468   3.411  11.057  0.1697  0.2490 -0.3445
 3526SOL    HW122214   4.478   3.494  11.010 -1.4563 -0.7474 -2.4601
 3526SOL    HW222215   4.553   3.409  11.100 -0.3150 -1.8203  0.4656
 3527SOL     OW22216   2.723   2.746   3.746 -0.2154 -0.1557 -0.2783
 3527SOL    HW122217   2.808   2.702   3.742  0.1011  0.3862  0.5213
 3527SOL    HW222218   2.671   2.687   3.691 -0.6130  0.3986 -0.4863
 3528SOL     OW22219   1.699   4.558   2.773  0.0725  0.0854  0.2741
 3528SOL    HW122220   1.740   4.597   2.851  0.4082  2.2081 -0.9421
 3528SOL    HW222221   1.644   4.491   2.813 -0.5897  0.9456  0.8004
 3529SOL     OW22222   2.660   1.294  13.707 -0.3265  0.2006 -0.3842
 3529SOL    HW122223   2.599   1.284  13.634 -0.6684 -0.5456  0.0015
 3529SOL    HW222224   2.701   1.209  13.695 -1.2485 -0.3071  0.0640
 3530SOL     OW22225   0.401   2.246  11.979 -0.0699  0.3880 -0.4386
 3530SOL    HW122226   0.449   2.207  12.052 -1.0360  0.9238  0.4847
 3530SOL    HW222227   0.326   2.187  11.978 -0.5986  1.0164  2.7654
 3531SOL     OW22228   4.065   0.346   7.045  0.1557 -0.3578  0.2221
 3531SOL    HW122229   4.073   0.421   6.985 -0.2009 -0.5639 -0.0811
 3531SOL    HW222230   3.973   0.322   7.041 -0.1179  0.6943  0.1905
 3532SOL     OW22231   1.356   0.284   8.007  0.0493 -0.5768  0.2397
 3532SOL    HW122232   1.291   0.350   7.982 -1.4872 -1.4824  1.8088
 3532SOL    HW222233   1.432   0.301   7.952 -0.3210  0.3955  0.0297
 3533SOL     OW22234   0.252   3.304   6.337 -0.1453  0.0872  0.5443
 3533SOL    HW122235   0.243   3.334   6.247  0.6188 -1.2248  0.0283
 3533SOL    HW222236   0.164   3.318   6.371 -1.0861 -0.5045 -1.6255
 3534SOL     OW22237   1.989   1.754  16.104 -0.0934  0.4848  0.3295
 3534SOL    HW122238   1.928   1.735  16.033 -0.6501  2.9402  0.1508
 3534SOL    HW222239   2.065   1.715  16.062 -0.6772 -0.0084 -0.2574
 3535SOL     OW22240   2.016   0.246   7.668  0.5247  0.3041  0.0316
 3535SOL    HW122241   2.102   0.252   7.627 -0.4322 -0.6709 -2.1660
 3535SOL    HW222242   1.961   0.211   7.597 -0.8242  0.1384  1.1689
 3536SOL     OW22243   0.971   3.304  16.531  0.4589 -0.1507 -0.5420
 3536SOL    HW122244   0.915   3.230  16.506 -2.0874  0.8529  2.1725
 3536SOL    HW222245   0.916   3.381  16.518  2.2666  0.9430 -1.7439
 3537SOL     OW22246   2.587   4.614   6.188 -0.2741  0.0546 -0.0981
 3537SOL    HW122247   2.619   4.530   6.221  1.0356  1.2979  1.7917
 3537SOL    HW222248   2.650   4.672   6.231  1.4835 -2.8907  1.2576
 3538SOL     OW22249   3.185   4.044  10.320 -0.1825  0.3160 -0.1998
 3538SOL    HW122250   3.138   4.056  10.238 -2.3067  1.7600  1.2439
 3538SOL    HW222251   3.144   4.117  10.366  0.2793 -0.3565  1.3052
 3539SOL     OW22252   0.698   2.620   7.764 -0.2003 -0.2267  0.1832
 3539SOL    HW122253   0.715   2.682   7.835 -2.4884 -0.2497  0.7410
 3539SOL    HW222254   0.787   2.587   7.746 -0.2761 -0.1454 -0.3481
 3540SOL     OW22255   2.741   3.942  17.133 -0.0531  0.0002  0.2462
 3540SOL    HW122256   2.650   3.915  17.121 -0.0352  0.1796 -0.2873
 3540SOL    HW222257   2.767   3.994  17.057  0.2992 -2.1930 -1.1430
 3541SOL     OW22258   2.731   0.215  12.024 -0.3438 -0.1231 -0.2966
 3541SOL    HW122259   2.739   0.120  12.030 -0.8301 -0.2271 -1.3089
 3541SOL    HW222260   2.781   0.241  12.102 -0.4223 -1.3144  0.1423
 3542SOL     OW22261   0.533   0.902   2.606  0.2334  0.7219 -0.5681
 3542SOL    HW122262   0.601   0.926   2.543 -0.1527  0.9610 -0.8995
 3542SOL    HW222263   0.516   0.820   2.561 -3.5840 -0.3155  2.7770
 3543SOL     OW22264   3.625   3.268   8.948  0.0057 -0.0437  0.6832
 3543SOL    HW122265   3.607   3.308   9.033  1.1964 -0.0889  0.9676
 3543SOL    HW222266   3.714   3.296   8.925  0.2017  0.3811  1.9309
 3544SOL     OW22267   1.123   2.040   6.989 -0.4658  0.7254  0.1077
 3544SOL    HW122268   1.043   2.085   6.962  0.4921  2.2358 -0.2207
 3544SOL    HW222269   1.093   1.970   7.047 -0.9495  1.3942  0.6700
 3545SOL     OW22270   4.501   1.890  13.281 -0.0481 -0.0035 -0.2400
 3545SOL    HW122271   4.579   1.906  13.229  0.0540  3.0512  0.8936
 3545SOL    HW222272   4.442   1.842  13.222  0.6726 -1.9130  0.6073
 3546SOL     OW22273   1.380   3.784  10.818  0.5083 -0.0038  0.3461
 3546SOL    HW122274   1.351   3.709  10.870 -2.4962 -0.2271 -1.6054
 3546SOL    HW222275   1.344   3.852  10.875 -2.6269 -0.7796 -0.6993
 3547SOL     OW22276   2.632   0.262   6.478 -0.1014  0.7639 -0.3576
 3547SOL    HW122277   2.617   0.343   6.430 -1.7888  1.4859  1.3675
 3547SOL    HW222278   2.623   0.296   6.567 -0.3483  0.5517 -0.2994
 3548SOL     OW22279   1.433   0.624   4.666 -0.2698  0.0557  0.3051
 3548SOL    HW122280   1.347   0.583   4.656  0.6736 -1.6857 -0.6383
 3548SOL    HW222281   1.452   0.594   4.755  0.1846  0.3827  0.3163
 3549SOL     OW22282   1.184   1.749   5.181  0.2456  0.5311 -0.0598
 3549SOL    HW122283   1.248   1.797   5.233  1.0974 -1.5163  0.7591
 3549SOL    HW222284   1.109   1.781   5.232  1.1827 -0.5798  1.9799
 3550SOL     OW22285   0.124   2.890   4.930  0.2910 -0.0504  0.1347
 3550SOL    HW122286   0.084   2.961   4.980  1.6899  1.9461 -1.5689
 3550SOL    HW222287   0.160   2.937   4.854  0.5258 -1.8153 -0.8495
 3551SOL     OW22288   3.305   3.775  17.611  0.7918 -0.3357  0.1928
 3551SOL    HW122289   3.271   3.700  17.562  0.5350 -0.8948  1.2092
 3551SOL    HW222290   3.370   3.812  17.552 -0.3398 -0.6481 -1.2425
 3552SOL     OW22291   3.826   0.386   2.386 -0.3701 -0.9108 -0.5083
 3552SOL    HW122292   3.749   0.440   2.369  0.9504  1.1741  0.2300
 3552SOL    HW222293   3.902   0.444   2.381 -0.7372 -0.3733  0.2304
 3553SOL     OW22294   3.441   2.614   3.594 -0.3184 -0.1968  0.6537
 3553SOL    HW122295   3.365   2.594   3.540  0.5341  0.3637 -0.7656
 3553SOL    HW222296   3.501   2.620   3.520  1.3487 -0.7983  1.9519
 3554SOL     OW22297   0.558   1.538   7.405  0.1693  0.4189 -0.4855
 3554SOL    HW122298   0.589   1.544   7.314 -0.3834 -0.9768 -0.7696
 3554SOL    HW222299   0.590   1.453   7.433 -2.3492 -0.5189 -0.4245
 3555SOL     OW22300   1.068   2.190   3.795  0.5198  0.2594 -0.0782
 3555SOL    HW122301   1.091   2.273   3.752 -0.5356  0.3277 -0.5117
 3555SOL    HW222302   1.149   2.174   3.844 -0.4025 -0.4348  1.2046
 3556SOL     OW22303   2.791   0.991   0.827  0.4077  0.0744  0.0357
 3556SOL    HW122304   2.760   1.038   0.904 -0.3090  0.0648 -0.2490
 3556SOL    HW222305   2.769   0.900   0.846 -0.0750 -0.3243 -2.3754
 3557SOL     OW22306   0.399   1.782   4.033  0.5482  0.0935 -0.1799
 3557SOL    HW122307   0.369   1.721   4.100 -0.2346  0.5126 -0.1474
 3557SOL    HW222308   0.406   1.738   3.948  1.4358 -0.7277  0.3214
 3558SOL     OW22309   1.191   3.694   8.387 -0.5884  0.4570 -0.6318
 3558SOL    HW122310   1.132   3.722   8.458  1.0775  1.6685  0.2491
 3558SOL    HW222311   1.221   3.776   8.350 -0.3963 -0.9917 -3.6693
 3559SOL     OW22312   3.962   0.214   6.778 -1.0816  0.4218  0.3106
 3559SOL    HW122313   3.991   0.163   6.854  2.1474  0.0476 -1.2198
 3559SOL    HW222314   4.039   0.236   6.726 -1.4828 -0.0178 -0.4744
 3560SOL     OW22315   4.357   2.714   1.574 -0.3310  0.3394  0.3875
 3560SOL    HW122316   4.414   2.713   1.650  0.8067 -0.5099 -0.4944
 3560SOL    HW222317   4.298   2.648   1.609  0.0939 -0.0529  0.3563
 3561SOL     OW22318   1.096   1.278   5.492  0.2924 -0.8683  0.5442
 3561SOL    HW122319   1.025   1.242   5.439 -0.4605  0.8345  0.3922
 3561SOL    HW222320   1.104   1.365   5.453  0.3556 -0.9990  0.2680
 3562SOL     OW22321   4.632   2.399   6.869  0.5912  0.2214  0.1393
 3562SOL    HW122322   4.647   2.381   6.961 -1.1401 -0.5694  0.2631
 3562SOL    HW222323   4.541   2.376   6.851  0.5862 -0.6864  1.3693
 3563SOL     OW22324   2.792   2.043   8.547  0.1874 -0.2330  0.2234
 3563SOL    HW122325   2.709   2.006   8.575 -0.7109  1.5030 -0.1706
 3563SOL    HW222326   2.838   1.960   8.531 -0.5916 -1.1831  2.9174
 3564SOL     OW22327   2.428   4.290  10.377 -0.1344 -0.4362  0.0351
 3564SOL    HW122328   2.448   4.318  10.288 -0.9354 -1.4448 -0.4589
 3564SOL    HW222329   2.423   4.195  10.370 -2.9212 -0.2537 -0.4923
 3565SOL     OW22330   2.973   0.990   7.588  0.1065 -0.2758 -0.1401
 3565SOL    HW122331   2.944   1.043   7.513 -0.3352 -2.6403 -1.6321
 3565SOL    HW222332   2.945   0.902   7.564 -2.7878  0.9102 -1.1329
 3566SOL     OW22333   0.418   4.683   9.426 -0.8072 -0.0686 -0.1386
 3566SOL    HW122334   0.465   4.733   9.360 -1.6035 -0.5305 -1.0574
 3566SOL    HW222335   0.357   4.628   9.377 -0.6504  0.3985 -0.8433
 3567SOL     OW22336   0.152   3.064   5.666  0.2416 -0.0859  0.6800
 3567SOL    HW122337   0.229   3.109   5.631 -1.7025  1.8630 -1.0962
 3567SOL    HW222338   0.080   3.124   5.648  0.3207 -0.5725 -1.3197
 3568SOL     OW22339   0.421   1.725   5.278 -0.0484  0.0723 -0.5634
 3568SOL    HW122340   0.485   1.794   5.296  0.8999 -1.0269  0.2702
 3568SOL    HW222341   0.354   1.754   5.341 -0.0222 -0.7354 -0.1557
 3569SOL     OW22342   2.775   1.732   5.365  0.4328 -0.1304 -0.6882
 3569SOL    HW122343   2.727   1.807   5.399  0.5338 -0.3099 -0.1441
 3569SOL    HW222344   2.743   1.722   5.275  2.1435 -2.5511 -1.0172
 3570SOL     OW22345   1.966   2.707   3.739 -0.3717 -0.7083  1.0546
 3570SOL    HW122346   1.933   2.626   3.776 -0.0153 -1.5550 -0.5097
 3570SOL    HW222347   1.974   2.756   3.821  1.1426 -0.1493  0.5730
 3571SOL     OW22348   3.972   4.201   3.620 -0.2897 -0.1621 -0.2418
 3571SOL    HW122349   3.940   4.268   3.681 -0.7169 -2.1619  1.7166
 3571SOL    HW222350   3.903   4.213   3.554 -0.7380 -0.8326  0.1058
 3572SOL     OW22351   3.579   2.214   2.498 -0.0654  0.5257 -0.2061
 3572SOL    HW122352   3.631   2.287   2.463 -0.0122 -0.1791 -1.6138
 3572SOL    HW222353   3.515   2.251   2.559  1.6123  0.4773  1.5810
 3573SOL     OW22354   1.502   2.700   4.006 -0.4387  0.0759  0.1367
 3573SOL    HW122355   1.430   2.736   3.954 -0.7078  1.6577  1.5807
 3573SOL    HW222356   1.487   2.608   3.984  0.6234 -0.2359  0.7261
 3574SOL     OW22357   1.242   2.495   9.242 -0.1518 -0.4681  0.1689
 3574SOL    HW122358   1.167   2.436   9.254 -0.7943  0.7928  2.2099
 3574SOL    HW222359   1.316   2.437   9.224  0.4632  0.7357 -1.1838
 3575SOL     OW22360   2.297   3.349   6.108  0.1707 -0.0725 -0.7516
 3575SOL    HW122361   2.352   3.278   6.141 -0.9205 -1.3472 -1.6750
 3575SOL    HW222362   2.275   3.398   6.187  0.8257 -0.3502 -0.3905
 3576SOL     OW22363   0.512   0.906   6.277 -0.1548  0.3252  0.0100
 3576SOL    HW122364   0.491   0.816   6.303  0.5374  0.9151  2.6928
 3576SOL    HW222365   0.423   0.935   6.257  0.5393  1.2682 -1.7071
 3577SOL     OW22366   2.424   1.783  16.063  0.1667 -0.0032  0.6844
 3577SOL    HW122367   2.453   1.873  16.050  0.4553 -0.1168  0.5513
 3577SOL    HW222368   2.380   1.763  15.980 -0.6677 -1.9381  1.6106
 3578SOL     OW22369   2.871   3.711  17.163  0.2856  0.2049  0.4748
 3578SOL    HW122370   2.839   3.801  17.153  1.6253  0.5369 -0.8192
 3578SOL    HW222371   2.787   3.670  17.143  0.1588  0.3688  0.6772
 3579SOL     OW22372   2.443   3.664   3.380 -0.1266 -0.3425 -0.4852
 3579SOL    HW122373   2.396   3.735   3.337  1.1896  0.9531  0.1705
 3579SOL    HW222374   2.531   3.703   3.375  0.1667 -0.9869 -0.4011
 3580SOL     OW22375   4.375   1.953   9.245  0.0840 -0.3038  0.1416
 3580SOL    HW122376   4.404   2.044   9.251  0.5647 -0.4361 -0.1480
 3580SOL    HW222377   4.304   1.945   9.308  0.7896 -0.1176  0.9512
 3581SOL     OW22378   4.525   0.012   8.660  0.2143 -0.0029 -0.1877
 3581SOL    HW122379   4.602   4.713   8.615  0.4992  0.2743  0.0987
 3581SOL    HW222380   4.536   0.101   8.626  0.7524 -0.2806 -0.7410
 3582SOL     OW22381   2.779   3.334   3.083 -0.3714 -0.3166 -0.3476
 3582SOL    HW122382   2.716   3.356   3.014 -0.5099 -3.0091 -1.0645
 3582SOL    HW222383   2.765   3.241   3.099  0.3684 -0.7824 -2.3932
 3583SOL     OW22384   0.176   2.295   7.967  0.2941  0.0219  0.6925
 3583SOL    HW122385   0.215   2.273   7.882  1.8776  0.5106  1.2878
 3583SOL    HW222386   0.108   2.228   7.976  1.8169 -1.4251  1.5115
 3584SOL     OW22387   0.907   1.583  16.268  0.0714  0.9883 -0.0190
 3584SOL    HW122388   0.863   1.574  16.183  0.6637 -0.6437 -0.1597
 3584SOL    HW222389   0.890   1.499  16.310  0.7232  0.0419 -1.6423
 3585SOL     OW22390   2.472   1.017  17.371  0.0818 -0.1221  0.1241
 3585SOL    HW122391   2.408   1.023  17.441  0.4201 -0.1719  0.4352
 3585SOL    HW222392   2.511   1.104  17.379 -1.0756  0.2844  1.3560
 3586SOL     OW22393   3.447   1.750   9.817 -0.1592 -0.2277  0.0732
 3586SOL    HW122394   3.539   1.726   9.805  0.6101  2.1331  1.2506
 3586SOL    HW222395   3.458   1.830   9.869  0.2602  1.2545 -2.2697
 3587SOL     OW22396   1.756   2.013  15.443  0.6856  0.0497  1.2322
 3587SOL    HW122397   1.843   2.039  15.416 -0.1075 -1.3974 -2.7386
 3587SOL    HW222398   1.761   2.039  15.535 -1.0504  0.0636  1.3257
 3588SOL     OW22399   1.842   2.191   6.799  0.4389 -0.5124  0.3241
 3588SOL    HW122400   1.789   2.167   6.874 -2.3199  0.9828 -1.1675
 3588SOL    HW222401   1.917   2.132   6.808  0.7801 -0.1250  0.0676
 3589SOL     OW22402   4.065   0.013   7.833  0.4288 -0.3787  0.0112
 3589SOL    HW122403   4.065   0.060   7.750  1.1100 -0.3473  0.0341
 3589SOL    HW222404   3.996   4.684   7.812  0.1959 -0.0943 -0.0978
 3590SOL     OW22405   1.091   3.751  14.246 -0.0196 -0.2376 -0.3258
 3590SOL    HW122406   1.185   3.749  14.227  0.1607  1.5217  0.3737
 3590SOL    HW222407   1.073   3.844  14.256  3.7352  0.4870 -0.4551
 3591SOL     OW22408   0.363   2.163   8.629 -0.8289  0.3594 -0.5134
 3591SOL    HW122409   0.301   2.105   8.585 -1.6715  0.7828  0.1190
 3591SOL    HW222410   0.438   2.152   8.570 -2.0211 -3.5785 -1.3287
 3592SOL     OW22411   3.308   2.172   4.383  0.2156 -0.1287 -0.0765
 3592SOL    HW122412   3.216   2.146   4.397 -0.2602  0.7332 -1.6499
 3592SOL    HW222413   3.326   2.222   4.462 -2.7017  0.2331  0.3587
 3593SOL     OW22414   3.203   4.484   2.039 -0.0207 -0.1302  0.6960
 3593SOL    HW122415   3.151   4.487   1.958  1.9766 -0.4451 -0.6092
 3593SOL    HW222416   3.244   4.571   2.032 -0.6643  0.3565  3.2165
 3594SOL     OW22417   0.060   4.294   2.068 -0.2572  0.0805  0.8047
 3594SOL    HW122418   0.048   4.208   2.107 -1.2177  0.0938  0.5524
 3594SOL    HW222419   4.705   4.326   2.056 -0.1496  0.8106  1.9799
 3595SOL     OW22420   0.454   4.399  16.107 -0.3670 -0.5231 -0.2631
 3595SOL    HW122421   0.370   4.423  16.145 -1.4711 -1.5984 -2.0507
 3595SOL    HW222422   0.462   4.310  16.144 -1.1533 -0.6550 -0.4194
 3596SOL     OW22423   3.214   0.336   1.330 -0.2731  0.1310 -0.2718
 3596SOL    HW122424   3.256   0.282   1.262  0.0920 -0.3733  0.3577
 3596SOL    HW222425   3.138   0.279   1.342 -0.5594  0.0914 -2.2834
 3597SOL     OW22426   1.545   2.847  10.746  0.1098 -0.1500  0.6366
 3597SOL    HW122427   1.605   2.779  10.716 -0.3861  0.2360 -1.2149
 3597SOL    HW222428   1.556   2.911  10.676 -2.9645 -1.3145 -0.9002
 3598SOL     OW22429   2.192   1.029   9.117 -0.1765  0.5651 -0.4376
 3598SOL    HW122430   2.181   1.111   9.164 -1.1468  0.2570 -0.1443
 3598SOL    HW222431   2.113   0.977   9.128 -0.0845  0.8763  1.5352
 3599SOL     OW22432   2.340   2.223  10.160  0.1021 -0.0935 -0.2954
 3599SOL    HW122433   2.428   2.187  10.163  0.7850  1.6091 -0.0691
 3599SOL    HW222434   2.326   2.218  10.065 -1.2047 -1.7491 -0.0303
 3600SOL     OW22435   2.966   2.899   3.754  0.5889 -0.1406 -0.6871
 3600SOL    HW122436   2.994   2.894   3.663 -0.9910 -1.7610 -1.0748
 3600SOL    HW222437   2.870   2.897   3.753  0.5095  4.0263 -0.5826
 3601SOL     OW22438   2.791   0.940   6.398  0.1694 -0.0351  0.3360
 3601SOL    HW122439   2.745   0.872   6.448 -0.4900  1.2549  1.5011
 3601SOL    HW222440   2.825   0.895   6.321  1.1717 -0.2745  0.9171
 3602SOL     OW22441   2.517   3.955   3.410 -0.4644  1.0428 -0.1963
 3602SOL    HW122442   2.522   3.994   3.498 -2.6061 -0.3040  0.5206
 3602SOL    HW222443   2.594   3.899   3.412 -1.7665 -0.7012  0.8432
 3603SOL     OW22444   1.731   4.708   3.756 -0.4015 -0.3884 -0.1351
 3603SOL    HW122445   1.704   4.646   3.823  0.4188 -1.6514 -0.9847
 3603SOL    HW222446   1.779   0.043   3.803  1.5710  0.0792 -2.8664
 3604SOL     OW22447   4.593   4.164   5.652 -0.3750 -0.1833 -0.1205
 3604SOL    HW122448   4.561   4.211   5.575  0.5282 -1.2129 -1.1246
 3604SOL    HW222449   4.680   4.199   5.671  0.5849 -2.6755  0.0150
 3605SOL     OW22450   4.245   1.728  16.678  0.1259  0.2000  0.2941
 3605SOL    HW122451   4.203   1.814  16.681 -4.3601 -1.9956  0.8261
 3605SOL    HW222452   4.263   1.718  16.585  0.6581  2.9319  0.0868
 3606SOL     OW22453   4.272   0.548   8.483  0.0153 -0.4522 -0.4784
 3606SOL    HW122454   4.267   0.541   8.388 -0.7561 -0.3761 -0.4435
 3606SOL    HW222455   4.178   0.555   8.500  0.1197 -1.5288  0.5871
 3607SOL     OW22456   2.021   4.151   1.375  0.0325  0.2483  0.7857
 3607SOL    HW122457   1.991   4.190   1.293  0.3867  1.1683  1.0917
 3607SOL    HW222458   1.978   4.218   1.428 -0.2512  0.3026  0.4888
 3608SOL     OW22459   3.535   4.089  10.650 -0.5034 -0.6477 -0.2817
 3608SOL    HW122460   3.473   4.083  10.578 -0.9443  0.5546 -0.0136
 3608SOL    HW222461   3.572   4.178  10.641  0.8474 -1.1561  0.1779
 3609SOL     OW22462   0.382   2.000   7.427  0.3378  0.0445  0.0501
 3609SOL    HW122463   0.419   1.917   7.455 -1.2881 -0.8363 -0.4405
 3609SOL    HW222464   0.377   2.041   7.514  1.2111  0.4633 -0.0948
 3610SOL     OW22465   1.717   3.465   3.886 -0.4021  0.4860 -0.0924
 3610SOL    HW122466   1.724   3.418   3.968 -0.7547 -0.2904 -0.5082
 3610SOL    HW222467   1.779   3.419   3.830 -0.4569  0.0381  0.2250
 3611SOL     OW22468   0.667   0.406  17.433  0.3890  0.3245  0.0989
 3611SOL    HW122469   0.660   0.316  17.464  0.4284 -0.2844 -1.6272
 3611SOL    HW222470   0.760   0.429  17.436  0.2334  1.2947 -1.7913
 3612SOL     OW22471   0.427   3.906  13.666 -0.3234 -0.3059  0.0332
 3612SOL    HW122472   0.385   3.888  13.751 -1.9738  1.7774 -0.3408
 3612SOL    HW222473   0.354   3.879  13.610 -0.7570 -3.7380  2.2393
 3613SOL     OW22474   2.899   3.381   4.823 -0.0957 -0.2097 -0.4410
 3613SOL    HW122475   2.877   3.463   4.780 -0.1321  0.3405  0.6452
 3613SOL    HW222476   2.831   3.368   4.889 -0.2550  0.3709 -0.4920
 3614SOL     OW22477   4.337   4.091   5.057 -0.1974  0.0618 -0.2054
 3614SOL    HW122478   4.293   4.124   4.979 -0.1137 -1.2363 -0.8000
 3614SOL    HW222479   4.431   4.105   5.049 -0.5627  1.7953 -1.3577
 3615SOL     OW22480   2.630   2.374   4.701 -0.3518  0.5249 -0.4159
 3615SOL    HW122481   2.567   2.444   4.715  0.9125  1.2879  1.4538
 3615SOL    HW222482   2.600   2.337   4.619 -0.8070 -0.0949  0.0404
 3616SOL     OW22483   1.017   1.172   1.396 -0.0224  0.1397  0.1451
 3616SOL    HW122484   1.095   1.222   1.373 -0.1648 -0.1329 -0.9470
 3616SOL    HW222485   1.029   1.088   1.352 -3.6465  0.1716 -0.9326
 3617SOL     OW22486   3.810   2.857   3.317  0.7046 -0.2909  0.1456
 3617SOL    HW122487   3.724   2.822   3.340  0.1359 -1.2246 -3.5077
 3617SOL    HW222488   3.780   2.931   3.264  0.7585 -1.4941 -1.5453
 3618SOL     OW22489   0.475   0.494   8.830  0.0259 -0.2130  0.2847
 3618SOL    HW122490   0.507   0.574   8.789  0.9154 -0.3166  0.7643
 3618SOL    HW222491   0.394   0.483   8.781 -0.2632  0.1115  0.6884
 3619SOL     OW22492   3.986   0.272   4.057 -0.1531  0.1140 -0.3162
 3619SOL    HW122493   3.949   0.357   4.083 -2.7596 -2.0863  3.2609
 3619SOL    HW222494   4.071   0.258   4.097 -1.4134 -2.2322  1.5323
 3620SOL     OW22495   4.483   2.432   4.516 -0.3234  0.2639  0.7723
 3620SOL    HW122496   4.417   2.489   4.556 -1.2827 -1.0997  1.1088
 3620SOL    HW222497   4.472   2.348   4.560  0.3116  0.5401  1.4787
 3621SOL     OW22498   1.893   1.453   8.927 -0.0345 -0.2048  0.2025
 3621SOL    HW122499   1.864   1.419   9.011  0.2996  0.5522  0.6196
 3621SOL    HW222500   1.940   1.377   8.893 -0.1328 -0.4286  0.5798
 3622SOL     OW22501   1.322   2.029   2.183  0.5431  0.3091 -0.6507
 3622SOL    HW122502   1.373   1.949   2.182  1.4232  0.8418  1.9743
 3622SOL    HW222503   1.287   2.030   2.094  0.0145 -2.6841 -0.4574
 3623SOL     OW22504   3.827   1.041   7.964  0.0051  0.4570 -0.1321
 3623SOL    HW122505   3.791   1.004   8.045  0.1495 -0.7013 -0.6027
 3623SOL    HW222506   3.884   0.970   7.935 -0.6939  0.8089 -2.3501
 3624SOL     OW22507   1.864   2.247  17.290 -0.1396  0.0280  0.2610
 3624SOL    HW122508   1.787   2.274  17.342 -3.0561  1.3606 -4.7694
 3624SOL    HW222509   1.933   2.293  17.338  0.0408 -0.3035  0.3183
 3625SOL     OW22510   3.237   4.038  14.652 -0.1217  0.0376  0.1273
 3625SOL    HW122511   3.274   4.123  14.628 -0.5741  0.1033 -0.3407
 3625SOL    HW222512   3.179   4.068  14.722  0.8823  2.2969 -0.0159
 3626SOL     OW22513   3.965   1.557   0.485  0.2880  0.1590  0.0503
 3626SOL    HW122514   3.998   1.509   0.561 -2.4845 -0.1175  1.0770
 3626SOL    HW222515   4.031   1.626   0.472  2.1230 -1.4798  0.6322
 3627SOL     OW22516   3.622   2.202   6.048  0.2109  1.0380  0.4243
 3627SOL    HW122517   3.545   2.231   6.097  0.3443  0.2120  1.1273
 3627SOL    HW222518   3.663   2.154   6.121  0.6673  0.7236 -0.0381
 3628SOL     OW22519   4.575   4.510  16.978  0.2998 -0.2033  0.3690
 3628SOL    HW122520   4.661   4.546  17.002  0.3280  0.1620 -0.2664
 3628SOL    HW222521   4.593   4.419  16.954 -0.1388 -0.1836 -0.0409
 3629SOL     OW22522   2.454   3.739  17.033  0.1265 -0.4211 -0.2965
 3629SOL    HW122523   2.389   3.683  16.991 -2.0696  1.3354  0.8431
 3629SOL    HW222524   2.484   3.668  17.090 -0.9126  0.6723  1.5971
 3630SOL     OW22525   3.310   2.230   5.425  0.0437 -0.0253 -0.7484
 3630SOL    HW122526   3.240   2.293   5.442  1.5737  2.0004 -1.9162
 3630SOL    HW222527   3.265   2.146   5.433  0.1926  0.1182  1.8079
 3631SOL     OW22528   1.305   1.112  11.355  0.0153  0.2660 -0.3114
 3631SOL    HW122529   1.339   1.024  11.372 -1.5015 -0.8855 -3.1164
 3631SOL    HW222530   1.344   1.151  11.433  2.2559 -0.6551 -0.9739
 3632SOL     OW22531   0.534   2.408   6.363  0.3070 -0.0063 -0.4052
 3632SOL    HW122532   0.598   2.473   6.335 -0.7094  2.0310  2.0368
 3632SOL    HW222533   0.596   2.338   6.384 -0.2722  0.0846  1.6519
 3633SOL     OW22534   4.701   1.893   9.212  0.2545  0.1816  0.0975
 3633SOL    HW122535   4.627   1.914   9.269  0.8762 -1.0549  1.3762
 3633SOL    HW222536   4.665   1.822   9.159 -0.3065  0.9409 -0.5323
 3634SOL     OW22537   1.944   3.552   7.687 -0.0193  0.0923  0.3277
 3634SOL    HW122538   2.021   3.589   7.644 -1.2710  1.0372 -1.0418
 3634SOL    HW222539   1.981   3.498   7.758  1.1867 -1.1233 -1.2185
 3635SOL     OW22540   0.167   0.067  16.843 -0.5691  0.5904 -0.1337
 3635SOL    HW122541   0.231   0.130  16.812  1.9573 -1.0507  1.7612
 3635SOL    HW222542   0.101   0.084  16.776 -0.5530  1.2776  0.0288
 3636SOL     OW22543   0.123   2.371   0.509 -0.3010 -0.1069  0.2534
 3636SOL    HW122544   0.142   2.434   0.439 -2.1898  0.1065 -0.0696
 3636SOL    HW222545   0.051   2.328   0.463  0.6140 -1.4106  0.0594
 3637SOL     OW22546   1.825   4.357   4.275 -0.0524  0.4530 -0.4103
 3637SOL    HW122547   1.753   4.317   4.324  0.8572 -1.8957 -0.9825
 3637SOL    HW222548   1.803   4.330   4.185  1.4995  0.7147 -0.8640
 3638SOL     OW22549   3.606   0.053  12.553 -0.0206 -0.3305 -0.5475
 3638SOL    HW122550   3.567   0.037  12.639 -1.4144 -0.1742 -1.1399
 3638SOL    HW222551   3.677   0.113  12.576 -0.5911  0.2375 -0.2828
 3639SOL     OW22552   3.474   1.102   4.097  0.0645 -0.6247  0.8587
 3639SOL    HW122553   3.450   1.195   4.095 -2.4178 -1.2753 -0.1290
 3639SOL    HW222554   3.391   1.053   4.102  0.3829 -1.3919 -1.3709
 3640SOL     OW22555   0.821   0.021   2.700  0.1506 -0.2575  0.9445
 3640SOL    HW122556   0.866   4.673   2.678  0.0011 -0.4833  1.4850
 3640SOL    HW222557   0.730   0.004   2.677  0.3508  0.4818 -0.3968
 3641SOL     OW22558   3.988   3.991   8.468 -0.0297 -0.0317  0.4703
 3641SOL    HW122559   3.934   4.057   8.424  0.5443  0.4558  0.5000
 3641SOL    HW222560   3.997   3.941   8.387 -2.2964  2.5959 -1.3865
 3642SOL     OW22561   4.706   4.383   4.293 -0.2562 -0.1663  0.0554
 3642SOL    HW122562   0.030   4.389   4.369  0.6690  0.7125 -0.7195
 3642SOL    HW222563   0.025   4.336   4.229 -1.7353 -1.0022 -0.5720
 3643SOL     OW22564   4.043   3.143  12.502 -0.2139 -0.1076  0.1336
 3643SOL    HW122565   4.011   3.058  12.534 -1.5264  0.3916  0.1180
 3643SOL    HW222566   4.104   3.163  12.573 -0.1913 -1.4824  0.5129
 3644SOL     OW22567   3.805   1.802   8.566 -0.4606 -0.5020 -0.5353
 3644SOL    HW122568   3.783   1.760   8.649 -2.3992  2.6403  0.5607
 3644SOL    HW222569   3.721   1.790   8.520 -1.0076  2.8514 -0.4564
 3645SOL     OW22570   2.821   3.368   6.096 -0.1785 -0.0005  0.4949
 3645SOL    HW122571   2.836   3.330   6.009  2.6632  2.5057 -0.1096
 3645SOL    HW222572   2.869   3.449   6.078 -0.6121  0.0328 -0.5204
 3646SOL     OW22573   0.167   0.750   8.965  0.1544 -0.7126 -0.8072
 3646SOL    HW122574   0.126   0.833   8.941  1.7567  0.3618  0.2343
 3646SOL    HW222575   0.085   0.704   8.984 -0.5484  0.1902 -1.6785
 3647SOL     OW22576   0.870   2.084   3.584  0.1255  0.0219 -0.1399
 3647SOL    HW122577   0.949   2.124   3.619  2.1098 -2.5289 -1.6101
 3647SOL    HW222578   0.904   1.994   3.583  1.8167  0.6647 -0.9748
 3648SOL     OW22579   2.168   0.795   0.915 -0.0075 -0.1250  0.1616
 3648SOL    HW122580   2.211   0.724   0.963 -0.1456  0.1555  0.6940
 3648SOL    HW222581   2.242   0.817   0.858  1.3009 -2.7699  0.8169
 3649SOL     OW22582   4.613   0.839  13.641  0.0015 -0.2353 -0.5892
 3649SOL    HW122583   4.590   0.915  13.695  1.8439  0.3795 -0.6464
 3649SOL    HW222584   4.675   0.789  13.694 -0.2718  0.6413  0.5763
 3650SOL     OW22585   0.263   2.501  16.032  0.1089 -0.4185  0.2345
 3650SOL    HW122586   0.281   2.566  15.964 -2.2630  0.5590  0.5159
 3650SOL    HW222587   0.314   2.427  16.000  1.1874 -0.3028  1.6849
 3651SOL     OW22588   4.130   1.640   4.777  0.2629  0.2752 -0.1319
 3651SOL    HW122589   4.171   1.681   4.701  2.6400 -0.1822  0.8913
 3651SOL    HW222590   4.134   1.552   4.739 -1.4080  0.2977 -0.3465
 3652SOL     OW22591   1.552   0.104  10.090  0.3926  0.5320 -0.1154
 3652SOL    HW122592   1.543   0.160  10.167  0.5507  1.1954 -0.5805
 3652SOL    HW222593   1.623   0.046  10.117 -0.1209  0.5329  1.1971
 3653SOL     OW22594   0.489   1.419   5.643 -0.1013  0.0439  0.4421
 3653SOL    HW122595   0.436   1.491   5.608 -1.8658 -1.1092  0.7581
 3653SOL    HW222596   0.581   1.441   5.626  0.0273 -0.3365  0.6497
 3654SOL     OW22597   2.189   2.385   6.945  0.1318 -0.0205 -0.1272
 3654SOL    HW122598   2.164   2.314   7.004  2.8402 -2.0139 -1.3397
 3654SOL    HW222599   2.155   2.349   6.863 -0.8464  0.8961 -0.1228
 3655SOL     OW22600   0.818   4.641   4.324 -0.1629 -0.6725 -0.4940
 3655SOL    HW122601   0.739   4.693   4.334  0.3692  0.2194 -0.9075
 3655SOL    HW222602   0.842   4.658   4.232 -1.7342 -0.4379 -0.8496
 3656SOL     OW22603   4.385   2.169   4.244 -0.6895  0.2633 -0.7209
 3656SOL    HW122604   4.440   2.114   4.300  0.0833 -0.1860 -1.9168
 3656SOL    HW222605   4.296   2.134   4.241  0.1658 -2.1853  2.4494
 3657SOL     OW22606   2.172   2.883   8.877 -0.3653  0.1633 -0.2729
 3657SOL    HW122607   2.092   2.833   8.891 -0.2500  0.7417  2.3090
 3657SOL    HW222608   2.150   2.976   8.873  2.6197  0.9139  0.7143
 3658SOL     OW22609   4.677   1.051   1.499 -0.1736  0.7599 -0.3191
 3658SOL    HW122610   4.616   0.999   1.550  1.0085 -0.7622 -0.4522
 3658SOL    HW222611   4.647   1.035   1.409 -0.8857  2.2714 -0.3473
 3659SOL     OW22612   3.186   1.435   2.723  0.4684  0.3864  0.0572
 3659SOL    HW122613   3.159   1.373   2.791  1.2805 -0.7394 -0.6271
 3659SOL    HW222614   3.252   1.478   2.777  0.8349 -1.7635  1.3284
 3660SOL     OW22615   2.445   1.063   8.834 -0.1256 -0.0337 -0.0574
 3660SOL    HW122616   2.438   0.973   8.801  0.4371 -0.9437  2.3180
 3660SOL    HW222617   2.537   1.083   8.814 -0.0532  1.1013  1.4461
 3661SOL     OW22618   3.334   0.897   6.163  0.1060  0.2041  0.3998
 3661SOL    HW122619   3.274   0.831   6.129  0.5995  0.6173 -1.2734
 3661SOL    HW222620   3.368   0.845   6.236 -0.7138  0.1334  0.7292
 3662SOL     OW22621   2.667   1.621   3.280 -0.0550  0.5674 -0.3158
 3662SOL    HW122622   2.622   1.698   3.313  1.7588  1.1009  0.8730
 3662SOL    HW222623   2.746   1.618   3.332  1.8003 -0.3751 -3.1712
 3663SOL     OW22624   0.250   0.192   2.049 -0.3489  0.1760  0.4736
 3663SOL    HW122625   0.234   0.108   2.006  0.7544  0.7629 -1.0834
 3663SOL    HW222626   0.326   0.227   2.002  1.2463 -2.4902  1.0702
 3664SOL     OW22627   1.025   1.170   6.713  0.0800 -0.2955 -0.2081
 3664SOL    HW122628   0.958   1.102   6.714  0.4434 -0.6885 -1.4460
 3664SOL    HW222629   0.974   1.246   6.741 -1.8695 -0.8045 -2.3583
 3665SOL     OW22630   1.782   4.646  12.549 -0.1189  0.3268  0.0614
 3665SOL    HW122631   1.686   4.649  12.557 -0.0734 -0.4364  0.9591
 3665SOL    HW222632   1.800   4.602  12.466  4.1410 -1.1390  1.8021
 3666SOL     OW22633   0.201   4.518   5.360 -0.4446 -0.1073 -0.5885
 3666SOL    HW122634   0.168   4.505   5.271 -0.4783 -1.7993 -0.3243
 3666SOL    HW222635   0.132   4.572   5.398  1.2100  0.9808  0.9176
 3667SOL     OW22636   4.050   1.502   8.493  0.1782 -0.1027 -0.3469
 3667SOL    HW122637   4.004   1.470   8.415  1.2996  1.9130 -1.8463
 3667SOL    HW222638   4.078   1.591   8.472 -0.6388  0.4638  1.0089
 3668SOL     OW22639   3.398   4.575  14.263 -0.3911  0.2856  0.3061
 3668SOL    HW122640   3.328   4.634  14.292 -0.8959  0.1934 -0.7137
 3668SOL    HW222641   3.415   4.610  14.175 -0.8929 -2.7086 -0.9846
 3669SOL     OW22642   4.044   0.984  14.740  0.6164  0.5143 -0.2777
 3669SOL    HW122643   4.031   1.075  14.714  1.8631  0.8891  0.3827
 3669SOL    HW222644   3.957   0.948  14.723  0.0635  1.0891  1.4016
 3670SOL     OW22645   3.498   4.714   6.846  0.1735  0.1116 -0.0851
 3670SOL    HW122646   3.454   4.677   6.770  0.5262 -2.3364  0.8803
 3670SOL    HW222647   3.454   4.677   6.923  1.6288 -0.8507  0.2814
 3671SOL     OW22648   0.061   1.925   4.071 -0.5694  1.1536 -0.2375
 3671SOL    HW122649   0.061   1.899   4.163  1.6395 -1.4191 -0.9758
 3671SOL    HW222650   0.149   1.962   4.079  0.0718 -0.2526 -0.8154
 3672SOL     OW22651   2.040   2.625   4.392 -0.1502  0.2489  0.2727
 3672SOL    HW122652   2.069   2.690   4.327  0.1117  0.6869  0.8275
 3672SOL    HW222653   1.947   2.647   4.390  0.5133  3.1506  0.5428
 3673SOL     OW22654   4.502   0.543  16.855  0.5076  0.2477  0.2983
 3673SOL    HW122655   4.589   0.522  16.822  0.2454 -1.6486  0.8596
 3673SOL    HW222656   4.510   0.573  16.945  1.4293 -0.1876  0.3617
 3674SOL     OW22657   3.183   3.600   8.372  0.1309 -0.1689  0.6448
 3674SOL    HW122658   3.174   3.693   8.392 -0.8485 -0.1265 -0.0035
 3674SOL    HW222659   3.139   3.569   8.451  0.3659 -1.7462  0.1563
 3675SOL     OW22660   3.970   2.173  16.826 -0.1640  0.3085 -0.1302
 3675SOL    HW122661   3.883   2.188  16.787 -0.5337  0.6328  0.8246
 3675SOL    HW222662   3.977   2.256  16.872  0.9892 -0.6127  1.3371
 3676SOL     OW22663   1.040   3.786   2.694 -0.4707  0.5394 -0.6737
 3676SOL    HW122664   0.953   3.745   2.699 -0.0482 -0.4773 -1.7730
 3676SOL    HW222665   1.100   3.713   2.678 -1.2145  0.2181 -1.9557
 3677SOL     OW22666   3.716   1.304   7.912  0.0696  0.1184 -0.7788
 3677SOL    HW122667   3.760   1.220   7.918 -2.5384 -1.0837  1.7585
 3677SOL    HW222668   3.670   1.302   7.996 -0.8159  1.5013 -1.2278
 3678SOL     OW22669   1.642   0.909   6.269 -0.1808  0.0676 -0.0920
 3678SOL    HW122670   1.688   0.904   6.185  0.2867  2.4673  0.0251
 3678SOL    HW222671   1.630   1.003   6.277 -2.8859 -0.3059  0.2581
 3679SOL     OW22672   2.958   4.074   8.194 -0.5576 -0.3037 -0.0051
 3679SOL    HW122673   2.994   4.141   8.136  2.1270 -1.3675  0.4270
 3679SOL    HW222674   2.993   3.994   8.154  0.1044 -0.2600  0.4790
 3680SOL     OW22675   0.944   0.570   8.990 -0.7867  0.0334  0.1419
 3680SOL    HW122676   1.037   0.591   8.987 -0.1943 -2.7326 -1.1383
 3680SOL    HW222677   0.916   0.624   9.064  0.1268 -3.5619  3.1781
 3681SOL     OW22678   4.026   0.144   3.196  0.0970 -0.3125 -0.5907
 3681SOL    HW122679   4.065   0.214   3.247 -1.3641 -0.3322  0.5587
 3681SOL    HW222680   4.054   0.165   3.107 -0.7115  1.6707 -0.3828
 3682SOL     OW22681   3.606   1.437   3.920 -0.1350 -0.3626  0.0855
 3682SOL    HW122682   3.582   1.438   4.012 -1.8451 -1.5785 -0.3395
 3682SOL    HW222683   3.666   1.512   3.921 -1.3892  0.7049 -3.1178
 3683SOL     OW22684   1.997   1.077   7.755 -0.1791  0.4825  0.0550
 3683SOL    HW122685   2.008   1.004   7.693  0.9694  0.8483 -0.1683
 3683SOL    HW222686   2.077   1.128   7.749 -0.2643  0.5672 -0.3623
 3684SOL     OW22687   0.248   3.453   6.080 -0.1162  0.2966  0.9762
 3684SOL    HW122688   0.329   3.448   6.030 -1.2864  2.8001 -1.1794
 3684SOL    HW222689   0.188   3.396   6.033  0.2851  1.1462 -0.5530
 3685SOL     OW22690   0.478   4.568   5.332 -0.3568  0.0196  0.0306
 3685SOL    HW122691   0.390   4.579   5.368 -0.7391 -1.1785 -0.5416
 3685SOL    HW222692   0.479   4.630   5.258 -1.6396  0.0537  0.0439
 3686SOL     OW22693   1.124   4.472   4.170  0.1520 -0.1495 -0.0400
 3686SOL    HW122694   1.089   4.457   4.258 -1.5341  0.5993 -0.5823
 3686SOL    HW222695   1.145   4.381   4.148 -0.2188 -0.1533 -0.3878
 3687SOL     OW22696   1.361   3.346   4.240  0.2204  0.5558  0.1664
 3687SOL    HW122697   1.401   3.267   4.278 -2.2461 -0.7549  0.0337
 3687SOL    HW222698   1.447   3.380   4.215 -0.5450  2.2811 -0.1174
 3688SOL     OW22699   4.244   4.498  14.982 -0.1501 -0.0089 -0.5877
 3688SOL    HW122700   4.192   4.569  14.945  2.0511  2.0886  0.3435
 3688SOL    HW222701   4.306   4.479  14.911 -0.0901  1.1650 -0.8368
 3689SOL     OW22702   3.718   1.277   1.691 -0.5777 -0.0146 -0.1527
 3689SOL    HW122703   3.720   1.184   1.666  2.0590  0.1433 -0.5333
 3689SOL    HW222704   3.813   1.283   1.700 -0.5808 -0.7196  0.3761
 3690SOL     OW22705   0.392   3.404   4.791  0.6242  0.5692  0.9043
 3690SOL    HW122706   0.405   3.495   4.764  0.6199 -0.2815 -1.9540
 3690SOL    HW222707   0.453   3.407   4.864  1.5244 -1.3065  0.2083
 3691SOL     OW22708   1.559   2.266   5.713 -0.1217  0.3768 -0.7097
 3691SOL    HW122709   1.563   2.175   5.744 -0.6093  0.9004  0.8725
 3691SOL    HW222710   1.466   2.272   5.694 -0.2395  1.2050  0.1291
 3692SOL     OW22711   1.797   1.043  11.191  0.6554 -0.1507  0.1600
 3692SOL    HW122712   1.874   0.986  11.190 -1.4330 -2.9486 -1.1137
 3692SOL    HW222713   1.833   1.131  11.203 -3.1322  1.3645  0.5967
 3693SOL     OW22714   4.643   2.964   0.390  0.2114 -0.0586 -0.1309
 3693SOL    HW122715   4.620   2.871   0.391  2.6236 -0.6476 -0.0919
 3693SOL    HW222716   4.558   3.007   0.386 -0.7554 -1.8504  1.5436
 3694SOL     OW22717   2.645   2.222   2.623 -0.3414 -0.0894  0.1635
 3694SOL    HW122718   2.668   2.254   2.536 -0.4501 -0.0311  0.1567
 3694SOL    HW222719   2.603   2.304   2.651 -0.4548 -0.3167  0.6663
 3695SOL     OW22720   0.720   2.449   6.915 -0.2363  0.1333 -0.2550
 3695SOL    HW122721   0.766   2.439   6.832 -0.8292  0.4535 -0.6237
 3695SOL    HW222722   0.659   2.376   6.910  0.3683 -0.4156  0.4041
 3696SOL     OW22723   2.557   3.678   1.966  0.1819  0.6289  0.0963
 3696SOL    HW122724   2.523   3.700   2.053  0.7925  3.0199 -0.2628
 3696SOL    HW222725   2.509   3.735   1.905 -2.6798 -1.6719  0.1828
 3697SOL     OW22726   4.293   2.802   2.944 -0.4272  0.0897  0.0496
 3697SOL    HW122727   4.237   2.725   2.931  1.4149 -0.8232 -2.3637
 3697SOL    HW222728   4.339   2.807   2.860 -1.7373  0.6871 -0.6351
 3698SOL     OW22729   2.982   3.648  17.386 -0.3872  0.3791 -0.4224
 3698SOL    HW122730   2.934   3.651  17.303 -0.2611 -2.5919 -0.5966
 3698SOL    HW222731   3.014   3.738  17.386 -0.5165  0.4412 -5.4505
 3699SOL     OW22732   4.136   2.170   2.854 -0.4479 -0.1927 -0.3255
 3699SOL    HW122733   4.089   2.101   2.900 -0.3578 -0.1770 -0.2080
 3699SOL    HW222734   4.209   2.178   2.916 -1.1119  1.8463  0.1828
 3700SOL     OW22735   2.864   2.464   4.007  0.0029 -0.2748  0.5133
 3700SOL    HW122736   2.820   2.410   4.073 -2.7133  0.2684 -0.8591
 3700SOL    HW222737   2.788   2.502   3.962  0.3538 -0.6204 -0.3726
 3701SOL     OW22738   2.353   0.217   6.727  0.3511 -0.3216  0.6401
 3701SOL    HW122739   2.338   0.263   6.644 -0.8390  1.8500  2.0812
 3701SOL    HW222740   2.309   0.135   6.702  0.2248  0.4569 -1.6988
 3702SOL     OW22741   0.717   0.760   5.689 -0.2005  0.2303 -0.1212
 3702SOL    HW122742   0.738   0.821   5.759  0.6521  1.8780 -1.8184
 3702SOL    HW222743   0.660   0.702   5.740  1.0589 -0.9728 -0.0791
 3703SOL     OW22744   4.505   2.273   3.484  0.2320 -0.0905 -0.4504
 3703SOL    HW122745   4.575   2.212   3.504  1.3048  1.2105 -0.1990
 3703SOL    HW222746   4.505   2.324   3.566 -0.3409  0.4067 -0.7570
 3704SOL     OW22747   4.189   3.754   2.357 -0.1236 -0.6623 -0.1228
 3704SOL    HW122748   4.171   3.663   2.333  1.1664 -1.0492  0.3996
 3704SOL    HW222749   4.210   3.796   2.273 -1.6902  0.8213  0.2169
 3705SOL     OW22750   1.980   2.393   8.231  0.0110  0.4654 -0.5959
 3705SOL    HW122751   1.887   2.373   8.220  0.0664 -0.9757  1.5491
 3705SOL    HW222752   1.985   2.473   8.284  0.9767 -0.0224  0.0441
 3706SOL     OW22753   3.928   2.078   4.457  0.1497 -0.0174 -0.1699
 3706SOL    HW122754   3.844   2.113   4.425  1.1342  0.3928 -2.3113
 3706SOL    HW222755   3.897   1.991   4.481  0.5482  0.2606  1.2967
 3707SOL     OW22756   1.274   3.383   2.356 -0.2386 -0.5381  0.0494
 3707SOL    HW122757   1.341   3.344   2.412 -0.5953  0.2281  1.0274
 3707SOL    HW222758   1.288   3.478   2.362 -1.0576 -0.3779 -0.6792
 3708SOL     OW22759   4.472   0.593   6.754  0.3256 -0.2912 -0.4182
 3708SOL    HW122760   4.502   0.586   6.663 -2.7735 -4.9907 -1.0494
 3708SOL    HW222761   4.544   0.631   6.805  0.5459  2.1200 -2.5262
 3709SOL     OW22762   1.420   3.476  17.644  0.1813  0.0580  0.1033
 3709SOL    HW122763   1.414   3.569  17.620 -0.2282  0.3976  1.5153
 3709SOL    HW222764   1.468   3.479  17.726 -0.1160 -0.8290  0.3001
 3710SOL     OW22765   4.223   0.986   8.112  0.1169  0.4351  0.1591
 3710SOL    HW122766   4.196   0.973   8.203 -0.7270  0.7880 -0.0352
 3710SOL    HW222767   4.312   0.950   8.114  0.4148  1.0323 -1.9501
 3711SOL     OW22768   4.377   3.045  15.493 -0.3275  0.4978  0.1780
 3711SOL    HW122769   4.468   3.057  15.466 -0.5564 -0.8117 -1.2153
 3711SOL    HW222770   4.356   2.951  15.490 -0.4659  0.5562 -0.5000
 3712SOL     OW22771   3.978   4.469   4.038 -0.3823 -0.0134 -0.0779
 3712SOL    HW122772   3.995   4.436   3.949  2.5486  0.9177  0.1481
 3712SOL    HW222773   4.057   4.431   4.075 -2.1515 -1.2158  2.4391
 3713SOL     OW22774   0.202   2.528   8.909  0.1629  0.3036  0.1361
 3713SOL    HW122775   0.247   2.612   8.900 -2.6135  1.5225 -2.3655
 3713SOL    HW222776   0.144   2.563   8.977  1.8853  1.5997  0.9186
 3714SOL     OW22777   3.826   0.020   9.088 -0.6656  0.3894 -0.2410
 3714SOL    HW122778   3.811   4.692   9.017 -2.6231  2.0501 -1.2478
 3714SOL    HW222779   3.895   0.075   9.051 -0.0915 -0.0523  0.1725
 3715SOL     OW22780   2.063   0.595   2.104  0.4880  0.4708 -0.0997
 3715SOL    HW122781   2.113   0.676   2.118 -1.0361  0.8140  3.5408
 3715SOL    HW222782   2.104   0.541   2.171 -0.3895  2.1557  1.8159
 3716SOL     OW22783   2.186   1.339   7.126  0.0363 -0.5836  0.3175
 3716SOL    HW122784   2.192   1.280   7.051  0.4302 -1.1452  0.7913
 3716SOL    HW222785   2.250   1.297   7.184 -0.1796  1.2629  1.8774
 3717SOL     OW22786   1.051   2.326   7.557  0.3211  0.1784  0.3256
 3717SOL    HW122787   0.992   2.255   7.583 -0.7443  1.0478  0.2737
 3717SOL    HW222788   1.061   2.299   7.466  0.3134  1.6161 -0.1097
 3718SOL     OW22789   0.760   1.975   2.911 -1.3251  0.7642  0.1417
 3718SOL    HW122790   0.837   2.019   2.877 -0.3554  0.0290  1.3491
 3718SOL    HW222791   0.771   2.009   3.000 -0.1710  0.0114  0.2951
 3719SOL     OW22792   1.812   2.587   5.939  0.0265 -0.1174 -0.5947
 3719SOL    HW122793   1.784   2.525   5.872 -0.6292 -0.6165  0.1355
 3719SOL    HW222794   1.749   2.554   6.004 -0.9032  0.9423 -0.9546
 3720SOL     OW22795   2.137   0.261  11.979 -0.2159 -0.0076  0.5660
 3720SOL    HW122796   2.098   0.210  12.050 -0.8591 -2.8442 -1.8315
 3720SOL    HW222797   2.172   0.335  12.029 -0.2504 -0.3773  1.1399
 3721SOL     OW22798   3.250   3.967   8.168 -0.1270  0.4803  0.2087
 3721SOL    HW122799   3.189   3.897   8.146  1.3031 -0.8224  0.4190
 3721SOL    HW222800   3.318   3.906   8.195 -1.1376 -0.3645  0.8416
 3722SOL     OW22801   4.018   2.528   0.837  0.0552 -0.6576 -0.1728
 3722SOL    HW122802   3.998   2.612   0.796 -2.4464 -0.0845  2.2342
 3722SOL    HW222803   4.056   2.481   0.763  0.8489 -0.8829  0.3727
 3723SOL     OW22804   3.073   1.015   8.881  0.0539 -0.2555  0.5425
 3723SOL    HW122805   3.065   1.036   8.974 -0.3302  2.5886 -0.1414
 3723SOL    HW222806   3.162   0.986   8.862  0.6630  0.6809  1.9816
 3724SOL     OW22807   1.791   3.554   9.279 -0.0439  0.0386  0.3917
 3724SOL    HW122808   1.853   3.627   9.278  0.2637 -0.2277 -0.0405
 3724SOL    HW222809   1.803   3.524   9.189  0.4468  2.1557 -0.2557
 3725SOL     OW22810   1.182   3.225   6.765 -0.5777 -0.3715 -0.1755
 3725SOL    HW122811   1.178   3.250   6.858 -2.5887 -1.3109 -0.0097
 3725SOL    HW222812   1.148   3.301   6.718 -0.3662  0.3318  0.8148
 3726SOL     OW22813   1.297   2.269   6.692  0.3447 -0.3560  0.0594
 3726SOL    HW122814   1.259   2.183   6.710 -2.4604  0.7591 -0.3860
 3726SOL    HW222815   1.240   2.301   6.622  0.8070  2.1968  0.8519
 3727SOL     OW22816   2.829   1.774   5.872 -0.1053 -0.4289 -0.4128
 3727SOL    HW122817   2.765   1.841   5.893 -0.6950 -1.5666  1.4808
 3727SOL    HW222818   2.889   1.789   5.946 -0.0876 -0.9289 -0.3195
 3728SOL     OW22819   0.667   1.248   3.752  0.2933 -0.1856  0.4038
 3728SOL    HW122820   0.583   1.243   3.706  0.4097 -1.8787  0.3923
 3728SOL    HW222821   0.649   1.327   3.804 -0.4660 -0.0919  0.0080
 3729SOL     OW22822   3.143   3.504   6.291 -0.2770 -0.1012  0.2703
 3729SOL    HW122823   3.209   3.552   6.240  1.5333 -1.8335  0.9518
 3729SOL    HW222824   3.068   3.561   6.299 -0.6710 -0.6265  0.3354
 3730SOL     OW22825   4.316   0.286   6.032  0.4515 -0.3852  0.2180
 3730SOL    HW122826   4.232   0.319   6.001  0.1979  0.3268  1.6615
 3730SOL    HW222827   4.359   0.369   6.052  2.8724 -2.0339  1.7657
 3731SOL     OW22828   0.596   2.412   1.646  0.9401  0.5358 -0.3899
 3731SOL    HW122829   0.538   2.457   1.708 -2.1456 -2.0591 -1.4253
 3731SOL    HW222830   0.530   2.371   1.590  0.4571  0.8105 -0.0239
 3732SOL     OW22831   3.660   4.220   1.991 -0.1389 -0.2717  0.1570
 3732SOL    HW122832   3.663   4.135   2.035 -0.8800 -1.0812 -1.3607
 3732SOL    HW222833   3.715   4.274   2.048  1.2376 -0.8810 -0.5871
 3733SOL     OW22834   4.456   4.690   0.846 -0.2264 -0.0655  0.2769
 3733SOL    HW122835   4.469   4.644   0.929  1.1817  0.4979  0.3756
 3733SOL    HW222836   4.383   4.641   0.808  0.1813 -1.5424  1.4292
 3734SOL     OW22837   3.279   3.075   5.816 -0.5419  0.2757 -0.0283
 3734SOL    HW122838   3.262   3.079   5.722  0.4502 -2.2721 -0.3188
 3734SOL    HW222839   3.366   3.035   5.813 -1.1100 -0.9619  0.2064
 3735SOL     OW22840   4.691   2.109   3.594  0.1666 -0.3733 -0.2189
 3735SOL    HW122841   4.677   2.098   3.688 -1.8804 -0.1619 -0.4979
 3735SOL    HW222842   0.052   2.105   3.597  0.2067  0.6141 -0.3286
 3736SOL     OW22843   3.715   0.366   1.834 -0.2007 -0.3495  0.0543
 3736SOL    HW122844   3.703   0.407   1.920  4.2619 -0.4518  0.7194
 3736SOL    HW222845   3.782   0.306   1.866  1.2300  2.0370  1.5617
 3737SOL     OW22846   1.544   3.245  15.631 -0.4044  0.5565 -0.2424
 3737SOL    HW122847   1.522   3.328  15.588 -0.0336  0.6284 -0.2974
 3737SOL    HW222848   1.625   3.215  15.591  0.4760  0.5391  1.5598
 3738SOL     OW22849   4.285   2.559   3.187  0.2245 -0.1109  0.1518
 3738SOL    HW122850   4.371   2.574   3.146  0.0048 -3.6059 -1.5846
 3738SOL    HW222851   4.307   2.531   3.275  1.4600  0.7859  0.1405
 3739SOL     OW22852   2.278   2.932   5.378  0.4056  0.5115  0.3525
 3739SOL    HW122853   2.355   2.988   5.388  0.4186  0.5458  0.0719
 3739SOL    HW222854   2.240   2.949   5.464  1.4588  1.2405  0.6788
 3740SOL     OW22855   4.450   0.316   0.306  0.0903  0.2686 -0.4755
 3740SOL    HW122856   4.498   0.398   0.312  1.5249 -0.5585 -0.4378
 3740SOL    HW222857   4.361   0.351   0.304  0.8599  2.2327 -0.3349
 3741SOL     OW22858   3.862   4.728   7.234  0.1815 -0.5226  0.2917
 3741SOL    HW122859   3.835   4.719   7.325  1.0766 -1.6026  0.4466
 3741SOL    HW222860   3.801   4.666   7.196  0.5157 -1.5654  1.4495
 3742SOL     OW22861   3.033   3.347   2.065  0.5364 -0.1859 -0.2532
 3742SOL    HW122862   3.089   3.397   2.124  3.5774 -0.5113 -2.8367
 3742SOL    HW222863   2.944   3.378   2.084  0.1625 -0.7772 -1.0437
 3743SOL     OW22864   4.630   0.165   5.618  0.8154  0.2469  0.3554
 3743SOL    HW122865   4.576   0.244   5.621  0.4999  0.0460 -0.0948
 3743SOL    HW222866   4.608   0.130   5.704 -1.3713 -1.8764 -1.0916
 3744SOL     OW22867   1.047   0.669   3.553  0.1319 -0.3591 -0.2890
 3744SOL    HW122868   1.120   0.668   3.490  0.8645  0.8559  0.5304
 3744SOL    HW222869   1.057   0.758   3.586 -1.8941  0.1251 -1.0041
 3745SOL     OW22870   3.154   2.443   9.311  0.1100 -0.8997  0.0665
 3745SOL    HW122871   3.126   2.489   9.232 -0.9317  0.2296  1.0802
 3745SOL    HW222872   3.246   2.445   9.285 -0.0994 -1.0270 -0.6716
 3746SOL     OW22873   4.571   0.780  11.106 -0.7277 -0.4963  0.1999
 3746SOL    HW122874   4.498   0.820  11.059 -0.3887 -0.9625 -0.7083
 3746SOL    HW222875   4.535   0.696  11.136 -1.8549  0.0333  0.3292
 3747SOL     OW22876   4.322   2.085  13.392  0.0679  0.1758  0.0129
 3747SOL    HW122877   4.366   2.000  13.380  1.7973  1.1309 -0.5036
 3747SOL    HW222878   4.397   2.143  13.384 -0.8092  1.3240  0.1797
 3748SOL     OW22879   3.851   4.138   6.243 -0.3006  0.0510 -0.4379
 3748SOL    HW122880   3.812   4.058   6.209 -1.0124 -0.5642  1.8220
 3748SOL    HW222881   3.902   4.106   6.317  0.5747 -0.0831 -1.1011
 3749SOL     OW22882   4.377   4.677   5.201  0.6324  0.2164  0.0730
 3749SOL    HW122883   4.299   4.721   5.170  0.6609  0.9970  1.0951
 3749SOL    HW222884   4.406   0.007   5.266 -0.5502  1.6889 -0.8613
 3750SOL     OW22885   0.268   1.401   5.793 -0.0980 -0.0534 -0.0505
 3750SOL    HW122886   0.319   1.332   5.834 -0.5203 -0.6736 -0.5787
 3750SOL    HW222887   0.322   1.404   5.714 -0.0641 -2.2823 -0.0955
 3751SOL     OW22888   2.187   2.664   2.858  0.4887  0.3090 -0.2336
 3751SOL    HW122889   2.224   2.737   2.809 -1.3696 -0.6702 -3.0824
 3751SOL    HW222890   2.123   2.627   2.797  0.7189 -0.2780 -0.1226
 3752SOL     OW22891   2.709   2.315   7.656 -0.5056  0.5857  0.6481
 3752SOL    HW122892   2.800   2.290   7.636 -0.5917  0.9732 -0.2204
 3752SOL    HW222893   2.719   2.400   7.698  0.1984  0.9505 -0.2601
 3753SOL     OW22894   3.338   4.097   2.560  0.4247 -0.5874 -0.4343
 3753SOL    HW122895   3.331   4.086   2.465 -0.4601 -2.0489 -0.2104
 3753SOL    HW222896   3.416   4.150   2.545  0.2272 -0.4686 -1.0439
 3754SOL     OW22897   2.356   2.024   5.533  0.7524  1.0426 -0.3641
 3754SOL    HW122898   2.372   2.095   5.596 -1.3761  1.5120 -0.3382
 3754SOL    HW222899   2.365   1.942   5.582  1.2572  0.9903 -0.5418
 3755SOL     OW22900   2.733   1.735   8.916  0.2552  0.5188  0.2312
 3755SOL    HW122901   2.748   1.669   8.848 -0.7046 -0.6261  1.1269
 3755SOL    HW222902   2.661   1.689   8.958 -0.2093 -0.3654 -1.5491
 3756SOL     OW22903   4.342   2.225   3.017  0.9219  0.1227 -0.0451
 3756SOL    HW122904   4.415   2.175   3.054  1.1296 -0.0872 -0.7262
 3756SOL    HW222905   4.287   2.244   3.093  0.2495  0.2985 -0.5765
 3757SOL     OW22906   4.586   4.208   0.443  0.3624  0.2968  0.2610
 3757SOL    HW122907   4.634   4.211   0.526  0.9071  3.0932 -0.1598
 3757SOL    HW222908   4.624   4.276   0.388  1.7875  0.9821  2.0927
 3758SOL     OW22909   4.554   2.704  16.941 -0.0356  0.3238 -0.1643
 3758SOL    HW122910   4.550   2.781  16.885  0.1022 -1.3113 -2.4016
 3758SOL    HW222911   4.460   2.700  16.960 -0.3408 -0.0714 -1.8228
 3759SOL     OW22912   2.048   1.995   6.810 -0.2475  0.1526 -0.1970
 3759SOL    HW122913   2.111   2.045   6.759  1.3333 -1.3621  0.2662
 3759SOL    HW222914   2.095   1.969   6.889  1.8783 -0.3122 -1.5942
 3760SOL     OW22915   3.900   4.609   4.397  0.3416  0.3200  0.1312
 3760SOL    HW122916   3.870   4.566   4.317 -1.3100  2.2370 -0.2835
 3760SOL    HW222917   3.942   4.686   4.357 -1.3893  1.2384  0.0783
 3761SOL     OW22918   4.253   1.384   2.070  0.0993 -0.5737  0.5681
 3761SOL    HW122919   4.288   1.472   2.062 -0.2990 -0.3497  1.2961
 3761SOL    HW222920   4.161   1.408   2.071  0.3106  0.2190  0.6783
 3762SOL     OW22921   1.115   1.833   6.047 -0.4994 -0.2655  0.0629
 3762SOL    HW122922   1.204   1.805   6.026 -0.7724 -0.7969 -0.3997
 3762SOL    HW222923   1.074   1.820   5.961  1.1581  0.7640 -0.8673
 3763SOL     OW22924   2.396   0.138   7.367 -0.1599  0.3923 -0.5480
 3763SOL    HW122925   2.381   0.228   7.394  2.9759  1.4442 -2.2953
 3763SOL    HW222926   2.456   0.108   7.435  1.9641  1.6652 -1.8496
 3764SOL     OW22927   0.595   1.359  15.279  0.9266 -0.8309  0.3025
 3764SOL    HW122928   0.652   1.383  15.206  1.5210 -0.9138  0.7394
 3764SOL    HW222929   0.532   1.299  15.237  1.4081 -1.3897  0.3763
 3765SOL     OW22930   3.871   0.489  12.565  0.2205  0.2225 -0.5806
 3765SOL    HW122931   3.933   0.497  12.638 -1.1823 -1.2727  0.7697
 3765SOL    HW222932   3.782   0.513  12.591  0.3003 -0.0467 -0.0521
 3766SOL     OW22933   2.815   3.975   6.878  0.2931  0.5091  0.2670
 3766SOL    HW122934   2.856   3.889   6.885 -2.5788 -0.8093  0.8991
 3766SOL    HW222935   2.747   3.960   6.812 -0.2229  2.3103  0.3812
 3767SOL     OW22936   0.390   3.728   9.103  0.3350  0.0997  0.0426
 3767SOL    HW122937   0.452   3.784   9.150 -1.3058  1.1540  0.9478
 3767SOL    HW222938   0.446   3.662   9.063 -0.3681  0.1839 -1.0955
 3768SOL     OW22939   0.995   2.592   8.129 -0.5956  0.1116 -0.2745
 3768SOL    HW122940   1.064   2.566   8.069 -1.3152 -0.3459 -0.8975
 3768SOL    HW222941   0.977   2.510   8.175 -0.5232  0.5323  0.5062
 3769SOL     OW22942   2.747   4.535  16.912 -0.2082 -0.4954 -0.2122
 3769SOL    HW122943   2.813   4.600  16.939  0.2160 -0.6117 -0.9720
 3769SOL    HW222944   2.675   4.564  16.968  0.4767 -0.7344  0.7901
 3770SOL     OW22945   3.348   1.514   6.149  0.5795 -0.7110 -0.3796
 3770SOL    HW122946   3.403   1.563   6.210 -1.5970  1.3770 -0.1114
 3770SOL    HW222947   3.344   1.429   6.194  0.0340 -0.4988 -0.0339
 3771SOL     OW22948   0.811   4.705   9.137 -0.6245  0.0351 -0.3719
 3771SOL    HW122949   0.892   0.020   9.126 -0.3784 -0.3972 -0.5402
 3771SOL    HW222950   0.828   4.639   9.070 -1.9441  0.0075 -0.6684
 3772SOL     OW22951   4.440   1.894  16.074 -0.7595 -0.1893  0.2864
 3772SOL    HW122952   4.482   1.810  16.092 -1.6396 -0.7149 -0.0767
 3772SOL    HW222953   4.423   1.879  15.981  0.0933  0.9579 -0.0401
 3773SOL     OW22954   2.075   3.839   7.332  0.1305  0.0794  0.2653
 3773SOL    HW122955   2.073   3.838   7.236 -1.2058 -0.1400  0.3047
 3773SOL    HW222956   1.992   3.877   7.361  0.5625  1.5896 -0.4632
 3774SOL     OW22957   3.979   3.370   9.990  0.0960 -0.0912 -0.1143
 3774SOL    HW122958   3.984   3.310   9.915 -0.8731 -0.6561  0.2573
 3774SOL    HW222959   3.938   3.304  10.046  0.0420  0.6694  0.7361
 3775SOL     OW22960   3.410   2.029   4.926 -0.3651 -0.2348  0.2559
 3775SOL    HW122961   3.438   2.089   4.995  1.0739 -0.0970 -0.4522
 3775SOL    HW222962   3.320   2.017   4.956  0.3100 -2.5194  1.3773
 3776SOL     OW22963   2.735   2.563   4.494 -0.0931  0.2150 -0.4771
 3776SOL    HW122964   2.810   2.575   4.435 -1.3261  0.5696 -1.9854
 3776SOL    HW222965   2.681   2.505   4.441 -0.6565  1.1946 -0.9725
 3777SOL     OW22966   0.230   1.554  10.184  0.2807 -0.1816 -0.3980
 3777SOL    HW122967   0.208   1.559  10.091 -0.6132  1.1786 -0.1103
 3777SOL    HW222968   0.174   1.625  10.215 -3.1874 -2.6385 -0.9953
 3778SOL     OW22969   0.580   1.321   6.386  0.3741 -0.4652  0.3766
 3778SOL    HW122970   0.627   1.243   6.356 -0.9981 -1.2733  0.2836
 3778SOL    HW222971   0.517   1.287   6.449  0.5528 -0.7796  0.3871
 3779SOL     OW22972   2.160   0.138   0.939 -0.0724 -0.1581  0.5997
 3779SOL    HW122973   2.255   0.134   0.931  0.0154  0.6934  1.1598
 3779SOL    HW222974   2.140   0.049   0.967  0.3990 -0.5242 -0.2008
 3780SOL     OW22975   3.523   1.950  16.806 -0.2415  0.2816 -0.0845
 3780SOL    HW122976   3.528   1.982  16.896  2.2518 -0.2773 -0.0213
 3780SOL    HW222977   3.462   2.015  16.771  1.7184  2.7817  1.1109
 3781SOL     OW22978   3.344   0.099  11.847  0.7712  0.0407 -0.4215
 3781SOL    HW122979   3.393   0.044  11.786  2.3603  1.0339 -0.0340
 3781SOL    HW222980   3.311   0.039  11.915 -0.9103  2.3295  0.7598
 3782SOL     OW22981   0.381   0.364   3.163  0.1042 -0.0584  0.0532
 3782SOL    HW122982   0.379   0.276   3.126 -1.5299 -0.0857  0.2214
 3782SOL    HW222983   0.372   0.343   3.256  1.4476 -0.1853  0.1609
 3783SOL     OW22984   3.829   1.029  12.144 -0.1323  0.3782 -0.2103
 3783SOL    HW122985   3.834   1.078  12.226 -1.1888  1.2222 -0.6496
 3783SOL    HW222986   3.747   0.979  12.148  0.6007 -0.6781  1.5481
 3784SOL     OW22987   3.005   1.815   4.506 -0.1766 -0.2206 -0.5250
 3784SOL    HW122988   3.051   1.743   4.463  1.5211 -0.0692  1.0705
 3784SOL    HW222989   2.927   1.818   4.451  0.3116  1.2100 -1.1393
 3785SOL     OW22990   3.550   2.261   5.591  0.1981 -0.1403 -0.0818
 3785SOL    HW122991   3.461   2.277   5.560 -0.6038 -1.7261  1.3581
 3785SOL    HW222992   3.548   2.166   5.585 -0.0558  0.0879 -3.3252
 3786SOL     OW22993   2.960   1.693   2.071  0.3421  0.0840 -0.0407
 3786SOL    HW122994   2.865   1.685   2.068  0.1726  2.4853 -0.5625
 3786SOL    HW222995   2.981   1.735   2.155  2.8513 -0.7037 -0.2497
 3787SOL     OW22996   4.595   0.149  14.450  0.2844  0.1103  0.1591
 3787SOL    HW122997   4.684   0.160  14.415 -0.0801  0.8998 -0.5105
 3787SOL    HW222998   4.559   0.090  14.384  1.4517 -0.0691 -0.3147
 3788SOL     OW22999   3.512   3.503  17.458 -0.7368  0.3571 -0.3004
 3788SOL    HW123000   3.532   3.596  17.471  0.1834  0.1962 -0.5476
 3788SOL    HW223001   3.569   3.463  17.524 -0.4603 -0.8528 -1.2799
 3789SOL     OW23002   3.056   1.940   8.391  0.2319 -0.5030 -0.0017
 3789SOL    HW123003   2.993   1.869   8.391  0.0872 -0.3726  0.3559
 3789SOL    HW223004   3.136   1.909   8.347 -1.0286 -0.4388 -2.3473
 3790SOL     OW23005   2.777   4.316   6.085 -0.5431 -0.6287  0.2470
 3790SOL    HW123006   2.778   4.310   5.990  0.0634  1.2823  0.1363
 3790SOL    HW223007   2.873   4.311   6.082 -0.5724 -0.5035 -0.7971
 3791SOL     OW23008   1.764   2.733  10.512 -0.7180 -0.1586  0.1362
 3791SOL    HW123009   1.816   2.752  10.591  1.8582  0.7517 -1.7911
 3791SOL    HW223010   1.765   2.637  10.513  3.0759 -0.1198 -0.5092
 3792SOL     OW23011   0.221   0.629  12.959  0.5909 -0.2631  0.4067
 3792SOL    HW123012   0.315   0.615  12.969  0.2356 -0.4175  3.5781
 3792SOL    HW223013   0.217   0.669  12.872  1.0494  0.4662  0.7210
 3793SOL     OW23014   1.604   1.065   9.340  0.0532  0.0863  0.6079
 3793SOL    HW123015   1.693   1.099   9.348  0.3217 -0.4176 -0.3421
 3793SOL    HW223016   1.602   1.022   9.426  0.5555  1.2743  1.2150
 3794SOL     OW23017   4.522   1.158   8.837  0.5503  0.3090 -0.0673
 3794SOL    HW123018   4.502   1.233   8.781  0.7646  2.6796  3.0161
 3794SOL    HW223019   4.611   1.185   8.860  1.1347 -1.1320 -0.6854
 3795SOL     OW23020   0.244   0.186  11.683  0.0829  0.2569 -0.1913
 3795SOL    HW123021   0.178   0.138  11.732  0.7412 -0.2750  0.1701
 3795SOL    HW223022   0.313   0.178  11.749 -1.8786 -2.0984  1.5167
 3796SOL     OW23023   2.397   3.268   2.028  0.3271 -0.6508  0.3963
 3796SOL    HW123024   2.404   3.351   1.981 -1.1539 -0.2047  0.9757
 3796SOL    HW223025   2.366   3.290   2.116  0.7236 -0.2256  0.4292
 3797SOL     OW23026   4.664   1.436   6.168  0.0659 -0.2615 -0.0688
 3797SOL    HW123027   4.581   1.481   6.151  0.6015  1.0735  0.8883
 3797SOL    HW223028   4.639   1.348   6.138  1.4482 -0.5924 -0.2259
 3798SOL     OW23029   2.753   4.544   8.831 -0.0364 -0.3409 -0.1660
 3798SOL    HW123030   2.732   4.480   8.762  1.5206 -0.9351 -0.0761
 3798SOL    HW223031   2.662   4.554   8.860 -0.2237 -0.8956 -0.5432
 3799SOL     OW23032   3.310   1.671   6.538 -0.3809  0.0869  0.1807
 3799SOL    HW123033   3.223   1.659   6.502 -0.3393  1.7976 -0.5263
 3799SOL    HW223034   3.291   1.735   6.607  1.2959  0.2545  0.5092
 3800SOL     OW23035   1.389   1.586  16.258 -0.1544 -0.0268  0.0840
 3800SOL    HW123036   1.387   1.621  16.169  1.1690  0.9021  0.4306
 3800SOL    HW223037   1.361   1.496  16.241  1.9830 -0.6637 -0.0355
 3801SOL     OW23038   4.080   2.446   6.771 -0.0795 -0.2460  0.1664
 3801SOL    HW123039   4.026   2.505   6.718  0.1889 -0.2398 -0.1008
 3801SOL    HW223040   4.023   2.369   6.780 -2.1656  1.4855  1.6926
 3802SOL     OW23041   2.602   0.357   6.766 -0.2994 -0.0298  0.6675
 3802SOL    HW123042   2.604   0.450   6.789 -0.1833  0.7345 -2.4005
 3802SOL    HW223043   2.510   0.340   6.745 -0.4166  1.2570  0.1314
 3803SOL     OW23044   1.516   1.549   2.010 -0.5413 -0.1025  0.1910
 3803SOL    HW123045   1.455   1.478   2.030 -1.4406  1.1614  1.8597
 3803SOL    HW223046   1.482   1.580   1.926 -0.8385  0.0501  0.3660
 3804SOL     OW23047   3.063   4.527   3.971 -0.2990  0.6925 -0.0234
 3804SOL    HW123048   3.093   4.581   3.898  0.4379 -1.4680 -1.3359
 3804SOL    HW223049   3.146   4.498   4.007 -0.2103  1.3267  0.2801
 3805SOL     OW23050   0.822   0.704   9.195  0.0444 -0.4739 -0.2682
 3805SOL    HW123051   0.791   0.635   9.253  1.0116  1.9329  3.1003
 3805SOL    HW223052   0.864   0.769   9.252  0.0961 -1.0068  0.3006
 3806SOL     OW23053   3.719   3.490   5.682  0.4751  1.6129  0.2088
 3806SOL    HW123054   3.776   3.536   5.743 -0.4752  1.8806  0.8881
 3806SOL    HW223055   3.664   3.437   5.741  1.5153 -0.7768 -0.9528
 3807SOL     OW23056   3.978   3.710  14.635  0.2778 -0.4353  0.4049
 3807SOL    HW123057   4.054   3.746  14.680  0.9968 -0.8095 -0.5276
 3807SOL    HW223058   3.924   3.717  14.714  2.8329  0.6950  2.0197
 3808SOL     OW23059   3.510   0.039  15.318 -0.0029 -0.3153  0.2563
 3808SOL    HW123060   3.558   0.114  15.282 -2.3146  1.0338 -0.0569
 3808SOL    HW223061   3.438   0.089  15.356 -1.0230 -2.6285  1.3972
 3809SOL     OW23062   3.112   2.984   7.406  0.1583  0.0180  0.8454
 3809SOL    HW123063   3.025   3.018   7.428 -1.2436 -2.0610 -1.4774
 3809SOL    HW223064   3.094   2.899   7.366 -0.4594 -0.0935  1.3631
 3810SOL     OW23065   2.898   1.348   0.093 -1.1223 -0.5754 -0.0085
 3810SOL    HW123066   2.857   1.387   0.015  1.0081  0.0427 -0.8036
 3810SOL    HW223067   2.979   1.313   0.056  0.1102  4.0721 -1.6929
 3811SOL     OW23068   1.599   1.569  17.035  0.2870  0.5639  0.2990
 3811SOL    HW123069   1.655   1.556  16.959  1.4456 -0.0324  1.2453
 3811SOL    HW223070   1.610   1.664  17.045  0.0016  0.8204 -1.9604
 3812SOL     OW23071   3.351   2.982   1.473 -0.2461  0.3621  0.5801
 3812SOL    HW123072   3.371   2.978   1.567  0.9102 -0.4397  0.3094
 3812SOL    HW223073   3.360   2.888   1.453  1.5838  1.0813 -2.0020
 3813SOL     OW23074   4.589   0.973   4.296 -0.8054  0.5715  0.0322
 3813SOL    HW123075   4.521   0.905   4.293  0.8340 -1.1637  1.7233
 3813SOL    HW223076   4.633   0.955   4.379  0.1312  1.1273 -0.3558
 3814SOL     OW23077   3.369   4.225   5.985 -0.5144  0.9129 -0.2662
 3814SOL    HW123078   3.412   4.303   5.951 -0.9321  1.6434  0.8734
 3814SOL    HW223079   3.283   4.265   5.997 -0.5532  1.4525 -2.3470
 3815SOL     OW23080   4.426   0.163   1.435 -0.5194  0.1286 -0.0509
 3815SOL    HW123081   4.487   0.169   1.508  1.2844  0.4984 -1.6010
 3815SOL    HW223082   4.425   0.253   1.403 -0.9353 -0.1704 -0.8843
 3816SOL     OW23083   0.678   1.431   9.585  0.2128  0.7629  1.1281
 3816SOL    HW123084   0.739   1.383   9.641 -1.2247 -1.7915  0.5480
 3816SOL    HW223085   0.696   1.512   9.632  0.9501 -0.3284  2.7281
 3817SOL     OW23086   1.719   0.372   2.755  0.1760  0.2126 -0.4450
 3817SOL    HW123087   1.738   0.429   2.829 -0.8669  0.9965 -0.7913
 3817SOL    HW223088   1.670   0.305   2.802  0.3703  0.9034  0.7325
 3818SOL     OW23089   3.440   0.536   1.820  0.1936  0.1402  0.4673
 3818SOL    HW123090   3.404   0.502   1.738  1.9211 -1.6495  0.4317
 3818SOL    HW223091   3.532   0.510   1.808  0.2426  0.1039  0.9115
 3819SOL     OW23092   4.308   4.463   0.509  0.1237 -0.2141  0.0599
 3819SOL    HW123093   4.397   4.489   0.482 -1.4210  2.0312 -2.8495
 3819SOL    HW223094   4.299   4.374   0.475 -0.7021 -0.1721  0.1845
 3820SOL     OW23095   0.915   3.609   7.778  0.0372  0.5043  0.3210
 3820SOL    HW123096   0.974   3.605   7.854  1.0640  1.5640 -0.4084
 3820SOL    HW223097   0.861   3.532   7.793  3.7140 -2.0845  0.2733
 3821SOL     OW23098   0.081   2.748   6.082 -0.6816  0.0268  0.2573
 3821SOL    HW123099   4.724   2.772   6.068 -0.2979  2.4689  1.8991
 3821SOL    HW223100   0.093   2.707   5.996  2.1356  0.3953  0.4593
 3822SOL     OW23101   0.696   4.535   6.956 -0.0602 -0.3866  0.0690
 3822SOL    HW123102   0.667   4.466   7.015  1.2602 -3.1845 -2.5860
 3822SOL    HW223103   0.729   4.487   6.880 -0.9934 -3.4724  1.6159
 3823SOL     OW23104   3.733   4.426  10.567  0.0661  0.0456  0.3701
 3823SOL    HW123105   3.828   4.416  10.564  0.0769  1.5794 -4.3307
 3823SOL    HW223106   3.717   4.433  10.661  0.8177  2.0320  0.3674
 3824SOL     OW23107   0.821   2.936   8.217  0.7324 -0.4182 -0.4394
 3824SOL    HW123108   0.801   2.896   8.301 -0.8416 -0.5394 -0.8683
 3824SOL    HW223109   0.905   2.976   8.241 -0.1726  1.2543 -0.0661
 3825SOL     OW23110   4.056   0.373   3.335  0.1727  0.4869  0.0324
 3825SOL    HW123111   4.062   0.389   3.429 -1.8439  2.2268 -0.1220
 3825SOL    HW223112   4.029   0.459   3.300 -0.2443 -0.3222 -1.6489
 3826SOL     OW23113   1.858   2.229   3.325  0.4450 -0.1736  0.3403
 3826SOL    HW123114   1.888   2.151   3.279  0.7479 -0.8416  1.6773
 3826SOL    HW223115   1.873   2.293   3.256  0.8907 -2.8072 -1.9836
 3827SOL     OW23116   1.717   1.753  16.325 -0.2861  0.0150  0.3645
 3827SOL    HW123117   1.681   1.743  16.237  1.1818  0.0704 -0.2503
 3827SOL    HW223118   1.787   1.815  16.305 -0.7780  0.1467 -0.9625
 3828SOL     OW23119   0.723   3.429   5.702 -0.0327 -0.2823 -0.9162
 3828SOL    HW123120   0.811   3.417   5.738  1.0424 -0.0049 -3.4715
 3828SOL    HW223121   0.700   3.343   5.667 -2.9823 -0.3476  1.1098
 3829SOL     OW23122   2.007   2.132  17.102 -0.3503 -0.0250  0.0198
 3829SOL    HW123123   2.045   2.215  17.073 -0.9519  1.1159  2.4752
 3829SOL    HW223124   1.952   2.166  17.173  1.5759  0.9256  1.0662
 3830SOL     OW23125   2.250   0.691   8.991  0.3116  0.0226 -0.5488
 3830SOL    HW123126   2.317   0.748   9.030  0.9420 -0.3508 -1.0752
 3830SOL    HW223127   2.173   0.738   9.023 -0.8190 -2.2667  0.1168
 3831SOL     OW23128   1.925   3.757  17.095 -0.1773 -0.3318 -0.4595
 3831SOL    HW123129   2.018   3.775  17.083  0.3789 -1.7607  1.7380
 3831SOL    HW223130   1.909   3.708  17.014 -2.5728 -0.7195  0.2444
 3832SOL     OW23131   2.796   4.309   1.528 -0.0701  0.7666  0.0696
 3832SOL    HW123132   2.818   4.275   1.614  1.5830 -0.4962 -0.8405
 3832SOL    HW223133   2.789   4.405   1.536 -0.3279  0.9014 -1.6229
 3833SOL     OW23134   0.787   3.668   3.581 -0.0707 -0.2718  0.7327
 3833SOL    HW123135   0.822   3.661   3.492 -0.4558 -3.1538  0.7958
 3833SOL    HW223136   0.865   3.670   3.636 -0.0414 -1.3582  0.7226
 3834SOL     OW23137   3.257   0.716  16.279 -0.0238  0.1666  0.5156
 3834SOL    HW123138   3.341   0.679  16.251  0.1377 -0.1202  1.3829
 3834SOL    HW223139   3.230   0.745  16.191  1.6510  1.1546  0.3217
 3835SOL     OW23140   0.880   0.061  11.777 -0.2097 -0.2544  0.1495
 3835SOL    HW123141   0.797   0.049  11.824 -1.7252  0.0228 -2.4394
 3835SOL    HW223142   0.923   4.710  11.779  1.2888  0.5558  1.6074
 3836SOL     OW23143   2.011   1.041   4.650  0.1936  0.1458  0.3859
 3836SOL    HW123144   2.051   1.011   4.732 -1.7145  0.8222  1.5539
 3836SOL    HW223145   1.918   1.024   4.665 -0.4142  2.6090 -0.7212
 3837SOL     OW23146   3.486   2.611   1.950 -0.6410 -0.2217 -0.1767
 3837SOL    HW123147   3.555   2.572   2.004 -0.0714  1.6479  0.4220
 3837SOL    HW223148   3.418   2.543   1.957  1.3940 -2.4247 -1.6470
 3838SOL     OW23149   1.345   4.126   5.438 -0.3099  0.0753 -0.2693
 3838SOL    HW123150   1.274   4.065   5.459  1.3289 -0.9625  2.1678
 3838SOL    HW223151   1.306   4.182   5.370 -0.6022 -1.6195 -1.5059
 3839SOL     OW23152   1.375   0.791   2.734  0.6754  0.3097 -0.2613
 3839SOL    HW123153   1.375   0.811   2.640  0.2623  2.8866  0.2805
 3839SOL    HW223154   1.445   0.726   2.742  1.0672  0.6622 -0.8571
 3840SOL     OW23155   0.197   1.089   3.321  0.1591 -0.3992  0.9205
 3840SOL    HW123156   0.251   1.085   3.400 -0.3271  1.7769  1.3708
 3840SOL    HW223157   0.241   1.029   3.261  1.3192  0.1480  1.2143
 3841SOL     OW23158   1.214   2.650  10.432  0.2668  0.2357 -0.0290
 3841SOL    HW123159   1.133   2.669  10.384  0.7957  3.1432  0.2322
 3841SOL    HW223160   1.283   2.661  10.366 -1.0118  0.6940 -1.3036
 3842SOL     OW23161   0.612   2.540  16.661 -0.0676 -0.7013 -0.4797
 3842SOL    HW123162   0.549   2.542  16.589  0.7685 -3.8407 -1.2770
 3842SOL    HW223163   0.561   2.604  16.711 -0.7981 -0.3390 -1.6839
 3843SOL     OW23164   3.885   4.595  11.335 -0.2367  0.5885  0.0473
 3843SOL    HW123165   3.814   4.658  11.321  0.0774  0.9316  0.0035
 3843SOL    HW223166   3.964   4.644  11.313 -0.6995  2.5903  2.7237
 3844SOL     OW23167   1.084   3.664   6.504  0.1375 -0.0658  0.2020
 3844SOL    HW123168   0.999   3.687   6.467 -1.0301 -1.1590  2.1684
 3844SOL    HW223169   1.062   3.612   6.582  0.4965 -0.7907 -0.1722
 3845SOL     OW23170   3.721   3.982   2.560 -0.5696  0.5422 -0.2860
 3845SOL    HW123171   3.689   4.072   2.545 -2.6011 -0.1952 -0.4385
 3845SOL    HW223172   3.637   3.936   2.566 -0.9131  1.5368  2.4437
 3846SOL     OW23173   1.485   0.402   6.611 -0.5217  0.2695  0.2551
 3846SOL    HW123174   1.423   0.466   6.577 -1.5087  0.8359  3.1925
 3846SOL    HW223175   1.453   0.318   6.577  1.8535 -0.6660  0.3304
 3847SOL     OW23176   0.721   0.259   4.968 -0.0501 -0.0453  0.4983
 3847SOL    HW123177   0.804   0.302   4.992  0.2210 -0.3063  0.0317
 3847SOL    HW223178   0.696   0.319   4.898 -0.2600 -0.0603  0.5616
 3848SOL     OW23179   0.197   1.582   4.947  0.2504 -0.5931 -0.5304
 3848SOL    HW123180   0.160   1.670   4.959  1.2063 -0.3887  0.9233
 3848SOL    HW223181   0.152   1.564   4.865 -0.4857  0.9299 -0.4556
 3849SOL     OW23182   1.111   1.966   1.217 -0.1888  0.3345  0.1785
 3849SOL    HW123183   1.068   1.941   1.298 -0.4545 -0.5377 -0.2387
 3849SOL    HW223184   1.200   1.933   1.228 -0.2146 -0.0132 -0.6779
 3850SOL     OW23185   0.392   3.275   4.564 -0.0945  0.1954 -0.2462
 3850SOL    HW123186   0.296   3.275   4.566 -0.0762 -1.4333  0.9024
 3850SOL    HW223187   0.418   3.318   4.646 -0.5734 -3.1856  1.6709
 3851SOL     OW23188   3.353   0.187   2.969  0.1529 -0.0786  0.2610
 3851SOL    HW123189   3.395   0.207   2.885 -2.2645  0.7464 -0.7443
 3851SOL    HW223190   3.415   0.198   3.041 -3.2368  0.1628  3.1493
 3852SOL     OW23191   0.260   3.321   5.442  0.3860 -0.1302 -0.3459
 3852SOL    HW123192   0.251   3.284   5.354  0.3404  0.8436 -0.7486
 3852SOL    HW223193   0.327   3.385   5.418  1.4987 -1.1057  0.0831
 3853SOL     OW23194   0.164   2.971   6.765  0.1449  0.1543  0.2390
 3853SOL    HW123195   0.082   2.924   6.783 -0.2039  0.7428  0.1831
 3853SOL    HW223196   0.137   3.056   6.730 -0.9203  0.5249  1.9395
 3854SOL     OW23197   2.098   1.945   1.899  0.4924  0.1257  0.3939
 3854SOL    HW123198   2.116   2.003   1.825 -0.3383 -1.2704 -0.9119
 3854SOL    HW223199   2.026   1.902   1.854 -1.1303  1.4063  1.7523
 3855SOL     OW23200   0.856   1.383  13.299  0.6954  0.5231 -0.3811
 3855SOL    HW123201   0.877   1.469  13.337  0.1535  0.9167 -0.9668
 3855SOL    HW223202   0.845   1.326  13.376  0.1890 -0.3546 -1.1067
 3856SOL     OW23203   4.709   1.195   5.034 -0.1180 -0.0755  0.1101
 3856SOL    HW123204   0.064   1.163   5.020  0.2359  0.7727  0.4113
 3856SOL    HW223205   4.665   1.120   5.074  1.7668 -1.1984  0.0735
 3857SOL     OW23206   3.622   1.769   5.971 -0.1535 -0.1559  0.0135
 3857SOL    HW123207   3.663   1.804   6.049  0.2146 -1.3414  0.3554
 3857SOL    HW223208   3.655   1.680   5.958 -0.5960 -0.4489  0.8912
 3858SOL     OW23209   1.513   0.037   0.105 -0.0774 -0.3188 -0.1299
 3858SOL    HW123210   1.536   0.070   0.018  1.8178 -0.4780  0.3108
 3858SOL    HW223211   1.490   0.125   0.135  0.3502  0.1978 -1.3423
 3859SOL     OW23212   4.259   0.192   6.724  0.3424 -0.3840 -0.6523
 3859SOL    HW123213   4.281   0.116   6.779  0.9328  1.0543  1.1086
 3859SOL    HW223214   4.339   0.195   6.671 -0.1739  3.1287 -1.2362
 3860SOL     OW23215   3.363   1.473   9.839  0.5606  0.2767 -0.2202
 3860SOL    HW123216   3.417   1.542   9.800 -0.1859  1.1368  0.2922
 3860SOL    HW223217   3.287   1.461   9.782  0.6725 -1.7814  0.0519
 3861SOL     OW23218   2.538   1.552   8.978 -0.1016  0.1408 -0.6938
 3861SOL    HW123219   2.539   1.543   8.882  3.8325 -0.9936 -0.5560
 3861SOL    HW223220   2.612   1.495   8.998  0.3648  0.6872 -0.8588
 3862SOL     OW23221   2.394   1.422  16.458  0.7772 -0.1217 -0.0918
 3862SOL    HW123222   2.469   1.375  16.420 -0.3737  0.2797 -2.8698
 3862SOL    HW223223   2.405   1.507  16.414 -0.0236  0.8706  1.6181
 3863SOL     OW23224   1.805   2.949   7.963 -0.9574  0.2643 -0.0004
 3863SOL    HW123225   1.857   2.869   7.961  0.8853  1.5261 -2.4386
 3863SOL    HW223226   1.716   2.925   7.990 -0.2095 -0.7729  1.5754
 3864SOL     OW23227   2.167   1.209   3.070  0.2556  0.4580 -0.2726
 3864SOL    HW123228   2.154   1.116   3.085 -1.7345  0.6377 -0.8878
 3864SOL    HW223229   2.157   1.241   3.159  1.6789  0.7456 -0.2165
 3865SOL     OW23230   1.783   0.956   9.829  0.0296 -0.0355 -0.9455
 3865SOL    HW123231   1.872   0.945   9.863 -0.8935  0.0332  1.4777
 3865SOL    HW223232   1.772   1.051   9.819 -0.6032  0.2857  2.8330
 3866SOL     OW23233   0.327   0.625  10.522  0.2859 -0.7781  0.4441
 3866SOL    HW123234   0.382   0.686  10.571  0.0289  0.6220 -1.0060
 3866SOL    HW223235   0.368   0.633  10.436 -0.9553 -0.1687 -0.0920
 3867SOL     OW23236   0.887   1.463   0.877 -0.4224 -0.4246  0.4917
 3867SOL    HW123237   0.891   1.545   0.828 -0.7339  0.3430  1.7501
 3867SOL    HW223238   0.924   1.398   0.817 -1.8021 -1.8158  1.1624
 3868SOL     OW23239   2.633   2.089   7.227  0.4493  0.2713 -0.1407
 3868SOL    HW123240   2.626   1.994   7.227  0.1139  0.2966 -0.3377
 3868SOL    HW223241   2.543   2.110   7.250  0.2115  0.9065 -1.6705
 3869SOL     OW23242   2.793   2.202   4.463 -0.1895  0.0982 -0.6357
 3869SOL    HW123243   2.788   2.110   4.487  0.0375  0.1939 -0.2221
 3869SOL    HW223244   2.857   2.237   4.525 -0.1358 -1.3931  0.1586
 3870SOL     OW23245   4.613   0.978   9.038  0.1510  0.2669  0.2489
 3870SOL    HW123246   4.561   1.034   8.980 -0.9461  0.5789  1.5270
 3870SOL    HW223247   4.613   0.891   8.997 -3.3153  0.5676 -0.4235
 3871SOL     OW23248   0.057   2.199   1.566 -0.3320  0.4211 -0.1150
 3871SOL    HW123249   4.709   2.213   1.519  0.4642 -0.5221 -1.7823
 3871SOL    HW223250   0.110   2.270   1.528 -0.4947 -1.5973 -4.1721
 3872SOL     OW23251   1.478   0.234  10.348 -0.7273 -0.5430  0.8131
 3872SOL    HW123252   1.531   0.186  10.412 -0.7195 -1.3365  0.2008
 3872SOL    HW223253   1.423   0.291  10.402  1.4949  2.2342  0.1526
 3873SOL     OW23254   4.284   4.429   5.126 -0.1636 -0.4768 -0.4715
 3873SOL    HW123255   4.373   4.404   5.100  0.9854  1.4384  1.5827
 3873SOL    HW223256   4.305   4.515   5.163 -1.1582 -0.1420 -0.6941
 3874SOL     OW23257   4.286   3.038   5.202 -0.1859  0.0913 -0.0962
 3874SOL    HW123258   4.250   3.062   5.117  0.8947 -0.3548 -0.6818
 3874SOL    HW223259   4.303   3.123   5.241 -1.4569 -0.6098  1.9951
 3875SOL     OW23260   2.598   2.274   5.178 -0.1594 -0.4694  0.2273
 3875SOL    HW123261   2.636   2.339   5.119  1.9251 -1.9329 -0.0664
 3875SOL    HW223262   2.514   2.255   5.138 -0.0914 -1.7944  0.7278
 3876SOL     OW23263   1.003   0.704  15.022 -0.1534  0.0205  0.1301
 3876SOL    HW123264   0.943   0.760  14.972  0.7111  1.1318  0.3341
 3876SOL    HW223265   0.994   0.740  15.110  1.1636  0.6500  0.0058
 3877SOL     OW23266   2.178   1.450  11.305  0.3989 -0.1430  0.1049
 3877SOL    HW123267   2.192   1.500  11.386  0.0342 -0.7326  0.5265
 3877SOL    HW223268   2.149   1.519  11.246  2.0897  0.5063  0.0200
 3878SOL     OW23269   0.147   2.116   0.949  0.3404 -0.0382 -0.1833
 3878SOL    HW123270   0.121   2.192   0.898  1.0718 -2.0242 -3.5045
 3878SOL    HW223271   0.175   2.067   0.871  1.2272  1.6936 -0.9387
 3879SOL     OW23272   0.393   4.351  15.800  0.0389 -1.0989  0.2984
 3879SOL    HW123273   0.406   4.343  15.894  1.1179 -2.4291  0.0462
 3879SOL    HW223274   0.317   4.296  15.783  0.3092 -1.1668 -0.7132
 3880SOL     OW23275   4.106   2.603   2.409  0.1214  0.0252 -0.1163
 3880SOL    HW123276   4.109   2.639   2.321  0.6863  0.7049  0.1823
 3880SOL    HW223277   4.173   2.657   2.451 -0.4663 -0.5722  1.5921
 3881SOL     OW23278   2.501   3.611   5.403  0.0942  0.6652 -0.4777
 3881SOL    HW123279   2.552   3.575   5.331  0.0046 -3.5849  1.6173
 3881SOL    HW223280   2.433   3.665   5.362 -0.8160 -0.2085 -0.1037
 3882SOL     OW23281   0.045   1.691   1.109  0.0968  0.5509  0.1242
 3882SOL    HW123282   0.075   1.602   1.126 -1.6055 -0.1337 -0.3940
 3882SOL    HW223283   0.123   1.714   1.059 -0.7209 -1.4521 -2.0937
 3883SOL     OW23284   0.419   1.150  13.964 -0.2028  0.2830  0.7988
 3883SOL    HW123285   0.391   1.241  13.957  2.5979  1.0373 -0.8214
 3883SOL    HW223286   0.406   1.106  13.880 -0.9399  0.1117  1.0078
 3884SOL     OW23287   2.842   2.045  10.469 -0.4293 -0.5824  0.2890
 3884SOL    HW123288   2.772   2.006  10.520 -2.1573  1.5453 -0.4680
 3884SOL    HW223289   2.896   1.969  10.449 -0.0926 -0.7861  1.9634
 3885SOL     OW23290   4.387   2.147   1.084  0.4894  0.4051  0.1474
 3885SOL    HW123291   4.324   2.212   1.054  1.3374  0.2925 -1.8768
 3885SOL    HW223292   4.388   2.170   1.177  1.6962 -0.0372  0.2531
 3886SOL     OW23293   4.330   1.963   2.752 -0.5597  0.4505 -0.1976
 3886SOL    HW123294   4.259   2.027   2.753  0.2415  1.3357  0.0131
 3886SOL    HW223295   4.402   2.013   2.792  1.3964 -2.5744  0.0801
 3887SOL     OW23296   2.414   2.261   1.284  0.4769 -0.2019  0.0408
 3887SOL    HW123297   2.425   2.356   1.281  1.4110 -0.2909  0.6940
 3887SOL    HW223298   2.502   2.223   1.277  0.4267 -0.4397  0.6963
 3888SOL     OW23299   2.622   0.514   6.382  0.2941  0.3482 -0.1447
 3888SOL    HW123300   2.633   0.537   6.290  2.8134  1.3214  0.4060
 3888SOL    HW223301   2.668   0.584   6.427  0.6984  0.1204 -0.2088
 3889SOL     OW23302   2.592   0.707   4.615 -0.3399  0.1369 -0.1770
 3889SOL    HW123303   2.608   0.707   4.521 -0.2696  0.7989 -0.1635
 3889SOL    HW223304   2.500   0.680   4.617 -0.2473 -0.2265 -0.7604
 3890SOL     OW23305   1.096   1.250   4.575 -0.4559  0.1642 -0.2810
 3890SOL    HW123306   1.002   1.268   4.587  0.1199  2.3169  0.9465
 3890SOL    HW223307   1.103   1.303   4.496  2.5740 -1.4010 -1.0310
 3891SOL     OW23308   0.854   1.735   5.037  0.4255 -0.0501 -0.1372
 3891SOL    HW123309   0.821   1.770   4.954 -0.2699  0.3117  0.2894
 3891SOL    HW223310   0.935   1.690   5.013 -0.5592 -0.4667 -2.6994
 3892SOL     OW23311   3.435   2.214   7.332 -0.6727 -0.0557 -0.1455
 3892SOL    HW123312   3.447   2.121   7.314 -1.6842 -0.5424  1.6810
 3892SOL    HW223313   3.517   2.240   7.291 -1.1423  1.8997  0.1648
 3893SOL     OW23314   0.611   1.044   8.022  0.2915  0.2812  0.1282
 3893SOL    HW123315   0.690   1.045   7.968  0.8630 -2.5398  0.9208
 3893SOL    HW223316   0.585   1.130   7.990  1.4429 -0.2205 -2.1971
 3894SOL     OW23317   0.752   1.503   3.521 -0.1146 -0.1727 -0.1156
 3894SOL    HW123318   0.761   1.510   3.426 -0.7532 -2.2317 -0.3254
 3894SOL    HW223319   0.701   1.583   3.531 -0.2099 -0.5396  2.4312
 3895SOL     OW23320   0.649   4.238  15.941  0.1417  0.2522  0.0824
 3895SOL    HW123321   0.621   4.174  16.007 -2.2927  0.5939 -0.5894
 3895SOL    HW223322   0.737   4.256  15.973  0.5575  0.9618 -1.4617
 3896SOL     OW23323   2.764   4.019   2.378 -0.5010  0.0587 -0.0658
 3896SOL    HW123324   2.833   4.083   2.359  0.5479 -0.7231  1.0809
 3896SOL    HW223325   2.742   3.998   2.287  0.3969 -1.6984  0.1308
 3897SOL     OW23326   4.055   0.735  16.298  0.2381 -0.0263 -0.8737
 3897SOL    HW123327   4.145   0.705  16.311  0.5838  1.1472 -0.6228
 3897SOL    HW223328   4.047   0.757  16.205 -3.9037  0.4826 -0.3864
 3898SOL     OW23329   2.484   3.174   4.764 -0.7753 -0.1800 -0.1220
 3898SOL    HW123330   2.457   3.213   4.847 -0.6911 -0.5933  0.1038
 3898SOL    HW223331   2.514   3.090   4.799 -2.8502  0.9121  4.2517
 3899SOL     OW23332   0.504   1.819   8.695 -0.4319 -0.5352  0.1254
 3899SOL    HW123333   0.565   1.886   8.728  0.9309 -0.4269 -2.6139
 3899SOL    HW223334   0.483   1.779   8.779 -0.1580 -2.6926 -0.8391
 3900SOL     OW23335   0.948   0.252   6.201  0.4545  0.2853 -0.3681
 3900SOL    HW123336   0.927   0.333   6.248 -0.2691  0.0807 -0.3447
 3900SOL    HW223337   0.871   0.242   6.145  0.3156  1.0336 -0.3107
 3901SOL     OW23338   4.468   3.892   1.629  0.1128 -0.4630 -0.5019
 3901SOL    HW123339   4.526   3.967   1.611 -1.8215  0.8987 -1.1337
 3901SOL    HW223340   4.454   3.886   1.723 -1.2435  1.4567 -0.5714
 3902SOL     OW23341   1.007   2.616   9.100  0.2129  0.0424 -0.7473
 3902SOL    HW123342   0.928   2.572   9.133  0.7262  0.7761  1.4937
 3902SOL    HW223343   1.067   2.586   9.168 -0.5040 -2.9035 -1.3880
 3903SOL     OW23344   3.812   2.401   7.001 -0.2949  0.0556  0.1795
 3903SOL    HW123345   3.871   2.399   7.077  0.3733  0.5778 -0.3320
 3903SOL    HW223346   3.859   2.349   6.937 -1.9104 -0.5591 -0.4946
 3904SOL     OW23347   1.514   0.995  11.970 -0.2375  0.2333  0.3518
 3904SOL    HW123348   1.609   1.000  11.977 -0.2247  0.8429 -0.2574
 3904SOL    HW223349   1.509   0.962  11.880  0.9692  1.0257 -0.0057
 3905SOL     OW23350   0.469   0.373  15.581 -0.0069  0.1326 -0.1209
 3905SOL    HW123351   0.382   0.407  15.560 -0.3826 -1.1741 -0.7216
 3905SOL    HW223352   0.464   0.301  15.518 -1.9539  1.0783 -1.0291
 3906SOL     OW23353   1.509   3.694   4.546  0.0960 -0.9456  0.3108
 3906SOL    HW123354   1.562   3.692   4.466 -2.3294  1.3900 -1.3528
 3906SOL    HW223355   1.572   3.717   4.614  2.7024  0.1499 -2.4258
 3907SOL     OW23356   3.249   4.682   0.278 -0.0412 -0.5824  0.2961
 3907SOL    HW123357   3.344   4.675   0.266  0.2443  3.1537  0.4059
 3907SOL    HW223358   3.253   0.007   0.352  2.1066 -0.8200  0.3732
 3908SOL     OW23359   2.355   3.164   5.030  0.8226  0.3158  0.0995
 3908SOL    HW123360   2.326   3.248   5.065 -0.0871 -0.3043  0.8119
 3908SOL    HW223361   2.415   3.143   5.102 -1.7311 -0.2195  2.0635
 3909SOL     OW23362   4.613   1.634   1.719  0.0140  0.1765 -0.5761
 3909SOL    HW123363   4.592   1.717   1.676 -0.5874  0.9592  1.1995
 3909SOL    HW223364   4.678   1.675   1.776  1.0217 -0.5943 -1.1763
 3910SOL     OW23365   1.651   3.964   9.002 -0.0903 -0.6117  0.0026
 3910SOL    HW123366   1.718   3.916   8.952 -0.0413  1.2432 -1.7005
 3910SOL    HW223367   1.657   4.054   8.969 -0.4523 -0.7526 -0.4456
 3911SOL     OW23368   2.803   1.097   2.538  0.4579  0.1965 -0.2733
 3911SOL    HW123369   2.782   1.087   2.445 -0.1273  1.6309 -0.2944
 3911SOL    HW223370   2.889   1.140   2.533 -0.6685  2.4488 -0.2031
 3912SOL     OW23371   3.431   2.911   4.218  0.3471 -0.0414  0.0745
 3912SOL    HW123372   3.349   2.870   4.247  0.8028 -1.2753 -0.3772
 3912SOL    HW223373   3.404   2.954   4.137 -0.7328  0.0052  0.4589
 3913SOL     OW23374   1.641   0.938  10.236 -0.8059 -0.2662  0.0596
 3913SOL    HW123375   1.685   0.932  10.321 -1.6634 -0.9125  0.4542
 3913SOL    HW223376   1.558   0.978  10.263  0.1705  0.9692  1.2452
 3914SOL     OW23377   0.137   2.616   5.853 -0.0958 -0.1769 -0.3239
 3914SOL    HW123378   0.135   2.686   5.788  1.2636  0.3502  0.1833
 3914SOL    HW223379   0.082   2.552   5.808 -0.8281  1.6630 -2.0404
 3915SOL     OW23380   3.057   2.804   3.511  0.2883  0.0202  0.6142
 3915SOL    HW123381   3.105   2.724   3.489  0.1002  0.5142 -1.6568
 3915SOL    HW223382   3.080   2.849   3.430  0.4818  0.6402  1.0177
 3916SOL     OW23383   3.040   1.472   8.965 -0.2390  0.4733 -0.4252
 3916SOL    HW123384   3.019   1.563   8.943  1.6394  0.7319 -1.1815
 3916SOL    HW223385   3.075   1.485   9.054 -1.6554 -1.0174  0.3520
 3917SOL     OW23386   0.289   1.759   6.494  0.2927  0.3051 -0.2489
 3917SOL    HW123387   0.286   1.727   6.404 -0.8563  0.8404 -0.4039
 3917SOL    HW223388   0.343   1.835   6.470  2.7399 -0.6096  2.4426
 3918SOL     OW23389   3.323   3.292  11.965 -0.2802  0.8204  0.1549
 3918SOL    HW123390   3.375   3.263  11.890 -1.2530  1.6910 -0.8496
 3918SOL    HW223391   3.297   3.380  11.938 -1.2479 -0.3325 -2.6634
 3919SOL     OW23392   0.031   4.055   0.870  0.2431 -0.2074 -0.2409
 3919SOL    HW123393   0.058   4.076   0.959 -0.8953 -0.9156  0.2625
 3919SOL    HW223394   0.039   3.960   0.871 -1.5857 -0.3658 -0.5593
 3920SOL     OW23395   3.691   2.445   2.411  0.3450 -0.1073 -0.1844
 3920SOL    HW123396   3.742   2.460   2.491 -0.0462  1.7080 -0.2708
 3920SOL    HW223397   3.663   2.536   2.401  1.8198  0.1050 -2.2198
 3921SOL     OW23398   0.654   0.386   4.744 -0.1997 -0.4067  0.3032
 3921SOL    HW123399   0.560   0.397   4.727 -0.4632 -2.2792  0.5177
 3921SOL    HW223400   0.696   0.468   4.719  0.6451  0.0533  3.1808
 3922SOL     OW23401   1.518   1.400   5.061 -0.2395 -0.6992 -0.0885
 3922SOL    HW123402   1.598   1.367   5.103  0.1695 -1.1240 -1.1874
 3922SOL    HW223403   1.536   1.390   4.967 -0.6039  0.6724 -0.3073
 3923SOL     OW23404   3.698   0.167   1.404 -0.3188  0.2853 -0.2533
 3923SOL    HW123405   3.727   0.246   1.357  3.2719  0.6334  2.5546
 3923SOL    HW223406   3.737   0.174   1.491 -0.1059  1.6392 -0.4542
 3924SOL     OW23407   1.433   3.099   6.021  0.0971  0.0721  1.0123
 3924SOL    HW123408   1.524   3.127   6.012 -0.3852  0.5913 -2.2220
 3924SOL    HW223409   1.434   3.004   6.024 -0.4577  0.0158 -0.5254
 3925SOL     OW23410   2.240   3.401  14.497 -0.1442 -0.0186  0.3383
 3925SOL    HW123411   2.164   3.368  14.449  0.8847 -1.3185 -0.4050
 3925SOL    HW223412   2.206   3.471  14.553 -1.7619  0.0060 -0.6582
 3926SOL     OW23413   2.954   0.703   5.314 -0.1479 -0.3093  0.2709
 3926SOL    HW123414   2.978   0.724   5.404  1.0310  1.5802 -0.4706
 3926SOL    HW223415   2.876   0.648   5.321  1.4675 -2.5020  0.8147
 3927SOL     OW23416   4.074   2.895  16.833  0.2314 -0.4781  0.2151
 3927SOL    HW123417   4.031   2.963  16.885 -2.9661 -1.9984 -0.3906
 3927SOL    HW223418   4.147   2.942  16.793  0.0487 -1.5300 -1.3738
 3928SOL     OW23419   3.328   4.427  17.628 -0.2245 -0.6816  0.4171
 3928SOL    HW123420   3.254   4.421  17.688  1.3064  0.8987  2.4580
 3928SOL    HW223421   3.366   4.510  17.658 -1.7302  0.2070 -0.1206
 3929SOL     OW23422   2.859   1.784   8.542 -0.4046 -0.2019 -0.0139
 3929SOL    HW123423   2.910   1.742   8.611 -1.4990 -1.9612 -0.2757
 3929SOL    HW223424   2.805   1.712   8.510  1.0005 -0.4846 -1.7137
 3930SOL     OW23425   0.510   2.363   5.575  0.3533 -0.0326  0.2406
 3930SOL    HW123426   0.438   2.378   5.636 -1.1698  1.0633 -1.8278
 3930SOL    HW223427   0.494   2.436   5.515  0.1094 -0.7462 -0.5671
 3931SOL     OW23428   4.592   4.144   4.363  0.8737 -0.5030 -0.0563
 3931SOL    HW123429   4.579   4.156   4.457 -0.9844  0.2321 -0.4058
 3931SOL    HW223430   4.630   4.227   4.337  1.1363 -0.1976  1.2806
 3932SOL     OW23431   4.351   4.340   5.776  0.4169  0.5642  0.2626
 3932SOL    HW123432   4.359   4.319   5.683 -0.5754  1.5172 -0.0311
 3932SOL    HW223433   4.436   4.383   5.787  0.5444  0.2749  0.4066
 3933SOL     OW23434   4.076   1.397  10.741  0.5436 -0.1429  0.0599
 3933SOL    HW123435   4.164   1.375  10.768 -0.0112 -0.5035  1.5351
 3933SOL    HW223436   4.024   1.401  10.821 -1.2997 -0.9480 -1.0962
 3934SOL     OW23437   1.024   2.074  10.508 -0.1659  0.2338 -0.7540
 3934SOL    HW123438   0.986   2.026  10.582  0.7778  2.0415  0.8731
 3934SOL    HW223439   1.001   2.004  10.447  2.1702 -2.5098  1.5381
 3935SOL     OW23440   2.175   0.721  16.765 -0.6162  0.2093 -0.4242
 3935SOL    HW123441   2.175   0.807  16.722  0.3036  1.5380  2.2296
 3935SOL    HW223442   2.205   0.668  16.691 -1.8680  0.8992 -1.4299
 3936SOL     OW23443   1.865   4.695   5.419  0.0598 -0.6465  0.0458
 3936SOL    HW123444   1.840   4.652   5.337  0.5764 -1.3780  0.2736
 3936SOL    HW223445   1.803   0.033   5.426  0.0639 -0.4882 -1.4322
 3937SOL     OW23446   2.398   2.311  13.425 -0.4667 -0.0873  0.1911
 3937SOL    HW123447   2.437   2.239  13.476  1.5921 -0.0325 -1.2926
 3937SOL    HW223448   2.364   2.260  13.351  2.3831 -0.6404 -0.7324
 3938SOL     OW23449   1.355   1.280   7.748  0.4436 -0.5258  0.0366
 3938SOL    HW123450   1.307   1.205   7.784 -1.8578  1.6842  1.5578
 3938SOL    HW223451   1.328   1.260   7.658 -1.3653 -1.5421  0.7859
 3939SOL     OW23452   1.412   3.189   3.801 -0.0124 -0.0464  0.3135
 3939SOL    HW123453   1.340   3.142   3.844 -1.4223  0.3997 -1.5748
 3939SOL    HW223454   1.487   3.130   3.816  0.1237  0.1719  0.4950
 3940SOL     OW23455   2.522   4.274  10.120  0.0542 -0.2806  0.0678
 3940SOL    HW123456   2.455   4.217  10.080  0.6977 -0.7290 -0.3723
 3940SOL    HW223457   2.543   4.330  10.045 -3.9125  1.5726  0.3360
 3941SOL     OW23458   2.098   3.138   2.193 -0.5165 -0.3571 -0.5636
 3941SOL    HW123459   2.171   3.138   2.131 -0.1774 -0.1561 -0.1645
 3941SOL    HW223460   2.065   3.228   2.194  1.2025  0.3135 -2.4081
 3942SOL     OW23461   2.150   3.050  11.943  0.3012 -0.0027 -0.6215
 3942SOL    HW123462   2.222   3.073  11.884  0.2050 -2.5854 -1.7222
 3942SOL    HW223463   2.089   2.995  11.893 -0.4560 -0.7720  1.1486
 3943SOL     OW23464   3.927   1.770   5.240  0.3654  0.4225  0.5554
 3943SOL    HW123465   3.953   1.747   5.329 -0.5601  1.2828  1.0352
 3943SOL    HW223466   3.836   1.797   5.247  0.1758 -0.5335  1.7746
 3944SOL     OW23467   1.257   2.512   8.247 -0.0726 -0.1848  0.0356
 3944SOL    HW123468   1.217   2.585   8.200 -0.1524 -0.5615 -0.4820
 3944SOL    HW223469   1.207   2.525   8.328  1.6048  2.2221  0.6775
 3945SOL     OW23470   3.227   0.993  15.874 -0.2337 -0.0309 -0.0742
 3945SOL    HW123471   3.221   0.924  15.939 -0.5973  1.2741  1.2838
 3945SOL    HW223472   3.248   1.069  15.928 -1.3070  1.8446 -2.2861
 3946SOL     OW23473   3.696   4.721   8.804  0.5071 -0.0359 -0.1228
 3946SOL    HW123474   3.791   4.723   8.810  0.5434  2.1912 -1.5778
 3946SOL    HW223475   3.681   4.630   8.778  0.9377  0.2540 -1.3852
 3947SOL     OW23476   0.516   2.849   4.150  0.6985  0.7064  0.0910
 3947SOL    HW123477   0.598   2.850   4.200  0.4612  2.8748  0.4058
 3947SOL    HW223478   0.451   2.806   4.205 -0.7875  0.4110 -1.9116
 3948SOL     OW23479   2.443   4.595   3.442  0.1315  0.4386 -0.1055
 3948SOL    HW123480   2.402   4.682   3.449  1.2891  1.1800 -2.2922
 3948SOL    HW223481   2.535   4.621   3.436 -0.0455  1.0970 -0.0300
 3949SOL     OW23482   0.876   4.110   1.627 -0.2138  0.4644 -0.0797
 3949SOL    HW123483   0.883   4.021   1.662 -0.3872 -0.0443 -1.3500
 3949SOL    HW223484   0.820   4.145   1.697  0.9479  1.4043  0.4028
 3950SOL     OW23485   0.018   2.641   4.091  0.3397  0.7998 -0.3699
 3950SOL    HW123486   4.729   2.667   4.001  0.9121 -1.4556 -1.1815
 3950SOL    HW223487   0.011   2.719   4.145  2.7329  2.2917 -2.1931
 3951SOL     OW23488   0.669   0.598  11.682  0.2011  0.0311 -0.4265
 3951SOL    HW123489   0.751   0.623  11.724  0.0821  0.4384 -0.4365
 3951SOL    HW223490   0.614   0.661  11.730  0.5730 -0.4079  0.5712
 3952SOL     OW23491   3.722   2.053   8.972 -0.3017  0.1037 -0.1551
 3952SOL    HW123492   3.717   2.008   9.057 -1.6506  1.1739  0.3274
 3952SOL    HW223493   3.809   2.036   8.935 -0.4395 -0.9072 -0.0179
 3953SOL     OW23494   1.356   0.261   9.488  0.1600  0.0256  0.5197
 3953SOL    HW123495   1.300   0.312   9.430  3.7778  1.7480 -1.4780
 3953SOL    HW223496   1.409   0.325   9.536 -0.0691 -1.1406  2.3649
 3954SOL     OW23497   2.215   0.565   1.850  0.2109  0.1294 -0.2168
 3954SOL    HW123498   2.178   0.651   1.872 -0.0146  0.2726 -1.1654
 3954SOL    HW223499   2.199   0.514   1.930 -0.2855  1.4147  0.5192
 3955SOL     OW23500   1.187   1.104  15.827  0.6233 -0.0866  0.3145
 3955SOL    HW123501   1.130   1.068  15.758 -0.3054  0.4737  0.7881
 3955SOL    HW223502   1.129   1.179  15.840  0.7056  0.2622 -1.2571
 3956SOL     OW23503   2.347   1.763   1.427  0.0040  0.6682 -0.4771
 3956SOL    HW123504   2.308   1.684   1.390  2.4491  0.1421 -1.9083
 3956SOL    HW223505   2.276   1.790   1.485  0.9706  1.9205  0.1413
 3957SOL     OW23506   1.797   4.385   3.729  0.2846 -0.2703  0.2163
 3957SOL    HW123507   1.795   4.297   3.766 -0.5406 -0.0324  0.7359
 3957SOL    HW223508   1.722   4.431   3.767 -1.4500 -2.1280 -0.9299
 3958SOL     OW23509   0.947   3.396  15.017 -0.6821  0.1243 -0.2504
 3958SOL    HW123510   0.886   3.328  15.045 -0.9376  0.5971  0.3286
 3958SOL    HW223511   0.999   3.401  15.097 -0.2722  3.1361 -0.6827
 3959SOL     OW23512   2.062   3.401   1.781  0.3264 -0.1485  0.3513
 3959SOL    HW123513   2.132   3.336   1.781  0.5865  0.1317 -0.1128
 3959SOL    HW223514   2.095   3.455   1.709 -2.8348  0.0462 -0.9863
 3960SOL     OW23515   4.467   1.979   7.807 -0.5845 -0.2815  0.5744
 3960SOL    HW123516   4.459   1.992   7.713 -0.2640 -1.9962  0.3227
 3960SOL    HW223517   4.551   1.935   7.815 -0.1760  0.3853 -0.0841
 3961SOL     OW23518   1.136   3.398   1.552 -0.1090 -0.0723  0.0421
 3961SOL    HW123519   1.102   3.479   1.514  1.5349  0.2822 -0.6355
 3961SOL    HW223520   1.078   3.388   1.628  0.0439  2.0123  0.4239
 3962SOL     OW23521   2.368   1.487   2.477 -0.1947  0.7943  0.7703
 3962SOL    HW123522   2.435   1.480   2.545 -0.4371  0.1118  0.9318
 3962SOL    HW223523   2.427   1.497   2.403 -2.3047  1.6319 -0.8121
 3963SOL     OW23524   4.360   0.507  11.905 -0.0785  0.2919  0.0056
 3963SOL    HW123525   4.408   0.446  11.960  2.0214  1.9993  0.0992
 3963SOL    HW223526   4.429   0.569  11.881 -0.0088 -0.5972 -2.0410
 3964SOL     OW23527   2.029   2.116   3.815  0.2958 -0.9883 -0.2336
 3964SOL    HW123528   1.979   2.139   3.737 -0.1855 -1.1832  0.0172
 3964SOL    HW223529   2.105   2.077   3.771 -0.2112 -2.6808  0.3960
 3965SOL     OW23530   4.354   0.541   6.174  0.0839 -0.1602  0.1308
 3965SOL    HW123531   4.443   0.524   6.204  0.2021 -0.4743 -0.3912
 3965SOL    HW223532   4.324   0.585   6.253 -1.3599 -0.4486 -0.2602
 3966SOL     OW23533   0.188   2.829   7.680 -0.2637 -0.2853  0.2327
 3966SOL    HW123534   0.097   2.837   7.708 -0.1832  3.0530 -0.4340
 3966SOL    HW223535   0.225   2.755   7.728  0.9402  1.1815  1.5836
 3967SOL     OW23536   1.430   1.054   3.231 -0.3833 -0.3041 -0.4884
 3967SOL    HW123537   1.335   1.047   3.223 -0.5589  1.2156  0.3362
 3967SOL    HW223538   1.455   1.029   3.320 -1.7056  0.5033  0.1226
 3968SOL     OW23539   0.842   0.306  11.667  0.4356  0.1230  0.6387
 3968SOL    HW123540   0.749   0.310  11.689  1.2241  2.9847  3.4189
 3968SOL    HW223541   0.868   0.223  11.708  0.9702 -0.7698 -1.4763
 3969SOL     OW23542   0.809   1.609   6.337 -0.3878  0.1747 -0.4406
 3969SOL    HW123543   0.886   1.553   6.330 -1.7894 -1.2963 -4.0073
 3969SOL    HW223544   0.849   1.695   6.322  0.2316  0.4021  2.3856
 3970SOL     OW23545   2.897   4.059   4.361  0.0167 -0.5669  0.2940
 3970SOL    HW123546   2.961   3.992   4.387 -1.5896 -1.3453  2.2126
 3970SOL    HW223547   2.922   4.128   4.422  0.9427  0.7440 -1.5851
 3971SOL     OW23548   2.884   3.294   3.569  0.2477  0.2754  0.3702
 3971SOL    HW123549   2.887   3.342   3.486  1.4646  0.6098  0.5995
 3971SOL    HW223550   2.872   3.205   3.538 -1.0364  0.5561  0.0704
 3972SOL     OW23551   3.457   1.128   7.921  0.6757 -0.4801 -0.5512
 3972SOL    HW123552   3.494   1.138   8.009 -0.3430  1.0976 -0.3064
 3972SOL    HW223553   3.427   1.216   7.898 -0.4496 -0.3979  1.2484
 3973SOL     OW23554   3.107   4.305   6.025 -0.2577  0.5164 -0.2286
 3973SOL    HW123555   3.114   4.386   6.075 -1.0134 -0.3140  1.2422
 3973SOL    HW223556   3.086   4.347   5.941  0.6211  2.5169  0.5554
 3974SOL     OW23557   1.985   1.241   3.327  0.0435 -0.0439  0.1208
 3974SOL    HW123558   1.903   1.203   3.296  0.1517 -0.2349  0.0641
 3974SOL    HW223559   1.962   1.326   3.364 -0.5374 -0.7573  1.4092
 3975SOL     OW23560   4.320   1.495  10.618 -0.3205 -0.1627  1.0940
 3975SOL    HW123561   4.248   1.524  10.674 -1.8121  0.4614 -1.1383
 3975SOL    HW223562   4.296   1.503  10.525  0.0660  2.2758  1.1974
 3976SOL     OW23563   2.947   2.114   4.774  0.0989  0.2395  0.0424
 3976SOL    HW123564   2.863   2.112   4.819  0.6530 -0.7756  1.0343
 3976SOL    HW223565   2.946   2.207   4.751  0.9763  0.3965  0.6405
 3977SOL     OW23566   0.435   4.426   0.977  0.3264  0.4602 -0.1161
 3977SOL    HW123567   0.430   4.348   0.922 -1.5055  1.4276 -1.3099
 3977SOL    HW223568   0.509   4.462   0.930  0.7963 -0.0352  0.2410
 3978SOL     OW23569   3.914   4.497   1.299 -0.0782 -0.0358  0.1073
 3978SOL    HW123570   3.903   4.548   1.218 -5.1378 -0.2965  0.6251
 3978SOL    HW223571   3.861   4.423   1.269  1.1001 -1.4481  1.5577
 3979SOL     OW23572   4.577   0.603   2.907 -0.4621 -0.3813  0.4637
 3979SOL    HW123573   4.665   0.621   2.942 -0.2928 -1.8533  0.7809
 3979SOL    HW223574   4.602   0.558   2.826 -2.1452 -0.6933  0.1193
 3980SOL     OW23575   1.087   3.823   0.026  0.3006  0.2992 -0.3176
 3980SOL    HW123576   1.113   3.859   0.111 -0.5683 -0.7162  0.3834
 3980SOL    HW223577   1.171   3.786  17.737 -0.7949 -1.0707 -1.8954
 3981SOL     OW23578   3.935   3.264   6.848 -0.3116  0.5857 -0.3721
 3981SOL    HW123579   3.884   3.344   6.861  2.3243  1.8739  2.0733
 3981SOL    HW223580   4.023   3.298   6.836  0.7063 -2.0646 -0.4807
 3982SOL     OW23581   2.886   4.492   5.343 -0.2152  0.4042 -0.1675
 3982SOL    HW123582   2.978   4.504   5.320  0.1098 -1.9072 -0.0673
 3982SOL    HW223583   2.867   4.408   5.300  1.4579 -1.7430  3.2946
 3983SOL     OW23584   1.829   1.374   8.142  0.0836 -0.4907  0.2566
 3983SOL    HW123585   1.735   1.377   8.161 -0.0857  0.0444 -0.6689
 3983SOL    HW223586   1.842   1.300   8.082 -0.8492 -0.7455  0.3593
 3984SOL     OW23587   3.968   1.840  16.438  0.3133  0.9102 -0.0707
 3984SOL    HW123588   3.984   1.885  16.521 -0.7454 -0.1607  0.7326
 3984SOL    HW223589   4.059   1.816  16.422  0.4390  1.9452 -0.9290
 3985SOL     OW23590   2.518   0.201   6.003 -0.2483  0.0644  0.2561
 3985SOL    HW123591   2.486   0.273   6.057 -1.5354 -1.6180  1.7578
 3985SOL    HW223592   2.604   0.238   5.987 -0.6275  0.4652 -0.8494
 3986SOL     OW23593   0.303   3.483   6.668 -0.3710  0.5802  0.0147
 3986SOL    HW123594   0.316   3.454   6.759  2.1016 -0.0150 -0.5568
 3986SOL    HW223595   0.366   3.555   6.668  0.4141 -0.1162 -0.1434
 3987SOL     OW23596   0.752   1.432   5.612  0.3857 -1.1529  0.4943
 3987SOL    HW123597   0.760   1.519   5.573  1.6472 -1.1698  0.7345
 3987SOL    HW223598   0.843   1.426   5.639  1.1943 -0.8546 -2.1736
 3988SOL     OW23599   1.783   2.494   7.155  0.3874  0.2746  0.3256
 3988SOL    HW123600   1.858   2.547   7.182  0.1224  0.2719  1.0636
 3988SOL    HW223601   1.761   2.549   7.079 -1.0287  0.3389  0.7773
 3989SOL     OW23602   3.388   1.592   4.941  0.1650  0.5211  0.3090
 3989SOL    HW123603   3.448   1.660   4.911  0.7619 -0.5428 -0.9099
 3989SOL    HW223604   3.316   1.612   4.881 -0.3398 -0.9046  0.4267
 3990SOL     OW23605   0.815   4.476   8.995 -0.0700  0.0732  0.1413
 3990SOL    HW123606   0.901   4.441   9.017  0.1644 -0.1845 -1.1788
 3990SOL    HW223607   0.808   4.450   8.903 -2.0574  1.3036 -0.0487
 3991SOL     OW23608   0.900   2.597   1.617  0.9566 -0.3298 -0.1415
 3991SOL    HW123609   0.920   2.683   1.580 -0.9438  1.0909  2.1740
 3991SOL    HW223610   0.834   2.577   1.551  1.7873 -0.2616 -0.9897
 3992SOL     OW23611   3.341   4.573   7.012  0.5639 -0.0172  0.2091
 3992SOL    HW123612   3.288   4.493   7.014  2.3138 -1.1935  0.2316
 3992SOL    HW223613   3.289   4.633   7.064  0.4840 -1.2595  1.5572
 3993SOL     OW23614   4.527   0.941   6.874 -0.1588 -0.8133 -0.1503
 3993SOL    HW123615   4.578   1.008   6.919 -1.7502  0.9806 -1.0435
 3993SOL    HW223616   4.586   0.865   6.877 -1.3653 -1.7681 -0.4590
 3994SOL     OW23617   0.132   0.616  11.493  0.3574 -0.3801  0.1696
 3994SOL    HW123618   0.041   0.613  11.464  1.0413  0.7589 -2.0636
 3994SOL    HW223619   0.129   0.629  11.588 -0.1838 -0.6105  0.1871
 3995SOL     OW23620   3.193   0.209  12.099  0.3162  0.3581  0.0248
 3995SOL    HW123621   3.263   0.148  12.120  0.9220  1.0620  0.0489
 3995SOL    HW223622   3.119   0.148  12.101 -0.5944  1.5090  1.7092
 3996SOL     OW23623   3.448   3.864   2.611 -0.2479 -0.1030  0.5165
 3996SOL    HW123624   3.395   3.944   2.613 -1.0769 -0.5975 -1.8178
 3996SOL    HW223625   3.472   3.846   2.702 -4.2699  2.0047  1.9816
 3997SOL     OW23626   1.874   1.695   8.826  0.3815 -0.1845 -0.2954
 3997SOL    HW123627   1.908   1.609   8.851 -0.2862 -0.4224 -0.2187
 3997SOL    HW223628   1.936   1.713   8.755 -0.4595 -2.1419 -1.5330
 3998SOL     OW23629   4.554   4.343   4.961  0.4497  0.0597  0.4336
 3998SOL    HW123630   4.621   4.409   4.977  2.5650 -1.8357 -0.6600
 3998SOL    HW223631   4.596   4.266   4.997 -0.7710 -0.3726  0.9358
 3999SOL     OW23632   0.239   2.086   8.922  0.3299 -0.1427  0.2043
 3999SOL    HW123633   0.236   2.161   8.980 -1.8408 -0.6441  0.7425
 3999SOL    HW223634   0.262   2.129   8.840 -2.8622 -0.9531 -1.1432
 4000SOL     OW23635   4.334   2.953  13.162  0.1159  0.7076  0.5533
 4000SOL    HW123636   4.401   2.955  13.230 -1.9483 -1.5894  2.6607
 4000SOL    HW223637   4.287   3.032  13.189 -1.9551 -0.6137  0.8184
 4001SOL     OW23638   4.048   1.949  13.432 -0.3564  0.1418  0.3964
 4001SOL    HW123639   4.132   1.979  13.396 -0.9722  1.6836  0.2413
 4001SOL    HW223640   4.071   1.917  13.519 -0.1084 -0.3248  0.1633
 4002SOL     OW23641   1.777   3.598  10.493  0.5432 -0.0346 -0.3718
 4002SOL    HW123642   1.714   3.637  10.553  0.4432  0.2603 -0.6680
 4002SOL    HW223643   1.745   3.649  10.419  1.6968  0.8242 -0.2786
 4003SOL     OW23644   2.971   0.624   2.597 -0.9400 -0.1337 -0.1649
 4003SOL    HW123645   2.971   0.587   2.685  2.2420  1.0253  0.3334
 4003SOL    HW223646   2.970   0.540   2.551 -0.2445  0.1783 -0.7693
 4004SOL     OW23647   3.212   4.340   7.070  0.1378  0.4669  0.1314
 4004SOL    HW123648   3.203   4.244   7.066  0.9283  0.3664  0.8104
 4004SOL    HW223649   3.133   4.369   7.114  0.0534 -0.4041  0.5575
 4005SOL     OW23650   2.332   4.313   2.667  0.5550 -0.4629 -0.2893
 4005SOL    HW123651   2.379   4.310   2.583 -0.5465 -0.7158 -0.8969
 4005SOL    HW223652   2.375   4.236   2.703 -1.3464  0.3242  3.6553
 4006SOL     OW23653   0.654   1.648  13.400 -0.1570  0.0130  0.2822
 4006SOL    HW123654   0.701   1.725  13.431  1.1299 -1.1511  1.1924
 4006SOL    HW223655   0.597   1.696  13.339  1.3689 -0.6737 -1.6881
 4007SOL     OW23656   0.215   3.268   1.207  0.5237 -0.1454  0.3760
 4007SOL    HW123657   0.151   3.246   1.274  1.0497  0.6022  1.1209
 4007SOL    HW223658   0.166   3.317   1.141 -1.0480 -0.1907  1.5324
 4008SOL     OW23659   1.496   2.793   7.162  0.0445 -0.4999 -0.0930
 4008SOL    HW123660   1.430   2.736   7.202 -0.5347  1.3158  1.5814
 4008SOL    HW223661   1.547   2.738   7.103  0.6645  0.3697 -0.3749
 4009SOL     OW23662   2.868   4.608   1.331  0.3020  0.1630  0.7539
 4009SOL    HW123663   2.956   4.643   1.347  1.3666 -1.7274 -0.9176
 4009SOL    HW223664   2.833   4.573   1.413 -1.3938 -1.1391 -0.5429
 4010SOL     OW23665   1.169   1.570  11.573 -0.7112 -0.5550  0.0774
 4010SOL    HW123666   1.094   1.626  11.590 -0.4461 -0.2933  0.3818
 4010SOL    HW223667   1.168   1.575  11.477 -2.7294 -1.5227  0.0541
 4011SOL     OW23668   3.657   2.540  13.966 -0.1370  0.0366  0.1887
 4011SOL    HW123669   3.566   2.536  13.992 -0.4575  2.6075 -0.5140
 4011SOL    HW223670   3.687   2.592  14.040  0.2660  0.2809 -0.1409
 4012SOL     OW23671   0.613   3.969   3.379  0.0433 -0.4067 -0.5361
 4012SOL    HW123672   0.707   3.983   3.374 -0.3606  1.7724 -2.0964
 4012SOL    HW223673   0.606   3.891   3.324 -2.8059 -1.6102  1.5110
 4013SOL     OW23674   1.661   1.494   2.413  0.1451 -0.4209 -0.2593
 4013SOL    HW123675   1.667   1.541   2.496  0.1410 -0.9505  0.0456
 4013SOL    HW223676   1.724   1.426   2.438  0.2318 -0.2255  0.0531
 4014SOL     OW23677   2.599   3.239  12.002 -0.1783  0.4051  0.0829
 4014SOL    HW123678   2.610   3.144  12.011 -1.8723  0.0260 -1.7324
 4014SOL    HW223679   2.531   3.256  12.068 -1.3749 -0.7222 -0.8641
 4015SOL     OW23680   2.402   4.530   1.173  0.6186  0.4159  0.4579
 4015SOL    HW123681   2.489   4.492   1.183  0.0306 -1.2513 -0.6875
 4015SOL    HW223682   2.382   4.491   1.088 -0.3001  0.6130  0.5835
 4016SOL     OW23683   3.906   0.137   3.829  0.1316 -0.4603  0.4144
 4016SOL    HW123684   3.816   0.166   3.813 -0.0900 -0.8855  0.8853
 4016SOL    HW223685   3.935   0.194   3.900 -0.4722  0.2060  0.1306
 4017SOL     OW23686   1.798   0.977   3.014  0.1288 -0.4865 -0.1162
 4017SOL    HW123687   1.744   1.049   2.980  1.5353  1.6703  2.2103
 4017SOL    HW223688   1.774   0.912   2.949  0.2451  1.0102 -1.6773
 4018SOL     OW23689   4.431   1.034  10.158  0.3623 -0.2265 -0.1519
 4018SOL    HW123690   4.419   1.108  10.097 -0.1043 -0.9494 -0.9413
 4018SOL    HW223691   4.462   1.070  10.241 -1.1123 -0.3136  0.4386
 4019SOL     OW23692   0.393   0.808   9.106 -0.7191 -0.1601 -0.2686
 4019SOL    HW123693   0.469   0.798   9.048 -0.7265 -0.8954 -0.1381
 4019SOL    HW223694   0.319   0.795   9.047 -0.7697  0.2089 -0.2902
 4020SOL     OW23695   0.474   1.646  12.462 -0.5896 -0.6737 -0.2957
 4020SOL    HW123696   0.554   1.697  12.476 -2.3220  1.3673  2.1576
 4020SOL    HW223697   0.472   1.610  12.550 -1.4222 -1.4043 -0.6213
 4021SOL     OW23698   1.006   4.382   0.544  0.1298  0.4128  0.1257
 4021SOL    HW123699   0.979   4.436   0.618 -3.0645 -3.2702  1.6461
 4021SOL    HW223700   0.974   4.426   0.464 -0.6516  0.8684  0.6864
 4022SOL     OW23701   1.287   4.622   1.816  0.9184  0.0008  0.2016
 4022SOL    HW123702   1.297   4.676   1.895  1.0770 -0.7723  0.7111
 4022SOL    HW223703   1.201   4.582   1.828  0.5252  0.8001  0.0840
 4023SOL     OW23704   4.462   2.116  17.216 -0.1718 -0.2393  0.4115
 4023SOL    HW123705   4.506   2.150  17.294  2.1136 -2.9487  0.2735
 4023SOL    HW223706   4.506   2.177  17.157 -1.0556  0.4512  0.4457
 4024SOL     OW23707   3.672   2.112   1.272 -0.4929  0.1183 -0.5385
 4024SOL    HW123708   3.755   2.157   1.282 -1.0711  0.8997  0.8658
 4024SOL    HW223709   3.608   2.180   1.249 -0.2021  0.9946  1.2332
 4025SOL     OW23710   3.562   2.434  15.847 -0.1638  0.2948 -0.2734
 4025SOL    HW123711   3.636   2.376  15.830  0.2119 -0.2173  3.0511
 4025SOL    HW223712   3.607   2.512  15.880  0.2671 -0.3759  0.7496
 4026SOL     OW23713   0.175   2.963   9.453  0.4147  0.3017  0.1241
 4026SOL    HW123714   0.247   2.980   9.392 -0.6483 -1.3955 -1.5750
 4026SOL    HW223715   0.218   2.999   9.531 -1.9208  1.6697  0.7531
 4027SOL     OW23716   2.867   3.232   5.885  0.0093 -0.7679 -0.8234
 4027SOL    HW123717   2.892   3.253   5.795  0.6886  2.7727  0.2045
 4027SOL    HW223718   2.957   3.229   5.917  0.0881  0.9272 -0.8964
 4028SOL     OW23719   2.789   0.148   6.753  0.1681 -0.1355  0.5606
 4028SOL    HW123720   2.744   0.230   6.733  0.3562 -0.3978 -0.9405
 4028SOL    HW223721   2.752   0.134   6.840 -0.6632 -0.8529  0.0943
 4029SOL     OW23722   4.069   1.915   5.013  0.0586  0.4185 -0.3004
 4029SOL    HW123723   4.043   1.878   5.097 -0.9699  0.0610 -0.7708
 4029SOL    HW223724   4.158   1.943   5.033  0.7403 -1.1698 -1.1002
 4030SOL     OW23725   2.131   0.681   3.302 -0.2753  0.3484 -0.0523
 4030SOL    HW123726   2.214   0.728   3.301  0.1202 -0.3584 -1.3548
 4030SOL    HW223727   2.076   0.760   3.304 -0.5209  0.2299 -1.6226
 4031SOL     OW23728   0.679   1.625   7.148 -0.1895  0.6859 -0.1731
 4031SOL    HW123729   0.758   1.606   7.096  0.7797  0.2516  1.4452
 4031SOL    HW223730   0.709   1.712   7.175 -1.2470  0.2442  2.3603
 4032SOL     OW23731   0.293   0.780   5.480 -0.1796 -1.0632  0.2385
 4032SOL    HW123732   0.276   0.865   5.520  2.0672 -0.6741  0.3855
 4032SOL    HW223733   0.245   0.729   5.545  0.2049  1.1894  2.3045
 4033SOL     OW23734   1.456   1.242   3.029 -0.1438  0.1312 -0.1839
 4033SOL    HW123735   1.371   1.218   2.992 -0.0911 -0.7387  0.2674
 4033SOL    HW223736   1.466   1.172   3.093  0.7104  0.5800  0.1807
 4034SOL     OW23737   2.856   0.548   8.611  0.1397 -0.0550 -0.2482
 4034SOL    HW123738   2.883   0.465   8.652 -0.0385  0.1622  0.3131
 4034SOL    HW223739   2.764   0.536   8.589 -0.5702 -0.5869  2.9241
 4035SOL     OW23740   3.882   2.558   4.645  0.6646  0.9080 -0.2388
 4035SOL    HW123741   3.965   2.539   4.689  0.5056 -0.6592 -0.6337
 4035SOL    HW223742   3.839   2.475   4.663 -1.2644  1.9736  0.0375
 4036SOL     OW23743   4.388   3.195   0.447  0.6103 -0.1447 -0.0574
 4036SOL    HW123744   4.379   3.141   0.526  0.6197  1.8165  1.2724
 4036SOL    HW223745   4.372   3.284   0.476  1.7772 -0.3695  1.2802
 4037SOL     OW23746   3.833   1.136   8.317  0.5653  0.2251  0.0025
 4037SOL    HW123747   3.839   1.150   8.411  2.2309  0.5379 -0.1478
 4037SOL    HW223748   3.816   1.042   8.310  0.7854  0.3451 -2.1255
 4038SOL     OW23749   2.765   1.583  12.183 -0.3809 -0.0093  0.0401
 4038SOL    HW123750   2.838   1.565  12.124  0.7754 -1.3730  1.8984
 4038SOL    HW223751   2.695   1.559  12.122  0.8734  0.2553 -1.5116
 4039SOL     OW23752   3.819   3.283   6.406  0.2163 -0.6061 -0.1087
 4039SOL    HW123753   3.744   3.230   6.429  0.5086 -0.8202  0.3418
 4039SOL    HW223754   3.809   3.366   6.453  4.3854 -0.7101  0.9745
 4040SOL     OW23755   3.541   3.819   4.821  0.0111 -0.8345 -0.2822
 4040SOL    HW123756   3.500   3.775   4.895 -0.8822  2.0631  0.9458
 4040SOL    HW223757   3.583   3.889   4.871  1.1138 -0.3382 -1.8983
 4041SOL     OW23758   0.026   4.120   3.877 -0.0967 -0.2189  0.2223
 4041SOL    HW123759   0.112   4.118   3.834  0.5870  0.4391  1.5404
 4041SOL    HW223760   4.695   4.131   3.809 -1.8800  0.0220  1.9948
 4042SOL     OW23761   1.268   1.068   5.287  0.1670  0.5139 -0.0702
 4042SOL    HW123762   1.333   1.076   5.217  1.0937  1.8067  0.9516
 4042SOL    HW223763   1.273   1.161   5.308  2.4835 -0.2858  2.8407
 4043SOL     OW23764   0.553   3.089   8.191 -0.0994 -0.1366 -0.8030
 4043SOL    HW123765   0.530   2.997   8.198 -0.2294  0.0929  2.0587
 4043SOL    HW223766   0.548   3.119   8.282 -1.4619  0.2786 -1.0055
 4044SOL     OW23767   3.984   3.033   3.456 -0.4864  0.1791  0.0222
 4044SOL    HW123768   3.941   2.999   3.377 -1.4553 -0.6279  0.9184
 4044SOL    HW223769   3.968   2.959   3.513 -1.2601 -0.3607 -0.8794
 4045SOL     OW23770   4.182   0.893   9.245  0.5152  1.0921  0.2460
 4045SOL    HW123771   4.250   0.936   9.193  1.4327  2.2669  2.3922
 4045SOL    HW223772   4.226   0.828   9.300 -0.0150 -0.8573 -1.6466
 4046SOL     OW23773   0.548   2.849  15.020 -0.6458  0.6321 -0.2190
 4046SOL    HW123774   0.523   2.814  14.935  0.2244  0.3520 -0.3526
 4046SOL    HW223775   0.467   2.824  15.065 -1.3398  0.1973 -1.7215
 4047SOL     OW23776   2.279   2.569   3.817  0.3448 -0.4077 -0.3150
 4047SOL    HW123777   2.212   2.576   3.749  0.6429  1.5334 -0.3927
 4047SOL    HW223778   2.290   2.474   3.821  0.0608 -0.4894 -1.3934
 4048SOL     OW23779   2.314   4.507  17.588 -0.1854 -0.0874  0.3610
 4048SOL    HW123780   2.355   4.579  17.637 -0.1368 -1.1122  1.8404
 4048SOL    HW223781   2.223   4.511  17.616 -0.9400  0.2774 -2.1731
 4049SOL     OW23782   3.456   1.473   8.210  0.3027 -0.1433  0.6521
 4049SOL    HW123783   3.523   1.517   8.262  1.5716 -1.8923  0.4942
 4049SOL    HW223784   3.413   1.428   8.283  4.9541 -0.0686  3.4386
 4050SOL     OW23785   4.489   4.604  12.531  0.1959  0.1382  0.4019
 4050SOL    HW123786   4.521   4.624  12.443  1.5766 -0.8805  0.6739
 4050SOL    HW223787   4.559   4.632  12.590  1.2290 -1.5212 -0.0338
 4051SOL     OW23788   1.684   4.692   9.331  0.3485 -0.0722  0.4237
 4051SOL    HW123789   1.684   0.051   9.312  0.6717 -0.4788 -1.6516
 4051SOL    HW223790   1.620   4.670   9.263 -0.6667 -0.7877  1.6069
 4052SOL     OW23791   1.939   4.556   8.118 -0.2209 -0.4325 -0.2255
 4052SOL    HW123792   2.013   4.554   8.178 -1.8601  0.0602  1.7819
 4052SOL    HW223793   1.929   4.463   8.096  2.6510 -1.4829  2.8726
 4053SOL     OW23794   4.421   3.054   7.474 -0.1501 -0.1513 -0.3579
 4053SOL    HW123795   4.378   3.014   7.550  0.0174 -1.6641 -1.0536
 4053SOL    HW223796   4.496   2.995   7.481 -0.6056 -0.7169 -0.1857
 4054SOL     OW23797   2.769   1.152   4.349 -0.2864 -0.5683 -0.0143
 4054SOL    HW123798   2.789   1.185   4.262  0.7055 -0.7162  0.1551
 4054SOL    HW223799   2.832   1.205   4.398 -0.1878 -1.0208  0.3496
 4055SOL     OW23800   2.772   4.550   7.548 -0.6032  0.4185 -0.2929
 4055SOL    HW123801   2.798   4.510   7.631 -0.4547 -0.4807 -0.7695
 4055SOL    HW223802   2.684   4.514   7.533  0.4761 -1.1839 -2.6121
 4056SOL     OW23803   2.235   0.396  11.298  1.0388 -0.6565  0.0943
 4056SOL    HW123804   2.228   0.326  11.234  2.2902  1.3543 -2.2127
 4056SOL    HW223805   2.175   0.368  11.368  0.0771  0.9965 -0.0767
 4057SOL     OW23806   3.127   1.246   7.835  0.1598 -0.3886  0.3662
 4057SOL    HW123807   3.167   1.280   7.915  0.9784  0.9073 -0.6203
 4057SOL    HW223808   3.127   1.321   7.776  2.0195 -0.9345 -0.3172
 4058SOL     OW23809   2.298   1.120   2.699 -0.4335 -0.0325  0.2279
 4058SOL    HW123810   2.381   1.141   2.655 -1.6736  3.7776 -0.2981
 4058SOL    HW223811   2.322   1.047   2.755  1.0946 -0.3359 -0.8186
 4059SOL     OW23812   3.074   2.889   7.962  0.2614  0.0006 -0.6328
 4059SOL    HW123813   3.081   2.850   7.874  0.2946 -2.5712  0.5162
 4059SOL    HW223814   2.995   2.939   7.942  1.5979  2.0798 -0.7107
 4060SOL     OW23815   4.649   2.232   8.946 -0.1286 -0.0411  0.0715
 4060SOL    HW123816   4.716   2.251   9.010 -1.3928 -0.9839  1.6773
 4060SOL    HW223817   4.688   2.261   8.864  1.9094 -2.3654  0.2164
 4061SOL     OW23818   0.896   4.314  16.049  0.1651  0.9236  0.3989
 4061SOL    HW123819   0.914   4.372  15.975  1.0682 -0.5104 -0.5101
 4061SOL    HW223820   0.907   4.373  16.123 -0.2911  0.0289  1.1711
 4062SOL     OW23821   4.099   4.692   8.104  0.5506 -0.8030 -0.0614
 4062SOL    HW123822   4.019   4.655   8.066 -0.1505  2.0462 -1.3077
 4062SOL    HW223823   4.147   4.708   8.023  0.2196  0.2388 -0.0494
 4063SOL     OW23824   0.005   3.568  12.837  0.9375  0.4461 -0.3218
 4063SOL    HW123825   0.018   3.500  12.771 -1.7254  0.3221 -0.7204
 4063SOL    HW223826   0.027   3.643  12.780  1.9399 -1.0291 -1.8868
 4064SOL     OW23827   4.447   2.910  13.759 -0.3446  0.0088  0.3209
 4064SOL    HW123828   4.400   2.860  13.692 -0.2318  0.1301  0.1543
 4064SOL    HW223829   4.464   2.994  13.718  0.6905 -0.3373  0.0318
 4065SOL     OW23830   1.208   3.215   1.899 -0.2061 -0.1470 -0.1628
 4065SOL    HW123831   1.246   3.271   1.967 -0.7982 -0.2943  0.2945
 4065SOL    HW223832   1.132   3.268   1.874 -1.1577 -1.3376  0.1563
 4066SOL     OW23833   1.067   3.948  11.427  0.3939 -0.8396  0.0093
 4066SOL    HW123834   1.051   4.007  11.353  2.1413  2.1296  2.0134
 4066SOL    HW223835   1.095   3.869  11.380  0.3442 -1.2235  0.6338
 4067SOL     OW23836   3.465   1.435   8.781  0.3250  0.0312 -0.0133
 4067SOL    HW123837   3.405   1.382   8.834  0.4587  3.4254  3.5302
 4067SOL    HW223838   3.547   1.386   8.787  0.5916  0.5106  0.2468
 4068SOL     OW23839   4.568   1.587  10.505  0.2403 -0.0510 -0.2347
 4068SOL    HW123840   4.616   1.545  10.576  0.6348 -0.0074 -0.4760
 4068SOL    HW223841   4.484   1.574  10.550 -0.3999 -0.4575 -1.5477
 4069SOL     OW23842   3.106   1.043   2.526  0.2504 -0.1891 -0.3493
 4069SOL    HW123843   3.078   1.133   2.544 -0.7107 -0.2486 -1.5544
 4069SOL    HW223844   3.085   1.009   2.613 -1.0389 -1.3651 -1.1115
 4070SOL     OW23845   1.834   0.912   1.957  0.2231 -0.1229  0.2050
 4070SOL    HW123846   1.789   0.871   2.031  1.9104 -0.8139  0.8651
 4070SOL    HW223847   1.870   0.991   1.996 -0.5221 -0.5013  1.6512
 4071SOL     OW23848   2.380   3.282   6.484  0.4634  0.1619 -0.0328
 4071SOL    HW123849   2.416   3.247   6.403  2.7221 -1.1371  1.5251
 4071SOL    HW223850   2.324   3.344   6.438 -0.4156  0.0249  0.8703
 4072SOL     OW23851   0.436   0.252   7.392  0.5657  0.2584 -0.2505
 4072SOL    HW123852   0.392   0.225   7.473 -0.1336  2.0808 -0.0142
 4072SOL    HW223853   0.400   0.193   7.327  0.5752 -0.6107  0.5297
 4073SOL     OW23854   1.367   1.791   5.836  0.0987  0.8034 -0.5657
 4073SOL    HW123855   1.436   1.725   5.830  0.1750  0.8421 -0.0462
 4073SOL    HW223856   1.397   1.875   5.870  0.9301  0.3296 -0.1527
 4074SOL     OW23857   2.460   1.671  13.650 -0.4746  0.0922  0.2048
 4074SOL    HW123858   2.461   1.641  13.741  0.1690 -0.8785 -0.1238
 4074SOL    HW223859   2.518   1.610  13.605 -0.9785 -2.2777  2.8003
 4075SOL     OW23860   0.140   0.757   1.491 -0.0978 -0.2167  0.7099
 4075SOL    HW123861   0.105   0.747   1.402  0.7737  0.6853  0.2605
 4075SOL    HW223862   0.209   0.823   1.479  0.6444 -0.9641  0.9252
 4076SOL     OW23863   2.904   0.304   2.056  0.8665  0.0836  0.2165
 4076SOL    HW123864   2.999   0.318   2.058  0.9283 -0.6019  1.8401
 4076SOL    HW223865   2.876   0.389   2.091  0.0496  0.0223 -0.2875
 4077SOL     OW23866   4.229   3.920  10.929 -0.2123  0.3062  0.3258
 4077SOL    HW123867   4.191   3.834  10.911  0.8218 -0.1222  0.2294
 4077SOL    HW223868   4.317   3.897  10.957 -0.7596 -0.8166  1.1431
 4078SOL     OW23869   3.448   4.243   7.922 -0.1663  0.4963 -0.0659
 4078SOL    HW123870   3.531   4.280   7.950 -0.0644 -0.8603  1.4177
 4078SOL    HW223871   3.398   4.324   7.918 -1.2241  0.0584  4.5262
 4079SOL     OW23872   0.954   2.583   7.306  0.4630 -0.0572 -0.4998
 4079SOL    HW123873   1.021   2.587   7.375 -1.2118  1.7924  1.0145
 4079SOL    HW223874   0.873   2.579   7.357  0.9212 -2.0207  0.0795
 4080SOL     OW23875   2.924   0.224   2.860 -0.3834  0.0635  0.0647
 4080SOL    HW123876   2.969   0.187   2.936  1.2292  0.1353 -0.8357
 4080SOL    HW223877   2.835   0.199   2.882  0.1034 -2.5370 -0.9449
 4081SOL     OW23878   0.714   0.207   7.322 -0.6640 -0.5322 -0.5839
 4081SOL    HW123879   0.629   0.242   7.296  0.5836  1.4988 -1.9209
 4081SOL    HW223880   0.685   0.159   7.400  1.3371 -1.2059 -0.2740
 4082SOL     OW23881   2.353   3.411   8.057  0.5605  0.5670  0.9477
 4082SOL    HW123882   2.279   3.408   8.117 -0.6444 -1.2511 -0.6330
 4082SOL    HW223883   2.311   3.370   7.982 -1.0728 -1.2133  2.8328
 4083SOL     OW23884   2.396   2.265   5.697 -0.0251  0.6465 -0.0798
 4083SOL    HW123885   2.369   2.340   5.643  3.6094  2.1166  0.2014
 4083SOL    HW223886   2.354   2.276   5.782 -0.1796  0.0510 -0.0760
 4084SOL     OW23887   3.447   3.717  14.304  0.4019  0.0095 -0.0323
 4084SOL    HW123888   3.385   3.691  14.235 -0.4506  2.6304 -0.2336
 4084SOL    HW223889   3.382   3.717  14.375  1.9666 -0.0940  1.3992
 4085SOL     OW23890   3.849   2.328  13.268  0.2734  0.1353 -0.1452
 4085SOL    HW123891   3.940   2.301  13.256  0.2926  0.4617 -0.7465
 4085SOL    HW223892   3.816   2.346  13.180 -1.2482  0.1227  0.4219
 4086SOL     OW23893   4.550   0.825   8.672 -0.0032 -0.1695 -0.5004
 4086SOL    HW123894   4.529   0.914   8.645 -0.0593  0.1126  0.4633
 4086SOL    HW223895   4.465   0.786   8.651  0.3060 -1.3201  0.4083
 4087SOL     OW23896   4.644   4.115   8.919  0.3318  0.1452 -0.0048
 4087SOL    HW123897   4.613   4.049   8.982 -2.8157  0.3336 -1.3387
 4087SOL    HW223898   4.682   4.176   8.983  0.1100 -1.2033  1.4301
 4088SOL     OW23899   1.237   4.369  14.956 -0.6820 -0.4491 -0.5122
 4088SOL    HW123900   1.332   4.383  14.958 -0.8848  1.0648 -1.4403
 4088SOL    HW223901   1.208   4.401  15.041  0.6144  0.0209 -0.2426
 4089SOL     OW23902   2.281   3.688   2.410 -0.3216 -0.3647 -0.5761
 4089SOL    HW123903   2.187   3.687   2.391 -0.8170  0.5594  1.8746
 4089SOL    HW223904   2.282   3.662   2.502 -0.3781 -2.7556 -1.2505
 4090SOL     OW23905   3.551   1.349   4.724  0.2365  0.4463  0.5291
 4090SOL    HW123906   3.502   1.328   4.803 -0.3867  1.1561  0.3425
 4090SOL    HW223907   3.547   1.265   4.678  0.7116  0.8115 -0.1903
 4091SOL     OW23908   3.567   1.657   2.219 -0.2712  0.7405  0.4414
 4091SOL    HW123909   3.541   1.592   2.284  0.6285 -0.3270 -0.2688
 4091SOL    HW223910   3.499   1.645   2.153  0.2696 -0.8494  0.1777
 4092SOL     OW23911   3.743   2.944  15.162  0.2857  0.0979  0.0495
 4092SOL    HW123912   3.676   2.905  15.219  0.6501  0.3810  0.6713
 4092SOL    HW223913   3.697   2.998  15.098  0.4511 -1.3230 -1.2932
 4093SOL     OW23914   3.245   4.662   3.215 -0.3084 -0.1969 -0.7481
 4093SOL    HW123915   3.264   4.570   3.234 -0.7392 -0.5593 -2.0693
 4093SOL    HW223916   3.333   4.699   3.215 -1.1457  1.8249  1.3109
 4094SOL     OW23917   4.047   2.442   8.063  0.2029 -0.6255  0.6395
 4094SOL    HW123918   4.112   2.442   8.133  0.1299 -0.1119  0.7107
 4094SOL    HW223919   4.057   2.531   8.029  1.8365 -0.4132  1.6793
 4095SOL     OW23920   3.057   2.788   7.172  0.1307 -0.1348  0.0086
 4095SOL    HW123921   2.969   2.756   7.150  1.9297 -3.3966 -2.4330
 4095SOL    HW223922   3.114   2.717   7.146  2.0987  1.8358 -1.0306
 4096SOL     OW23923   0.334   4.216   6.546  0.1385  0.0289 -0.7948
 4096SOL    HW123924   0.279   4.222   6.624  0.9885 -2.2323  0.0028
 4096SOL    HW223925   0.397   4.288   6.556  1.1720 -0.6987 -2.0598
 4097SOL     OW23926   2.992   0.544  16.104  0.6383 -0.1642 -0.1220
 4097SOL    HW123927   2.919   0.516  16.048  0.2948  0.4323  0.0225
 4097SOL    HW223928   2.943   0.576  16.180  0.0087 -2.5585  0.4694
 4098SOL     OW23929   4.234   1.316  17.128 -0.3884 -0.1891 -0.7167
 4098SOL    HW123930   4.191   1.233  17.147 -0.6060 -0.1126 -0.8752
 4098SOL    HW223931   4.202   1.349  17.044  0.5215 -0.1310 -1.0480
 4099SOL     OW23932   0.905   3.274   8.294 -0.3541  0.0539  0.1970
 4099SOL    HW123933   0.968   3.346   8.288  1.7767 -1.6802  1.8576
 4099SOL    HW223934   0.971   3.219   8.337 -2.3996 -2.8518 -0.3684
 4100SOL     OW23935   3.578   3.390   7.861  0.3282 -0.3039 -0.3754
 4100SOL    HW123936   3.568   3.403   7.955 -1.1191  0.4685 -0.6318
 4100SOL    HW223937   3.496   3.342   7.852  0.6158 -1.0263  1.0025
 4101SOL     OW23938   3.327   1.562   7.022  0.3880 -0.5083  0.3655
 4101SOL    HW123939   3.383   1.636   7.047  0.2886 -0.3263  0.0436
 4101SOL    HW223940   3.377   1.523   6.950 -0.5156 -0.1277 -0.4645
 4102SOL     OW23941   0.039   4.613   8.097 -0.0743  0.3629  0.5427
 4102SOL    HW123942   0.021   4.635   8.188 -2.1831  0.8511  0.0018
 4102SOL    HW223943   0.084   4.691   8.065  1.6056  0.3506  2.9028
 4103SOL     OW23944   2.022   1.484   5.837 -0.6273  0.3683 -0.0890
 4103SOL    HW123945   2.035   1.554   5.901 -1.0673 -0.1138  0.5334
 4103SOL    HW223946   2.102   1.475   5.785 -1.6746 -1.1117 -1.4265
 4104SOL     OW23947   0.948   2.629   9.612 -0.0465 -0.2625  0.0126
 4104SOL    HW123948   1.002   2.676   9.675 -0.1589  1.5580 -1.2544
 4104SOL    HW223949   0.859   2.646   9.643 -0.1906 -0.2500 -0.4064
 4105SOL     OW23950   3.704   1.641   8.792 -0.0892  0.3166  0.2554
 4105SOL    HW123951   3.619   1.603   8.814 -0.4857 -0.1742 -2.0354
 4105SOL    HW223952   3.757   1.561   8.794 -0.3995  0.0776 -0.8429
 4106SOL     OW23953   4.134   0.913   1.655 -0.5416 -1.0961  0.3694
 4106SOL    HW123954   4.059   0.946   1.606  0.4643 -0.9960 -1.1163
 4106SOL    HW223955   4.126   0.959   1.739 -1.0925 -1.3241  0.4389
 4107SOL     OW23956   1.811   4.222  12.443  0.8091  0.4502  0.4673
 4107SOL    HW123957   1.834   4.209  12.535 -0.3900 -0.7239  0.5920
 4107SOL    HW223958   1.842   4.310  12.422 -1.9194  1.1241 -0.7204
 4108SOL     OW23959   0.949   1.157   6.014 -0.7017  0.6279  0.3205
 4108SOL    HW123960   1.011   1.146   5.943  0.3869 -0.2133  1.3881
 4108SOL    HW223961   0.882   1.204   5.964 -2.7814 -2.2921  0.2948
 4109SOL     OW23962   0.871   1.177   9.149 -0.1112  0.7724 -0.0884
 4109SOL    HW123963   0.841   1.185   9.240  0.2227  1.2144 -0.0208
 4109SOL    HW223964   0.834   1.258   9.114  1.5802  0.7588 -1.8810
 4110SOL     OW23965   0.852   0.921  13.558 -0.4438  0.0809  0.2876
 4110SOL    HW123966   0.857   0.970  13.476 -1.0036 -0.4942 -0.0901
 4110SOL    HW223967   0.906   0.969  13.621 -0.9638  0.2605  0.5909
 4111SOL     OW23968   3.111   1.497   7.181 -0.7728 -0.3650  0.7578
 4111SOL    HW123969   3.193   1.520   7.138 -1.3821  0.1437 -0.1158
 4111SOL    HW223970   3.046   1.540   7.125  1.3015 -0.9610 -2.0749
 4112SOL     OW23971   3.271   1.167  15.566 -0.3484  0.1043  0.5745
 4112SOL    HW123972   3.335   1.238  15.566  0.5482 -0.6982 -0.9247
 4112SOL    HW223973   3.234   1.172  15.478 -0.2266 -0.8453  0.4665
 4113SOL     OW23974   3.542   3.252  14.053 -0.2704 -0.5014 -0.1685
 4113SOL    HW123975   3.505   3.323  13.999  1.8198  0.4986 -0.3014
 4113SOL    HW223976   3.555   3.185  13.986 -1.4732  0.5015 -1.4252
 4114SOL     OW23977   2.710   4.350   2.281 -0.1743 -0.4527  0.3283
 4114SOL    HW123978   2.800   4.323   2.298 -0.2741 -1.8620 -1.3705
 4114SOL    HW223979   2.722   4.407   2.205 -0.7622 -1.6163 -0.6381
 4115SOL     OW23980   1.895   1.662  10.425  0.0269 -0.4042 -0.0039
 4115SOL    HW123981   1.932   1.597  10.365  1.2324 -0.5774  0.9371
 4115SOL    HW223982   1.910   1.749  10.387  0.3437  0.1740  1.4577
 4116SOL     OW23983   1.610   1.418   7.789 -0.0478  0.2248  0.2656
 4116SOL    HW123984   1.521   1.384   7.798  0.3581 -1.0568 -0.5382
 4116SOL    HW223985   1.669   1.346   7.768  1.0729  0.8573  1.3074
 4117SOL     OW23986   3.935   2.780   8.470 -0.8278  0.1754  0.0047
 4117SOL    HW123987   3.845   2.749   8.478 -0.7158 -0.2865 -0.5022
 4117SOL    HW223988   3.953   2.812   8.381  0.1854 -1.3053 -0.3251
 4118SOL     OW23989   1.977   3.140  16.094 -0.0658  0.5465  0.2732
 4118SOL    HW123990   2.024   3.187  16.025 -1.0686 -1.1611 -1.5524
 4118SOL    HW223991   1.887   3.167  16.074 -0.8459 -1.5453  0.9613
 4119SOL     OW23992   2.541   2.765   8.635 -0.0329 -0.1556  0.4425
 4119SOL    HW123993   2.577   2.688   8.681  0.3456 -0.4399 -0.3230
 4119SOL    HW223994   2.532   2.815   8.716 -1.4151  2.6344 -1.4585
 4120SOL     OW23995   0.741   2.350  16.467 -0.2614  0.1067  0.0440
 4120SOL    HW123996   0.814   2.317  16.519 -0.3976 -1.1753 -0.5761
 4120SOL    HW223997   0.701   2.402  16.537 -0.4672  0.4814 -0.3546
 4121SOL     OW23998   1.504   0.026   8.869  0.3523  0.3913  0.4347
 4121SOL    HW123999   1.475   4.697   8.803 -0.9687 -0.4801  1.8354
 4121SOL    HW224000   1.564   4.708   8.923 -0.6344 -1.1474  0.0459
 4122SOL     OW24001   1.733   1.889  12.612 -0.3232 -0.0933 -0.4093
 4122SOL    HW124002   1.655   1.938  12.586 -0.5748 -1.6393 -2.4618
 4122SOL    HW224003   1.799   1.950  12.579 -0.3450  0.5609  0.7341
 4123SOL     OW24004   1.321   1.200   7.508  0.3930  0.6420 -0.6545
 4123SOL    HW124005   1.273   1.118   7.494 -0.0605  1.0161 -1.2706
 4123SOL    HW224006   1.404   1.190   7.460  0.4272 -1.5388 -0.1704
 4124SOL     OW24007   1.851   2.274   2.908  0.3698  0.2520 -0.5256
 4124SOL    HW124008   1.943   2.296   2.891  0.3420 -0.5856 -1.7127
 4124SOL    HW224009   1.866   2.203   2.970  3.3118  1.0950 -0.2518
 4125SOL     OW24010   3.826   1.620  16.486  0.0325 -0.2044  0.1805
 4125SOL    HW124011   3.879   1.696  16.462 -1.2106  1.2092  1.9137
 4125SOL    HW224012   3.790   1.599  16.400 -0.7017 -0.9736  0.6818
 4126SOL     OW24013   3.692   2.197   4.412 -0.5384  0.6546 -0.3972
 4126SOL    HW124014   3.687   2.292   4.422 -1.8672  0.0789  4.3203
 4126SOL    HW224015   3.647   2.161   4.488  1.0235  0.5628  0.4737
 4127SOL     OW24016   2.556   2.997  12.792 -0.5302  0.6083 -0.6910
 4127SOL    HW124017   2.587   2.972  12.705 -0.2771 -0.4228 -0.3186
 4127SOL    HW224018   2.627   3.055  12.820 -0.0650 -1.7241  3.0608
 4128SOL     OW24019   3.240   2.184   2.439  0.3758 -0.4731 -0.8905
 4128SOL    HW124020   3.197   2.244   2.378  0.2336 -0.2016 -0.5223
 4128SOL    HW224021   3.172   2.176   2.506  0.9405  0.9477 -0.1607
 4129SOL     OW24022   1.668   1.192   6.262  0.1794 -0.5593  0.3640
 4129SOL    HW124023   1.697   1.265   6.316  1.2583 -0.1758 -0.7271
 4129SOL    HW224024   1.683   1.225   6.174  1.6863  1.0743  1.2359
 4130SOL     OW24025   3.377   2.724   0.056  0.0515 -0.0650 -0.5633
 4130SOL    HW124026   3.440   2.763  17.732  2.5980 -2.2914  0.6548
 4130SOL    HW224027   3.326   2.803   0.075  0.3266 -0.1228  0.3870
 4131SOL     OW24028   1.930   1.138   2.057 -0.0949 -0.2924  0.0978
 4131SOL    HW124029   1.881   1.212   2.093  2.4690 -0.2750  3.5500
 4131SOL    HW224030   1.958   1.113   2.145 -0.2581  1.3642  0.6142
 4132SOL     OW24031   3.262   1.547   8.649  0.3933  0.8797  0.0215
 4132SOL    HW124032   3.293   1.635   8.628  1.2365  0.4345 -0.5995
 4132SOL    HW224033   3.332   1.518   8.707 -0.5155 -1.7401 -0.1960
 4133SOL     OW24034   0.687   0.954   5.082 -0.1660  0.2504 -0.0469
 4133SOL    HW124035   0.662   0.997   5.164 -0.1913  0.3568 -0.1095
 4133SOL    HW224036   0.779   0.933   5.097 -0.1927  2.1194  2.8234
 4134SOL     OW24037   3.072   1.285  15.731  0.3524  0.4300 -0.0816
 4134SOL    HW124038   3.130   1.239  15.671  1.5259  0.5949  0.9197
 4134SOL    HW224039   3.000   1.293  15.669 -1.1606 -1.3265  1.4300
 4135SOL     OW24040   4.615   3.833  12.503 -0.0098  0.3569  0.0228
 4135SOL    HW124041   4.587   3.799  12.419 -0.2577  1.0824 -0.1881
 4135SOL    HW224042   4.546   3.899  12.517  0.0680  0.5504 -0.5168
 4136SOL     OW24043   3.353   1.344   2.536  0.3514 -0.4152  0.4796
 4136SOL    HW124044   3.276   1.384   2.578  0.9902  1.6074 -0.2436
 4136SOL    HW224045   3.382   1.288   2.608  1.6318 -3.0393 -2.0815
 4137SOL     OW24046   3.574   2.498   9.452 -0.2669  0.1665 -0.2574
 4137SOL    HW124047   3.595   2.411   9.485 -1.4186  1.0413  2.8749
 4137SOL    HW224048   3.521   2.484   9.374  0.4373  0.8547 -0.8564
 4138SOL     OW24049   1.003   2.405  15.498  0.6784  0.1313  0.6034
 4138SOL    HW124050   0.919   2.366  15.474  1.0640  0.3251 -1.0336
 4138SOL    HW224051   0.991   2.403  15.593  1.0665  3.2926  0.7018
 4139SOL     OW24052   1.379   4.498  13.394 -0.2305  0.5332  0.5516
 4139SOL    HW124053   1.429   4.416  13.405 -0.9844  0.1006  0.7836
 4139SOL    HW224054   1.383   4.505  13.298  0.7792 -2.5952  0.3413
 4140SOL     OW24055   3.861   2.669   7.636  0.3734  0.0643  0.0195
 4140SOL    HW124056   3.794   2.642   7.573  0.9538  0.6507 -0.8641
 4140SOL    HW224057   3.836   2.760   7.653 -0.1459 -0.2972  1.1402
 4141SOL     OW24058   1.555   4.360   8.717 -0.0831 -0.3538  0.6777
 4141SOL    HW124059   1.462   4.378   8.703 -0.9549 -4.2840  1.4349
 4141SOL    HW224060   1.589   4.408   8.641 -1.7582 -1.6709 -0.9102
 4142SOL     OW24061   2.767   4.470   8.150 -0.1786 -0.0027  0.3739
 4142SOL    HW124062   2.861   4.465   8.167  0.0874  2.1886 -0.4447
 4142SOL    HW224063   2.746   4.508   8.236  2.2151  0.9794  0.5113
 4143SOL     OW24064   1.447   0.022   4.146 -0.1276 -0.1762  0.2948
 4143SOL    HW124065   1.385   0.019   4.219  1.1442 -1.1759  1.3289
 4143SOL    HW224066   1.399   4.699   4.086  0.0312 -0.1224  0.1174
 4144SOL     OW24067   4.308   0.298   5.222 -0.1402 -0.0260 -0.0033
 4144SOL    HW124068   4.342   0.381   5.256 -0.4750  0.1729 -0.1550
 4144SOL    HW224069   4.364   0.244   5.279  0.6392 -0.5335 -1.2485
 4145SOL     OW24070   1.989   4.286   2.435  0.5065  0.2265  0.8368
 4145SOL    HW124071   1.959   4.351   2.498  0.9789  2.5350 -1.3538
 4145SOL    HW224072   1.929   4.301   2.362  1.0680  0.2749  0.3891
 4146SOL     OW24073   0.190   4.194   8.599 -0.2941 -0.0927 -0.3023
 4146SOL    HW124074   0.239   4.198   8.682 -0.5110  3.2930 -0.3594
 4146SOL    HW224075   0.260   4.217   8.538  1.5266 -0.7912  1.5157
 4147SOL     OW24076   3.171   1.573   0.187  0.5013  0.2142  0.1274
 4147SOL    HW124077   3.197   1.483   0.166  0.8540 -0.1207  1.9529
 4147SOL    HW224078   3.125   1.599   0.107 -3.4647  1.2334  2.7476
 4148SOL     OW24079   0.750   3.151   4.175 -0.0795 -0.2006 -0.1969
 4148SOL    HW124080   0.702   3.180   4.098  1.6413  0.8598 -0.8784
 4148SOL    HW224081   0.690   3.187   4.240 -0.5483  1.3675 -1.4896
 4149SOL     OW24082   4.115   2.317   9.631 -0.4751 -0.1900 -0.1639
 4149SOL    HW124083   4.187   2.257   9.650  0.7060  1.1145 -0.4927
 4149SOL    HW224084   4.156   2.403   9.629  0.0381 -0.4843 -2.3676
 4150SOL     OW24085   2.837   3.066  13.859 -0.0868  0.0536  0.0862
 4150SOL    HW124086   2.836   2.999  13.791  0.0387  0.6033 -0.4623
 4150SOL    HW224087   2.744   3.084  13.877 -0.5650 -0.0692 -2.1959
 4151SOL     OW24088   1.058   4.102   8.281 -0.0530 -0.3536  0.3393
 4151SOL    HW124089   1.102   4.170   8.228  0.4290 -1.4088 -0.6097
 4151SOL    HW224090   0.992   4.161   8.318  0.8753  0.7375  0.2773
 4152SOL     OW24091   4.550   3.018  16.244  0.3101  0.3083  0.5787
 4152SOL    HW124092   4.578   3.109  16.234  2.2523 -0.4031 -0.4790
 4152SOL    HW224093   4.612   2.985  16.308  0.8803  0.2130 -0.0202
 4153SOL     OW24094   4.584   3.343  16.847  0.1161 -0.0594 -0.0956
 4153SOL    HW124095   4.512   3.347  16.910 -0.7670 -0.4745 -1.0827
 4153SOL    HW224096   4.549   3.352  16.758  0.6709 -0.4869 -0.3566
 4154SOL     OW24097   1.612   0.100   5.427 -0.1837  0.1588  0.8667
 4154SOL    HW124098   1.653   0.142   5.502  0.5406  1.2538 -0.1475
 4154SOL    HW224099   1.586   0.020   5.472  0.7608 -0.2427  0.7121
 4155SOL     OW24100   1.541   2.122   6.420 -0.0169  0.0275  0.0587
 4155SOL    HW124101   1.468   2.064   6.440 -0.1204  0.6371  1.4745
 4155SOL    HW224102   1.616   2.081   6.464 -1.3709 -1.8353  0.6382
 4156SOL     OW24103   3.879   2.913   7.785 -0.5592  0.0746  0.2975
 4156SOL    HW124104   3.856   2.858   7.860 -1.4480  0.2171  0.1245
 4156SOL    HW224105   3.831   2.994   7.803 -0.4506 -0.1027  1.3595
 4157SOL     OW24106   4.233   4.504   6.993 -0.4287  1.1204  0.0886
 4157SOL    HW124107   4.164   4.441   7.012 -0.5305  0.8309 -1.2319
 4157SOL    HW224108   4.284   4.508   7.074 -1.2882  0.6446  0.6566
 4158SOL     OW24109   2.519   3.741   4.424 -0.7956 -0.2335 -0.0200
 4158SOL    HW124110   2.565   3.678   4.369  1.7199  0.5830  1.1515
 4158SOL    HW224111   2.579   3.797   4.474 -0.4124  0.0571 -0.7877
 4159SOL     OW24112   0.523   1.528   1.410  0.0395 -0.5330 -0.1711
 4159SOL    HW124113   0.458   1.523   1.340  2.4402 -0.5171 -2.4405
 4159SOL    HW224114   0.476   1.504   1.489  0.2037  0.9076  0.3581
 4160SOL     OW24115   3.678   2.475   4.389  0.3200  0.6024  0.3041
 4160SOL    HW124116   3.732   2.552   4.408 -0.6978  1.4330 -0.1715
 4160SOL    HW224117   3.643   2.500   4.304 -1.4671  0.7869  1.1135
 4161SOL     OW24118   3.220   1.240   7.318 -0.4656 -0.0145 -0.1810
 4161SOL    HW124119   3.246   1.209   7.405 -0.3283  0.8543  0.0961
 4161SOL    HW224120   3.148   1.301   7.330 -1.1247 -1.0158  0.9360
 4162SOL     OW24121   3.804   2.761   2.831 -0.3594  0.0402  0.5629
 4162SOL    HW124122   3.719   2.791   2.800 -1.4598 -2.9969  0.6557
 4162SOL    HW224123   3.859   2.781   2.755 -2.1905 -2.8997 -1.4954
 4163SOL     OW24124   4.662   2.614   4.431 -0.5803 -0.1967  0.2471
 4163SOL    HW124125   4.603   2.555   4.478 -0.3645 -0.9482 -0.4352
 4163SOL    HW224126   4.731   2.579   4.489 -0.5991  1.9075  1.5692
 4164SOL     OW24127   1.713   3.767  16.762 -0.4838 -0.6646  1.2270
 4164SOL    HW124128   1.771   3.701  16.800 -1.0450 -0.7332  1.9633
 4164SOL    HW224129   1.684   3.732  16.678 -0.3705  1.3648  0.3675
 4165SOL     OW24130   3.454   0.622   4.738 -0.0748 -0.6286 -0.6173
 4165SOL    HW124131   3.535   0.611   4.688  0.4459 -0.6912  0.2380
 4165SOL    HW224132   3.389   0.586   4.678  0.0495  1.2231 -1.8739
 4166SOL     OW24133   0.125   3.400   4.818 -0.8088 -0.2403  0.2825
 4166SOL    HW124134   0.220   3.404   4.807 -0.6918 -0.5742  1.1872
 4166SOL    HW224135   0.088   3.457   4.750 -0.1179  1.4639  1.3366
 4167SOL     OW24136   4.721   1.930   7.428  0.2109  0.4174  0.4483
 4167SOL    HW124137   4.656   1.931   7.358 -0.4859  0.6586  1.1040
 4167SOL    HW224138   4.716   1.838   7.454 -1.6913  0.0758 -1.1212
 4168SOL     OW24139   3.838   1.737   2.807  0.0894 -0.1947 -0.0135
 4168SOL    HW124140   3.887   1.741   2.889  0.0391 -0.3166  0.0234
 4168SOL    HW224141   3.876   1.813   2.765 -0.1667 -0.1775 -0.2132
 4169SOL     OW24142   0.851   3.811   7.625  0.0848 -0.4252 -0.0345
 4169SOL    HW124143   0.875   3.744   7.688  0.4387  0.2443  0.5413
 4169SOL    HW224144   0.762   3.790   7.596  1.0046 -2.3407 -1.4509
 4170SOL     OW24145   3.746   3.526   8.597 -0.4950  0.1785  0.4315
 4170SOL    HW124146   3.743   3.435   8.569 -0.3577  0.7142 -1.3470
 4170SOL    HW224147   3.664   3.541   8.643 -1.2367  0.7041 -1.0787
 4171SOL     OW24148   0.735   4.290  17.167  0.5511  0.0230  0.3097
 4171SOL    HW124149   0.809   4.334  17.123  0.1644  0.5825  0.2200
 4171SOL    HW224150   0.775   4.206  17.186  0.3616  0.3325  2.0478
 4172SOL     OW24151   2.625   2.803   2.789  0.1605  0.0036  0.2429
 4172SOL    HW124152   2.601   2.895   2.786 -3.3628 -0.7977  2.8457
 4172SOL    HW224153   2.604   2.774   2.700  1.3208 -0.4691  0.1230
 4173SOL     OW24154   4.390   0.092   4.075  0.0253  0.0080  0.0674
 4173SOL    HW124155   4.426   0.123   3.992  1.0085 -0.7121  0.2213
 4173SOL    HW224156   4.337   0.019   4.041 -0.0160  0.4194 -0.7475
 4174SOL     OW24157   2.757   0.869   9.231 -0.0262 -0.3260  0.2793
 4174SOL    HW124158   2.795   0.782   9.247 -1.5170 -1.2332 -1.0938
 4174SOL    HW224159   2.714   0.882   9.315  0.6581 -0.7214  0.7035
 4175SOL     OW24160   4.523   3.880  10.775  0.8475  0.3060  0.1185
 4175SOL    HW124161   4.599   3.938  10.763  0.9137 -0.1797 -1.9393
 4175SOL    HW224162   4.476   3.900  10.694  1.1013  2.7319  0.5519
 4176SOL     OW24163   0.050   1.575   2.639 -0.2805 -0.2426  0.1396
 4176SOL    HW124164   4.705   1.627   2.625 -0.2972 -0.5445 -0.8994
 4176SOL    HW224165   0.066   1.561   2.732 -0.8512  0.0769  0.2896
 4177SOL     OW24166   4.704   1.220   5.415 -0.1444  0.0325 -0.0647
 4177SOL    HW124167   4.637   1.273   5.371 -0.2689  0.1292  0.2375
 4177SOL    HW224168   0.048   1.273   5.399  1.9281 -3.5171 -1.5475
 4178SOL     OW24169   1.686   3.018   3.590 -0.4569  0.4947  0.1446
 4178SOL    HW124170   1.651   2.936   3.556 -0.4203  0.1589  0.9288
 4178SOL    HW224171   1.645   3.086   3.536 -0.5078  0.6132  0.3345
 4179SOL     OW24172   3.628   1.644   2.662 -1.0422 -0.1370 -0.3828
 4179SOL    HW124173   3.690   1.708   2.697  0.7517 -2.6572  1.0575
 4179SOL    HW224174   3.623   1.585   2.736  3.7274 -1.2111 -0.9246
 4180SOL     OW24175   1.013   0.788   5.673 -0.7397  0.1004  0.4523
 4180SOL    HW124176   0.980   0.792   5.763 -0.7985 -1.8644  0.5185
 4180SOL    HW224177   0.956   0.718   5.640 -0.8872  0.8810 -0.9641
 4181SOL     OW24178   2.061   0.916   3.622  0.0279 -0.4242  1.0478
 4181SOL    HW124179   1.979   0.886   3.583  0.5302 -0.3613 -0.0641
 4181SOL    HW224180   2.022   0.943   3.705 -0.3211  0.2146  0.6752
 4182SOL     OW24181   0.899   0.564   1.658 -0.6334 -0.0459 -0.2560
 4182SOL    HW124182   0.858   0.621   1.592  1.1541 -2.4644 -3.4964
 4182SOL    HW224183   0.975   0.541   1.605 -0.5198 -1.3590  0.4934
 4183SOL     OW24184   4.438   1.207   4.013 -0.1031 -0.0715  0.5135
 4183SOL    HW124185   4.473   1.123   3.983 -0.2560  0.1549 -0.2950
 4183SOL    HW224186   4.400   1.229   3.928  2.9657  2.1985 -0.2823
 4184SOL     OW24187   4.160   2.280   2.181  0.2464  0.7648 -0.0122
 4184SOL    HW124188   4.128   2.276   2.091 -1.5906  0.8933  0.6284
 4184SOL    HW224189   4.087   2.290   2.243  0.2815 -0.1843  0.1831
 4185SOL     OW24190   3.248   0.550   6.992  0.2577 -0.6982  0.4210
 4185SOL    HW124191   3.277   0.464   6.964 -0.2943 -0.1175 -1.9522
 4185SOL    HW224192   3.329   0.587   7.027 -0.6116  0.5198  1.1655
 4186SOL     OW24193   3.024   4.261   8.619  0.2565  0.0425 -0.8446
 4186SOL    HW124194   3.094   4.303   8.670  0.1702 -0.8536  0.0079
 4186SOL    HW224195   3.034   4.171   8.650  0.7022  0.2342 -0.4338
 4187SOL     OW24196   2.529   1.634   3.578  0.4951  0.5810 -0.4495
 4187SOL    HW124197   2.619   1.609   3.600 -0.0536 -0.4834  0.5498
 4187SOL    HW224198   2.543   1.725   3.551 -0.0630  1.2488  1.5475
 4188SOL     OW24199   1.050   3.904   8.107  0.7033  0.1078 -0.8514
 4188SOL    HW124200   0.971   3.935   8.062  0.7282 -2.6083 -2.7595
 4188SOL    HW224201   1.070   3.963   8.180 -1.9922  0.5493 -0.4440
 4189SOL     OW24202   1.989   2.466   8.920 -0.0498 -0.0619  0.6952
 4189SOL    HW124203   1.945   2.515   8.850  2.1578 -0.6291 -1.1238
 4189SOL    HW224204   1.923   2.400   8.937  0.0827  0.0624  1.6809
 4190SOL     OW24205   1.782   2.542  15.909 -0.5765 -0.4391 -0.1854
 4190SOL    HW124206   1.864   2.550  15.957 -1.5639  1.3476  1.1904
 4190SOL    HW224207   1.712   2.579  15.963 -1.3207 -1.1759 -0.6269
 4191SOL     OW24208   3.930   2.339   6.441 -0.4593  0.1483 -0.1307
 4191SOL    HW124209   3.898   2.389   6.366  1.0225  2.9516  1.0816
 4191SOL    HW224210   3.921   2.406   6.510 -0.6875  1.3941 -1.3723
 4192SOL     OW24211   1.729   0.199   2.380  0.3090  0.2680 -0.9807
 4192SOL    HW124212   1.679   0.178   2.460  0.8021  0.1563 -0.7047
 4192SOL    HW224213   1.802   0.241   2.425 -0.2950  0.8565 -0.5333
 4193SOL     OW24214   1.579   4.238  16.683 -0.7697  0.1203 -0.2260
 4193SOL    HW124215   1.639   4.209  16.752  0.0377 -1.5604 -1.6268
 4193SOL    HW224216   1.629   4.231  16.601 -0.0325  0.9451  0.1460
 4194SOL     OW24217   0.144   3.719   8.709 -0.2557  0.2441 -0.4386
 4194SOL    HW124218   0.211   3.742   8.774  0.5120 -0.3364 -1.0213
 4194SOL    HW224219   0.167   3.786   8.644  1.1215  0.1149 -0.0958
 4195SOL     OW24220   0.044   1.224   3.926  0.3195  0.0343 -0.8552
 4195SOL    HW124221   0.069   1.305   3.971  1.4383 -1.7550  1.6960
 4195SOL    HW224222   4.705   1.263   3.877  0.2309  1.1359  0.1487
 4196SOL     OW24223   0.325   0.968   8.397 -0.3102 -0.0141  0.3917
 4196SOL    HW124224   0.369   1.045   8.360  0.3562 -0.0921  1.0131
 4196SOL    HW224225   0.382   0.944   8.470  0.0015  2.3825  0.9418
 4197SOL     OW24226   0.151   2.507   1.953 -0.6017 -0.0455 -0.3336
 4197SOL    HW124227   0.177   2.593   1.921 -0.9521  0.5717  1.0122
 4197SOL    HW224228   0.079   2.488   1.892  0.7758  0.0285 -1.9686
 4198SOL     OW24229   1.664   4.527   8.158  0.1187 -0.0142  0.2832
 4198SOL    HW124230   1.661   4.620   8.136 -2.6671 -0.0593  0.4668
 4198SOL    HW224231   1.757   4.513   8.173  0.2360 -2.3238 -2.5012
 4199SOL     OW24232   4.637   0.624   7.563  1.1429 -0.6280 -0.9838
 4199SOL    HW124233   4.697   0.692   7.595 -0.0339  0.2180 -0.5868
 4199SOL    HW224234   4.552   0.666   7.556  1.0682 -0.5336  0.6200
 4200SOL     OW24235   2.926   2.135   9.271 -0.1547  0.2743  0.0331
 4200SOL    HW124236   2.870   2.075   9.222 -0.1813  0.6301 -0.3713
 4200SOL    HW224237   2.896   2.224   9.254 -0.5025  0.0693 -0.4177
 4201SOL     OW24238   0.468   0.536  12.958 -0.8350 -0.7435 -0.8118
 4201SOL    HW124239   0.555   0.507  12.929 -0.7258  0.8970 -2.1138
 4201SOL    HW224240   0.429   0.449  12.954 -0.9763 -0.6919 -0.5756
 4202SOL     OW24241   3.408   1.794   8.629  0.1254  0.6497 -0.5219
 4202SOL    HW124242   3.340   1.862   8.623 -0.6604 -0.1328 -0.5983
 4202SOL    HW224243   3.468   1.845   8.683  2.5197 -3.3499  0.5008
 4203SOL     OW24244   3.879   2.995   4.540  0.3403  0.6974  0.0822
 4203SOL    HW124245   3.946   3.039   4.488 -0.2287 -0.2829 -1.4760
 4203SOL    HW224246   3.842   3.065   4.594  0.8571  0.4401  0.7635
 4204SOL     OW24247   1.082   2.422   3.030  0.6546 -0.5562  0.0416
 4204SOL    HW124248   1.120   2.336   3.010 -0.1398 -0.9790  0.3557
 4204SOL    HW224249   1.114   2.429   3.120 -1.0464 -0.7263  0.6477
 4205SOL     OW24250   4.514   3.246   9.078 -0.4430  0.1273 -0.0482
 4205SOL    HW124251   4.544   3.337   9.083 -1.8466  0.6323 -0.7267
 4205SOL    HW224252   4.583   3.206   9.025 -0.2223 -0.0175  0.3507
 4206SOL     OW24253   0.208   1.752  16.067 -0.3452 -0.0826  0.2583
 4206SOL    HW124254   0.213   1.767  16.162  1.4751 -0.9297  0.2994
 4206SOL    HW224255   0.175   1.663  16.056 -0.4304  0.0208 -0.2997
 4207SOL     OW24256   3.657   3.202   1.400  0.1203  0.0530  0.7218
 4207SOL    HW124257   3.653   3.149   1.480 -0.8327 -0.7770  0.1307
 4207SOL    HW224258   3.740   3.168   1.367 -0.5661 -0.1960 -0.7170
 4208SOL     OW24259   3.058   1.575   3.298 -0.1041 -0.2374 -0.3882
 4208SOL    HW124260   3.007   1.609   3.371 -0.8274 -0.2608 -0.8799
 4208SOL    HW224261   3.076   1.654   3.247 -0.6315 -0.5248 -1.0213
 4209SOL     OW24262   4.689   0.185  17.059 -0.0411  0.5008  0.1080
 4209SOL    HW124263   4.633   0.177  17.136 -1.8534  1.3086 -1.1330
 4209SOL    HW224264   4.628   0.170  16.986 -0.3689 -0.8244  0.6534
 4210SOL     OW24265   2.230   0.237   4.452  0.1823 -0.0107  0.3825
 4210SOL    HW124266   2.216   0.142   4.446 -0.2590  0.1924 -1.8026
 4210SOL    HW224267   2.319   0.256   4.422  0.6741  0.7892  2.3506
 4211SOL     OW24268   2.836   3.159   8.356  0.2688 -0.4079 -0.3568
 4211SOL    HW124269   2.750   3.137   8.393  0.2174 -1.2851 -0.9776
 4211SOL    HW224270   2.843   3.249   8.388 -0.3209 -0.2883 -0.5459
 4212SOL     OW24271   1.933   2.653   7.605  0.4305  0.2767 -0.0987
 4212SOL    HW124272   2.011   2.667   7.551 -0.6759  2.7106 -1.0877
 4212SOL    HW224273   1.942   2.564   7.638  2.5329  0.9660  1.1422
 4213SOL     OW24274   0.820   3.343   2.665  0.3909 -0.0509 -0.0286
 4213SOL    HW124275   0.837   3.258   2.705 -0.9249  0.3865  1.4304
 4213SOL    HW224276   0.771   3.325   2.585  2.9904 -1.5364 -1.3050
 4214SOL     OW24277   4.591   0.008   0.603 -0.3769  0.4631  0.7170
 4214SOL    HW124278   4.542   4.728   0.684  1.4366 -0.3935  1.6620
 4214SOL    HW224279   4.580   0.102   0.589  0.3344  0.4793  0.2654
 4215SOL     OW24280   0.978   1.221   7.038 -0.8281 -0.1051 -0.2977
 4215SOL    HW124281   1.011   1.225   6.949 -1.8102  1.8710 -0.5826
 4215SOL    HW224282   1.018   1.145   7.081  0.4081  0.1599 -1.0192
 4216SOL     OW24283   1.868   4.068   5.424 -0.0266 -0.2247  0.2628
 4216SOL    HW124284   1.774   4.084   5.411 -0.0700 -1.0015 -0.3820
 4216SOL    HW224285   1.882   4.074   5.518 -0.5329  1.1954  0.2569
 4217SOL     OW24286   1.542   0.870  11.159  0.3455  0.4368  0.1923
 4217SOL    HW124287   1.531   0.963  11.142  2.1058  0.6204  0.0208
 4217SOL    HW224288   1.632   0.869  11.193  0.9961  0.4041 -1.5658
 4218SOL     OW24289   2.325   4.395   5.862 -0.5745 -0.5275  0.3049
 4218SOL    HW124290   2.231   4.393   5.843 -0.3286  1.6697 -1.1405
 4218SOL    HW224291   2.341   4.333   5.933 -1.0462  0.9651  1.7098
 4219SOL     OW24292   1.519   2.456   8.402  0.2874 -0.1935  0.2148
 4219SOL    HW124293   1.485   2.466   8.491 -0.7250 -1.6526 -0.0043
 4219SOL    HW224294   1.437   2.469   8.354  1.5146 -0.9985 -2.1028
 4220SOL     OW24295   0.175   1.986   8.522 -0.2958  0.0246 -0.1471
 4220SOL    HW124296   0.145   1.980   8.431 -1.5811  1.0504  0.1961
 4220SOL    HW224297   0.096   2.012   8.571 -0.5435 -1.6380  0.3212
 4221SOL     OW24298   0.012   2.603   2.726 -0.6678  0.1274  0.2434
 4221SOL    HW124299   0.084   2.586   2.666  0.3821  0.1317  1.4909
 4221SOL    HW224300   4.732   2.698   2.721 -1.9581 -0.0504  0.7814
 4222SOL     OW24301   2.407   4.248  15.077  0.1402 -0.1695 -0.3220
 4222SOL    HW124302   2.392   4.305  15.001  0.2049 -0.6142 -0.6679
 4222SOL    HW224303   2.386   4.300  15.155 -0.5423  1.6221 -1.6772
 4223SOL     OW24304   0.222   1.032   0.968  0.0992 -0.1147 -0.1518
 4223SOL    HW124305   0.261   1.000   0.887 -0.8201 -0.4144 -0.4799
 4223SOL    HW224306   0.134   1.057   0.939 -0.1035 -0.1273  0.4488
 4224SOL     OW24307   2.242   3.055  16.673 -0.0283  0.2231 -0.7603
 4224SOL    HW124308   2.170   3.118  16.663 -1.3215 -1.3708 -1.5435
 4224SOL    HW224309   2.187   2.986  16.710  0.1515  0.9274  0.7867
 4225SOL     OW24310   4.394   1.564  15.797  0.0567 -0.2707 -0.4498
 4225SOL    HW124311   4.417   1.656  15.811 -3.1665  0.0991  2.2706
 4225SOL    HW224312   4.427   1.564  15.707 -0.0114  0.8665 -0.4723
 4226SOL     OW24313   0.712   1.382  15.035 -0.1228 -0.8646  0.2378
 4226SOL    HW124314   0.690   1.401  14.944  4.0798  0.3739 -0.5405
 4226SOL    HW224315   0.804   1.355  15.023  0.0231  0.1215 -0.9145
 4227SOL     OW24316   3.035   4.465   5.806  0.0626  0.0731  0.3131
 4227SOL    HW124317   2.953   4.512   5.821 -0.1091 -0.3581  0.7362
 4227SOL    HW224318   3.069   4.498   5.723 -0.6803  1.6559  0.6403
 4228SOL     OW24319   2.517   3.645   6.108  0.0868 -0.4452 -0.0167
 4228SOL    HW124320   2.436   3.685   6.139  0.1547 -1.7041  1.7986
 4228SOL    HW224321   2.520   3.566   6.162 -0.7725 -1.1985 -1.0712
 4229SOL     OW24322   2.204   4.267  14.254  0.4529  0.4949 -0.6231
 4229SOL    HW124323   2.201   4.180  14.294  1.0511  1.2864  1.1712
 4229SOL    HW224324   2.290   4.267  14.214  1.6506 -0.2620  1.9276
 4230SOL     OW24325   1.921   2.236  15.632  0.0810  0.0824  0.4106
 4230SOL    HW124326   2.009   2.262  15.604  0.1636  0.6665  1.2192
 4230SOL    HW224327   1.951   2.156  15.674  1.5706 -0.1772 -1.1550
 4231SOL     OW24328   1.500   3.153   4.419 -0.3365  0.4290 -0.0394
 4231SOL    HW124329   1.516   3.207   4.496  0.6629  1.6006 -1.0672
 4231SOL    HW224330   1.420   3.114   4.454 -1.5581  2.4842 -0.5377
 4232SOL     OW24331   1.014   0.590  13.247  0.3115  0.2387 -0.3700
 4232SOL    HW124332   1.019   0.659  13.313 -0.5760 -1.4605  1.4738
 4232SOL    HW224333   1.100   0.554  13.268  0.1698 -0.0417 -0.2732
 4233SOL     OW24334   0.668   2.385   7.408  0.1239 -0.3507  0.1624
 4233SOL    HW124335   0.691   2.297   7.379  0.1527 -0.1680 -0.3709
 4233SOL    HW224336   0.667   2.378   7.504  1.2473  2.0298  0.3578
 4234SOL     OW24337   1.073   2.145   4.355 -0.1877 -0.0234  0.0940
 4234SOL    HW124338   1.011   2.092   4.304 -1.1528  0.9262  0.2797
 4234SOL    HW224339   1.143   2.080   4.360  0.3848  0.4156 -1.9629
 4235SOL     OW24340   0.873   4.515   4.810 -0.3360  0.2535 -0.4471
 4235SOL    HW124341   0.854   4.588   4.870 -0.6403  1.5006 -2.0481
 4235SOL    HW224342   0.896   4.557   4.727  0.6504 -1.4595 -1.0331
 4236SOL     OW24343   1.891   2.864   7.019 -0.0625 -0.5883 -0.3425
 4236SOL    HW124344   1.823   2.823   6.965 -0.6995  0.4286 -0.3203
 4236SOL    HW224345   1.967   2.806   7.021  1.1532  1.0556  0.9006
 4237SOL     OW24346   0.389   3.473   3.368  0.1252  0.2642 -0.3145
 4237SOL    HW124347   0.441   3.531   3.424  1.6014 -0.3076 -1.0709
 4237SOL    HW224348   0.330   3.427   3.428  2.1763 -2.6578 -0.5093
 4238SOL     OW24349   0.883   4.083  17.412 -0.0045  0.0463 -0.3841
 4238SOL    HW124350   0.857   4.070  17.321 -2.4521 -0.9696  0.4608
 4238SOL    HW224351   0.910   3.995  17.441 -2.3110 -0.8130 -0.8086
 4239SOL     OW24352   4.267   1.692   2.843  0.7686  0.6727 -0.1886
 4239SOL    HW124353   4.245   1.773   2.797  1.1511  0.7335 -0.2666
 4239SOL    HW224354   4.267   1.624   2.776 -0.1253  1.5898 -1.0990
 4240SOL     OW24355   4.519   3.152   4.456  0.2004  0.1097 -0.6224
 4240SOL    HW124356   4.430   3.117   4.450  1.2531 -2.5874 -0.4837
 4240SOL    HW224357   4.503   3.217   4.524  1.0079 -0.3487  0.0069
 4241SOL     OW24358   3.101   1.897   3.868 -0.3208 -0.3356  0.4903
 4241SOL    HW124359   3.070   1.934   3.785  1.1078  0.4899  0.3305
 4241SOL    HW224360   3.036   1.829   3.887 -3.7934  2.9991  0.5794
 4242SOL     OW24361   0.378   1.308   6.585  0.4569 -0.6153 -0.4783
 4242SOL    HW124362   0.372   1.400   6.611 -0.2712 -1.3404  1.9055
 4242SOL    HW224363   0.373   1.264   6.669  0.8942  1.3063  0.5486
 4243SOL     OW24364   3.172   2.205   5.035  0.2070  0.6171  0.5646
 4243SOL    HW124365   3.109   2.252   5.090 -0.8896 -1.5199  1.1052
 4243SOL    HW224366   3.161   2.241   4.946  2.6730  0.3151  0.1397
 4244SOL     OW24367   1.050   1.835   8.286 -0.3358  0.1439 -0.2579
 4244SOL    HW124368   1.134   1.858   8.324  0.6857 -0.3903 -2.2193
 4244SOL    HW224369   1.009   1.846   8.372 -0.0276  0.6436 -0.1754
 4245SOL     OW24370   2.110   0.671   4.354 -0.3003  0.2278 -0.1103
 4245SOL    HW124371   2.119   0.586   4.398  2.9032  0.9314  0.6108
 4245SOL    HW224372   2.022   0.702   4.375 -1.0952 -1.0433 -1.5035
 4246SOL     OW24373   2.726   2.807   4.347  0.2312  0.2946 -0.1292
 4246SOL    HW124374   2.669   2.748   4.298 -0.1686  1.0594 -0.5940
 4246SOL    HW224375   2.799   2.749   4.368  1.0267  1.4117  0.2120
 4247SOL     OW24376   0.039   0.632   3.227  0.0457  0.6069  0.1567
 4247SOL    HW124377   0.113   0.669   3.275 -0.1956  1.2110  0.0636
 4247SOL    HW224378   0.034   0.675   3.141  4.1810 -1.1745 -0.9913
 4248SOL     OW24379   1.139   1.374  10.589 -0.0074 -0.3226 -0.5195
 4248SOL    HW124380   1.047   1.380  10.564 -0.2327  0.0411  0.3768
 4248SOL    HW224381   1.182   1.328  10.517 -0.2117 -3.2977  1.2702
 4249SOL     OW24382   0.944   0.412   7.376  0.4726  0.0673 -0.0305
 4249SOL    HW124383   0.879   0.398   7.307  0.3294  0.2579  0.0653
 4249SOL    HW224384   1.012   0.348   7.356  0.1356 -0.6720  1.1720
 4250SOL     OW24385   4.001   4.356  12.376 -0.6199 -0.5942  0.5529
 4250SOL    HW124386   3.975   4.429  12.433  0.6417 -0.1896  0.6061
 4250SOL    HW224387   3.992   4.394  12.289  0.0233 -1.4999  0.0856
 4251SOL     OW24388   2.117   3.992   6.228 -0.1499 -0.1396  0.0514
 4251SOL    HW124389   2.023   4.011   6.226  0.3122  2.1184 -0.5515
 4251SOL    HW224390   2.130   3.989   6.133 -1.1526  2.9371 -0.2065
 4252SOL     OW24391   4.089   1.387  13.923  0.0753 -0.1694 -0.1529
 4252SOL    HW124392   4.055   1.422  14.005 -0.2548  0.7058 -0.6697
 4252SOL    HW224393   4.170   1.352  13.960  0.3710  0.3898 -0.2700
 4253SOL     OW24394   1.196   4.197   7.177 -0.1339 -0.1212 -0.5600
 4253SOL    HW124395   1.141   4.240   7.112  0.0798  0.4679 -0.3514
 4253SOL    HW224396   1.154   4.111   7.181  0.6849 -0.4512  1.2073
 4254SOL     OW24397   1.939   4.041   5.159  0.2727  0.3424  0.0411
 4254SOL    HW124398   1.953   3.948   5.141 -1.4473  0.2425 -0.8192
 4254SOL    HW224399   1.900   4.038   5.246 -0.7994 -0.2651 -0.4662
 4255SOL     OW24400   1.579   0.119   5.864  0.2995 -0.0085 -0.0560
 4255SOL    HW124401   1.641   0.136   5.935 -0.9041  2.1120  0.4804
 4255SOL    HW224402   1.525   0.043   5.886  0.8241 -1.0493 -2.2947
 4256SOL     OW24403   1.866   0.875   8.141 -0.6766  0.0360 -0.3807
 4256SOL    HW124404   1.954   0.842   8.161  0.1378  1.6518 -1.3577
 4256SOL    HW224405   1.806   0.807   8.172 -0.6155 -0.0450 -0.4390
 4257SOL     OW24406   2.097   3.150  11.411 -0.5335 -0.0769  0.1378
 4257SOL    HW124407   2.191   3.150  11.391 -0.6705 -1.5562 -0.4663
 4257SOL    HW224408   2.086   3.059  11.436 -3.4014  0.5027  0.8885
 4258SOL     OW24409   1.457   2.784  12.973  0.1897  0.3136 -0.0944
 4258SOL    HW124410   1.523   2.802  12.907  0.7028 -0.1237  0.2950
 4258SOL    HW224411   1.497   2.843  13.038  0.7385  0.9663 -1.0284
 4259SOL     OW24412   3.395   1.530   7.469 -0.1053 -0.7801 -0.5673
 4259SOL    HW124413   3.445   1.492   7.397  2.1974 -1.6535  1.4887
 4259SOL    HW224414   3.348   1.605   7.432  1.4573  0.5864  0.2095
 4260SOL     OW24415   1.043   0.704   2.657 -0.2607  0.1359 -0.4872
 4260SOL    HW124416   1.096   0.630   2.627  1.2566  1.0545 -0.0690
 4260SOL    HW224417   0.962   0.671   2.619  0.6715 -1.4603 -1.0924
 4261SOL     OW24418   0.550   0.594  15.306 -0.1105 -0.6034  0.0592
 4261SOL    HW124419   0.613   0.589  15.378  0.8018  0.6275 -0.6417
 4261SOL    HW224420   0.463   0.584  15.344 -0.4606  0.2431 -0.4973
 4262SOL     OW24421   0.557   4.434   3.960  0.8391  0.3887  0.0772
 4262SOL    HW124422   0.495   4.506   3.947  0.4175 -0.4411 -2.5383
 4262SOL    HW224423   0.613   4.427   3.882 -0.3562 -1.4393 -0.6410
 4263SOL     OW24424   1.004   3.952   9.091 -0.4540  0.5669  0.4211
 4263SOL    HW124425   0.996   4.031   9.038 -1.4719  0.6630  0.7235
 4263SOL    HW224426   0.936   3.974   9.155  0.9492  2.3226  1.3368
 4264SOL     OW24427   1.327   2.196   8.286  0.0821 -0.0104 -0.6384
 4264SOL    HW124428   1.337   2.199   8.190  1.5342  0.3757 -0.4730
 4264SOL    HW224429   1.313   2.289   8.306  3.4995 -0.0461  1.9973
 4265SOL     OW24430   3.631   3.342  10.889 -0.1901  0.0306 -0.0675
 4265SOL    HW124431   3.669   3.320  10.804 -1.7634 -2.3393 -0.1524
 4265SOL    HW224432   3.664   3.429  10.913  0.0067 -0.1580  0.3261
 4266SOL     OW24433   2.564   0.796   8.752 -0.2903  0.2217 -0.7530
 4266SOL    HW124434   2.655   0.796   8.781 -0.5606 -0.0628  0.0918
 4266SOL    HW224435   2.536   0.709   8.781  0.9579  0.0299 -0.1390
 4267SOL     OW24436   4.427   3.488   5.232  0.1005 -0.6757 -0.1259
 4267SOL    HW124437   4.395   3.569   5.272 -0.8562 -0.8023 -0.6446
 4267SOL    HW224438   4.504   3.518   5.183 -0.3836  0.6715 -0.0499
 4268SOL     OW24439   1.092   1.597  12.381  0.1410  0.1967 -0.2847
 4268SOL    HW124440   1.107   1.508  12.413 -1.1573  0.0022 -0.2365
 4268SOL    HW224441   1.003   1.614  12.409 -0.5509 -1.9105 -1.2266
 4269SOL     OW24442   4.161   1.058  17.137 -0.0706  0.5776 -0.3225
 4269SOL    HW124443   4.152   1.008  17.056  1.7222 -3.0238  1.7197
 4269SOL    HW224444   4.114   1.012  17.207  0.4201 -0.0304 -0.3869
 4270SOL     OW24445   3.484   0.769   6.958  0.3952  0.3642  0.0907
 4270SOL    HW124446   3.556   0.712   6.931  1.6676  1.7342  0.5953
 4270SOL    HW224447   3.491   0.838   6.891 -0.7789 -2.4234 -2.9268
 4271SOL     OW24448   4.567   2.749   5.928  0.0590  0.3055  0.3942
 4271SOL    HW124449   4.471   2.753   5.930  0.0710  0.6436  0.4377
 4271SOL    HW224450   4.571   2.684   5.858  0.0304  1.7282 -0.9458
 4272SOL     OW24451   1.976   3.297   9.960  0.2849  0.4394 -0.0727
 4272SOL    HW124452   2.063   3.267   9.986  0.7793  1.5538 -0.4541
 4272SOL    HW224453   1.957   3.240   9.886 -2.2479  0.5792  0.4407
 4273SOL     OW24454   4.401   3.216  17.659  0.0392  0.0465 -0.1565
 4273SOL    HW124455   4.338   3.288  17.671  0.7866  0.8013 -0.7750
 4273SOL    HW224456   4.463   3.254  17.598 -0.2509 -0.8529 -0.9962
 4274SOL     OW24457   3.753   0.494   5.370 -0.8074 -0.7382  0.1860
 4274SOL    HW124458   3.742   0.542   5.452 -2.8204  0.7373 -0.9609
 4274SOL    HW224459   3.787   0.564   5.315 -0.5544 -0.2768  0.9293
 4275SOL     OW24460   1.573   3.145   2.904 -0.5156  0.2111 -0.4432
 4275SOL    HW124461   1.508   3.133   2.834  1.1285  0.1302 -1.9556
 4275SOL    HW224462   1.634   3.077   2.876 -1.2759 -0.7191  0.1675
 4276SOL     OW24463   0.796   1.939   8.051 -0.1747 -0.1702 -0.1737
 4276SOL    HW124464   0.879   1.986   8.064 -1.0914  1.1783  0.7963
 4276SOL    HW224465   0.760   1.941   8.140  1.4662 -0.0541  0.4927
 4277SOL     OW24466   1.905   4.482   2.610 -0.0139  0.1607 -0.0958
 4277SOL    HW124467   1.835   4.494   2.674  0.1347 -0.4995  0.1931
 4277SOL    HW224468   1.982   4.496   2.666 -0.6751  1.4377  0.4915
 4278SOL     OW24469   1.129   4.145   0.549  0.1202  0.9620  0.4779
 4278SOL    HW124470   1.069   4.219   0.541  0.8031  1.5284  0.5204
 4278SOL    HW224471   1.175   4.194   0.617  2.4592 -3.3920  2.0750
 4279SOL     OW24472   2.134   0.543   0.529 -0.3315  0.1666  0.0886
 4279SOL    HW124473   2.221   0.533   0.490 -0.0336 -0.1567  0.8180
 4279SOL    HW224474   2.151   0.495   0.611 -3.1175 -0.1120  0.4994
 4280SOL     OW24475   4.601   2.544  17.176  0.2502 -0.0176  0.4561
 4280SOL    HW124476   4.565   2.617  17.228 -0.4565 -0.8494  1.1381
 4280SOL    HW224477   4.596   2.580  17.088  0.0609  1.1752  0.9464
 4281SOL     OW24478   0.460   4.690  13.774 -0.0977  0.0867  0.6852
 4281SOL    HW124479   0.392   0.004  13.822  0.8543  0.7223  1.3836
 4281SOL    HW224480   0.539   4.715  13.822 -0.6303 -0.9186  2.0998
 4282SOL     OW24481   3.339   3.971  14.179 -0.3757  0.2492  0.1102
 4282SOL    HW124482   3.353   3.922  14.260  2.6360  1.0691  0.0923
 4282SOL    HW224483   3.367   3.903  14.117 -1.1942  0.2431 -0.2584
 4283SOL     OW24484   4.300   2.140   6.978 -0.0890  0.0536  0.1041
 4283SOL    HW124485   4.332   2.058   6.940 -0.7248 -0.5412  0.8647
 4283SOL    HW224486   4.301   2.120   7.071 -2.2892 -0.2721  0.0426
 4284SOL     OW24487   4.589   2.491   5.150 -0.2476 -0.2705 -0.0480
 4284SOL    HW124488   4.600   2.566   5.092 -1.2215  1.8613  2.5300
 4284SOL    HW224489   4.503   2.517   5.185 -0.8477 -0.6923 -1.2017
 4285SOL     OW24490   1.328   2.587   1.517 -0.1966 -0.3838 -0.3720
 4285SOL    HW124491   1.254   2.607   1.460 -1.4271 -1.2048  0.9039
 4285SOL    HW224492   1.381   2.665   1.501 -1.0365 -0.0736 -1.6502
 4286SOL     OW24493   2.492   3.435   1.479 -0.1424 -0.8396  0.4239
 4286SOL    HW124494   2.548   3.459   1.406 -0.0196 -2.2604  0.0650
 4286SOL    HW224495   2.478   3.516   1.530  0.1572 -0.1699 -0.5573
 4287SOL     OW24496   3.629   2.479  16.648 -0.2885 -0.7710  0.2538
 4287SOL    HW124497   3.574   2.510  16.719  3.8990 -0.1506  3.2383
 4287SOL    HW224498   3.611   2.550  16.585 -1.1882 -0.2202  1.1460
 4288SOL     OW24499   0.199   0.259   6.329  0.4191  0.5466  0.2112
 4288SOL    HW124500   0.209   0.345   6.370  0.6230  0.2304  0.8266
 4288SOL    HW224501   0.114   0.228   6.360 -0.1304  0.3069 -1.5507
 4289SOL     OW24502   3.920   3.713  15.751 -0.4577  0.3894 -0.1845
 4289SOL    HW124503   3.928   3.649  15.680  2.0591 -1.4087  1.7376
 4289SOL    HW224504   3.998   3.688  15.800  0.9871  1.6350 -1.8401
 4290SOL     OW24505   0.922   0.092   0.772  0.6219 -0.7340  0.1134
 4290SOL    HW124506   0.868   0.083   0.851 -0.3638  2.6420 -0.1628
 4290SOL    HW224507   1.009   0.093   0.811  0.1728 -2.3365  1.1758
 4291SOL     OW24508   3.912   4.432   3.724  0.5029 -0.7382 -0.2728
 4291SOL    HW124509   3.974   4.501   3.704  0.1897  0.1102  1.7080
 4291SOL    HW224510   3.830   4.480   3.735  1.1012  0.5039 -1.2811
 4292SOL     OW24511   4.040   1.768   7.656  0.3491  0.5144  0.2342
 4292SOL    HW124512   4.132   1.742   7.650  1.0283  2.8922  0.4783
 4292SOL    HW224513   4.042   1.853   7.611  0.9826  1.3632  1.8874
 4293SOL     OW24514   3.202   0.108  16.084  0.0430  0.3462  0.8656
 4293SOL    HW124515   3.117   0.121  16.126 -0.4789  0.0691 -0.0971
 4293SOL    HW224516   3.255   0.149  16.153  0.1402 -1.9840  2.1554
 4294SOL     OW24517   4.657   0.387   7.671 -0.1032  0.1739  0.4131
 4294SOL    HW124518   4.654   0.472   7.627  1.0069 -0.7787 -1.5180
 4294SOL    HW224519   4.568   0.351   7.664 -0.5800  1.3886  0.2176
 4295SOL     OW24520   3.328   4.697  12.118 -0.2178 -0.1597  0.9693
 4295SOL    HW124521   3.421   4.691  12.142 -0.0100 -0.5317  0.0707
 4295SOL    HW224522   3.319   4.622  12.059  2.3787 -0.9813  1.5963
 4296SOL     OW24523   3.268   3.213   3.556  0.1508 -0.3549 -0.3594
 4296SOL    HW124524   3.319   3.137   3.583 -0.4626 -1.0639 -1.1985
 4296SOL    HW224525   3.232   3.187   3.471 -0.1927  0.7829 -0.5617
 4297SOL     OW24526   0.874   1.661   8.164 -0.0184 -0.0824 -0.2706
 4297SOL    HW124527   0.858   1.723   8.094  0.6443 -0.1090 -0.4462
 4297SOL    HW224528   0.926   1.723   8.215 -0.6429  0.1996  0.0300
 4298SOL     OW24529   3.748   1.395   4.415 -0.2131  0.6113 -0.6327
 4298SOL    HW124530   3.775   1.334   4.347  0.5374  1.8334 -1.4389
 4298SOL    HW224531   3.786   1.354   4.492  0.0654 -1.2916 -1.7981
 4299SOL     OW24532   2.695   1.841  12.161 -0.6633  0.3250  0.5736
 4299SOL    HW124533   2.764   1.874  12.103  0.6624 -0.8014  1.5099
 4299SOL    HW224534   2.731   1.756  12.188 -0.9321  0.0262 -0.0040
 4300SOL     OW24535   3.078   4.167  11.629 -0.7526 -0.2225  0.0719
 4300SOL    HW124536   3.069   4.129  11.717 -0.7572 -0.3942 -0.0028
 4300SOL    HW224537   3.071   4.084  11.583 -1.6603 -0.4457  0.5942
 4301SOL     OW24538   0.580   4.727   1.983 -0.0167  0.0603 -0.0947
 4301SOL    HW124539   0.528   0.010   1.905 -0.0976 -1.1872 -0.3174
 4301SOL    HW224540   0.531   4.657   2.026  0.0322  1.6914  2.6243
 4302SOL     OW24541   2.836   1.139   6.574 -0.3308  0.0126  0.5458
 4302SOL    HW124542   2.850   1.084   6.498  0.1228  0.1326  0.5446
 4302SOL    HW224543   2.778   1.082   6.624 -0.1489 -0.5143  0.1516
 4303SOL     OW24544   1.667   3.979   1.960 -0.1111  0.6537 -1.2083
 4303SOL    HW124545   1.677   3.883   1.961 -1.6338  0.5206  0.1097
 4303SOL    HW224546   1.655   3.994   2.054  0.8943 -0.5449 -0.8906
 4304SOL     OW24547   4.304   1.909   6.487 -0.3983  0.4724 -0.8196
 4304SOL    HW124548   4.324   2.002   6.478  0.8341  0.2698 -0.1962
 4304SOL    HW224549   4.362   1.872   6.421  1.5310  1.5748  0.2781
 4305SOL     OW24550   2.835   0.870   8.811 -0.4821 -0.1683 -0.1023
 4305SOL    HW124551   2.801   0.958   8.791  1.2474  1.4029  3.8930
 4305SOL    HW224552   2.926   0.900   8.804  0.1562 -2.0842  0.0774
 4306SOL     OW24553   4.717   1.989  17.099  0.2011  0.1228  0.0515
 4306SOL    HW124554   4.692   2.072  17.140 -1.5935 -0.3597 -0.0404
 4306SOL    HW224555   0.033   2.023  17.025  0.0102  1.6082  0.5988
 4307SOL     OW24556   1.196   0.223  10.993 -0.1334  0.5493 -0.2717
 4307SOL    HW124557   1.126   0.283  11.020 -0.8999  0.7610 -2.6647
 4307SOL    HW224558   1.205   0.162  11.066  0.3004  0.4231 -0.4356
 4308SOL     OW24559   1.452   3.410   8.216 -0.7104  0.2965  0.2140
 4308SOL    HW124560   1.388   3.402   8.287  0.7343 -1.9229  1.2621
 4308SOL    HW224561   1.530   3.416   8.270 -1.4613 -0.5114  1.3727
 4309SOL     OW24562   1.021   1.395   6.258 -0.3389  0.4742  0.2435
 4309SOL    HW124563   1.072   1.321   6.290 -0.8209  1.0581  2.3470
 4309SOL    HW224564   1.053   1.411   6.169 -1.9697 -0.4741 -0.5149
 4310SOL     OW24565   1.237   2.981   3.618  0.6123 -0.2081  0.1780
 4310SOL    HW124566   1.163   3.039   3.639  0.6372 -0.6804  1.5101
 4310SOL    HW224567   1.247   3.005   3.526  0.3089  0.1779  0.2438
 4311SOL     OW24568   2.308   2.192   5.307  0.0805 -0.1320  0.0429
 4311SOL    HW124569   2.263   2.130   5.249  1.0109 -3.1932  2.6386
 4311SOL    HW224570   2.324   2.128   5.376  0.6976 -0.5066 -0.4539
 4312SOL     OW24571   2.237   0.028  15.780  0.1875  0.2172 -0.0058
 4312SOL    HW124572   2.260   4.670  15.790 -1.2942 -0.2704 -1.0183
 4312SOL    HW224573   2.274   0.054  15.696  1.1492  1.4489  0.7890
 4313SOL     OW24574   1.403   2.334   3.239 -0.0763 -0.5325 -0.1953
 4313SOL    HW124575   1.327   2.347   3.296 -0.1345  0.3626 -0.4899
 4313SOL    HW224576   1.428   2.423   3.218 -0.4252  0.1593  2.3244
 4314SOL     OW24577   4.535   0.074  12.013 -0.3344 -0.1629  0.3623
 4314SOL    HW124578   4.589   0.147  11.982 -0.2742  0.1079  1.1185
 4314SOL    HW224579   4.457   0.090  11.960 -0.7016 -1.9150  0.3742
 4315SOL     OW24580   1.616   2.681   6.663  0.2307  0.0703  0.0350
 4315SOL    HW124581   1.688   2.656   6.605  0.0969 -0.9119  0.2907
 4315SOL    HW224582   1.572   2.596   6.662  0.6059 -0.1582  4.5180
 4316SOL     OW24583   3.728   3.582  11.530  0.2907  0.1515 -0.3731
 4316SOL    HW124584   3.746   3.616  11.617 -1.9769 -0.5440  0.3789
 4316SOL    HW224585   3.735   3.659  11.474  0.0887  0.1786 -0.3634
 4317SOL     OW24586   2.628   1.861   2.164 -0.0719 -0.1095  0.5417
 4317SOL    HW124587   2.615   1.860   2.069  1.4338 -1.1496  0.3399
 4317SOL    HW224588   2.664   1.775   2.184  1.2214 -0.5006 -3.3669
 4318SOL     OW24589   3.922   4.471   0.420  0.7919  0.3614 -0.6051
 4318SOL    HW124590   3.991   4.531   0.391  1.2517 -0.8005 -1.9068
 4318SOL    HW224591   3.967   4.404   0.471 -1.6654 -1.6166 -1.0568
 4319SOL     OW24592   0.950   3.373   7.414 -0.4547 -0.1785  0.8432
 4319SOL    HW124593   1.010   3.417   7.474  0.3354 -2.1119  1.4657
 4319SOL    HW224594   1.015   3.362   7.345 -0.2926 -0.4279  1.0386
 4320SOL     OW24595   2.331   1.031  17.112  0.0428  0.1314 -0.3648
 4320SOL    HW124596   2.407   1.028  17.170 -1.0876 -1.9149  1.0168
 4320SOL    HW224597   2.268   1.084  17.162  0.8453 -1.2387  2.0903
 4321SOL     OW24598   3.512   2.856   2.107  0.3437 -0.3594 -0.3501
 4321SOL    HW124599   3.513   2.773   2.059 -2.8483 -0.8300  0.4404
 4321SOL    HW224600   3.569   2.911   2.053  0.3100 -1.7736 -1.8246
 4322SOL     OW24601   4.413   0.653  10.023 -0.4938 -0.0504 -0.0764
 4322SOL    HW124602   4.348   0.587  10.045  0.9637 -1.3731  0.2361
 4322SOL    HW224603   4.441   0.681  10.110 -3.4033 -0.4945  0.9874
 4323SOL     OW24604   4.120   4.620   3.718  0.0280 -0.6310 -0.1952
 4323SOL    HW124605   4.198   4.577   3.685 -1.1296 -2.1433 -0.9429
 4323SOL    HW224606   4.126   4.709   3.681  2.6594 -0.7426 -0.0046
 4324SOL     OW24607   0.491   2.414   2.369  0.1469 -0.2820  0.0523
 4324SOL    HW124608   0.490   2.461   2.286  0.3492 -3.0225 -1.5095
 4324SOL    HW224609   0.465   2.330   2.330 -0.6185  0.4437 -0.9902
 4325SOL     OW24610   2.275   4.289  11.727  0.2198 -0.0324 -0.2182
 4325SOL    HW124611   2.360   4.333  11.728  1.7662 -2.9891 -0.1990
 4325SOL    HW224612   2.260   4.272  11.633  3.1636 -2.3054 -0.2710
 4326SOL     OW24613   4.523   1.281  15.351  0.6196 -0.7663  0.1573
 4326SOL    HW124614   4.555   1.347  15.290  1.4616 -1.7046 -0.4227
 4326SOL    HW224615   4.583   1.210  15.327 -0.6791 -1.3183 -1.4036
 4327SOL     OW24616   0.171   0.075   1.567 -0.1356  0.3285  0.4952
 4327SOL    HW124617   0.212   4.725   1.582  1.1462  0.8029 -0.3214
 4327SOL    HW224618   0.246   0.132   1.583  1.2673 -1.9664  2.0406
 4328SOL     OW24619   3.070   2.199  10.835  0.2939  0.1041  0.1342
 4328SOL    HW124620   3.060   2.104  10.842  1.8051 -0.0347  0.2788
 4328SOL    HW224621   3.106   2.211  10.923  1.8863  0.8239 -0.6142
 4329SOL     OW24622   4.200   4.447  16.120 -1.0030  0.0725 -0.0097
 4329SOL    HW124623   4.135   4.504  16.162 -0.1219  1.2133 -0.2116
 4329SOL    HW224624   4.244   4.508  16.062  0.1491  1.4973  2.3464
 4330SOL     OW24625   2.424   2.906  16.340  0.1132  0.5097  0.4391
 4330SOL    HW124626   2.460   2.991  16.366 -1.2920  0.2364  3.2738
 4330SOL    HW224627   2.340   2.931  16.303  0.1524  0.0336  0.0272
 4331SOL     OW24628   4.678   3.047  15.048  0.1344  0.3371 -0.4278
 4331SOL    HW124629   4.642   2.984  14.985 -2.4866  0.0381  1.3808
 4331SOL    HW224630   0.033   3.063  15.019  1.0052  0.7551  2.5920
 4332SOL     OW24631   0.587   3.535  15.490 -0.1963 -0.7235  0.4767
 4332SOL    HW124632   0.649   3.469  15.459  1.5541  0.3934  1.6228
 4332SOL    HW224633   0.546   3.495  15.567 -1.0453 -0.6715  0.0535
 4333SOL     OW24634   0.412   0.664   6.352 -0.0144 -0.0163  0.0252
 4333SOL    HW124635   0.386   0.643   6.441  2.0503 -2.0904  0.1630
 4333SOL    HW224636   0.336   0.701   6.308  0.3532  0.9720  0.2255
 4334SOL     OW24637   2.737   1.919   9.646  0.0596 -0.2510  0.2985
 4334SOL    HW124638   2.644   1.921   9.625  0.2553 -0.4903 -0.6330
 4334SOL    HW224639   2.763   2.008   9.666 -0.9961  0.1280 -0.0285
 4335SOL     OW24640   1.698   4.077   8.023  0.2912 -0.4021  0.2264
 4335SOL    HW124641   1.782   4.056   7.982  0.1541  1.1505 -0.8346
 4335SOL    HW224642   1.646   4.002   7.993 -2.0637  0.4236  2.2806
 4336SOL     OW24643   0.988   1.691  14.614 -0.1884  0.0962  0.3894
 4336SOL    HW124644   0.956   1.673  14.703 -1.5301  0.7895  0.0524
 4336SOL    HW224645   1.019   1.602  14.597  0.3794 -0.1081  2.3915
 4337SOL     OW24646   3.926   3.097   6.648 -0.1345 -0.3822  0.5117
 4337SOL    HW124647   3.842   3.066   6.681  0.7788 -1.3632  1.8690
 4337SOL    HW224648   3.943   3.154   6.722 -1.3706  0.2711  0.3000
 4338SOL     OW24649   1.188   2.852  15.805 -0.2802 -0.7383  0.2794
 4338SOL    HW124650   1.204   2.847  15.710  1.5286  0.4276  0.5158
 4338SOL    HW224651   1.216   2.942  15.823  0.6601 -0.7452 -1.1550
 4339SOL     OW24652   0.839   1.226   2.885 -1.0609  0.0652 -0.2378
 4339SOL    HW124653   0.850   1.132   2.869 -2.1432 -0.2042  0.5843
 4339SOL    HW224654   0.875   1.268   2.807  0.5832 -2.5629 -0.9165
 4340SOL     OW24655   1.145   0.365  12.689 -0.0646 -0.1137 -1.0101
 4340SOL    HW124656   1.068   0.313  12.664  0.3567 -0.9043 -0.6699
 4340SOL    HW224657   1.184   0.381  12.603 -3.8492 -0.7307 -2.8694
 4341SOL     OW24658   1.097   4.012   2.841 -0.8332 -0.4160  0.1034
 4341SOL    HW124659   1.101   3.950   2.768  1.1873 -0.8346  0.5546
 4341SOL    HW224660   1.015   3.991   2.884 -0.5859  0.8737  1.2168
 4342SOL     OW24661   1.429   4.627   5.932 -0.2213  0.2443 -0.0965
 4342SOL    HW124662   1.349   4.659   5.891  0.0172  2.0808  0.8780
 4342SOL    HW224663   1.415   4.532   5.931 -1.1707  0.3880  0.1223
 4343SOL     OW24664   4.637   0.318  17.456 -0.0666  0.2507  0.1874
 4343SOL    HW124665   4.662   0.401  17.416  0.3988  0.5448  1.0878
 4343SOL    HW224666   4.604   0.261  17.386  0.9654  0.4517 -0.4629
 4344SOL     OW24667   2.089   4.039   6.699 -0.1792  0.6237  0.4099
 4344SOL    HW124668   2.129   4.122   6.674 -0.5072  0.6672  0.0211
 4344SOL    HW224669   2.058   4.068   6.785  0.0591  0.0768  0.6800
 4345SOL     OW24670   0.478   3.841   2.208 -0.4828 -0.4711  0.3218
 4345SOL    HW124671   0.502   3.932   2.191 -0.0529 -0.4881  0.8160
 4345SOL    HW224672   0.563   3.802   2.229  0.3417  1.7421  1.0677
 4346SOL     OW24673   1.565   4.358   2.868 -0.6378 -0.0424  0.4230
 4346SOL    HW124674   1.504   4.314   2.927 -2.3011 -0.1618 -1.3894
 4346SOL    HW224675   1.610   4.282   2.831 -0.2454  1.3543 -1.9582
 4347SOL     OW24676   4.141   2.641   8.978  0.8244  0.4143 -0.0335
 4347SOL    HW124677   4.131   2.567   9.037  1.4239 -0.1261 -0.6113
 4347SOL    HW224678   4.051   2.669   8.962  0.5231  0.1632  1.2638
 4348SOL     OW24679   3.269   2.530   6.262 -0.4092 -0.0916 -0.1871
 4348SOL    HW124680   3.338   2.575   6.212 -1.5742  1.1956 -0.6108
 4348SOL    HW224681   3.209   2.604   6.256 -0.1714  0.3336  2.7756
 4349SOL     OW24682   1.656   4.568   0.691 -0.4937  0.2273 -0.4378
 4349SOL    HW124683   1.571   4.559   0.647 -1.0946  1.8033  0.3803
 4349SOL    HW224684   1.712   4.560   0.614 -0.3313 -2.6325 -0.0266
 4350SOL     OW24685   3.863   2.501  13.487 -0.3090 -0.4518 -0.3450
 4350SOL    HW124686   3.853   2.446  13.409 -0.8848 -0.9181  0.0654
 4350SOL    HW224687   3.769   2.519  13.492 -0.5223 -2.0086  1.0689
 4351SOL     OW24688   4.157   1.646  12.838  0.1425  0.3422 -0.0136
 4351SOL    HW124689   4.194   1.686  12.916 -2.4959  0.3167  1.2509
 4351SOL    HW224690   4.145   1.721  12.780  2.0124  0.7875  0.1788
 4352SOL     OW24691   2.405   3.003  15.358 -0.2270  0.1239 -0.2123
 4352SOL    HW124692   2.389   2.917  15.320  0.9231 -0.4669  0.6467
 4352SOL    HW224693   2.415   3.056  15.278  1.0693  0.2792  0.0438
 4353SOL     OW24694   3.885   2.232   5.105  0.0755  0.2031  0.3847
 4353SOL    HW124695   3.815   2.297   5.098 -0.8581 -0.8425 -0.0541
 4353SOL    HW224696   3.865   2.173   5.032 -0.5366  0.0474  0.6724
 4354SOL     OW24697   2.615   2.531  14.882 -0.4093 -0.0444 -0.4626
 4354SOL    HW124698   2.521   2.546  14.880 -0.7675 -2.2677 -0.3850
 4354SOL    HW224699   2.655   2.568  14.803 -1.5662 -0.6827 -1.3322
 4355SOL     OW24700   1.804   4.375   4.597 -0.4291  0.4584  0.0376
 4355SOL    HW124701   1.718   4.400   4.631 -0.0608  3.1252 -0.9591
 4355SOL    HW224702   1.783   4.332   4.514 -0.2644  3.0431 -1.3331
 4356SOL     OW24703   2.181   2.800   4.235 -0.1904  0.1713 -0.2462
 4356SOL    HW124704   2.159   2.892   4.250 -0.4046  0.2467 -1.0355
 4356SOL    HW224705   2.268   2.795   4.275 -0.7121 -0.9941  0.7651
 4357SOL     OW24706   0.369   1.258   2.602  0.5813  0.2640  0.0739
 4357SOL    HW124707   0.452   1.222   2.635 -0.3358 -1.5663  0.3621
 4357SOL    HW224708   0.318   1.179   2.586 -1.4646  1.6539 -0.2076
 4358SOL     OW24709   4.407   1.885   9.926  0.1875  0.7102  0.1768
 4358SOL    HW124710   4.398   1.824   9.853 -2.9936  0.5401  0.7194
 4358SOL    HW224711   4.341   1.952   9.909  1.6028  2.0364 -0.1096
 4359SOL     OW24712   2.807   3.689   3.839 -0.1129  0.0034  0.1531
 4359SOL    HW124713   2.776   3.770   3.800 -0.3229 -0.9146 -1.5846
 4359SOL    HW224714   2.901   3.710   3.841 -0.5997  2.0573  1.4519
 4360SOL     OW24715   1.646   0.959   9.042  0.0637 -0.2011 -0.2544
 4360SOL    HW124716   1.557   0.926   9.031 -0.5707  0.7248  2.0872
 4360SOL    HW224717   1.656   0.945   9.136  0.4744 -1.3855 -0.4817
 4361SOL     OW24718   2.449   4.226   0.513  0.0017  0.1870  0.3105
 4361SOL    HW124719   2.400   4.171   0.574 -1.8601 -0.7913 -2.0465
 4361SOL    HW224720   2.478   4.159   0.451  0.0675  2.4581 -2.0904
 4362SOL     OW24721   3.844   0.094  13.117 -0.1267  0.2117  0.1065
 4362SOL    HW124722   3.752   0.070  13.112 -0.4466  1.4556  0.0581
 4362SOL    HW224723   3.873   0.112  13.028 -1.4164 -0.4829 -0.4475
 4363SOL     OW24724   0.463   0.241  12.729 -0.0044 -0.3566 -0.0739
 4363SOL    HW124725   0.398   0.186  12.685 -1.3247  1.4992 -0.4261
 4363SOL    HW224726   0.510   0.164  12.760  2.3718  1.4696  0.8753
 4364SOL     OW24727   1.199   0.549  13.658  0.6160  0.2928 -0.1315
 4364SOL    HW124728   1.255   0.482  13.696 -0.3713 -0.4264  0.0560
 4364SOL    HW224729   1.113   0.514  13.680  1.2425  0.0734  1.9325
 4365SOL     OW24730   3.390   1.307   3.824  0.1617  0.5139 -0.9384
 4365SOL    HW124731   3.409   1.360   3.746  1.3281  0.8738 -0.4141
 4365SOL    HW224732   3.473   1.317   3.872 -0.2180  2.4510 -0.6665
 4366SOL     OW24733   2.099   4.338   4.891 -0.2188  0.1229 -0.0165
 4366SOL    HW124734   2.130   4.301   4.974  2.2614  2.8172  0.2841
 4366SOL    HW224735   2.101   4.257   4.841 -1.6479  0.7150 -1.0058
 4367SOL     OW24736   0.179   3.888   1.916  0.8024  0.3124  0.2252
 4367SOL    HW124737   0.108   3.929   1.867  1.0325  0.7991  0.3014
 4367SOL    HW224738   0.206   3.961   1.973 -2.2268  0.9741  0.8337
 4368SOL     OW24739   0.248   3.664  15.462  0.3492 -0.6015  0.7528
 4368SOL    HW124740   0.302   3.634  15.390 -1.6384  0.5519 -1.1995
 4368SOL    HW224741   0.202   3.737  15.421 -0.5666 -0.9270  1.1849
 4369SOL     OW24742   2.603   3.960   8.709 -0.0638  0.0940  0.0165
 4369SOL    HW124743   2.518   4.004   8.717 -1.0960 -1.8985  0.0262
 4369SOL    HW224744   2.624   3.950   8.802 -0.0085 -0.9020 -0.1038
 4370SOL     OW24745   1.422   0.434   3.324 -0.3143  0.2277 -0.6158
 4370SOL    HW124746   1.376   0.461   3.403 -0.7300 -0.8353 -0.4854
 4370SOL    HW224747   1.437   0.513   3.272 -0.4240  2.3226  2.5542
 4371SOL     OW24748   1.228   1.983   1.926  0.2839 -0.7770  0.4061
 4371SOL    HW124749   1.184   2.040   1.863 -1.2672 -2.5872 -0.1193
 4371SOL    HW224750   1.305   1.956   1.878  0.4514 -1.8855  1.3066
 4372SOL     OW24751   1.196   4.304  11.431 -0.2730 -0.6251 -0.2393
 4372SOL    HW124752   1.126   4.356  11.471  0.7256  0.2223  0.3954
 4372SOL    HW224753   1.149   4.264  11.358 -1.9247 -0.4415  0.7181
 4373SOL     OW24754   3.911   2.679  16.914 -0.1088  0.4004  0.9914
 4373SOL    HW124755   3.836   2.734  16.891  0.7089  1.3502  0.6338
 4373SOL    HW224756   3.987   2.736  16.912  0.2025 -0.0175  0.9185
 4374SOL     OW24757   4.245   0.249   2.516 -0.1262 -0.1928  0.4244
 4374SOL    HW124758   4.243   0.182   2.448  0.0181  0.1854  0.0520
 4374SOL    HW224759   4.195   0.325   2.488  1.4208 -0.7915 -3.8284
 4375SOL     OW24760   0.147   0.283  12.794  0.2026 -0.4634  0.3142
 4375SOL    HW124761   0.129   0.198  12.753  2.2264 -0.3538 -0.7754
 4375SOL    HW224762   0.112   0.343  12.728  0.1700 -2.4107 -1.4140
 4376SOL     OW24763   0.936   1.116   8.155  0.0705 -0.3915 -0.1373
 4376SOL    HW124764   1.031   1.104   8.154  0.0205 -1.0960  2.1369
 4376SOL    HW224765   0.907   1.135   8.066  1.4380 -1.1647 -0.7537
 4377SOL     OW24766   2.943   0.707   7.543 -0.7347  0.2558 -0.4801
 4377SOL    HW124767   2.941   0.617   7.575 -0.1654  0.6945  0.8283
 4377SOL    HW224768   2.853   0.719   7.514 -0.9912  1.2824  0.7175
 4378SOL     OW24769   0.504   1.583   6.944  0.0636  0.2221 -0.1182
 4378SOL    HW124770   0.544   1.600   7.029 -0.9794  0.8815  0.2412
 4378SOL    HW224771   0.548   1.627   6.871  0.3017 -0.0564 -0.1413
 4379SOL     OW24772   0.901   3.741   5.401  0.2714  0.1537 -0.8062
 4379SOL    HW124773   0.939   3.750   5.314  0.4077 -1.4842 -0.9148
 4379SOL    HW224774   0.964   3.676   5.432 -0.5660  1.1268  2.8994
 4380SOL     OW24775   0.118   4.310   7.027  0.7615  0.2199 -0.2121
 4380SOL    HW124776   0.034   4.281   7.064  1.3513  1.5975  2.2777
 4380SOL    HW224777   0.100   4.403   7.011 -1.9062 -0.3480 -0.5261
 4381SOL     OW24778   4.315   2.954   5.934 -0.1840  0.1819 -0.0611
 4381SOL    HW124779   4.257   3.019   5.974 -0.3209 -0.2870  0.5082
 4381SOL    HW224780   4.250   2.908   5.882  0.2036 -0.2557 -0.1564
 4382SOL     OW24781   2.248   1.555   9.041  0.4647  0.3043 -0.2228
 4382SOL    HW124782   2.299   1.634   9.024 -0.8615  0.8683 -1.6068
 4382SOL    HW224783   2.285   1.502   8.970  0.2666  2.9016 -2.2839
 4383SOL     OW24784   2.771   3.283   0.712 -0.6357  0.0202  0.1293
 4383SOL    HW124785   2.788   3.311   0.802 -0.5156  0.2746  0.0254
 4383SOL    HW224786   2.794   3.191   0.699  0.6025  0.6415 -2.0236
 4384SOL     OW24787   4.363   1.636   5.307  0.6245  0.2212 -0.2103
 4384SOL    HW124788   4.341   1.729   5.314  0.8417  0.2185  0.5021
 4384SOL    HW224789   4.280   1.603   5.272  0.2497  1.2100 -0.2762
 4385SOL     OW24790   1.533   2.156   4.479 -0.2222  0.0856 -0.3466
 4385SOL    HW124791   1.502   2.079   4.526 -1.1651  0.5163 -0.2743
 4385SOL    HW224792   1.558   2.219   4.547  0.4909  3.4489 -3.7237
 4386SOL     OW24793   4.506   0.486  10.509 -0.1756  0.2564  0.4794
 4386SOL    HW124794   4.486   0.565  10.560  0.4108  0.0778  0.9858
 4386SOL    HW224795   4.494   0.415  10.572  1.0440  0.4675  0.9558
 4387SOL     OW24796   4.721   0.422   2.770  0.1675 -0.0398 -0.0992
 4387SOL    HW124797   0.032   0.366   2.706 -0.5639 -0.7393 -0.0049
 4387SOL    HW224798   4.705   0.367   2.847  2.4746  0.0563  0.4475
 4388SOL     OW24799   4.041   1.893   6.430 -0.0446  0.0361  0.4489
 4388SOL    HW124800   4.032   1.980   6.468  2.2685  0.9145 -1.0225
 4388SOL    HW224801   4.133   1.867   6.439  0.1137  1.7876  3.9513
 4389SOL     OW24802   4.161   2.371   2.556  0.0375  0.5054 -0.3159
 4389SOL    HW124803   4.135   2.321   2.478  0.0626  0.6240 -0.4007
 4389SOL    HW224804   4.139   2.456   2.517 -1.0426  0.2409 -0.2879
 4390SOL     OW24805   1.061   3.836   8.581  0.3516  0.1124  0.1513
 4390SOL    HW124806   1.019   3.810   8.663  0.4837  1.5614  0.6675
 4390SOL    HW224807   1.060   3.931   8.587  1.0092 -0.0850  3.4448
 4391SOL     OW24808   0.571   0.171   7.849  0.0875  0.0877  0.0785
 4391SOL    HW124809   0.539   0.144   7.935  2.3885 -2.6291  0.0663
 4391SOL    HW224810   0.664   0.176   7.871 -0.1067  0.2945  0.8525
 4392SOL     OW24811   3.615   0.889   2.641  0.5392 -0.0110  0.0740
 4392SOL    HW124812   3.569   0.916   2.561  0.0580  1.1573  0.7489
 4392SOL    HW224813   3.694   0.847   2.606  0.5302  0.6426 -0.7599
 4393SOL     OW24814   3.789   3.726   8.101 -0.2720  0.0376  0.7870
 4393SOL    HW124815   3.740   3.718   8.182 -0.1174  0.6540  0.9392
 4393SOL    HW224816   3.726   3.715   8.030 -0.2423 -1.2090  0.9518
 4394SOL     OW24817   4.676   1.143  15.160  0.1894 -0.1577 -0.4099
 4394SOL    HW124818   4.698   1.058  15.122  0.0187  0.1992 -1.3089
 4394SOL    HW224819   4.604   1.165  15.101 -0.9105 -2.0315  0.2675
 4395SOL     OW24820   3.300   1.997  10.905  1.1521  0.2042  0.2273
 4395SOL    HW124821   3.332   1.961  10.988  0.9026  0.3560  0.3864
 4395SOL    HW224822   3.210   1.966  10.911  1.0790  0.0191 -1.7493
 4396SOL     OW24823   1.015   3.815  13.289 -0.1782 -0.5015 -0.1224
 4396SOL    HW124824   1.042   3.880  13.224  1.1965 -2.4074 -1.4463
 4396SOL    HW224825   1.088   3.756  13.268 -0.0628 -1.2450  2.4323
 4397SOL     OW24826   0.453   0.166   5.442 -0.0053 -0.0083  0.0083
 4397SOL    HW124827   0.544   0.142   5.426  0.1279 -0.1276  0.9519
 4397SOL    HW224828   0.457   0.261   5.446 -0.5043 -0.1252  2.8759
 4398SOL     OW24829   1.127   0.965   2.667 -0.4816  0.2629  0.1518
 4398SOL    HW124830   1.078   0.903   2.612  0.0097 -0.5944  0.6731
 4398SOL    HW224831   1.214   0.925   2.676 -1.4355 -1.9400 -0.2651
 4399SOL     OW24832   2.942   3.192   4.423  1.0872  0.5819  0.1181
 4399SOL    HW124833   2.876   3.145   4.474  1.9879  0.3042  1.0185
 4399SOL    HW224834   2.949   3.138   4.344  0.8435  1.0059 -0.1909
 4400SOL     OW24835   2.268   0.442   4.678  0.1961  0.2394  0.7196
 4400SOL    HW124836   2.351   0.481   4.652 -0.4538  0.2239 -1.3124
 4400SOL    HW224837   2.268   0.363   4.624  0.5453  1.3477 -0.8693
 4401SOL     OW24838   1.741   1.230   5.109 -0.6154  0.4212  0.1549
 4401SOL    HW124839   1.716   1.165   5.176  0.2676 -3.0189 -2.8622
 4401SOL    HW224840   1.714   1.189   5.026 -2.1259 -2.6462  2.1268
 4402SOL     OW24841   3.106   4.465  14.272 -0.5155 -0.6326  0.7057
 4402SOL    HW124842   3.121   4.392  14.332 -0.9948  0.5880  2.3117
 4402SOL    HW224843   3.189   4.454  14.226 -0.5578 -1.9151  0.9288
 4403SOL     OW24844   2.789   1.364  13.261 -0.6249 -0.3930 -0.4814
 4403SOL    HW124845   2.770   1.305  13.188 -2.8403  1.4125 -1.3784
 4403SOL    HW224846   2.852   1.429  13.232 -1.1798 -0.3779 -1.6457
 4404SOL     OW24847   1.504   1.083   9.819 -0.2739 -0.2626  0.8239
 4404SOL    HW124848   1.460   0.999   9.808 -0.9184 -0.0228  1.5817
 4404SOL    HW224849   1.542   1.063   9.904  1.1802 -1.7453 -0.1824
 4405SOL     OW24850   0.385   2.909  16.614 -0.0295  0.3007  0.4846
 4405SOL    HW124851   0.412   2.974  16.548 -0.1505 -1.3589 -1.1919
 4405SOL    HW224852   0.329   2.966  16.667 -1.1917  1.5362 -2.0647
 4406SOL     OW24853   4.322   3.925   2.197 -0.2678  0.5010 -0.1173
 4406SOL    HW124854   4.359   3.949   2.282  0.4902  0.7749 -0.5278
 4406SOL    HW224855   4.386   3.867   2.157  0.4636  0.1920  1.5053
 4407SOL     OW24856   4.181   2.936   6.204 -0.0499 -0.2276 -0.4641
 4407SOL    HW124857   4.267   2.900   6.227  0.7910  0.1629 -2.9718
 4407SOL    HW224858   4.194   3.025   6.171  0.2901 -0.2962 -0.5234
 4408SOL     OW24859   3.980   2.909   8.223 -0.0184 -0.1648 -0.7987
 4408SOL    HW124860   4.027   2.888   8.142 -0.6370  4.3047 -2.3062
 4408SOL    HW224861   3.891   2.914   8.190 -0.5420  0.5363  0.7220
 4409SOL     OW24862   4.540   0.504  14.468 -0.1481  0.2414  0.0878
 4409SOL    HW124863   4.597   0.465  14.534 -1.5619 -1.2437  0.4387
 4409SOL    HW224864   4.471   0.551  14.513  3.4291  1.6024  4.1118
 4410SOL     OW24865   1.813   2.036   3.646  0.2988  0.7450 -0.5645
 4410SOL    HW124866   1.754   1.983   3.592 -0.1183 -1.4651  2.0576
 4410SOL    HW224867   1.770   2.121   3.645  0.8999  1.0496 -0.8217
 4411SOL     OW24868   4.539   3.417   1.316 -0.3123 -0.7870 -0.2347
 4411SOL    HW124869   4.553   3.472   1.393 -0.9818  0.4838 -1.0257
 4411SOL    HW224870   4.445   3.421   1.297 -0.4938  0.1371  0.9142
 4412SOL     OW24871   2.348   2.651  10.664  0.3314 -0.0576  0.3754
 4412SOL    HW124872   2.320   2.737  10.633 -1.2848 -1.2326 -1.4101
 4412SOL    HW224873   2.261   2.624  10.694  0.7928 -1.3142  0.6051
 4413SOL     OW24874   3.559   1.636  16.554 -0.2175 -0.0380  0.1258
 4413SOL    HW124875   3.652   1.650  16.535 -0.6124 -0.5764 -2.1265
 4413SOL    HW224876   3.566   1.558  16.610  1.4273 -0.3003 -0.4434
 4414SOL     OW24877   0.448   2.937   2.622  0.0199  0.3145 -0.5405
 4414SOL    HW124878   0.517   2.954   2.558 -1.0889 -0.2880 -1.8733
 4414SOL    HW224879   0.370   2.958   2.571  1.0010  0.8835 -1.8062
 4415SOL     OW24880   0.414   4.032   4.351 -0.1542 -0.0385 -0.2536
 4415SOL    HW124881   0.416   4.126   4.370 -1.1918  0.5150 -2.9348
 4415SOL    HW224882   0.499   4.019   4.308  0.4254 -0.1795  0.9159
 4416SOL     OW24883   3.401   3.320   8.570 -0.2249  0.5410 -0.1606
 4416SOL    HW124884   3.318   3.278   8.591  0.1639  0.4166  1.1486
 4416SOL    HW224885   3.450   3.247   8.531 -0.1272  0.8640 -0.6331
 4417SOL     OW24886   0.286   3.900   4.656  0.2001 -0.4142  0.0749
 4417SOL    HW124887   0.281   3.958   4.580  1.0322 -0.2080  0.1815
 4417SOL    HW224888   0.252   3.973   4.709 -2.5579  0.9879 -3.5643
 4418SOL     OW24889   3.063   4.640   8.389 -0.1606 -0.3825  0.0240
 4418SOL    HW124890   2.994   4.582   8.422  2.3008 -2.3067  1.7144
 4418SOL    HW224891   3.017   4.673   8.312  1.0411 -0.9043 -0.9189
 4419SOL     OW24892   0.603   0.831  17.626  0.2329 -0.2319  0.4128
 4419SOL    HW124893   0.648   0.781  17.695 -0.5313  0.2010  1.2372
 4419SOL    HW224894   0.642   0.919  17.625  0.9935 -0.5878 -0.5703
 4420SOL     OW24895   1.237   3.934   3.116  0.1892  0.4848  0.4524
 4420SOL    HW124896   1.161   3.981   3.081 -0.0129  0.7140  1.2009
 4420SOL    HW224897   1.212   3.902   3.203  1.8177 -0.5648  0.5345
 4421SOL     OW24898   0.272   3.330  17.171 -0.0496  0.1522 -0.2765
 4421SOL    HW124899   0.297   3.380  17.249 -0.7140  0.5793 -0.3328
 4421SOL    HW224900   0.321   3.251  17.193  0.2567  0.3411 -0.2900
 4422SOL     OW24901   4.481   1.341   5.289  0.1782  0.5225 -0.2861
 4422SOL    HW124902   4.420   1.311   5.221  0.0671  2.3117 -0.9862
 4422SOL    HW224903   4.474   1.436   5.289 -2.5626  0.3213 -0.4095
 4423SOL     OW24904   0.039   0.023   7.820 -0.0861  0.2731 -0.1989
 4423SOL    HW124905   0.075   4.716   7.742  3.0315  0.8843  0.9101
 4423SOL    HW224906   0.051   0.117   7.807 -0.5007  0.6195  1.8854
 4424SOL     OW24907   3.551   3.779   6.576 -0.0480 -0.1729 -0.0945
 4424SOL    HW124908   3.524   3.806   6.488  0.7962  0.3937 -0.1829
 4424SOL    HW224909   3.527   3.687   6.576 -2.7056  0.5166 -1.4068
 4425SOL     OW24910   0.931   3.155   3.096 -0.2853  0.0327  0.0356
 4425SOL    HW124911   0.994   3.216   3.135 -1.8821  2.8612 -1.7717
 4425SOL    HW224912   0.848   3.200   3.113  0.6404  1.4976  0.6909
 4426SOL     OW24913   4.590   0.586  11.529 -0.2321  0.6893  0.3080
 4426SOL    HW124914   4.585   0.491  11.538  1.5161  0.7510  1.8902
 4426SOL    HW224915   4.534   0.614  11.602 -0.5970 -0.6801  0.5533
 4427SOL     OW24916   2.243   0.600  14.251 -0.2452 -0.1378 -0.3856
 4427SOL    HW124917   2.286   0.536  14.194 -0.5934  0.9424 -1.8551
 4427SOL    HW224918   2.159   0.608  14.207 -1.0282  3.4541  1.7567
 4428SOL     OW24919   0.433   2.652   7.820  0.4301  0.0263  0.0222
 4428SOL    HW124920   0.450   2.583   7.884 -0.2054  0.0993  0.2624
 4428SOL    HW224921   0.515   2.644   7.771 -0.4569  1.1269 -1.6562
 4429SOL     OW24922   4.718   1.581   2.250 -0.2872 -0.3084  0.4764
 4429SOL    HW124923   0.046   1.605   2.318  0.4362 -1.0448  0.0543
 4429SOL    HW224924   4.653   1.649   2.274 -1.7047 -1.4320 -0.1952
 4430SOL     OW24925   0.922   4.021  11.673 -0.5552  0.0421  0.3822
 4430SOL    HW124926   0.963   4.008  11.588 -4.2874 -0.8451 -1.2736
 4430SOL    HW224927   0.864   4.098  11.677 -1.6778 -0.8094  0.4593
 4431SOL     OW24928   2.744   4.084   7.993 -0.1169 -0.5800  0.2694
 4431SOL    HW124929   2.750   4.029   7.915 -1.4738 -0.5904  0.1662
 4431SOL    HW224930   2.755   4.026   8.067  0.1615 -1.8335 -0.7528
 4432SOL     OW24931   1.840   3.492   1.314  0.2584  0.0317 -0.2351
 4432SOL    HW124932   1.752   3.522   1.336 -0.5465 -2.2148 -0.2973
 4432SOL    HW224933   1.862   3.509   1.223  2.0326 -0.2053  0.1337
 4433SOL     OW24934   0.619   3.912  14.290  0.0278 -0.5778  0.0933
 4433SOL    HW124935   0.702   3.866  14.305 -0.4388 -0.8668  1.8368
 4433SOL    HW224936   0.619   3.919  14.195  1.6693  1.3093  0.2293
 4434SOL     OW24937   2.366   1.119  16.457 -0.3445  0.1486  0.1192
 4434SOL    HW124938   2.336   1.070  16.380  1.7357 -2.1217  0.7304
 4434SOL    HW224939   2.446   1.158  16.422 -0.5181 -0.4628 -0.9605
 4435SOL     OW24940   4.716   0.103   3.606  0.1617  0.1875 -0.3914
 4435SOL    HW124941   4.627   0.087   3.576  0.4651 -2.4647  0.0796
 4435SOL    HW224942   0.028   0.070   3.529 -1.6303 -0.7205 -1.0835
 4436SOL     OW24943   3.668   4.407   7.784  0.3193 -0.1762 -0.7466
 4436SOL    HW124944   3.604   4.468   7.821  1.0127 -1.5671  2.8324
 4436SOL    HW224945   3.659   4.407   7.689 -1.8725  0.7609 -0.5224
 4437SOL     OW24946   4.652   0.905   0.398  0.3073  0.1075  0.2989
 4437SOL    HW124947   4.650   0.958   0.478 -1.7846 -1.2902  1.1827
 4437SOL    HW224948   4.716   0.840   0.426 -0.8425 -0.3002  1.9781
 4438SOL     OW24949   0.275   0.466  10.732  0.1427 -0.3222 -0.1164
 4438SOL    HW124950   0.314   0.382  10.707  3.4123  1.0402  0.3611
 4438SOL    HW224951   0.282   0.519  10.653 -0.5491  0.0519  0.0770
 4439SOL     OW24952   2.124   2.053   3.273  0.0447 -0.3555  0.1407
 4439SOL    HW124953   2.158   2.018   3.191 -2.1236 -0.0373 -0.9032
 4439SOL    HW224954   2.127   2.148   3.261  2.5601 -0.6767 -1.6063
 4440SOL     OW24955   4.077   1.225   8.839  0.8405 -0.5223 -0.1718
 4440SOL    HW124956   4.054   1.255   8.927  0.3570 -2.6629  0.4290
 4440SOL    HW224957   4.059   1.301   8.783 -1.9492 -0.3049  0.9785
 4441SOL     OW24958   3.079   3.747   8.732  0.2551 -0.1893 -0.0997
 4441SOL    HW124959   3.173   3.755   8.715 -0.1129 -0.7993 -2.4500
 4441SOL    HW224960   3.085   3.711   8.820 -0.2543 -0.7786 -0.3076
 4442SOL     OW24961   1.779   0.848   2.308  0.1798 -0.1306 -0.0843
 4442SOL    HW124962   1.716   0.917   2.285  0.6152 -0.6748 -2.8746
 4442SOL    HW224963   1.860   0.892   2.333  0.4501 -0.4828 -0.3357
 4443SOL     OW24964   2.431   1.875   9.911  0.7281 -0.3336 -0.0178
 4443SOL    HW124965   2.519   1.869   9.948  0.4249 -1.8856  0.4631
 4443SOL    HW224966   2.447   1.863   9.817 -0.1433  0.2030 -0.2305
 4444SOL     OW24967   4.511   0.907   9.779  0.3425 -0.6547  0.2120
 4444SOL    HW124968   4.568   0.973   9.740  0.1441  0.1266  1.2481
 4444SOL    HW224969   4.532   0.827   9.730  1.8892 -0.2562  0.2092
 4445SOL     OW24970   1.459   4.207  11.671  0.5361 -0.8323  0.2977
 4445SOL    HW124971   1.370   4.173  11.681 -0.0821  0.1680 -1.7740
 4445SOL    HW224972   1.508   4.135  11.710 -0.2169 -2.7125 -2.2138
 4446SOL     OW24973   3.547   1.809  10.492  0.7914  0.4307 -0.3252
 4446SOL    HW124974   3.477   1.809  10.427 -0.9286  0.0914  1.5088
 4446SOL    HW224975   3.503   1.834  10.574  1.2857 -1.1400  0.4290
 4447SOL     OW24976   0.948   4.571   9.565 -0.3665 -0.3817 -0.2110
 4447SOL    HW124977   1.026   4.515   9.564 -2.2904 -3.0507  0.1272
 4447SOL    HW224978   0.994   4.655   9.562 -1.1950  0.1877  3.9160
 4448SOL     OW24979   0.841   4.271   7.783  0.4798  0.8868 -0.7233
 4448SOL    HW124980   0.841   4.228   7.698  0.0079  0.1418 -0.3496
 4448SOL    HW224981   0.776   4.227   7.839  1.2890 -0.5443 -0.9244
 4449SOL     OW24982   1.897   1.525  12.917 -0.0969  0.3577 -0.2713
 4449SOL    HW124983   1.909   1.559  12.828  0.0391  0.5681 -0.1715
 4449SOL    HW224984   1.834   1.456  12.895 -0.6425  0.1014  2.1947
 4450SOL     OW24985   3.380   3.770  11.569  0.3543  0.5088 -0.1125
 4450SOL    HW124986   3.404   3.720  11.491  1.4470 -0.0329  0.5677
 4450SOL    HW224987   3.346   3.842  11.517 -2.8641 -0.6874  0.3734
 4451SOL     OW24988   1.315   3.018  11.736  0.3974 -0.3242 -0.3735
 4451SOL    HW124989   1.241   3.058  11.690  1.5198  2.1732  0.0076
 4451SOL    HW224990   1.303   3.045  11.827 -0.3017 -0.6831 -0.3547
 4452SOL     OW24991   2.717   0.875   1.186  0.1962 -0.3722  0.3885
 4452SOL    HW124992   2.761   0.789   1.189 -0.1704 -0.4641  3.4169
 4452SOL    HW224993   2.633   0.856   1.227 -0.3079 -2.6610 -1.7494
 4453SOL     OW24994   0.658   3.619   7.568 -0.5125  0.1362  0.4662
 4453SOL    HW124995   0.698   3.586   7.649  2.2320  0.6519 -0.7028
 4453SOL    HW224996   0.665   3.548   7.505  0.7456 -0.4647  1.2938
 4454SOL     OW24997   3.105   1.318   4.848  0.4210 -0.0283  0.3194
 4454SOL    HW124998   3.083   1.405   4.881  0.1766 -0.1378  0.4505
 4454SOL    HW224999   3.200   1.316   4.862  0.3629  0.5653  0.8118
 4455SOL     OW25000   2.050   0.991  14.665  0.0858 -0.0940  0.3381
 4455SOL    HW125001   2.008   0.991  14.751 -2.0592 -0.9727 -0.6984
 4455SOL    HW225002   2.032   1.082  14.639  1.4744  0.3298  0.8269
 4456SOL     OW25003   3.536   3.610   5.003  0.4063  0.1113 -0.0943
 4456SOL    HW125004   3.500   3.521   5.010 -1.7370  0.9962  0.0066
 4456SOL    HW225005   3.557   3.640   5.091  2.2056  0.0302 -0.4999
 4457SOL     OW25006   3.001   1.932  10.173  0.4584 -0.3169 -0.2940
 4457SOL    HW125007   3.066   1.987  10.215 -1.3772  0.0926  2.0303
 4457SOL    HW225008   3.052   1.905  10.097 -0.2741 -0.4417 -0.7496
 4458SOL     OW25009   2.534   1.083   3.785 -0.0757 -0.0575  0.1387
 4458SOL    HW125010   2.553   1.174   3.807 -2.2571  0.9752 -2.2241
 4458SOL    HW225011   2.450   1.076   3.831  0.8471  1.7843  2.1618
 4459SOL     OW25012   3.690   4.291   7.236  0.0816 -0.3096  0.2166
 4459SOL    HW125013   3.630   4.224   7.204 -2.4067 -0.0360  4.3316
 4459SOL    HW225014   3.765   4.234   7.251  1.3525  1.7385  1.5999
 4460SOL     OW25015   0.825   4.028  17.159 -0.4071  0.1393 -0.3181
 4460SOL    HW125016   0.763   3.992  17.096 -1.1180  1.8248 -0.5825
 4460SOL    HW225017   0.908   3.997  17.124  1.3889  1.4428  2.7361
 4461SOL     OW25018   1.243   0.171   4.010  0.5299  0.3580  0.4247
 4461SOL    HW125019   1.329   0.211   4.019 -0.0960  2.0072 -0.9169
 4461SOL    HW225020   1.274   0.081   3.998 -0.9598 -0.3081  1.5405
 4462SOL     OW25021   4.034   3.796  13.838 -0.2022 -0.0828  0.4538
 4462SOL    HW125022   4.110   3.786  13.895 -1.3266 -0.3852  1.8899
 4462SOL    HW225023   4.052   3.734  13.767  2.1975  1.7818 -0.5851
 4463SOL     OW25024   2.287   3.994   7.429  0.8277  0.1004  0.2945
 4463SOL    HW125025   2.366   3.997   7.374  1.3202 -0.1787  0.9798
 4463SOL    HW225026   2.228   3.943   7.374 -0.7480  3.3448 -1.0658
 4464SOL     OW25027   2.613   2.299   6.128  0.3198 -0.2963  0.1773
 4464SOL    HW125028   2.568   2.219   6.155 -2.0110  0.7292 -0.6058
 4464SOL    HW225029   2.603   2.352   6.207 -1.4267 -0.5182  0.1153
 4465SOL     OW25030   1.046   1.135   9.591 -0.2052  0.6621  0.1463
 4465SOL    HW125031   1.056   1.051   9.545 -2.5497 -0.3440  1.4750
 4465SOL    HW225032   1.137   1.155   9.613 -0.8799  1.6358  2.0476
 4466SOL     OW25033   3.017   1.439   8.529  0.1572  0.2152 -0.5171
 4466SOL    HW125034   2.999   1.519   8.580  1.9995  0.8675 -0.9000
 4466SOL    HW225035   2.940   1.428   8.473  0.8820  1.2700 -1.7220
 4467SOL     OW25036   0.879   3.733   4.884  0.5023 -0.0923  0.0890
 4467SOL    HW125037   0.844   3.707   4.799 -0.0315  1.4027 -0.1455
 4467SOL    HW225038   0.830   3.672   4.940  0.0211 -1.1768 -1.4994
 4468SOL     OW25039   4.024   1.978   3.009  0.0743  0.3251  0.3508
 4468SOL    HW125040   4.040   1.993   3.102  0.5718  1.4880  0.0815
 4468SOL    HW225041   4.060   1.890   3.001 -1.6966 -0.5207  1.5766
 4469SOL     OW25042   2.564   1.309   3.968 -0.2162  0.0754  0.2417
 4469SOL    HW125043   2.486   1.283   4.016 -0.7448  0.0397 -0.6322
 4469SOL    HW225044   2.557   1.402   3.946 -0.4810  0.1513  0.6591
 4470SOL     OW25045   0.420   3.445  11.206  0.5268 -0.9259  0.0697
 4470SOL    HW125046   0.472   3.376  11.164  1.1052  0.2223 -1.1194
 4470SOL    HW225047   0.339   3.399  11.227 -1.1103  1.5689 -0.8437
 4471SOL     OW25048   2.767   0.348   4.941 -0.2605  0.2246 -0.5690
 4471SOL    HW125049   2.801   0.437   4.930  0.9092 -0.3166 -1.4168
 4471SOL    HW225050   2.821   0.313   5.012 -1.4382  1.3243  0.8566
 4472SOL     OW25051   3.156   1.634   5.977 -0.1990  0.3009  0.3862
 4472SOL    HW125052   3.166   1.717   6.023  0.4568  0.7816 -0.6228
 4472SOL    HW225053   3.213   1.588   6.039  0.0674  0.4903  0.2823
 4473SOL     OW25054   2.072   2.538   5.816  0.1018 -0.5215 -0.3695
 4473SOL    HW125055   1.981   2.560   5.794 -0.3931 -1.1182  1.0977
 4473SOL    HW225056   2.063   2.500   5.903  0.1260  0.0975 -0.0945
 4474SOL     OW25057   0.517   0.056   2.836 -0.7649  0.1716 -0.0767
 4474SOL    HW125058   0.554   0.141   2.811 -1.3414  0.6057  0.5451
 4474SOL    HW225059   0.544   4.730   2.767 -0.2589  0.6286 -0.2738
 4475SOL     OW25060   2.370   1.848   7.746  0.0423  0.4248 -0.2707
 4475SOL    HW125061   2.361   1.857   7.651  0.5652  0.4126 -0.3223
 4475SOL    HW225062   2.328   1.762   7.753  2.1049 -0.6262 -0.7725
 4476SOL     OW25063   2.279   3.790   7.925  0.3800  0.3158 -0.5532
 4476SOL    HW125064   2.234   3.840   7.858 -0.4670 -2.4887 -2.0807
 4476SOL    HW225065   2.207   3.732   7.950  0.5332  0.8561  1.1624
 4477SOL     OW25066   4.586   4.329  16.245 -0.4709  0.1107 -0.1194
 4477SOL    HW125067   4.513   4.269  16.229  0.6884 -1.6995  1.2253
 4477SOL    HW225068   4.593   4.399  16.181 -0.2676  0.2400  0.0459
 4478SOL     OW25069   1.441   4.654   7.386 -0.0181  0.1601  0.2220
 4478SOL    HW125070   1.503   4.598   7.433 -1.0509  0.1115  1.5542
 4478SOL    HW225071   1.357   4.624   7.421  0.4583 -0.6806  0.6367
 4479SOL     OW25072   1.532   3.830   6.250  0.0383 -0.5579 -0.1926
 4479SOL    HW125073   1.507   3.914   6.290 -2.4029 -0.3330 -2.1871
 4479SOL    HW225074   1.528   3.777   6.329  2.5719 -1.4544 -0.6669
 4480SOL     OW25075   1.747   2.037   1.529 -0.0063  0.5867 -0.1324
 4480SOL    HW125076   1.810   2.070   1.465  0.8105 -1.5593 -0.4467
 4480SOL    HW225077   1.739   2.117   1.580  0.0221 -0.5724  1.6994
 4481SOL     OW25078   3.095   0.186   6.244  0.0212  0.2487 -0.3114
 4481SOL    HW125079   3.045   0.170   6.324 -0.0002 -1.6688 -0.7099
 4481SOL    HW225080   3.079   0.107   6.192  1.1156  0.2690 -0.6693
 4482SOL     OW25081   1.191   1.595   8.398 -0.4836  0.6935 -0.0537
 4482SOL    HW125082   1.282   1.604   8.368 -0.2931 -1.3720 -0.1589
 4482SOL    HW225083   1.144   1.665   8.353  0.3874  0.5071 -1.2606
 4483SOL     OW25084   4.297   0.629   7.532 -0.2260  0.0083 -0.0980
 4483SOL    HW125085   4.290   0.674   7.617  1.2641  2.6772 -1.4013
 4483SOL    HW225086   4.266   0.541   7.555 -0.4099  0.6608  2.1488
 4484SOL     OW25087   1.547   0.313   3.851 -0.3099  0.3821 -0.4626
 4484SOL    HW125088   1.468   0.350   3.890  0.8886  0.3829  1.9524
 4484SOL    HW225089   1.596   0.395   3.847  0.9068 -0.3001  0.5627
 4485SOL     OW25090   2.120   1.741   1.597 -0.1621 -0.2624 -0.5807
 4485SOL    HW125091   2.082   1.698   1.674  2.4508 -2.4733 -0.5415
 4485SOL    HW225092   2.047   1.718   1.538  0.7955 -1.2624 -1.3666
 4486SOL     OW25093   4.358   4.552   9.258  0.0221  0.6186 -0.1061
 4486SOL    HW125094   4.348   4.643   9.285  1.2511 -0.2288  3.1361
 4486SOL    HW225095   4.344   4.511   9.343 -0.4662  1.0888  0.0426
 4487SOL     OW25096   3.854   2.482  14.653 -0.1833  0.4362 -0.1698
 4487SOL    HW125097   3.829   2.532  14.576 -0.2395 -1.5353 -1.4373
 4487SOL    HW225098   3.771   2.468  14.697 -0.2515  2.8888  0.4432
 4488SOL     OW25099   2.753   0.735  15.114  0.4382 -0.0530 -0.4065
 4488SOL    HW125100   2.659   0.751  15.122  0.4288 -0.0792 -0.4630
 4488SOL    HW225101   2.786   0.818  15.147  1.1929 -0.1624 -0.8751
 4489SOL     OW25102   1.396   3.399   7.142  0.0771 -0.0667 -0.2174
 4489SOL    HW125103   1.449   3.320   7.145  0.0754 -0.0332  0.6559
 4489SOL    HW225104   1.467   3.455   7.174  1.5457 -1.2493 -1.4310
 4490SOL     OW25105   2.041   2.853   4.669  0.1243  0.2202 -0.0699
 4490SOL    HW125106   2.102   2.848   4.743  0.9706  1.4967 -0.6899
 4490SOL    HW225107   2.097   2.819   4.599  0.9794 -0.1101  0.7684
 4491SOL     OW25108   0.828   2.118   9.400 -0.5736 -0.5305  0.5092
 4491SOL    HW125109   0.840   2.202   9.444  0.5367  1.5260 -3.6619
 4491SOL    HW225110   0.739   2.130   9.366 -0.4480  0.0739  0.3985
 4492SOL     OW25111   2.282   1.932   9.150  0.3893 -0.2979 -0.5362
 4492SOL    HW125112   2.276   1.864   9.218 -0.9781 -0.5308 -0.8818
 4492SOL    HW225113   2.270   2.014   9.197  1.2586 -1.0387  0.9900
 4493SOL     OW25114   0.298   4.185  16.915  0.1044  0.1764 -0.2668
 4493SOL    HW125115   0.245   4.106  16.903 -0.2367  0.0357  2.1418
 4493SOL    HW225116   0.232   4.255  16.922  1.7503  1.5155  2.0089
 4494SOL     OW25117   0.273   2.664   6.604  0.1739  0.1411 -0.0243
 4494SOL    HW125118   0.295   2.728   6.536  0.4260  0.1137  0.0329
 4494SOL    HW225119   0.357   2.620   6.614  0.2096  1.2682  4.7261
 4495SOL     OW25120   3.988   4.155  14.680 -0.0083  0.0108 -0.0726
 4495SOL    HW125121   3.901   4.115  14.675 -0.7612  1.3909  1.9651
 4495SOL    HW225122   4.003   4.183  14.589 -3.6510 -1.4619 -1.1313
 4496SOL     OW25123   0.935   3.232   3.795  0.5550 -0.3202  0.0287
 4496SOL    HW125124   0.949   3.252   3.703 -0.5120  0.8700  0.1283
 4496SOL    HW225125   0.872   3.161   3.798 -0.8958  0.9247 -1.0851
 4497SOL     OW25126   0.491   2.087  10.806 -0.2482 -0.0899 -0.6726
 4497SOL    HW125127   0.552   2.040  10.749 -0.9675 -1.7059 -0.1285
 4497SOL    HW225128   0.541   2.164  10.831  2.3965 -1.8590 -0.4845
 4498SOL     OW25129   3.810   3.384   7.736  0.1124  0.1014  0.0980
 4498SOL    HW125130   3.782   3.416   7.650  0.1066  0.1240  0.1081
 4498SOL    HW225131   3.735   3.396   7.794  2.0987 -1.8705  3.0597
 4499SOL     OW25132   4.515   3.127   3.176 -0.8855  0.4332  0.4939
 4499SOL    HW125133   4.427   3.138   3.140 -0.5391  0.7341 -0.2513
 4499SOL    HW225134   4.558   3.089   3.099  1.2101  0.9056  1.4414
 4500SOL     OW25135   0.682   2.699   0.863 -0.6918 -0.1695  0.0707
 4500SOL    HW125136   0.613   2.698   0.929  0.0461  0.8104  0.8505
 4500SOL    HW225137   0.764   2.711   0.910 -0.5656 -1.3708  0.1578
 4501SOL     OW25138   0.255   0.604   8.304 -0.2981  0.4930 -0.4017
 4501SOL    HW125139   0.214   0.687   8.282  1.2356  0.8733 -1.8286
 4501SOL    HW225140   0.191   0.562   8.362 -1.4432  0.8012 -1.4430
 4502SOL     OW25141   3.729   3.107  15.382  0.2286  0.0531  0.6408
 4502SOL    HW125142   3.641   3.068  15.377  1.0858 -1.9350  1.0437
 4502SOL    HW225143   3.780   3.054  15.322 -1.0836  0.2231 -0.6309
 4503SOL     OW25144   2.083   2.909   8.499 -0.7963  0.4485 -0.0999
 4503SOL    HW125145   2.043   2.995   8.512  0.6501  1.1830 -0.5225
 4503SOL    HW225146   2.175   2.923   8.520 -0.9134 -0.7367  1.1640
 4504SOL     OW25147   3.686   0.577   2.621 -0.2394 -0.2861  0.3521
 4504SOL    HW125148   3.751   0.524   2.668  1.2018  1.2914  0.1368
 4504SOL    HW225149   3.758   0.637   2.599 -0.1708 -1.0240 -1.4190
 4505SOL     OW25150   0.103   0.788  12.394  0.2712 -0.0852 -0.4308
 4505SOL    HW125151   0.061   0.869  12.425  0.4504  1.1841 -3.4798
 4505SOL    HW225152   0.182   0.830  12.360 -0.8980  2.9324  0.4786
 4506SOL     OW25153   3.125   2.668   5.098  0.0241 -0.2488 -0.2709
 4506SOL    HW125154   3.058   2.611   5.135  1.0134 -0.3932  1.3131
 4506SOL    HW225155   3.202   2.631   5.141  0.8885 -0.3313 -1.9146
 4507SOL     OW25156   0.405   0.972  15.292 -0.1747 -0.5323  0.1590
 4507SOL    HW125157   0.430   0.933  15.376  2.4391 -0.5297 -0.6407
 4507SOL    HW225158   0.471   1.037  15.271  1.2723 -2.9620 -2.8897
 4508SOL     OW25159   1.920   4.574  11.145 -0.2498  0.3128  0.4257
 4508SOL    HW125160   1.973   4.495  11.140  1.3555  1.3448  1.0852
 4508SOL    HW225161   1.950   4.620  11.224 -3.9153  2.1871  0.7181
 4509SOL     OW25162   0.375   1.420   3.463 -0.3294 -0.0702 -0.5077
 4509SOL    HW125163   0.429   1.368   3.403 -0.6003  0.0252 -0.8394
 4509SOL    HW225164   0.380   1.502   3.415  1.1082 -0.4581 -1.0366
 4510SOL     OW25165   3.315   1.627   2.135  0.4267 -0.1845  0.6927
 4510SOL    HW125166   3.255   1.570   2.087 -0.0836  1.1897 -0.3145
 4510SOL    HW225167   3.269   1.634   2.219  0.5076 -0.2206  0.7402
 4511SOL     OW25168   3.825   3.803  16.934 -0.0995  0.2880  0.1404
 4511SOL    HW125169   3.799   3.750  17.010  0.1873  2.3232  1.6416
 4511SOL    HW225170   3.795   3.889  16.961 -0.8643 -0.1288  0.6207
 4512SOL     OW25171   2.585   2.850   4.626  0.0271  0.0803  0.0086
 4512SOL    HW125172   2.563   2.815   4.712  0.8630 -0.7212 -0.1102
 4512SOL    HW225173   2.629   2.773   4.591  0.1159  0.1849 -0.1098
 4513SOL     OW25174   1.026   4.308   4.853 -0.5908 -0.2658 -0.1657
 4513SOL    HW125175   1.104   4.350   4.815 -1.6812  1.9409  0.0491
 4513SOL    HW225176   0.959   4.376   4.858  0.0467  0.2307  1.7085
 4514SOL     OW25177   4.436   2.779   1.097  0.0229 -0.6331 -0.3502
 4514SOL    HW125178   4.455   2.786   1.190 -1.5814  0.6230 -0.1234
 4514SOL    HW225179   4.368   2.711   1.096  0.3352 -0.9715  3.3355
 4515SOL     OW25180   1.643   4.726   2.023 -0.0212  0.4028  0.1933
 4515SOL    HW125181   1.681   4.733   2.111  0.7431 -0.3390 -0.0760
 4515SOL    HW225182   1.647   4.631   2.013 -2.3830  0.1701  1.3346
 4516SOL     OW25183   4.222   2.777   8.512  0.6329  0.9809 -0.3956
 4516SOL    HW125184   4.260   2.836   8.577 -0.5851 -2.0519  3.0952
 4516SOL    HW225185   4.132   2.781   8.547  0.3403  1.1078 -1.1724
 4517SOL     OW25186   0.679   1.293   0.945  0.5984  0.2702 -0.2091
 4517SOL    HW125187   0.725   1.362   0.898  0.6688 -0.5947 -1.4276
 4517SOL    HW225188   0.734   1.266   1.018 -1.7184 -0.4937  1.2547
 4518SOL     OW25189   3.399   1.413   7.854  0.3654 -0.1047 -0.4262
 4518SOL    HW125190   3.336   1.421   7.782  1.4229  1.8758 -1.1462
 4518SOL    HW225191   3.392   1.502   7.890  0.6741 -0.7368  1.1728
 4519SOL     OW25192   0.361   0.167   3.780  0.3257 -0.3337 -0.6307
 4519SOL    HW125193   0.406   0.191   3.861 -1.5569 -0.5060  0.4564
 4519SOL    HW225194   0.271   0.196   3.794  0.4143  0.8270 -2.4505
 4520SOL     OW25195   3.517   2.588  16.869  0.0650 -0.5079 -0.1697
 4520SOL    HW125196   3.437   2.539  16.886 -0.3230  0.7248  1.4705
 4520SOL    HW225197   3.574   2.544  16.932  0.3843 -0.1113 -0.1854
 4521SOL     OW25198   4.329   1.590   2.409 -0.1880  0.4090  0.8201
 4521SOL    HW125199   4.240   1.593   2.375 -0.4845 -0.2657  1.5426
 4521SOL    HW225200   4.322   1.535   2.487 -0.2023  0.0351  0.5548
 4522SOL     OW25201   0.022   1.246   7.241 -0.3716 -0.4295  0.2023
 4522SOL    HW125202   0.005   1.304   7.316 -1.6978 -0.4785 -0.0728
 4522SOL    HW225203   0.023   1.166   7.294  0.1699 -0.2192  0.5102
 4523SOL     OW25204   3.191   2.560   3.466 -0.3954 -0.1799 -0.1066
 4523SOL    HW125205   3.210   2.466   3.460 -3.5262 -0.8760  0.8111
 4523SOL    HW225206   3.143   2.563   3.383  0.6198 -1.0437 -0.7274
 4524SOL     OW25207   4.118   3.843   7.165 -0.5121 -0.8717 -0.1241
 4524SOL    HW125208   4.203   3.823   7.202 -0.3841 -1.3228 -0.6599
 4524SOL    HW225209   4.067   3.850   7.246 -0.2969  1.2281 -0.1593
 4525SOL     OW25210   1.461   4.331   9.859  0.6079  0.1191  0.2278
 4525SOL    HW125211   1.389   4.272   9.837  1.6726 -0.4901 -1.5295
 4525SOL    HW225212   1.445   4.334   9.953 -1.2429  2.7483 -0.1406
 4526SOL     OW25213   2.470   4.394   3.268 -0.3287 -0.6764 -0.4554
 4526SOL    HW125214   2.560   4.368   3.288 -1.0405 -3.3791 -0.8155
 4526SOL    HW225215   2.452   4.469   3.324 -1.2507 -0.2869 -1.2721
 4527SOL     OW25216   4.312   1.054   8.945  0.1588 -0.2190  0.1617
 4527SOL    HW125217   4.390   1.100   8.914  0.2815 -0.5004  0.0533
 4527SOL    HW225218   4.239   1.102   8.906 -1.0405 -2.2814 -0.1364
 4528SOL     OW25219   1.532   0.596   3.841  0.1443  0.5066 -0.0106
 4528SOL    HW125220   1.533   0.662   3.910 -0.5021 -0.0440  0.5213
 4528SOL    HW225221   1.460   0.544   3.876  0.6672 -0.7102 -0.7414
 4529SOL     OW25222   3.657   0.579   2.986  0.1532 -0.1184  0.0300
 4529SOL    HW125223   3.714   0.655   2.998  3.1287 -3.0096  4.0792
 4529SOL    HW225224   3.586   0.627   2.944 -0.4249 -1.5104 -0.5885
 4530SOL     OW25225   2.381   4.560   7.811  0.1772 -0.6423 -0.5219
 4530SOL    HW125226   2.429   4.484   7.847 -0.4418 -0.8924 -0.2344
 4530SOL    HW225227   2.332   4.590   7.887 -1.6566 -2.0557 -1.1637
 4531SOL     OW25228   3.847   2.750  16.604  0.1608 -0.3254  0.3167
 4531SOL    HW125229   3.802   2.785  16.527  0.0311  0.0370  0.5587
 4531SOL    HW225230   3.770   2.744  16.660  0.4132 -1.2871  0.5532
 4532SOL     OW25231   0.365   4.591   1.615  0.3031 -0.5278  0.0130
 4532SOL    HW125232   0.388   4.547   1.533  1.6077 -1.3597  0.8328
 4532SOL    HW225233   0.389   4.518   1.672  1.8316 -1.4761 -1.8424
 4533SOL     OW25234   0.006   2.954   5.367 -0.2321  0.6670  0.4870
 4533SOL    HW125235   4.680   2.941   5.441 -0.0021  0.9365  0.7227
 4533SOL    HW225236   4.684   2.971   5.292  1.7788  1.5190 -0.8093
 4534SOL     OW25237   4.412   1.558  16.995  0.4070  0.2565  0.3002
 4534SOL    HW125238   4.466   1.480  17.001  0.4926  0.4867  2.3502
 4534SOL    HW225239   4.475   1.616  16.952  0.7625 -1.3137 -1.2978
 4535SOL     OW25240   3.442   4.183   7.173  0.2734  0.0325  0.4890
 4535SOL    HW125241   3.407   4.174   7.262  0.2472  1.8233  0.6550
 4535SOL    HW225242   3.402   4.266   7.148 -0.6476 -0.6789 -0.3989
 4536SOL     OW25243   2.560   0.278   4.095  0.1108 -0.6262 -0.1241
 4536SOL    HW125244   2.564   0.182   4.087  0.7524 -0.5415 -0.7752
 4536SOL    HW225245   2.519   0.292   4.180  1.1459  1.0246  0.0886
 4537SOL     OW25246   1.727   2.311  15.481  0.2973  0.1962  0.1264
 4537SOL    HW125247   1.811   2.299  15.525  0.0951  2.0398  0.9854
 4537SOL    HW225248   1.675   2.237  15.513  0.4704 -0.4339 -1.0331
 4538SOL     OW25249   4.601   4.352   7.656 -0.2042 -0.1918 -0.3165
 4538SOL    HW125250   4.601   4.273   7.710  1.5115  0.4300  0.6033
 4538SOL    HW225251   4.647   4.412   7.714 -0.8610 -0.3726  0.3991
 4539SOL     OW25252   4.287   1.053   6.041  0.8146 -0.2329 -0.1509
 4539SOL    HW125253   4.252   0.966   6.060 -2.1723  0.8890 -0.6510
 4539SOL    HW225254   4.279   1.068   5.947  1.1356 -0.9110 -0.2820
 4540SOL     OW25255   3.065   0.019   2.383 -0.2217 -0.0731  0.2350
 4540SOL    HW125256   3.082   4.672   2.336 -2.0774 -0.8185  0.8473
 4540SOL    HW225257   2.995   4.724   2.442  0.4850 -0.8029  0.6967
 4541SOL     OW25258   0.015   0.983   2.336  0.4894 -0.1877  0.1943
 4541SOL    HW125259   4.682   1.049   2.322  1.8076  1.2145  0.3680
 4541SOL    HW225260   0.041   0.997   2.427  0.7519 -0.5235  0.1731
 4542SOL     OW25261   3.054   4.024   4.943 -0.4634  0.5636 -0.1499
 4542SOL    HW125262   3.135   3.978   4.963  0.4385  1.1999 -2.3002
 4542SOL    HW225263   3.034   4.070   5.025  0.1663  0.6071 -0.0170
 4543SOL     OW25264   3.502   4.261  14.913  0.3215 -0.3440  0.3781
 4543SOL    HW125265   3.501   4.267  14.817 -2.9717 -1.5051  0.3486
 4543SOL    HW225266   3.583   4.311  14.920  1.8143 -2.5617 -1.0276
 4544SOL     OW25267   4.348   2.150   2.347 -0.3127  0.0009 -0.0244
 4544SOL    HW125268   4.412   2.123   2.281 -0.0836  0.6554 -0.0762
 4544SOL    HW225269   4.278   2.194   2.299  1.4968  0.3078 -2.4496
 4545SOL     OW25270   1.711   1.940  12.888  0.2238  0.3356 -0.1808
 4545SOL    HW125271   1.731   1.892  12.807  3.7719 -0.0564  0.9413
 4545SOL    HW225272   1.792   1.919  12.934 -0.2354 -0.8869  0.0651
 4546SOL     OW25273   3.886   2.171  13.549 -0.0890  0.0965 -0.1079
 4546SOL    HW125274   3.944   2.155  13.474  0.1263  1.5904 -0.2665
 4546SOL    HW225275   3.966   2.180  13.601 -0.6049  3.0512  0.1759
 4547SOL     OW25276   2.320   2.740   6.327 -0.2572  0.5264  0.1821
 4547SOL    HW125277   2.294   2.763   6.416  0.7272  0.1469  0.5751
 4547SOL    HW225278   2.412   2.765   6.315  0.5335 -1.5342  2.0282
 4548SOL     OW25279   4.106   0.830  12.422 -0.4533  0.8234  0.3679
 4548SOL    HW125280   4.072   0.746  12.389 -0.3066  0.6569  0.6420
 4548SOL    HW225281   4.040   0.846  12.489  0.3123  0.8206  1.1133
 4549SOL     OW25282   2.931   3.708   6.306  0.1311  0.3478 -0.2183
 4549SOL    HW125283   2.888   3.752   6.232  0.3230 -1.4936 -1.4067
 4549SOL    HW225284   2.851   3.695   6.356 -0.4802 -1.6311 -1.7218
 4550SOL     OW25285   4.192   3.180   7.213 -0.3394 -0.1771  0.2614
 4550SOL    HW125286   4.276   3.199   7.255 -0.3105  0.5136 -0.1112
 4550SOL    HW225287   4.127   3.154   7.278 -2.7459 -0.3176 -2.2129
 4551SOL     OW25288   1.429   3.884   4.919 -0.1679 -0.4532 -0.0276
 4551SOL    HW125289   1.426   3.916   5.009  1.5082 -0.3751  0.0009
 4551SOL    HW225290   1.335   3.895   4.904  0.0586 -2.3572 -2.9296
 4552SOL     OW25291   0.373   3.477   1.853 -0.2275 -0.3192 -0.5961
 4552SOL    HW125292   0.340   3.556   1.810 -0.0410 -1.7067 -3.2480
 4552SOL    HW225293   0.458   3.510   1.884 -1.7795  2.1666  1.0287
 4553SOL     OW25294   3.119   1.474   2.026  0.3812  0.4815 -0.7598
 4553SOL    HW125295   3.085   1.444   1.941 -1.1575 -1.2109  0.4473
 4553SOL    HW225296   3.056   1.544   2.043  3.2734  2.8339  0.2808
 4554SOL     OW25297   3.692   2.691   1.450 -0.0849 -0.4485 -0.5893
 4554SOL    HW125298   3.783   2.695   1.420  0.5334 -3.1748  0.9390
 4554SOL    HW225299   3.688   2.598   1.474 -2.8918 -0.3330 -0.6462
 4555SOL     OW25300   4.022   0.876  17.278 -0.4696  0.5043 -0.0591
 4555SOL    HW125301   4.027   0.789  17.238 -2.8441 -0.2460  1.2819
 4555SOL    HW225302   4.019   0.854  17.371 -1.6000 -0.0402 -0.2311
 4556SOL     OW25303   4.542   2.211   9.850 -1.3857  0.2905  0.0281
 4556SOL    HW125304   4.472   2.177   9.795 -2.4040  1.8417  0.3469
 4556SOL    HW225305   4.615   2.197   9.790 -1.6189  0.8489 -0.3789
 4557SOL     OW25306   3.067   0.387   1.724 -0.3132  0.1784  0.1885
 4557SOL    HW125307   2.988   0.333   1.722 -0.5675  0.5595  0.0672
 4557SOL    HW225308   3.033   0.448   1.789 -1.8544 -0.4932  0.0032
 4558SOL     OW25309   2.037   0.593   3.784  0.0320 -0.0892 -0.4484
 4558SOL    HW125310   2.105   0.546   3.832 -0.2096 -0.4994 -0.5067
 4558SOL    HW225311   2.048   0.558   3.695  0.3851  0.1117 -0.4825
 4559SOL     OW25312   1.357   3.128   0.469 -0.4226 -0.5468  0.4632
 4559SOL    HW125313   1.348   3.177   0.550  0.7034 -0.1714  0.3676
 4559SOL    HW225314   1.373   3.200   0.407  0.5859 -1.9044 -0.8643
 4560SOL     OW25315   1.252   2.355  15.361 -0.1605 -0.3132  0.2009
 4560SOL    HW125316   1.170   2.377  15.405  0.7913  3.1386  0.1931
 4560SOL    HW225317   1.256   2.425  15.296  0.5653  0.6239  1.2654
 4561SOL     OW25318   3.852   3.080  16.142  0.0572 -0.5943  0.0562
 4561SOL    HW125319   3.915   3.067  16.213 -0.0153  0.0356  0.2365
 4561SOL    HW225320   3.906   3.082  16.063  1.2247  1.3558  0.8931
 4562SOL     OW25321   3.185   4.651   7.279  0.1036 -0.8903 -0.3694
 4562SOL    HW125322   3.149   4.672   7.193  0.9029 -1.7908 -0.9131
 4562SOL    HW225323   3.127   4.580   7.307 -1.5201  1.1141  1.3698
 4563SOL     OW25324   2.747   2.710   2.155 -0.5319  0.0520  0.2399
 4563SOL    HW125325   2.839   2.726   2.177 -0.6638  1.3892 -0.1542
 4563SOL    HW225326   2.710   2.656   2.225  1.9896  1.1086  2.3996
 4564SOL     OW25327   2.711   3.918   7.772  0.3538  0.2119 -0.0128
 4564SOL    HW125328   2.784   3.886   7.720  1.1711  0.2023  1.1466
 4564SOL    HW225329   2.674   3.843   7.818  1.6790 -0.7974 -0.6063
 4565SOL     OW25330   1.797   3.173  11.893  0.1606 -0.2341 -0.0411
 4565SOL    HW125331   1.853   3.124  11.832  0.5225  0.6487 -0.4254
 4565SOL    HW225332   1.741   3.107  11.933  0.4976  1.0347  2.5407
 4566SOL     OW25333   0.838   2.407   5.987 -0.1375 -0.0993 -0.3699
 4566SOL    HW125334   0.890   2.390   6.065 -1.1306  2.4803  0.8717
 4566SOL    HW225335   0.755   2.360   5.996 -0.2512  0.1873  0.0672
 4567SOL     OW25336   2.476   0.339  16.514 -0.8447  0.2223 -0.0395
 4567SOL    HW125337   2.490   0.244  16.517 -0.8447  0.1667 -1.7397
 4567SOL    HW225338   2.491   0.362  16.606 -1.8103  0.4181  0.0632
 4568SOL     OW25339   0.519   2.427   2.976  0.3811 -0.1576  0.0524
 4568SOL    HW125340   0.521   2.520   2.952 -2.1536 -0.2678 -0.5903
 4568SOL    HW225341   0.609   2.399   2.962 -0.5270 -1.2369 -3.7504
 4569SOL     OW25342   1.474   3.338   6.816  0.5165 -0.1100 -0.6256
 4569SOL    HW125343   1.397   3.389   6.793 -1.9618 -4.1742 -1.3429
 4569SOL    HW225344   1.510   3.399   6.880  2.5914 -0.0401 -1.8661
 4570SOL     OW25345   0.332   2.245   2.861  0.1796 -0.0668 -0.0641
 4570SOL    HW125346   0.347   2.262   2.768  1.4904  3.2995  0.7520
 4570SOL    HW225347   0.397   2.304   2.898  0.1970  0.8981 -1.6408
 4571SOL     OW25348   4.178   4.225   4.579 -0.3849 -0.0937  0.0945
 4571SOL    HW125349   4.118   4.178   4.521 -0.8958 -0.4370  0.9040
 4571SOL    HW225350   4.223   4.274   4.510 -0.0068  1.4600  1.4480
 4572SOL     OW25351   1.832   1.926   7.361  0.2429 -0.4404 -0.2409
 4572SOL    HW125352   1.788   1.935   7.445 -1.6794  3.2948 -1.6570
 4572SOL    HW225353   1.924   1.916   7.385  0.2218  0.8176  0.3718
 4573SOL     OW25354   4.140   1.084  10.055 -0.0973  0.2400 -0.2815
 4573SOL    HW125355   4.170   1.171  10.030  2.0781  0.0281  1.6317
 4573SOL    HW225356   4.216   1.046  10.012  0.3556  2.6461 -1.6182
 4574SOL     OW25357   2.715   4.550   4.565 -0.3441  0.0409 -0.2414
 4574SOL    HW125358   2.738   4.490   4.494 -3.4827 -2.8881  1.2066
 4574SOL    HW225359   2.757   4.511   4.642 -0.9119  1.6375  0.8726
 4575SOL     OW25360   0.301   3.973   5.802  0.6306 -0.3556 -0.3871
 4575SOL    HW125361   0.304   3.986   5.707  0.2747 -1.6351 -0.5682
 4575SOL    HW225362   0.293   4.062   5.837  1.1137 -1.3156  2.2089
 4576SOL     OW25363   0.132   0.534   6.750  0.3151  0.0501  0.0115
 4576SOL    HW125364   0.095   0.509   6.666 -0.7478  0.7625  0.2622
 4576SOL    HW225365   0.156   0.458   6.803  2.5369  0.5886 -0.2263
 4577SOL     OW25366   0.297   3.211  15.350  0.0440  0.1929  0.1248
 4577SOL    HW125367   0.279   3.127  15.309 -1.0702  0.6934 -0.4087
 4577SOL    HW225368   0.308   3.283  15.288 -2.7130  1.6609  1.3088
 4578SOL     OW25369   2.626   0.494  13.762  0.4434  0.5915  0.3953
 4578SOL    HW125370   2.709   0.525  13.726  0.0812  1.0360 -0.0507
 4578SOL    HW225371   2.651   0.415  13.809 -0.9727  0.0562  0.2451
 4579SOL     OW25372   4.413   2.828  10.263 -0.1174 -0.4702 -0.0935
 4579SOL    HW125373   4.403   2.864  10.351  0.1272  0.6712 -0.5257
 4579SOL    HW225374   4.505   2.803  10.269 -0.1415 -0.6624 -0.5156
 4580SOL     OW25375   0.905   4.283   2.129  1.0049 -0.1785  0.1474
 4580SOL    HW125376   0.843   4.211   2.116  0.9526 -0.1209  0.0774
 4580SOL    HW225377   0.877   4.302   2.218  1.6603  0.5784  0.1892
 4581SOL     OW25378   1.520   3.444   3.234 -0.0324 -0.4631 -0.1199
 4581SOL    HW125379   1.534   3.433   3.140  0.7416  0.2935 -0.1014
 4581SOL    HW225380   1.588   3.506   3.262 -0.0927 -0.1097 -0.7608
 4582SOL     OW25381   3.446   2.263  12.854 -0.3845 -0.3485 -0.1852
 4582SOL    HW125382   3.388   2.188  12.860  1.0949 -1.6423 -2.0880
 4582SOL    HW225383   3.380   2.331  12.844  0.3739  0.2801 -0.9650
 4583SOL     OW25384   2.884   3.989   3.124 -0.4760 -0.6376  0.3636
 4583SOL    HW125385   2.792   3.968   3.109 -0.3405 -2.5344  2.2084
 4583SOL    HW225386   2.887   3.999   3.219 -0.4956 -2.4453  0.5501
 4584SOL     OW25387   3.863   2.115  17.306 -0.1806 -0.3661  0.8026
 4584SOL    HW125388   3.850   2.066  17.224 -1.0568  1.0705  0.0781
 4584SOL    HW225389   3.918   2.186  17.274 -1.3800  0.2136  0.0059
 4585SOL     OW25390   0.511   0.850   2.869 -0.9826 -0.1998 -0.4850
 4585SOL    HW125391   0.519   0.889   2.782  0.9482  0.7541  0.1135
 4585SOL    HW225392   0.425   0.883   2.894 -2.1613 -2.3517 -1.6555
 4586SOL     OW25393   2.387   0.850   9.227  0.2088 -0.1755  0.7484
 4586SOL    HW125394   2.349   0.773   9.271  2.0851 -1.4663  0.1077
 4586SOL    HW225395   2.315   0.899   9.188  0.9368 -1.1710 -1.8795
 4587SOL     OW25396   2.659   0.015  13.979  0.1756  0.0698  0.2894
 4587SOL    HW125397   2.589   4.687  13.993  1.1563 -1.2081 -0.5317
 4587SOL    HW225398   2.690   4.725  13.892  3.3233  2.1674  0.8135
 4588SOL     OW25399   1.851   1.605   3.080 -0.1309  0.3613  0.1973
 4588SOL    HW125400   1.853   1.621   3.174 -0.4304  1.7078 -0.0258
 4588SOL    HW225401   1.896   1.521   3.070 -2.5380 -1.3449  3.6057
 4589SOL     OW25402   0.606   3.203   2.894 -0.2560  0.6387  0.7185
 4589SOL    HW125403   0.576   3.266   2.829 -0.0443 -0.3751 -0.3603
 4589SOL    HW225404   0.551   3.126   2.876  1.0797 -0.5642  1.7465
 4590SOL     OW25405   4.457   3.351   2.265 -1.0918  0.5339  0.3978
 4590SOL    HW125406   4.441   3.294   2.340  1.1902 -1.1381 -0.3605
 4590SOL    HW225407   4.370   3.382   2.240 -0.6643  2.7000  1.6248
 4591SOL     OW25408   1.597   0.852   9.995 -0.5965  0.1614  0.3005
 4591SOL    HW125409   1.643   0.872  10.077  2.4221 -0.6999 -1.1917
 4591SOL    HW225410   1.668   0.878   9.936 -0.6602  1.1833  0.6732
 4592SOL     OW25411   4.540   4.035   1.143 -0.0020  0.3206  0.3375
 4592SOL    HW125412   4.570   4.121   1.113 -1.8410  0.2928 -1.6160
 4592SOL    HW225413   4.452   4.040   1.104 -0.5450 -0.6355  1.4215
 4593SOL     OW25414   1.088   1.873  15.145 -0.0415  0.0925 -0.2972
 4593SOL    HW125415   1.115   1.852  15.234 -1.3356 -1.4687 -0.2780
 4593SOL    HW225416   1.144   1.946  15.119  1.1241 -0.9225 -0.6348
 4594SOL     OW25417   3.879   0.548   4.565  0.9426 -0.3572 -0.0135
 4594SOL    HW125418   3.856   0.494   4.640  1.6694 -0.2960  0.2553
 4594SOL    HW225419   3.895   0.629   4.614 -1.5115 -0.9873  1.8427
 4595SOL     OW25420   2.657   2.778   2.436 -0.3236  0.2226  0.3373
 4595SOL    HW125421   2.565   2.802   2.446 -0.2620  0.9265 -0.7663
 4595SOL    HW225422   2.647   2.689   2.402  2.0656 -0.2132  0.7715
 4596SOL     OW25423   1.567   2.825   2.016  0.0490 -0.3024 -0.2979
 4596SOL    HW125424   1.639   2.855   1.959  0.4682 -1.6138 -0.4721
 4596SOL    HW225425   1.567   2.896   2.080  2.3762  0.1869 -0.8168
 4597SOL     OW25426   4.232   0.611   7.154 -0.2780 -0.6549  0.5496
 4597SOL    HW125427   4.185   0.665   7.091  0.5058 -0.3299  0.2449
 4597SOL    HW225428   4.182   0.636   7.232 -1.3430  1.0099 -0.6736
 4598SOL     OW25429   3.423   0.261   4.891 -0.3944  0.1142  0.3001
 4598SOL    HW125430   3.484   0.274   4.963 -0.9277  0.0116  0.7666
 4598SOL    HW225431   3.478   0.279   4.814 -0.3956 -0.5351  0.1478
 4599SOL     OW25432   0.923   4.511  13.895 -0.1785  0.0143 -0.0332
 4599SOL    HW125433   0.963   4.439  13.845  0.0661  0.4009 -0.3872
 4599SOL    HW225434   0.997   4.570  13.907  1.5269 -2.5004  1.9307
 4600SOL     OW25435   3.047   2.308   3.861  0.0325 -0.1338 -0.1792
 4600SOL    HW125436   3.125   2.290   3.913 -0.2999 -0.5424  0.1797
 4600SOL    HW225437   2.996   2.361   3.924  2.1491  1.3938  0.2428
 4601SOL     OW25438   1.530   0.765   6.453 -0.8292  0.2622  0.2307
 4601SOL    HW125439   1.577   0.807   6.380 -2.8885  0.4707 -0.9844
 4601SOL    HW225440   1.531   0.673   6.428  1.9235  0.2563  0.3488
 4602SOL     OW25441   3.533   0.574   8.356 -0.3801  0.3328 -0.2461
 4602SOL    HW125442   3.598   0.583   8.286  1.6799  0.5255  1.7047
 4602SOL    HW225443   3.492   0.493   8.327  0.1897 -0.5137  1.3160
 4603SOL     OW25444   3.197   2.110   7.503  0.1133  0.0354 -0.6724
 4603SOL    HW125445   3.255   2.097   7.428  2.4696  2.8674  0.6225
 4603SOL    HW225446   3.263   2.129   7.570  2.8930 -1.8199 -2.9406
 4604SOL     OW25447   1.493   0.900   4.662  0.4335 -0.1869 -0.4346
 4604SOL    HW125448   1.467   0.812   4.632 -1.3811 -0.3841  1.7893
 4604SOL    HW225449   1.420   0.948   4.701 -0.8656 -1.2770 -1.5300
 4605SOL     OW25450   0.415   3.178   9.918  0.9549  0.0024  0.2687
 4605SOL    HW125451   0.390   3.139   9.835  3.6549  0.8390 -0.9526
 4605SOL    HW225452   0.478   3.109   9.941  0.0390 -0.2588  2.0429
 4606SOL     OW25453   2.568   2.417  16.312 -0.2876 -0.4075  0.5375
 4606SOL    HW125454   2.653   2.383  16.284 -0.0531  0.0319  0.7194
 4606SOL    HW225455   2.572   2.413  16.408  1.3713 -0.9075  0.4607
 4607SOL     OW25456   3.057   2.977   6.713  0.0790  0.5879 -0.2048
 4607SOL    HW125457   2.982   3.037   6.715 -2.9999 -3.1789 -1.6773
 4607SOL    HW225458   3.127   3.039   6.732 -1.0193  1.3438  1.4810
 4608SOL     OW25459   3.111   1.819  13.226  0.6386 -0.1137  0.2789
 4608SOL    HW125460   3.168   1.893  13.203  0.2064 -0.7238 -2.7841
 4608SOL    HW225461   3.174   1.748  13.214  1.4522  0.6189  0.1209
 4609SOL     OW25462   2.175   0.947   3.046  0.0105 -0.0569  0.4309
 4609SOL    HW125463   2.250   0.973   2.993  0.3474 -1.1844  0.3360
 4609SOL    HW225464   2.131   0.887   2.986  1.8131 -1.0627  0.1086
 4610SOL     OW25465   1.713   4.666  16.103 -0.0447 -0.2182 -0.3090
 4610SOL    HW125466   1.683   0.014  16.142 -1.6364 -0.4976 -0.9543
 4610SOL    HW225467   1.809   4.671  16.107 -0.1779  1.3076  1.6120
 4611SOL     OW25468   0.284   1.132   8.720  0.6551  0.5577 -0.0391
 4611SOL    HW125469   0.359   1.077   8.696  0.9245  0.6604  0.5685
 4611SOL    HW225470   0.207   1.082   8.690  1.6247 -0.8794 -0.1585
 4612SOL     OW25471   0.500   0.334   1.902 -0.2385 -0.1592  1.4099
 4612SOL    HW125472   0.550   0.311   1.980 -1.0200  1.1193  2.2985
 4612SOL    HW225473   0.573   0.351   1.843  0.3550 -0.3974  2.0821
 4613SOL     OW25474   3.265   2.423   4.557  0.2702 -0.1264 -0.0112
 4613SOL    HW125475   3.358   2.428   4.582  0.0041  1.7018  0.5965
 4613SOL    HW225476   3.226   2.505   4.589  0.9118  0.7728 -1.5274
 4614SOL     OW25477   4.010   1.033   9.049 -0.8577  0.5794 -0.1430
 4614SOL    HW125478   4.055   1.003   9.129 -0.2289 -0.9911 -1.0742
 4614SOL    HW225479   3.993   0.947   9.010  2.2237 -0.4043  0.6202
 4615SOL     OW25480   3.531   2.653  11.871 -0.3099 -0.3029 -0.4147
 4615SOL    HW125481   3.465   2.609  11.924 -0.7069  1.5093  0.6161
 4615SOL    HW225482   3.485   2.720  11.819 -0.6835 -0.0958  0.1775
 4616SOL     OW25483   1.795   2.869  16.060  0.3348 -0.1796 -0.5718
 4616SOL    HW125484   1.710   2.826  16.068  0.3499  0.0471  0.7681
 4616SOL    HW225485   1.789   2.935  16.130 -0.3223  0.2033 -0.9838
 4617SOL     OW25486   2.657   1.525   4.229  0.3529  0.1240  0.2824
 4617SOL    HW125487   2.751   1.507   4.232  0.5401  1.4310  1.8835
 4617SOL    HW225488   2.639   1.491   4.141 -1.1494 -1.9361  1.3958
 4618SOL     OW25489   2.964   2.387   2.039  0.5867  0.3815 -0.0930
 4618SOL    HW125490   2.966   2.305   1.990 -0.8453  2.0977 -3.0442
 4618SOL    HW225491   2.871   2.384   2.061  0.6265 -2.6046 -0.3607
 4619SOL     OW25492   3.251   1.316   6.676  0.5533  0.5096 -0.4970
 4619SOL    HW125493   3.254   1.245   6.611 -0.3011 -1.5064  1.6567
 4619SOL    HW225494   3.345   1.325   6.690  0.5788  1.2701 -1.1849
 4620SOL     OW25495   1.936   2.582   1.916 -0.3055  0.5036  0.4285
 4620SOL    HW125496   1.916   2.489   1.909 -0.2786  0.6460 -1.5323
 4620SOL    HW225497   1.900   2.614   1.834 -3.8913 -0.6340  1.5716
 4621SOL     OW25498   0.074   1.577  16.328  0.8863 -0.0356  0.1784
 4621SOL    HW125499   0.131   1.509  16.291 -0.1859  0.6700 -2.8172
 4621SOL    HW225500   0.045   1.536  16.409  2.5465 -1.3082  0.1364
 4622SOL     OW25501   3.115   1.242  16.895  0.1758 -0.1747 -0.1365
 4622SOL    HW125502   3.131   1.182  16.968  0.5155 -2.3420 -1.9940
 4622SOL    HW225503   3.140   1.194  16.816 -0.1696 -0.2627 -0.1926
 4623SOL     OW25504   2.077   2.877   9.174 -0.1969 -0.2556  0.3139
 4623SOL    HW125505   2.097   2.785   9.154 -0.0191  0.2408 -1.7126
 4623SOL    HW225506   2.081   2.919   9.088  0.9175  1.3239  1.1322
 4624SOL     OW25507   2.154   2.789   5.904 -0.8723 -0.6776 -0.0824
 4624SOL    HW125508   2.146   2.759   5.994 -4.4250  1.2647  0.2410
 4624SOL    HW225509   2.140   2.704   5.862  0.1271 -0.4152 -0.9313
 4625SOL     OW25510   2.112   2.940   3.647 -0.0364  0.3461 -0.4913
 4625SOL    HW125511   2.065   2.861   3.674 -2.5187  2.0828  0.2493
 4625SOL    HW225512   2.057   2.976   3.578 -0.4415 -0.8145 -0.7814
 4626SOL     OW25513   0.431   3.035   9.353  0.2739  0.0386  0.1261
 4626SOL    HW125514   0.523   3.012   9.366 -0.2479 -2.6412 -0.8230
 4626SOL    HW225515   0.431   3.022   9.258  0.0218 -1.1276  0.2799
 4627SOL     OW25516   2.568   1.288   5.437  0.6582  0.1049 -0.2405
 4627SOL    HW125517   2.613   1.225   5.381 -0.5670  1.1450 -2.4055
 4627SOL    HW225518   2.624   1.365   5.450  1.1325  0.0781 -2.1892
 4628SOL     OW25519   2.953   0.680   3.718  0.0581 -0.0084  0.2521
 4628SOL    HW125520   2.914   0.662   3.804 -0.1842  2.5434  0.6566
 4628SOL    HW225521   2.880   0.656   3.660 -1.1216  2.3872  0.7262
 4629SOL     OW25522   3.610   3.353  11.521 -0.3178  0.2431  0.0306
 4629SOL    HW125523   3.527   3.383  11.484 -0.4795 -0.3045 -0.0475
 4629SOL    HW225524   3.647   3.439  11.541  0.2194 -0.2968  1.3830
 4630SOL     OW25525   0.651   2.644   5.014 -0.1999 -0.1786  0.3787
 4630SOL    HW125526   0.733   2.682   5.046 -0.0548  1.1620 -1.5988
 4630SOL    HW225527   0.666   2.651   4.920 -1.5563  0.2646  0.1862
 4631SOL     OW25528   1.801   3.208   9.387 -0.8051  0.4728 -0.1632
 4631SOL    HW125529   1.851   3.267   9.443  0.1673  0.1120 -0.6568
 4631SOL    HW225530   1.744   3.161   9.449 -3.0250  2.0910 -0.9857
 4632SOL     OW25531   0.774   2.022   2.547  0.0528 -0.1406  0.0772
 4632SOL    HW125532   0.750   2.015   2.455 -0.5784  0.4678  0.1967
 4632SOL    HW225533   0.862   2.058   2.540  0.0472 -0.0945  0.2402
 4633SOL     OW25534   0.546   4.707  12.570 -0.1182 -0.2277 -0.0049
 4633SOL    HW125535   0.565   4.719  12.663  0.8188 -0.2817 -0.1900
 4633SOL    HW225536   0.451   4.717  12.562 -0.3054 -2.8117 -0.9918
 4634SOL     OW25537   1.218   1.277   1.006  0.1534 -0.0773  0.1541
 4634SOL    HW125538   1.262   1.192   1.007  1.1207  0.4153 -0.0855
 4634SOL    HW225539   1.141   1.244   0.960  0.0805 -2.9149  2.2699
 4635SOL     OW25540   2.492   2.942   4.049 -0.0527 -0.2903 -0.3898
 4635SOL    HW125541   2.428   2.985   4.106 -0.0548 -0.1030 -0.5313
 4635SOL    HW225542   2.439   2.908   3.976  0.2371 -0.3084 -0.5943
 4636SOL     OW25543   4.441   1.310  17.298 -0.0835  0.7323 -1.1771
 4636SOL    HW125544   4.469   1.402  17.297 -0.2462  0.8312  1.5934
 4636SOL    HW225545   4.364   1.314  17.243 -0.2139  0.1502 -1.0394
 4637SOL     OW25546   2.000   2.227   5.692  0.9162 -0.2233 -0.3695
 4637SOL    HW125547   2.061   2.295   5.664  0.3301  1.2297  1.9178
 4637SOL    HW225548   1.922   2.282   5.698  1.2375 -0.0678  2.4291
 4638SOL     OW25549   1.925   4.363  17.525  0.2136 -0.2965  0.3086
 4638SOL    HW125550   1.926   4.451  17.488 -0.3711 -0.6066 -0.4339
 4638SOL    HW225551   1.860   4.322  17.468  0.3461 -0.2332  0.1110
 4639SOL     OW25552   1.741   2.393   6.616  0.6114 -0.2232 -0.2307
 4639SOL    HW125553   1.650   2.395   6.644 -0.1586  1.1090 -2.9268
 4639SOL    HW225554   1.765   2.311   6.659  0.1610 -0.1363  0.1862
 4640SOL     OW25555   2.058   0.916   8.621 -0.0661  0.3819  0.4952
 4640SOL    HW125556   2.122   0.859   8.580  1.5337  1.9916  0.7511
 4640SOL    HW225557   2.105   0.927   8.704  0.7574  3.8686 -0.4433
 4641SOL     OW25558   2.535   0.966   3.092  0.1828 -0.0857 -0.1702
 4641SOL    HW125559   2.605   0.969   3.027  1.2314 -0.5815  0.9372
 4641SOL    HW225560   2.569   1.034   3.150  1.0740 -1.2791  0.7061
 4642SOL     OW25561   2.895   0.604   4.267  0.1751  0.1540  0.3587
 4642SOL    HW125562   2.804   0.596   4.295  0.5221 -1.9364  0.8855
 4642SOL    HW225563   2.942   0.612   4.349  0.4199 -1.5003  0.3790
 4643SOL     OW25564   2.279   2.534   4.454 -0.3865 -0.1508  0.2621
 4643SOL    HW125565   2.213   2.593   4.416 -0.9706 -1.0473 -0.0974
 4643SOL    HW225566   2.323   2.493   4.379 -1.1692 -0.9836  0.2752
 4644SOL     OW25567   4.552   2.850  14.016  0.2470 -0.0051 -0.0951
 4644SOL    HW125568   4.484   2.873  13.953  0.7655  1.0540 -0.2592
 4644SOL    HW225569   4.619   2.910  13.984 -2.5192  3.3901  0.5325
 4645SOL     OW25570   3.324   0.211   6.533  0.1126 -0.0383  0.2268
 4645SOL    HW125571   3.396   0.273   6.524  0.4137 -0.3683  0.3518
 4645SOL    HW225572   3.298   0.218   6.625  0.3266 -0.4754  0.3208
 4646SOL     OW25573   3.511   3.800   3.628  0.0515 -0.1367 -0.5544
 4646SOL    HW125574   3.605   3.811   3.644  0.4062  0.8010 -3.3259
 4646SOL    HW225575   3.497   3.790   3.534  1.2769  0.4524 -0.7936
 4647SOL     OW25576   2.709   0.619   7.742  0.0815  0.3126  0.0318
 4647SOL    HW125577   2.636   0.623   7.680 -1.5057 -0.9467  1.7938
 4647SOL    HW225578   2.683   0.686   7.805 -0.0025  1.2218 -0.9710
 4648SOL     OW25579   4.522   1.850   2.043  0.2333 -0.2859 -0.0462
 4648SOL    HW125580   4.613   1.870   2.021  0.5073 -1.3923  0.0846
 4648SOL    HW225581   4.530   1.807   2.127 -0.3156 -2.3562 -1.0580
 4649SOL     OW25582   1.423   3.611  16.163 -0.0423 -0.2425  0.3805
 4649SOL    HW125583   1.397   3.617  16.071 -0.2522  1.4991  0.5407
 4649SOL    HW225584   1.462   3.524  16.172 -1.0594 -0.7466 -0.0110
 4650SOL     OW25585   0.746   0.365   5.515 -0.2890  0.4804 -0.1990
 4650SOL    HW125586   0.659   0.372   5.555  0.4359  2.9818  0.9087
 4650SOL    HW225587   0.736   0.294   5.451 -0.1743 -0.6885  1.0712
 4651SOL     OW25588   2.648   1.296   2.208  0.0748 -0.3633  0.3567
 4651SOL    HW125589   2.554   1.284   2.226  0.3876 -0.0044  2.1916
 4651SOL    HW225590   2.673   1.355   2.279  0.8890  0.9161 -1.0186
 4652SOL     OW25591   0.527   3.603   3.660  0.9921 -0.5111 -0.4198
 4652SOL    HW125592   0.616   3.638   3.657  0.4503  0.8446 -0.3921
 4652SOL    HW225593   0.497   3.625   3.748 -0.1359 -1.4496 -0.5674
 4653SOL     OW25594   1.399   3.298   1.660 -0.3188  0.3707  0.1952
 4653SOL    HW125595   1.382   3.224   1.602 -0.1439  1.0368 -0.7151
 4653SOL    HW225596   1.335   3.357   1.619  1.1208  2.4565  0.9237
 4654SOL     OW25597   1.869   4.200  16.948 -0.2382 -0.1165 -0.2782
 4654SOL    HW125598   1.812   4.276  16.934  1.1885  0.8488 -0.8934
 4654SOL    HW225599   1.813   4.132  16.912  1.1037  0.0722 -2.7629
 4655SOL     OW25600   3.348   4.581   1.330 -0.2456 -0.2083 -0.1595
 4655SOL    HW125601   3.387   4.495   1.348 -0.2401 -0.0169  0.7396
 4655SOL    HW225602   3.411   4.638   1.374  1.0036 -0.6546 -1.3866
 4656SOL     OW25603   1.555   0.791   8.444  0.0092 -0.0219 -0.2441
 4656SOL    HW125604   1.610   0.740   8.385  1.7457  2.8565 -1.1080
 4656SOL    HW225605   1.613   0.867   8.450 -0.1821  0.2216 -1.5654
 4657SOL     OW25606   1.680   3.261   6.201 -0.3698  0.4951 -0.0431
 4657SOL    HW125607   1.744   3.318   6.243  1.6816 -0.4318 -1.9212
 4657SOL    HW225608   1.638   3.223   6.278 -0.7253  1.4584  0.2441
 4658SOL     OW25609   4.176   2.067   7.970 -0.5618  0.2102  0.2866
 4658SOL    HW125610   4.222   1.983   7.959  0.1245  0.9078 -2.1412
 4658SOL    HW225611   4.117   2.028   8.035 -1.5793  1.1430 -0.0855
 4659SOL     OW25612   1.090   3.758  13.742 -0.1523  0.5588  0.7233
 4659SOL    HW125613   1.150   3.818  13.699  2.0011 -2.0197  0.1450
 4659SOL    HW225614   1.018   3.774  13.681 -0.4496 -0.4499  0.8031
 4660SOL     OW25615   1.669   3.723   5.252 -0.5544  0.0012 -0.3295
 4660SOL    HW125616   1.763   3.740   5.260 -0.3745 -1.7774  1.3635
 4660SOL    HW225617   1.640   3.767   5.331  1.7290 -0.3321  0.6895
 4661SOL     OW25618   2.646   0.346   0.904 -0.1370  0.2006 -0.6163
 4661SOL    HW125619   2.626   0.340   0.998 -0.4543 -1.4429 -0.7787
 4661SOL    HW225620   2.741   0.343   0.898  0.0900  2.1388  1.7664
 4662SOL     OW25621   1.808   1.308   4.470 -0.4956 -0.1959  0.1729
 4662SOL    HW125622   1.892   1.309   4.517 -0.8240  0.7806  0.7267
 4662SOL    HW225623   1.797   1.402   4.457  0.8412  0.0206  0.5888
 4663SOL     OW25624   3.086   0.554   5.117 -0.1152 -0.1680 -0.3597
 4663SOL    HW125625   3.051   0.615   5.182  1.7129 -0.1963  0.6401
 4663SOL    HW225626   3.175   0.585   5.104 -0.9345  2.4450  0.3417
 4664SOL     OW25627   1.074   3.874   7.403 -0.8112  0.4588  0.0176
 4664SOL    HW125628   1.123   3.791   7.403  2.4580  2.3944 -1.3461
 4664SOL    HW225629   1.083   3.904   7.493 -2.4368  1.9442 -0.3315
 4665SOL     OW25630   1.596   2.338   9.812 -0.0760  0.0766  0.1216
 4665SOL    HW125631   1.534   2.269   9.788  0.5825 -0.4936  0.0552
 4665SOL    HW225632   1.672   2.291   9.777 -1.3174  0.9054 -3.6359
 4666SOL     OW25633   1.372   3.744   0.829  0.2958  0.8124 -0.0839
 4666SOL    HW125634   1.422   3.815   0.790  1.0815  0.2616 -0.0849
 4666SOL    HW225635   1.361   3.759   0.923 -0.7946  0.0554 -0.0848
 4667SOL     OW25636   1.724   3.314   5.672 -0.1735 -0.1529  0.3533
 4667SOL    HW125637   1.733   3.220   5.689  0.3502 -0.4891 -1.8643
 4667SOL    HW225638   1.737   3.348   5.761 -0.8811  3.2902 -0.8493
 4668SOL     OW25639   0.586   0.631   2.408 -0.2465  0.4041  1.2555
 4668SOL    HW125640   0.576   0.541   2.376  1.8960  0.9910 -1.0710
 4668SOL    HW225641   0.604   0.683   2.329  1.3280  0.3923  1.6007
 4669SOL     OW25642   0.974   3.318  12.009  0.0462  0.4573 -0.2465
 4669SOL    HW125643   0.960   3.394  12.065 -1.9382  0.1529 -0.3307
 4669SOL    HW225644   0.895   3.314  11.956  1.5003 -1.0163 -2.3069
 4670SOL     OW25645   3.870   2.737   0.211 -0.3298  0.1714 -0.0498
 4670SOL    HW125646   3.800   2.676   0.232 -0.3102 -0.0080 -0.5163
 4670SOL    HW225647   3.845   2.810   0.267  0.2376  0.1399  0.2432
 4671SOL     OW25648   1.512   3.778   7.634  0.5366  0.2518 -0.1539
 4671SOL    HW125649   1.473   3.721   7.568  1.4563 -1.3302  0.6726
 4671SOL    HW225650   1.586   3.729   7.671  0.3106 -1.2252 -1.6432
 4672SOL     OW25651   0.714   3.155   4.679  0.2608 -0.6915 -0.2625
 4672SOL    HW125652   0.674   3.073   4.652 -1.7388  0.4976 -0.8736
 4672SOL    HW225653   0.680   3.160   4.768 -0.0121 -1.4234 -0.3358
 4673SOL     OW25654   2.203   4.560   1.843  0.5731 -0.1623 -0.4186
 4673SOL    HW125655   2.277   4.568   1.783 -2.6160  1.6994 -4.0798
 4673SOL    HW225656   2.147   4.636   1.825 -0.6940 -1.4525 -1.8677
 4674SOL     OW25657   1.485   3.811   3.943  0.3081  0.5935 -0.2548
 4674SOL    HW125658   1.474   3.723   3.908  0.7103  1.5653 -2.8367
 4674SOL    HW225659   1.556   3.842   3.886  0.6073  0.6638  0.1598
 4675SOL     OW25660   2.670   0.928   7.164 -0.3494 -0.2803 -0.8077
 4675SOL    HW125661   2.645   1.020   7.160  2.8907  0.7113  2.0310
 4675SOL    HW225662   2.582   0.890   7.165 -0.9528  1.1707  1.9490
 4676SOL     OW25663   0.377   0.707   1.674 -0.4627  0.0536 -0.5616
 4676SOL    HW125664   0.307   0.762   1.639  0.8634  0.8412 -1.9418
 4676SOL    HW225665   0.427   0.705   1.593  0.4797  1.6949 -0.0122
 4677SOL     OW25666   2.203   2.554   7.443  0.1795 -0.2150 -0.0545
 4677SOL    HW125667   2.264   2.513   7.504  0.6572 -0.6408 -0.8014
 4677SOL    HW225668   2.260   2.623   7.407  0.2137 -1.3023 -2.0827
 4678SOL     OW25669   4.210   0.487  11.149 -0.3712  0.2246 -0.0014
 4678SOL    HW125670   4.185   0.510  11.059  0.6578 -0.8461 -0.5704
 4678SOL    HW225671   4.124   0.485  11.190 -1.7315 -0.1427 -2.8657
 4679SOL     OW25672   1.582   3.443   4.159 -0.5332  0.0806 -0.4970
 4679SOL    HW125673   1.665   3.409   4.192 -0.6372 -0.9243 -1.2566
 4679SOL    HW225674   1.600   3.534   4.138  2.6960 -0.3176  0.5727
 4680SOL     OW25675   3.662   3.097  11.059 -0.6549  0.2938 -0.2808
 4680SOL    HW125676   3.723   3.166  11.034  0.4546 -0.0202  1.5455
 4680SOL    HW225677   3.653   3.117  11.152  1.4520 -2.3965  0.5315
 4681SOL     OW25678   2.478   3.947   7.191  0.0273  0.7698 -0.4038
 4681SOL    HW125679   2.562   3.987   7.213  0.2147 -0.5208  1.2011
 4681SOL    HW225680   2.486   3.943   7.095  0.2881 -1.2565 -0.2950
 4682SOL     OW25681   4.568   2.983   8.018 -0.2832  0.0029 -0.4437
 4682SOL    HW125682   4.549   2.898   7.979  0.0837  0.0060 -0.6277
 4682SOL    HW225683   4.605   2.949   8.100  0.2201  1.8707  0.1009
 4683SOL     OW25684   2.394   1.030   5.011  0.0979  0.2902  0.1981
 4683SOL    HW125685   2.406   0.977   4.932 -1.7442 -1.5788  1.1581
 4683SOL    HW225686   2.474   1.082   5.007 -0.2850  1.1064  3.3906
 4684SOL     OW25687   3.721   3.775   0.336 -0.0068 -0.1783  0.6418
 4684SOL    HW125688   3.666   3.747   0.409  1.4793 -3.2613  0.5737
 4684SOL    HW225689   3.671   3.848   0.298  0.3208 -1.2861 -1.8553
 4685SOL     OW25690   4.444   2.686   2.151 -0.0296 -0.5182 -0.3071
 4685SOL    HW125691   4.405   2.603   2.178  0.9885 -1.3174 -1.2953
 4685SOL    HW225692   4.515   2.692   2.215 -2.6821 -0.3835  2.6407
 4686SOL     OW25693   0.849   2.842   2.844  0.2959  0.4830 -0.2904
 4686SOL    HW125694   0.800   2.806   2.918  2.0837  1.6062  1.4350
 4686SOL    HW225695   0.938   2.841   2.878 -0.9206 -2.2897  2.8807
 4687SOL     OW25696   3.725   2.274   7.422  0.0392  0.9380  0.2235
 4687SOL    HW125697   3.658   2.260   7.489  2.9145  0.7878  3.1109
 4687SOL    HW225698   3.688   2.335   7.359  0.3747  1.2425  0.3177
 4688SOL     OW25699   2.128   4.095   2.619  0.1325  0.4264 -0.1252
 4688SOL    HW125700   2.048   4.128   2.579  0.6589  0.3256 -1.2430
 4688SOL    HW225701   2.150   4.181   2.654 -1.7000  0.9189 -0.1881
 4689SOL     OW25702   3.056   2.368   0.119  0.2117 -0.5339  0.1068
 4689SOL    HW125703   3.083   2.278   0.102  0.5584 -1.1175  3.7789
 4689SOL    HW225704   3.043   2.399   0.029  1.3021 -1.1270 -0.2521
 4690SOL     OW25705   1.072   2.546  10.755 -0.5224  0.0793  0.2956
 4690SOL    HW125706   1.115   2.499  10.826  1.4779 -0.6252 -1.3684
 4690SOL    HW225707   1.109   2.633  10.770  1.2198 -0.3964 -1.1404
 4691SOL     OW25708   0.605   1.628   1.900  0.6022  0.5204  0.0195
 4691SOL    HW125709   0.693   1.639   1.937  0.7400 -0.6930  0.0506
 4691SOL    HW225710   0.548   1.654   1.972  0.9415 -1.3080  0.9437
 4692SOL     OW25711   0.629   3.314   8.057  0.3621 -0.0056 -0.0454
 4692SOL    HW125712   0.653   3.356   8.139 -3.1705  0.9201  0.5333
 4692SOL    HW225713   0.602   3.227   8.087  2.0662 -0.8651 -1.0180
 4693SOL     OW25714   3.433   1.952   7.284  0.1261  0.6150  0.5439
 4693SOL    HW125715   3.411   1.916   7.198  0.3051  1.0848  0.3015
 4693SOL    HW225716   3.528   1.951   7.292  0.1502 -2.2890 -0.2032
 4694SOL     OW25717   0.996   3.063   5.711 -0.4640  0.2974 -0.5748
 4694SOL    HW125718   0.982   2.968   5.717  1.5730  0.2341  2.9298
 4694SOL    HW225719   1.012   3.073   5.617 -2.0806 -3.7770 -1.3086
 4695SOL     OW25720   1.353   3.775   6.019 -0.2266 -0.2992  0.2638
 4695SOL    HW125721   1.353   3.860   5.975  0.1123  0.9319  2.6530
 4695SOL    HW225722   1.410   3.783   6.095 -0.4587  1.9889  0.2078
 4696SOL     OW25723   1.518   3.795   8.285  0.3352  0.1334  0.1030
 4696SOL    HW125724   1.454   3.860   8.315  0.5007  0.5104 -0.3494
 4696SOL    HW225725   1.502   3.727   8.350 -0.8168 -1.2730 -1.6678
 4697SOL     OW25726   0.317   2.691   4.604  0.5829  0.0832 -0.0347
 4697SOL    HW125727   0.320   2.688   4.699 -0.7165  1.5396  0.0579
 4697SOL    HW225728   0.228   2.659   4.586  0.3095  1.2442 -0.7426
 4698SOL     OW25729   1.811   2.238   9.693  0.1033 -0.5422 -0.1876
 4698SOL    HW125730   1.795   2.198   9.607  0.4418  0.3331 -0.6531
 4698SOL    HW225731   1.846   2.323   9.666 -1.2401  0.0993  0.1282
 4699SOL     OW25732   0.918   2.653   1.877 -0.3135  0.0724 -0.6505
 4699SOL    HW125733   0.853   2.715   1.845  0.8920  1.8319  0.3147
 4699SOL    HW225734   0.925   2.610   1.792  0.9579  2.2982 -1.6667
 4700SOL     OW25735   2.732   2.900  13.628 -0.6090  0.3049  0.1772
 4700SOL    HW125736   2.657   2.875  13.574 -0.1668 -1.0887  0.2132
 4700SOL    HW225737   2.748   2.823  13.682  0.8305  0.0709 -0.5689
 4701SOL     OW25738   1.402   2.709   8.955 -0.0127  0.3009  0.3516
 4701SOL    HW125739   1.394   2.739   9.045 -2.1104 -0.7260  0.4972
 4701SOL    HW225740   1.355   2.786   8.923  1.3938  1.4344  1.0061
 4702SOL     OW25741   0.271   2.951   5.341 -0.2837  0.5233 -0.6520
 4702SOL    HW125742   0.296   3.034   5.301 -3.2017  1.3868 -0.6393
 4702SOL    HW225743   0.178   2.953   5.363 -0.2435  3.1695 -0.7208
 4703SOL     OW25744   1.282   2.815   8.639  0.1105 -0.4172 -0.0031
 4703SOL    HW125745   1.269   2.860   8.723 -0.5271  0.1237 -0.3909
 4703SOL    HW225746   1.328   2.882   8.589 -0.5721  0.3340  0.3782
 4704SOL     OW25747   2.674   4.276   4.469  0.1463  0.4227  0.0958
 4704SOL    HW125748   2.677   4.181   4.475  1.9610  0.6402  2.5703
 4704SOL    HW225749   2.632   4.297   4.552  1.5666  0.9960  0.6717
 4705SOL     OW25750   4.196   0.511  13.530  0.7442  0.0637  0.4044
 4705SOL    HW125751   4.277   0.522  13.580  0.1662 -1.7363  1.7315
 4705SOL    HW225752   4.198   0.596  13.485  1.4687  0.7713  1.7546
 4706SOL     OW25753   3.547   0.613  12.337  0.5231  0.4020 -0.3421
 4706SOL    HW125754   3.608   0.582  12.404 -1.3385 -2.2358  0.1467
 4706SOL    HW225755   3.503   0.530  12.322  0.8264  0.5045 -1.7953
 4707SOL     OW25756   2.695   1.751   2.749 -0.0817 -0.2419  0.0693
 4707SOL    HW125757   2.691   1.733   2.843  1.6669  1.5338  0.4826
 4707SOL    HW225758   2.788   1.758   2.729 -0.4204  1.0587 -1.0389
 4708SOL     OW25759   4.488   4.185   8.430 -0.2816 -0.2204 -0.0182
 4708SOL    HW125760   4.443   4.107   8.397 -0.2651  0.0908 -0.7950
 4708SOL    HW225761   4.541   4.144   8.498 -1.9395 -1.9573  0.2369
 4709SOL     OW25762   1.543   1.746   0.509  1.0028  0.3493  0.3471
 4709SOL    HW125763   1.532   1.675   0.572 -0.0424  0.4427  0.2614
 4709SOL    HW225764   1.476   1.810   0.534  0.9705  0.3155  0.3455
 4710SOL     OW25765   3.082   1.819   9.355  0.1996 -0.0512  0.1338
 4710SOL    HW125766   3.033   1.801   9.274 -0.6618  3.2259 -0.0610
 4710SOL    HW225767   3.008   1.809   9.415  0.4912 -0.5704  0.4030
 4711SOL     OW25768   0.535   1.332   1.990 -0.2221  0.2356 -0.3122
 4711SOL    HW125769   0.614   1.372   2.028  1.0269  0.0089 -2.6510
 4711SOL    HW225770   0.490   1.414   1.969 -0.5410  0.3025  0.6560
 4712SOL     OW25771   0.480   0.844  10.997  0.1981 -0.0438  0.3578
 4712SOL    HW125772   0.407   0.786  11.020 -1.4889  2.7351  1.9061
 4712SOL    HW225773   0.484   0.899  11.075  1.6105  0.0957  0.1824
 4713SOL     OW25774   4.531   1.160  12.863 -0.1468 -0.6944  0.2678
 4713SOL    HW125775   4.561   1.071  12.881 -1.9836 -1.0841  1.4088
 4713SOL    HW225776   4.464   1.175  12.930  0.6413  1.2435  0.6367
 4714SOL     OW25777   3.225   2.245   8.664  0.2209 -0.2160  0.0531
 4714SOL    HW125778   3.184   2.309   8.606  2.3514 -0.4300 -1.7357
 4714SOL    HW225779   3.318   2.263   8.646  0.0283 -0.6253 -1.3983
 4715SOL     OW25780   0.150   3.445   1.599  0.3849 -0.1021 -0.4961
 4715SOL    HW125781   0.063   3.428   1.636  0.8421 -0.9761  0.1776
 4715SOL    HW225782   0.182   3.507   1.664  0.2231 -0.5848  0.0468
 4716SOL     OW25783   3.621   4.078  13.493  0.7348 -0.0952  0.5219
 4716SOL    HW125784   3.661   4.159  13.461 -0.9515  0.3146 -0.5935
 4716SOL    HW225785   3.623   4.100  13.586  3.1151 -0.0987  0.4727
 4717SOL     OW25786   1.704   4.461   1.999 -0.4594 -0.0259 -0.9910
 4717SOL    HW125787   1.734   4.414   1.922  1.3424  2.3895 -1.7713
 4717SOL    HW225788   1.616   4.429   2.016 -0.7440  1.1371 -0.2027
 4718SOL     OW25789   1.510   0.966   3.471 -0.0440  0.4995  0.0673
 4718SOL    HW125790   1.489   1.016   3.550 -3.5063  0.1457 -0.6152
 4718SOL    HW225791   1.546   0.889   3.514 -1.4044  0.5804  1.3629
 4719SOL     OW25792   3.743   3.731  12.749  1.1612  0.3163 -0.2186
 4719SOL    HW125793   3.774   3.745  12.838 -1.2079  0.8798  0.5080
 4719SOL    HW225794   3.828   3.717  12.705  1.0027  0.1394 -0.4668
 4720SOL     OW25795   4.535   0.906   3.154  0.0372  0.2022  0.2506
 4720SOL    HW125796   4.584   0.901   3.071 -0.9511  1.1600 -0.3861
 4720SOL    HW225797   4.447   0.932   3.126 -1.1768 -1.8657  2.2335
 4721SOL     OW25798   2.229   1.923  12.001 -0.6623  0.2518  0.4845
 4721SOL    HW125799   2.253   1.895  12.089  1.1265 -0.9319 -0.3855
 4721SOL    HW225800   2.135   1.903  12.000 -0.4939 -0.3382 -3.6339
 4722SOL     OW25801   2.562   3.855   2.483 -0.0053 -0.0024 -0.8925
 4722SOL    HW125802   2.481   3.906   2.489 -0.2747 -0.6041  0.5224
 4722SOL    HW225803   2.632   3.920   2.491 -0.6725  0.8144 -1.6331
 4723SOL     OW25804   1.627   0.084   8.570  0.4875  0.1595 -0.1423
 4723SOL    HW125805   1.681   0.119   8.499  0.9121  0.4290  0.3129
 4723SOL    HW225806   1.693   0.035   8.619 -0.8292 -2.0947 -0.5961
 4724SOL     OW25807   4.024   3.297   4.578 -0.1568 -0.5432  0.0472
 4724SOL    HW125808   4.079   3.359   4.627 -0.3794  0.4950 -1.0080
 4724SOL    HW225809   3.990   3.341   4.500 -1.0161  0.6574  1.0889
 4725SOL     OW25810   0.442   2.215   1.949  0.2729  0.4390  0.5569
 4725SOL    HW125811   0.479   2.158   1.881 -2.0356  0.6224 -0.8438
 4725SOL    HW225812   0.522   2.256   1.981  1.6665 -1.5726 -0.3234
 4726SOL     OW25813   1.444   2.032   7.637 -0.2332 -0.1563  0.3296
 4726SOL    HW125814   1.512   1.965   7.639 -0.5678 -0.4914  0.9051
 4726SOL    HW225815   1.477   2.095   7.574 -0.8091 -0.2691 -0.0897
 4727SOL     OW25816   0.271   1.806   2.828  0.0504 -0.4362 -0.4851
 4727SOL    HW125817   0.353   1.856   2.826  0.0107 -0.3434  0.2166
 4727SOL    HW225818   0.290   1.732   2.885 -2.2335 -0.1174  0.6650
 4728SOL     OW25819   2.459   1.905   5.187  0.5456  0.8047 -0.5977
 4728SOL    HW125820   2.443   1.879   5.097  0.2642 -0.6422 -0.1333
 4728SOL    HW225821   2.376   1.882   5.228  1.1315  2.6523  1.6892
 4729SOL     OW25822   2.951   0.499   2.832  0.0118  0.4250 -0.2731
 4729SOL    HW125823   2.964   0.406   2.852  1.8472  0.5999 -0.6545
 4729SOL    HW225824   2.867   0.503   2.876 -0.4445  0.0653 -1.1076
 4730SOL     OW25825   4.697   4.416   7.910 -0.1848  0.6326 -0.5100
 4730SOL    HW125826   4.728   4.466   7.986 -1.6818  0.6788  0.0608
 4730SOL    HW225827   4.645   4.346   7.948 -0.7613  0.9080 -0.7898
 4731SOL     OW25828   2.484   2.930   3.602 -0.1987 -0.3011  0.0453
 4731SOL    HW125829   2.436   2.879   3.668 -0.2222  0.3592  0.5420
 4731SOL    HW225830   2.514   3.008   3.648  1.8274 -0.2840 -1.2937
 4732SOL     OW25831   1.914   3.210   1.900  0.2521 -0.1713  0.0991
 4732SOL    HW125832   1.987   3.149   1.905  0.2429 -0.0561  1.6168
 4732SOL    HW225833   1.957   3.285   1.858  0.5725 -1.6247 -2.1800
 4733SOL     OW25834   3.779   0.536   4.327  0.8470  0.5278  0.4086
 4733SOL    HW125835   3.760   0.443   4.313 -0.1793  0.8769 -0.5176
 4733SOL    HW225836   3.811   0.540   4.417 -0.7438 -1.3364  1.0714
 4734SOL     OW25837   4.643   4.163   8.656 -0.6393  0.2877 -0.3301
 4734SOL    HW125838   4.732   4.145   8.625 -0.2662 -2.3579  2.2664
 4734SOL    HW225839   4.652   4.144   8.750 -0.2687  2.0093 -0.0078
 4735SOL     OW25840   3.814   2.352   8.955  0.0775  0.3246 -0.5798
 4735SOL    HW125841   3.893   2.379   9.001  0.0981  1.1044 -1.0786
 4735SOL    HW225842   3.800   2.262   8.983 -4.9995  0.8182 -1.4515
 4736SOL     OW25843   1.658   0.057  13.441 -0.3705  0.0096  0.2869
 4736SOL    HW125844   1.638   4.709  13.397 -0.2788  1.0524 -1.7404
 4736SOL    HW225845   1.623   0.124  13.382  1.8173  0.4652 -0.4729
 4737SOL     OW25846   0.580   3.737   2.960  0.4192  0.1249  0.0617
 4737SOL    HW125847   0.581   3.831   2.979  0.5045 -0.3968  2.7331
 4737SOL    HW225848   0.507   3.709   3.016 -0.8137  1.7955 -0.6917
 4738SOL     OW25849   3.594   2.697   3.119  0.0193  0.3936  0.1808
 4738SOL    HW125850   3.621   2.620   3.069  0.6352  0.1807  0.8457
 4738SOL    HW225851   3.502   2.705   3.095  0.4643 -0.5576 -1.8340
 4739SOL     OW25852   2.917   1.908  12.025  0.1740 -0.6767  0.4689
 4739SOL    HW125853   2.985   1.948  12.079 -0.6896  2.2465 -0.6407
 4739SOL    HW225854   2.948   1.933  11.938  1.6745 -0.8963  0.9456
 4740SOL     OW25855   1.464   3.650   8.490 -0.0643  0.1596  0.2620
 4740SOL    HW125856   1.374   3.623   8.508 -0.1119  0.0969 -0.0622
 4740SOL    HW225857   1.469   3.701   8.571  2.5914 -0.3908  0.4568
 4741SOL     OW25858   1.451   2.555   7.503  0.3177  0.0101 -0.0534
 4741SOL    HW125859   1.430   2.529   7.413  0.2204  0.2628 -0.1023
 4741SOL    HW225860   1.545   2.569   7.490 -0.2842  1.4685 -2.8221
 4742SOL     OW25861   4.431   3.675  17.010  0.1726 -0.2429  0.0796
 4742SOL    HW125862   4.480   3.664  17.092 -0.6323 -0.1952  0.5769
 4742SOL    HW225863   4.491   3.714  16.947  0.7797 -1.3321 -0.0027
 4743SOL     OW25864   1.878   3.126   7.375 -0.1819  0.2171  0.0842
 4743SOL    HW125865   1.866   3.219   7.360  0.6519  0.3299  0.0939
 4743SOL    HW225866   1.787   3.109   7.351  0.1550 -0.4660 -0.7079
 4744SOL     OW25867   0.430   0.084  11.837  0.4574 -0.3532  0.1264
 4744SOL    HW125868   0.372   0.026  11.886  0.2299 -1.7641 -1.7970
 4744SOL    HW225869   0.498   0.021  11.811 -0.5869 -0.8855 -1.3148
 4745SOL     OW25870   3.813   3.330   1.917 -0.7565  0.3637 -0.0917
 4745SOL    HW125871   3.805   3.255   1.857  0.8032  0.9454 -1.0093
 4745SOL    HW225872   3.735   3.381   1.897 -1.1158 -0.1656 -0.0572
 4746SOL     OW25873   2.895   1.430   3.840  0.8899 -0.5110  0.4799
 4746SOL    HW125874   2.979   1.414   3.797  1.5477 -0.3676  1.7165
 4746SOL    HW225875   2.831   1.405   3.773  1.8157  0.5760 -0.8088
 4747SOL     OW25876   0.926   3.496  13.002 -0.7525  0.7117 -0.5134
 4747SOL    HW125877   0.970   3.414  12.981 -0.7591  0.6911 -0.4454
 4747SOL    HW225878   0.946   3.557  12.931  1.7168 -0.0693 -0.4944
 4748SOL     OW25879   2.543   0.285   0.457  0.0166 -0.7866  0.3628
 4748SOL    HW125880   2.629   0.292   0.498  1.0959 -2.4385 -1.6029
 4748SOL    HW225881   2.556   0.202   0.409 -0.4973  0.5740 -2.1394
 4749SOL     OW25882   2.595   2.895   7.670  0.2097  0.5278  0.3188
 4749SOL    HW125883   2.598   2.987   7.642 -2.2622  0.2658 -0.8080
 4749SOL    HW225884   2.523   2.895   7.733 -0.9195  2.0785 -0.9510
 4750SOL     OW25885   1.050   0.960  10.447  0.5347  0.7187  0.4454
 4750SOL    HW125886   1.018   1.034  10.395  0.3648 -0.5426 -1.2571
 4750SOL    HW225887   1.132   0.935  10.403 -0.0051 -1.1542  0.4897
 4751SOL     OW25888   2.833   0.399  15.943  0.1668  0.2257 -0.3653
 4751SOL    HW125889   2.768   0.337  15.909  0.5807  0.4450 -1.5521
 4751SOL    HW225890   2.918   0.366  15.917  0.9387  1.5577  0.4678
 4752SOL     OW25891   1.666   2.432   1.899  0.5455 -0.1868 -0.3296
 4752SOL    HW125892   1.616   2.471   1.972  1.2314  0.6968 -0.3250
 4752SOL    HW225893   1.599   2.452   1.834 -0.5214 -1.4989  0.3840
 4753SOL     OW25894   1.652   2.128   8.131 -0.4110  0.3866 -0.1531
 4753SOL    HW125895   1.691   2.126   8.043  1.3638 -1.2207  0.6689
 4753SOL    HW225896   1.654   2.220   8.155 -0.2202  0.6027 -1.0061
 4754SOL     OW25897   4.091   3.481   6.720 -0.2532 -0.3733  0.1663
 4754SOL    HW125898   4.185   3.496   6.731 -0.7702  2.4147  0.6137
 4754SOL    HW225899   4.094   3.440   6.633  0.6180  0.2081 -0.0826
 4755SOL     OW25900   3.553   3.027  14.233 -0.5169  0.4246  0.4084
 4755SOL    HW125901   3.460   3.008  14.220 -0.5332 -0.9815  2.5897
 4755SOL    HW225902   3.554   3.111  14.187  0.7644  0.0602 -0.2335
 4756SOL     OW25903   4.705   0.739   7.174  0.3894 -0.2707  0.4410
 4756SOL    HW125904   0.007   0.756   7.261  0.2108  1.2275  0.2368
 4756SOL    HW225905   4.644   0.667   7.190  0.5523 -0.0009  2.2953
 4757SOL     OW25906   2.715   3.664   9.291 -0.0639 -0.0728  0.4286
 4757SOL    HW125907   2.665   3.701   9.364  1.0488  0.8304  0.7331
 4757SOL    HW225908   2.738   3.749   9.252  0.2105  0.3802  1.5951
 4758SOL     OW25909   0.153   1.700   3.452 -0.2491  0.3243  0.1386
 4758SOL    HW125910   0.149   1.748   3.535  1.2713  2.7327 -1.2136
 4758SOL    HW225911   0.064   1.666   3.440 -0.0823  0.1011 -0.4629
 4759SOL     OW25912   0.325   4.261   2.067  0.1920 -0.3886 -0.1833
 4759SOL    HW125913   0.295   4.290   2.153  0.0087 -1.0160 -0.0303
 4759SOL    HW225914   0.249   4.269   2.010 -0.0453  0.6484  0.2768
 4760SOL     OW25915   3.095   0.683  16.495  0.5704 -0.3576 -0.3321
 4760SOL    HW125916   3.137   0.727  16.569  0.7983 -1.1584  0.0155
 4760SOL    HW225917   3.155   0.707  16.424 -0.0758  1.5299 -0.2279
 4761SOL     OW25918   4.491   0.476  10.250 -0.4242 -0.1734 -0.1521
 4761SOL    HW125919   4.529   0.564  10.256  0.8850 -0.7668  0.3775
 4761SOL    HW225920   4.488   0.457  10.344 -2.3596  1.1479  0.0341
 4762SOL     OW25921   1.073   2.928   9.170  0.0211  0.0261  0.1766
 4762SOL    HW125922   1.111   2.874   9.239  2.0941  0.2651 -0.8022
 4762SOL    HW225923   1.107   3.012   9.202  3.0719 -2.2882  3.0643
 4763SOL     OW25924   4.401   4.416   3.627  0.3104  0.3995 -0.0595
 4763SOL    HW125925   4.412   4.479   3.698  0.1624  1.5515 -1.0712
 4763SOL    HW225926   4.449   4.342   3.666  1.0881  2.0829  2.1387
 4764SOL     OW25927   2.106   4.731  12.811  0.1775  0.8110 -0.3903
 4764SOL    HW125928   2.081   4.657  12.756 -0.7542  0.1987  0.8379
 4764SOL    HW225929   2.037   0.061  12.799 -1.5613 -0.6655  1.6977
 4765SOL     OW25930   2.675   1.523   8.757  0.0178  0.2802  0.2439
 4765SOL    HW125931   2.627   1.503   8.677 -1.3011  1.0774  0.8418
 4765SOL    HW225932   2.737   1.450   8.758 -0.8440 -0.4618 -0.8291
 4766SOL     OW25933   0.305   3.554   2.568  0.0223 -0.3447  0.0466
 4766SOL    HW125934   0.305   3.553   2.473  1.1192 -1.7705  0.0646
 4766SOL    HW225935   0.212   3.563   2.591  0.0405  1.4881 -0.6686
 4767SOL     OW25936   3.607   3.500   9.656 -0.0439 -0.2754 -0.0416
 4767SOL    HW125937   3.557   3.521   9.735 -0.7391  1.5980 -0.9641
 4767SOL    HW225938   3.581   3.569   9.594 -0.5203 -0.5139 -0.1128
 4768SOL     OW25939   1.263   0.900   6.312  0.7625 -0.1581  0.3689
 4768SOL    HW125940   1.336   0.862   6.361  1.9857 -0.7171 -1.8740
 4768SOL    HW225941   1.234   0.816   6.276  1.2453  0.5041 -1.5628
 4769SOL     OW25942   2.035   4.180   3.457  0.1816  0.5098  0.0421
 4769SOL    HW125943   2.044   4.186   3.552 -0.7164  0.3629  0.1388
 4769SOL    HW225944   2.118   4.218   3.429  0.0526 -1.1414 -2.5337
 4770SOL     OW25945   4.042   3.650  10.049 -0.5180 -0.1913 -0.2284
 4770SOL    HW125946   4.013   3.562  10.025 -1.8596  0.8954 -2.6326
 4770SOL    HW225947   3.961   3.682  10.089 -0.2606 -1.2561  1.1113
 4771SOL     OW25948   3.736   2.199   9.761 -0.7322  0.1084  0.7172
 4771SOL    HW125949   3.782   2.232   9.684  3.2003 -0.1434  2.9700
 4771SOL    HW225950   3.672   2.137   9.726 -0.8605  0.3899  0.4453
 4772SOL     OW25951   1.917   2.590   9.207  0.0031  0.1775  0.1792
 4772SOL    HW125952   1.824   2.611   9.193  0.6075  2.2890 -0.6475
 4772SOL    HW225953   1.914   2.529   9.280  1.5288 -0.9745 -0.7237
 4773SOL     OW25954   0.410   3.745   1.957 -0.2823  0.2227 -0.2829
 4773SOL    HW125955   0.322   3.779   1.943 -0.9241 -1.1589  0.3255
 4773SOL    HW225956   0.445   3.776   2.041  1.8036 -1.6924 -0.4251
 4774SOL     OW25957   3.524   1.921  17.081 -0.0147 -0.1819 -0.2807
 4774SOL    HW125958   3.573   1.890  17.157 -0.6809  0.1046  0.2527
 4774SOL    HW225959   3.478   1.842  17.054 -0.6902 -0.3726  1.4369
 4775SOL     OW25960   4.343   3.546  14.609 -0.7310  0.0650 -0.0513
 4775SOL    HW125961   4.313   3.623  14.658  2.6647  2.2588 -1.3823
 4775SOL    HW225962   4.259   3.509  14.582 -0.7991  0.5199 -0.4593
 4776SOL     OW25963   2.640   3.666   6.803 -0.0742  0.3917  0.6656
 4776SOL    HW125964   2.730   3.647   6.776  0.0039 -0.5195  1.5658
 4776SOL    HW225965   2.616   3.580   6.838  0.2800  0.3451  0.8010
 4777SOL     OW25966   2.029   0.594   9.577  0.5743 -0.0318 -0.6141
 4777SOL    HW125967   1.951   0.540   9.561  1.9629 -2.2785  0.1860
 4777SOL    HW225968   2.092   0.527   9.603  0.8730  1.2788  2.0183
 4778SOL     OW25969   4.045   4.399   0.893  0.6559  0.1455  0.6400
 4778SOL    HW125970   3.956   4.430   0.910  0.6010  0.1890  0.2691
 4778SOL    HW225971   4.024   4.310   0.863 -0.3335  0.3746  0.6606
 4779SOL     OW25972   2.817   4.150   7.567 -0.1809  0.0656  0.8045
 4779SOL    HW125973   2.887   4.147   7.633 -0.1784 -2.7435  0.6941
 4779SOL    HW225974   2.810   4.059   7.536 -0.2881  0.6889 -0.9495
 4780SOL     OW25975   3.328   1.761   9.218  0.1972  0.0362  0.4292
 4780SOL    HW125976   3.247   1.799   9.252 -0.5839 -0.5365 -0.7860
 4780SOL    HW225977   3.323   1.671   9.248 -1.3170  0.1887  0.6158
 4781SOL     OW25978   4.199   1.324   1.668  0.0671 -0.0233  0.1990
 4781SOL    HW125979   4.294   1.310   1.674  0.0663 -1.5116 -3.9257
 4781SOL    HW225980   4.194   1.408   1.621 -0.6256  0.9501  1.9841
 4782SOL     OW25981   2.426   4.109   6.579 -0.5016  0.1006 -0.1215
 4782SOL    HW125982   2.343   4.155   6.565  0.1147  1.4117  0.5080
 4782SOL    HW225983   2.493   4.175   6.562 -1.2711  1.2991  1.5777
 4783SOL     OW25984   1.189   4.201   7.655  0.6694 -0.1345 -0.0131
 4783SOL    HW125985   1.159   4.110   7.659  1.0331 -0.1279  2.8076
 4783SOL    HW225986   1.137   4.242   7.585  0.0017 -0.7366  0.1252
 4784SOL     OW25987   2.978   4.524  15.580 -0.1752 -0.4913  0.0800
 4784SOL    HW125988   2.971   4.548  15.487 -1.0376  0.8124  0.4787
 4784SOL    HW225989   3.060   4.570  15.601  0.5011 -1.5406 -0.2510
 4785SOL     OW25990   0.928   0.599   8.022 -0.7195 -0.0226 -0.4994
 4785SOL    HW125991   0.993   0.653   8.066 -1.2884 -0.4382  0.8447
 4785SOL    HW225992   0.848   0.651   8.030  0.6351  1.9898 -0.1261
 4786SOL     OW25993   2.952   4.260   7.924  0.2618  0.0693  0.1295
 4786SOL    HW125994   2.968   4.178   7.878  2.1623  0.5719 -0.1148
 4786SOL    HW225995   2.869   4.233   7.963  0.6391 -0.6942  0.3813
 4787SOL     OW25996   3.551   2.879   2.748  0.1989 -0.0350  0.3214
 4787SOL    HW125997   3.548   2.935   2.670  0.0023  1.0558  1.1006
 4787SOL    HW225998   3.488   2.809   2.731 -2.3217  2.6728 -1.5987
 4788SOL     OW25999   2.381   0.385   7.097  0.1312 -0.5826  0.5386
 4788SOL    HW126000   2.403   0.293   7.080 -0.0165 -0.7815  1.4058
 4788SOL    HW226001   2.309   0.400   7.036  1.3407  0.2677 -0.6973
 4789SOL     OW26002   2.950   2.730   9.830 -0.2568 -0.4495 -0.4762
 4789SOL    HW126003   2.855   2.731   9.821 -0.2552 -0.5414 -0.5021
 4789SOL    HW226004   2.958   2.758   9.921  0.1142  0.4843 -0.7973
 4790SOL     OW26005   0.453   2.444  12.664 -0.1781  0.4817  0.5392
 4790SOL    HW126006   0.548   2.437  12.673 -0.0720  3.2167  1.5205
 4790SOL    HW226007   0.435   2.381  12.594 -0.2060  2.3311 -1.0988
 4791SOL     OW26008   0.653   1.524   8.413 -0.8126  0.2591 -0.0441
 4791SOL    HW126009   0.568   1.504   8.374 -0.4817 -0.2801 -0.4886
 4791SOL    HW226010   0.702   1.451   8.376  2.5742  2.2811  0.3943
 4792SOL     OW26011   2.593   1.529   6.823  0.0340  0.1759  0.3588
 4792SOL    HW126012   2.498   1.516   6.815  0.1462 -1.5014  1.7396
 4792SOL    HW226013   2.608   1.538   6.729 -0.9995  0.2917  0.2036
 4793SOL     OW26014   3.975   0.023   8.852 -0.1370  0.1776 -0.4205
 4793SOL    HW126015   3.967   0.116   8.873  0.6992 -0.2426  1.7823
 4793SOL    HW226016   4.037   0.029   8.779  0.9530 -0.6883  0.4347
 4794SOL     OW26017   4.509   1.711   5.063  0.0655 -0.1286 -0.0993
 4794SOL    HW126018   4.421   1.714   5.026 -1.1515 -0.8325  2.7267
 4794SOL    HW226019   4.491   1.656   5.140 -3.9558 -0.2301 -1.1047
 4795SOL     OW26020   1.230   0.031   5.789  0.2304  0.4655  0.1986
 4795SOL    HW126021   1.201   0.118   5.818 -2.0324  0.4667 -2.0290
 4795SOL    HW226022   1.210   0.034   5.695 -1.5881 -1.8487  0.5258
 4796SOL     OW26023   1.835   1.890   4.934  0.0385  0.1263 -0.7406
 4796SOL    HW126024   1.843   1.867   5.027  2.5966 -3.0274 -1.7392
 4796SOL    HW226025   1.818   1.984   4.944 -2.2704 -0.3603 -0.1686
 4797SOL     OW26026   4.730   1.638   7.488 -0.1846 -0.1432  0.1478
 4797SOL    HW126027   4.716   1.553   7.530  1.2560  0.1146  1.1595
 4797SOL    HW226028   0.085   1.630   7.455 -1.1637  1.0241 -2.7394
 4798SOL     OW26029   3.012   1.756   7.603 -0.3308  0.0123 -0.4331
 4798SOL    HW126030   2.971   1.703   7.671 -0.2781 -0.0378 -0.4395
 4798SOL    HW226031   3.025   1.691   7.534  0.9061 -1.2579  1.0041
 4799SOL     OW26032   1.827   0.675   7.597  0.0155  0.3989 -0.3963
 4799SOL    HW126033   1.750   0.732   7.602  1.3674  2.4466 -3.1524
 4799SOL    HW226034   1.848   0.648   7.687 -2.3619 -0.4708 -0.1034
 4800SOL     OW26035   3.325   2.756   3.022  0.0368  0.1352  0.0706
 4800SOL    HW126036   3.247   2.798   2.986 -0.5145 -2.1004 -1.3727
 4800SOL    HW226037   3.308   2.662   3.009  0.6966 -0.4611  3.4904
 4801SOL     OW26038   2.152   1.524  14.923 -0.0842 -0.7772 -0.0568
 4801SOL    HW126039   2.248   1.534  14.922 -0.1223 -0.6443 -2.1605
 4801SOL    HW226040   2.125   1.586  14.855 -1.8459 -0.5940  0.8294
 4802SOL     OW26041   2.235   2.118   6.229  0.5674  0.0225 -0.3558
 4802SOL    HW126042   2.287   2.097   6.152 -0.0899  0.1884 -0.8368
 4802SOL    HW226043   2.237   2.213   6.220  0.6759  0.1217  0.6518
 4803SOL     OW26044   1.750   3.328   2.322  0.0052 -0.1326 -0.5137
 4803SOL    HW126045   1.828   3.312   2.269  1.5005  0.3966  1.5323
 4803SOL    HW226046   1.687   3.282   2.266  0.6688 -0.5762 -0.8977
 4804SOL     OW26047   3.737   3.953   2.080  0.1603 -0.5687 -0.3092
 4804SOL    HW126048   3.763   3.861   2.074  1.0347 -0.2946 -0.6867
 4804SOL    HW226049   3.688   3.972   2.000  0.5633 -1.6721 -0.8147
 4805SOL     OW26050   1.835   1.281   3.684 -0.4829 -0.1662 -0.0739
 4805SOL    HW126051   1.902   1.317   3.625 -1.2820 -1.6479 -1.8451
 4805SOL    HW226052   1.781   1.359   3.696  1.1125  0.9548 -0.1701
 4806SOL     OW26053   1.990   0.919   6.992  0.1315  0.0082  0.0794
 4806SOL    HW126054   1.999   0.964   6.908 -0.2870 -1.0192 -0.5155
 4806SOL    HW226055   2.079   0.926   7.026  0.1132  0.2933  0.0677
 4807SOL     OW26056   2.763   0.605  16.421  0.2004 -0.2743  0.0141
 4807SOL    HW126057   2.675   0.598  16.382 -0.2918  1.7537  0.7572
 4807SOL    HW226058   2.802   0.681  16.378  1.3109 -1.3390 -0.8335
 4808SOL     OW26059   0.457   1.775   4.721 -0.1984 -0.1753  0.2240
 4808SOL    HW126060   0.479   1.856   4.675 -1.1109 -0.3659 -0.5585
 4808SOL    HW226061   0.401   1.809   4.791  1.3008 -0.1683  1.4145
 4809SOL     OW26062   2.381   2.471   6.008  0.2780 -0.0623 -0.3040
 4809SOL    HW126063   2.288   2.474   6.030  0.1076  3.4015 -1.6335
 4809SOL    HW226064   2.417   2.400   6.063 -2.5910 -0.3445  1.1862
 4810SOL     OW26065   1.554   2.208   7.447 -0.1582  0.7447 -0.8414
 4810SOL    HW126066   1.603   2.272   7.500  3.3593 -2.5673 -0.1081
 4810SOL    HW226067   1.480   2.259   7.413  1.1645  2.0776 -1.7838
 4811SOL     OW26068   4.422   4.032   2.425 -0.0677 -0.5637 -0.2772
 4811SOL    HW126069   4.473   4.063   2.500 -2.1825 -0.0410  0.9273
 4811SOL    HW226070   4.351   4.002   2.482 -1.7014  2.0376 -0.9385
 4812SOL     OW26071   0.667   0.494  12.140  0.2228 -0.3154 -0.5585
 4812SOL    HW126072   0.761   0.479  12.129  0.3419  0.2265 -0.2771
 4812SOL    HW226073   0.629   0.432  12.078 -2.8212  1.4443 -0.4150
 4813SOL     OW26074   0.308   4.176  10.359  0.0787  0.4149  0.3226
 4813SOL    HW126075   0.356   4.098  10.388 -1.3394 -0.6456 -0.2201
 4813SOL    HW226076   0.364   4.245  10.395  0.1624 -0.2955  1.5756
 4814SOL     OW26077   3.416   4.173   2.910  0.0831 -0.0366  0.6201
 4814SOL    HW126078   3.447   4.131   2.991 -0.9287 -0.6269  0.7083
 4814SOL    HW226079   3.350   4.116   2.871 -1.3736  0.0037  3.0247
 4815SOL     OW26080   1.185   2.657   7.468 -0.2716 -0.0269  0.0851
 4815SOL    HW126081   1.239   2.638   7.544 -1.4561 -0.0442  0.9115
 4815SOL    HW226082   1.143   2.739   7.495 -0.0732  0.0071  0.2848
 4816SOL     OW26083   2.388   4.460   1.997 -0.0669  0.4002 -0.4830
 4816SOL    HW126084   2.310   4.500   1.960  0.5309  1.8288 -0.2139
 4816SOL    HW226085   2.417   4.529   2.058 -1.7016 -0.7133  1.5628
 4817SOL     OW26086   1.240   4.100   2.253 -0.6179  0.0763 -0.0478
 4817SOL    HW126087   1.292   4.122   2.176  0.0702 -1.9786 -0.1830
 4817SOL    HW226088   1.262   4.006   2.256 -0.1193  0.2403  1.6518
 4818SOL     OW26089   0.050   0.374   7.101  0.1051 -0.1341  0.0201
 4818SOL    HW126090   0.020   0.418   7.181 -0.9227 -1.2849  0.2668
 4818SOL    HW226091   4.705   0.360   7.049  0.7650 -0.7664 -0.7987
 4819SOL     OW26092   2.325   2.479   5.261  0.2959  0.1670 -0.0777
 4819SOL    HW126093   2.321   2.465   5.166  0.3254 -0.0648 -0.0444
 4819SOL    HW226094   2.289   2.395   5.291  0.3790 -0.0539 -0.5797
 4820SOL     OW26095   2.063   0.376   2.325  0.0725  0.4538 -0.4112
 4820SOL    HW126096   2.001   0.377   2.397  1.0853 -0.2881  0.4744
 4820SOL    HW226097   2.049   0.283   2.310  3.1288 -0.2576  0.9534
 4821SOL     OW26098   4.620   4.100   5.064 -0.3279  0.9181 -0.3513
 4821SOL    HW126099   4.672   4.055   4.998 -0.4481 -1.5042  1.2221
 4821SOL    HW226100   4.668   4.087   5.146 -1.5122 -1.9516 -0.1167
 4822SOL     OW26101   3.995   4.094  10.866 -0.1111  0.6376  0.1062
 4822SOL    HW126102   4.081   4.056  10.886  0.3246  1.2472 -0.6321
 4822SOL    HW226103   3.976   4.066  10.777 -1.1549 -0.1331  0.5774
 4823SOL     OW26104   3.617   4.385   8.297  0.0820 -0.0924  0.0356
 4823SOL    HW126105   3.539   4.421   8.255  1.2135  0.7757 -1.2983
 4823SOL    HW226106   3.646   4.332   8.223 -0.9040  0.6819 -0.9078
 4824SOL     OW26107   0.519   3.092  12.651  0.2567 -0.0596  0.3245
 4824SOL    HW126108   0.490   3.026  12.588  2.4303  0.7601 -1.5045
 4824SOL    HW226109   0.555   3.161  12.596 -1.6086  0.3257 -0.4297
 4825SOL     OW26110   1.681   2.973   4.856 -0.3095 -0.3765 -0.4333
 4825SOL    HW126111   1.694   3.068   4.862  0.4466 -0.5289  0.3294
 4825SOL    HW226112   1.586   2.968   4.845 -0.5792  2.1457  0.8248
 4826SOL     OW26113   1.662   1.752   4.762 -0.8951 -0.3896  0.1847
 4826SOL    HW126114   1.694   1.795   4.841 -0.1658  0.7706 -0.7483
 4826SOL    HW226115   1.592   1.695   4.795  1.0153 -2.6879  0.3176
 4827SOL     OW26116   1.735   2.329   8.905  0.2446  0.0553  0.3167
 4827SOL    HW126117   1.651   2.365   8.878  0.3352 -0.4726 -0.6480
 4827SOL    HW226118   1.769   2.297   8.821  0.0221  1.0141 -0.1344
 4828SOL     OW26119   4.729   3.394   5.283 -0.4376 -0.0733 -0.4543
 4828SOL    HW126120   4.726   3.415   5.377  0.0937  0.3150 -0.5244
 4828SOL    HW226121   4.663   3.325   5.285  1.7022 -2.0595  1.6696
 4829SOL     OW26122   1.409   1.842   5.295 -0.4784  0.5032  0.0036
 4829SOL    HW126123   1.484   1.802   5.340 -1.3061 -1.3231 -0.2386
 4829SOL    HW226124   1.426   1.936   5.303 -2.2866  1.0372 -2.3319
 4830SOL     OW26125   3.143   0.372   3.046  0.0253  0.3335 -0.3898
 4830SOL    HW126126   3.216   0.312   3.033  1.1563  1.4646  0.6998
 4830SOL    HW226127   3.189   0.454   3.026 -0.0702  0.3288 -0.6402
 4831SOL     OW26128   2.769   2.928   8.625  0.0764 -0.4381  0.0637
 4831SOL    HW126129   2.758   2.927   8.721  1.5613 -0.7029  0.2314
 4831SOL    HW226130   2.685   2.897   8.592  0.6972 -1.4352 -0.5328
 4832SOL     OW26131   4.078   1.040   8.618  0.5331 -0.1093  0.5091
 4832SOL    HW126132   4.117   0.961   8.656  1.1577 -0.2571 -0.4031
 4832SOL    HW226133   4.095   1.102   8.688 -1.1284  0.2672  0.5767
 4833SOL     OW26134   4.142   2.002  15.499 -0.1334 -0.2488  0.0082
 4833SOL    HW126135   4.160   2.092  15.470 -0.6879  0.1291  0.8436
 4833SOL    HW226136   4.051   1.992  15.470 -1.1762  1.9840  2.5709
 4834SOL     OW26137   1.968   1.442  15.121  0.0694 -0.5162  0.0588
 4834SOL    HW126138   1.922   1.367  15.083  0.6719 -1.8662  2.0097
 4834SOL    HW226139   2.010   1.477  15.043  1.4026  1.7619  1.8177
 4835SOL     OW26140   3.358   3.592  11.368  0.7430  0.6381  0.2029
 4835SOL    HW126141   3.430   3.560  11.313  1.7792  0.8457  1.4605
 4835SOL    HW226142   3.335   3.671  11.319  0.1641 -0.3778 -1.1756
 4836SOL     OW26143   3.939   4.261   8.841  0.1351  0.8924 -0.7113
 4836SOL    HW126144   3.930   4.166   8.829  0.0597  0.4317  3.0184
 4836SOL    HW226145   4.033   4.282   8.845  0.0648  1.2336 -0.9053
 4837SOL     OW26146   3.262   4.611   4.320 -0.1300  0.1405  0.3464
 4837SOL    HW126147   3.283   4.695   4.361 -0.8267  2.0376 -3.1948
 4837SOL    HW226148   3.349   4.577   4.296 -0.3711  0.5886 -1.1947
 4838SOL     OW26149   2.736   1.877   6.147 -0.0975 -0.0776 -0.5021
 4838SOL    HW126150   2.706   1.792   6.117  0.4562  0.1517 -1.6869
 4838SOL    HW226151   2.710   1.935   6.076  2.1027  2.3937  0.6950
 4839SOL     OW26152   0.001   4.470   1.451  0.1764  0.0985  0.3123
 4839SOL    HW126153   0.046   4.436   1.373  0.3918 -1.0776  0.9563
 4839SOL    HW226154   4.643   4.478   1.427 -0.0712 -2.4832  0.4239
 4840SOL     OW26155   2.301   3.248   8.772  0.7468 -0.1770 -0.0504
 4840SOL    HW126156   2.218   3.205   8.793  0.5050  0.1634 -0.3131
 4840SOL    HW226157   2.277   3.340   8.783  1.1803  0.0408 -0.9018
 4841SOL     OW26158   1.464   2.556   5.677 -0.0945 -0.3773  0.3655
 4841SOL    HW126159   1.547   2.515   5.656  0.1642  0.7790 -0.8937
 4841SOL    HW226160   1.408   2.485   5.646  0.8307 -1.2681  0.7522
 4842SOL     OW26161   3.573   1.828   9.126  0.1133  0.5065 -0.3499
 4842SOL    HW126162   3.564   1.877   9.044 -0.9501  1.4249  0.3030
 4842SOL    HW226163   3.484   1.792   9.133  0.1147  0.7103  0.6577
 4843SOL     OW26164   4.321   4.202   4.280 -0.2176  0.0653 -0.1920
 4843SOL    HW126165   4.336   4.282   4.331 -1.8871 -0.5438  1.2905
 4843SOL    HW226166   4.410   4.167   4.285  0.2947  1.5460  1.1828
 4844SOL     OW26167   0.340   3.267  16.157  0.6749  0.2368 -0.1294
 4844SOL    HW126168   0.288   3.260  16.237 -0.5328 -0.9945 -1.0095
 4844SOL    HW226169   0.425   3.246  16.196  0.7411 -0.2151 -0.5074
 4845SOL     OW26170   0.317   1.044   4.635  0.2247 -0.4820 -0.3999
 4845SOL    HW126171   0.389   0.999   4.679 -0.3027 -0.4327  0.5041
 4845SOL    HW226172   0.301   0.981   4.564  1.0058  1.1807 -2.0502
 4846SOL     OW26173   3.858   1.250   3.434  0.5348  0.1758 -0.0559
 4846SOL    HW126174   3.798   1.304   3.484 -0.1696  1.3953 -2.2432
 4846SOL    HW226175   3.841   1.164   3.473 -1.5401  0.7064  0.2324
 4847SOL     OW26176   2.849   2.017   6.393 -0.0946  0.3026  0.0870
 4847SOL    HW126177   2.811   1.957   6.329 -0.1654  0.3755  0.0594
 4847SOL    HW226178   2.821   1.974   6.473  0.2232  1.2658  0.7073
 4848SOL     OW26179   0.053   4.675   9.164 -0.4817 -0.4284  0.6998
 4848SOL    HW126180   4.726   4.603   9.145 -0.4839 -0.1649 -0.3267
 4848SOL    HW226181   0.082   4.693   9.074  2.3183 -2.4830  1.1981
 4849SOL     OW26182   1.387   4.297   2.592 -0.1204  0.3478  0.0468
 4849SOL    HW126183   1.418   4.216   2.633  1.5311  0.8903 -0.1496
 4849SOL    HW226184   1.368   4.359   2.662  1.9887  1.9351 -0.7934
 4850SOL     OW26185   4.521   4.719   7.698 -0.5334 -0.5361  0.5206
 4850SOL    HW126186   4.468   4.726   7.778 -1.3414 -1.2575  0.0449
 4850SOL    HW226187   4.613   4.730   7.722 -0.9031  0.4325  1.5268
 4851SOL     OW26188   0.917   1.697  10.091 -0.1749  0.8362  0.2539
 4851SOL    HW126189   0.832   1.739  10.085  0.3335  1.3491 -3.1786
 4851SOL    HW226190   0.969   1.775  10.072 -1.2626  1.8831  1.5209
 4852SOL     OW26191   1.680   0.319   2.130 -0.1666  0.0009  0.5746
 4852SOL    HW126192   1.699   0.277   2.214  1.7230 -1.2217 -0.4619
 4852SOL    HW226193   1.766   0.345   2.096  0.3336 -1.4088  0.7579
 4853SOL     OW26194   0.451   1.081   1.251 -0.1538  0.0334 -0.5111
 4853SOL    HW126195   0.424   1.114   1.166  1.9847  3.2128  0.0482
 4853SOL    HW226196   0.492   1.160   1.286  1.3667 -1.0102  0.0472
 4854SOL     OW26197   1.412   1.138   4.430  0.1493 -0.3380  0.8466
 4854SOL    HW126198   1.364   1.079   4.488 -0.7891 -1.7713 -1.4082
 4854SOL    HW226199   1.343   1.176   4.376  1.2191 -2.1004 -1.7424
 4855SOL     OW26200   0.725   2.738  10.654  0.1172 -0.0214 -0.3016
 4855SOL    HW126201   0.776   2.660  10.676 -1.6136 -1.1335 -0.2232
 4855SOL    HW226202   0.795   2.802  10.638  1.0904 -1.0205 -0.0399
 4856SOL     OW26203   2.255   2.175   7.463 -0.5685 -0.2132 -0.4750
 4856SOL    HW126204   2.329   2.135   7.509 -1.3495  0.8213  1.6684
 4856SOL    HW226205   2.282   2.266   7.472 -1.7108 -0.0479  1.2925
 4857SOL     OW26206   2.526   4.159   5.770 -0.3346 -0.3347 -0.2035
 4857SOL    HW126207   2.471   4.170   5.848 -0.4342 -2.9993  0.0784
 4857SOL    HW226208   2.578   4.237   5.792 -1.3416  0.7160 -1.5665
 4858SOL     OW26209   1.570   2.145   6.968  0.8212  0.0904 -0.1238
 4858SOL    HW126210   1.583   2.106   7.055  1.1022  1.6417  0.5346
 4858SOL    HW226211   1.478   2.168   6.980  0.5107 -0.7457 -0.9288
 4859SOL     OW26212   0.406   3.388   5.788 -0.2736  0.0193  0.1278
 4859SOL    HW126213   0.498   3.372   5.766  0.2679 -0.8245  2.9449
 4859SOL    HW226214   0.381   3.309   5.837 -2.4458  1.6221  1.6216
 4860SOL     OW26215   0.644   4.575   7.798 -0.3357  0.5668 -0.2716
 4860SOL    HW126216   0.582   4.604   7.865 -2.0884 -0.9206 -1.2521
 4860SOL    HW226217   0.613   4.489   7.769 -0.9946  1.6853 -2.8596
 4861SOL     OW26218   0.782   2.580   6.319  0.1238  0.5991  0.3952
 4861SOL    HW126219   0.805   2.600   6.410 -3.7510  1.3234  1.1942
 4861SOL    HW226220   0.848   2.517   6.289  1.0113  1.0425  1.4356
 4862SOL     OW26221   0.329   2.482   2.661  0.0729 -0.2325 -0.3387
 4862SOL    HW126222   0.375   2.554   2.705  0.4154 -1.9613  2.1091
 4862SOL    HW226223   0.331   2.508   2.569 -0.5056  0.0824 -0.2631
 4863SOL     OW26224   0.727   0.821  15.266  0.1519  0.0054 -0.1666
 4863SOL    HW126225   0.650   0.767  15.289 -0.4840  0.0942 -2.0716
 4863SOL    HW226226   0.700   0.912  15.275 -0.4086 -0.4214  2.6164
 4864SOL     OW26227   3.435   2.165   5.176  0.3851  0.2868  0.4458
 4864SOL    HW126228   3.359   2.213   5.211 -0.9669 -0.8271 -0.9830
 4864SOL    HW226229   3.442   2.098   5.244  2.2266  0.1034  0.0781
 4865SOL     OW26230   1.319   4.712   9.485 -0.2104  0.3778 -0.2023
 4865SOL    HW126231   1.354   0.066   9.491  1.1525 -0.1110 -1.0005
 4865SOL    HW226232   1.226   0.001   9.481 -0.0566  1.2554  1.1715
 4866SOL     OW26233   2.787   3.761  13.017 -0.2820  0.5288 -0.1585
 4866SOL    HW126234   2.879   3.739  13.033  0.0385  1.9038 -0.0641
 4866SOL    HW226235   2.788   3.745  12.922 -2.3342  2.0793 -0.4442
 4867SOL     OW26236   1.493   1.533   6.716 -0.4617  0.2795  0.3093
 4867SOL    HW126237   1.572   1.585   6.698 -0.8497  0.9280  0.5131
 4867SOL    HW226238   1.478   1.482   6.636 -1.8980  0.7267  0.3049
 4868SOL     OW26239   1.298   2.078   5.167 -0.1397  0.4887  0.5088
 4868SOL    HW126240   1.277   2.143   5.100 -0.3084  0.2743  0.3546
 4868SOL    HW226241   1.374   2.034   5.132 -1.5587 -1.4495 -0.1000
 4869SOL     OW26242   4.502   1.275   8.352 -0.6850  0.1600 -0.2321
 4869SOL    HW126243   4.585   1.294   8.395 -0.4536 -1.6120  0.1436
 4869SOL    HW226244   4.455   1.356   8.369  0.8275  1.2509 -1.3505
 4870SOL     OW26245   4.371   2.085  12.311 -0.3130  0.4032  0.0492
 4870SOL    HW126246   4.369   2.131  12.227  2.2563  1.1622  0.4119
 4870SOL    HW226247   4.427   2.009  12.299 -1.9993 -0.5487 -1.7152
 4871SOL     OW26248   1.757   4.077   6.527  0.1151  0.3591  0.7343
 4871SOL    HW126249   1.689   4.087   6.460  0.0510  1.2050  0.9281
 4871SOL    HW226250   1.711   4.107   6.606  0.8819 -1.6836  1.9278
 4872SOL     OW26251   0.839   0.824   7.828  0.2449 -0.1693 -0.3490
 4872SOL    HW126252   0.786   0.797   7.903 -2.5792 -0.2022 -2.3734
 4872SOL    HW226253   0.791   0.783   7.757 -1.0210  1.2319 -0.3151
 4873SOL     OW26254   4.475   2.903   3.590 -0.2373  0.0031  0.2390
 4873SOL    HW126255   4.407   2.926   3.527 -1.2823  0.3913  1.5024
 4873SOL    HW226256   4.547   2.885   3.529  1.1856  0.1387  1.8673
 4874SOL     OW26257   4.103   0.698   8.137  0.0192  0.5594 -0.2175
 4874SOL    HW126258   4.090   0.786   8.103 -0.5543 -0.0426 -1.5693
 4874SOL    HW226259   4.033   0.652   8.091 -0.9786  0.3539  1.5153
 4875SOL     OW26260   2.954   2.848  16.259  0.0776 -0.0866  0.3029
 4875SOL    HW126261   2.866   2.840  16.295 -0.3288 -0.1732 -0.7126
 4875SOL    HW226262   2.979   2.756  16.257 -1.3687 -0.4564 -0.4485
 4876SOL     OW26263   1.309   4.122   8.147 -0.2501  0.0838  0.0901
 4876SOL    HW126264   1.394   4.157   8.173 -0.1489 -0.8374  0.9989
 4876SOL    HW226265   1.282   4.190   8.085 -0.6647  0.8029  1.0654
 4877SOL     OW26266   0.132   1.317   6.799 -0.1239  0.4360  0.0506
 4877SOL    HW126267   0.165   1.392   6.749  0.7609 -0.4513 -0.6902
 4877SOL    HW226268   0.171   1.335   6.885  0.4422  1.0674 -0.3310
 4878SOL     OW26269   3.060   1.404   1.787  0.3823  0.5515  0.2933
 4878SOL    HW126270   3.004   1.409   1.710 -1.2418 -1.4557  1.3522
 4878SOL    HW226271   3.137   1.439   1.743  0.0565  2.8804  1.5140
 4879SOL     OW26272   3.471   0.336  12.345  0.0795  0.3108 -0.3062
 4879SOL    HW126273   3.408   0.363  12.279  0.3595 -1.3188 -1.2306
 4879SOL    HW226274   3.510   0.258  12.306 -0.3707  1.0052 -2.0994
 4880SOL     OW26275   0.757   3.734   2.174  0.2449 -0.4506  0.2551
 4880SOL    HW126276   0.852   3.737   2.176  0.2436  1.2480 -1.8934
 4880SOL    HW226277   0.744   3.710   2.266 -1.2680 -0.6359  0.0018
 4881SOL     OW26278   0.427   3.674   7.359 -0.5147 -0.2960 -0.3686
 4881SOL    HW126279   0.464   3.690   7.446 -1.5374 -1.9217  0.3698
 4881SOL    HW226280   0.340   3.636   7.370 -0.9620  1.9793  3.6310
 4882SOL     OW26281   0.449   3.510   5.365  0.0108  0.6251 -0.1768
 4882SOL    HW126282   0.538   3.533   5.394  0.1544 -0.3669  0.1626
 4882SOL    HW226283   0.436   3.572   5.293  0.9511 -0.6351 -1.4373
 4883SOL     OW26284   4.175   2.608   6.201  0.3974 -0.2709  0.3215
 4883SOL    HW126285   4.118   2.681   6.224 -1.6041 -0.8526 -2.7160
 4883SOL    HW226286   4.262   2.641   6.223  0.6430 -0.0554 -0.9539
 4884SOL     OW26287   3.595   0.437   5.853 -0.0758 -0.1274  0.1077
 4884SOL    HW126288   3.630   0.355   5.889 -1.2408  0.0343  1.5950
 4884SOL    HW226289   3.601   0.412   5.761 -2.1839 -0.1015 -0.0458
 4885SOL     OW26290   4.157   0.267  11.913  0.3410  0.1360  0.2588
 4885SOL    HW126291   4.183   0.180  11.880  1.6016  0.5046  0.2721
 4885SOL    HW226292   4.197   0.324  11.847  0.4223  0.0202  0.2060
 4886SOL     OW26293   0.196   0.367  15.506 -0.2261 -0.1589  0.2163
 4886SOL    HW126294   0.103   0.389  15.505  0.2873  1.8682 -2.1074
 4886SOL    HW226295   0.195   0.298  15.573  1.2882 -0.8711 -0.4992
 4887SOL     OW26296   3.969   0.148  12.044  0.3057  0.3961 -0.2915
 4887SOL    HW126297   4.032   0.203  11.996  2.0943 -0.8436  0.6574
 4887SOL    HW226298   3.903   0.209  12.078 -0.4927  0.4155 -1.8358
 4888SOL     OW26299   1.114   1.654   6.371 -0.1975 -0.3853 -0.6694
 4888SOL    HW126300   1.203   1.622   6.384  0.1527  0.1970 -1.6302
 4888SOL    HW226301   1.078   1.587   6.312 -1.2001  0.8992 -1.5321
 4889SOL     OW26302   0.799   0.249   7.927 -0.0622  0.1237  0.4057
 4889SOL    HW126303   0.734   0.297   7.978 -0.6880 -2.2020  1.7728
 4889SOL    HW226304   0.869   0.235   7.991  2.9260  2.4592 -2.3331
 4890SOL     OW26305   3.339   2.810   0.707  0.0345  0.2535  1.0504
 4890SOL    HW126306   3.302   2.737   0.658 -1.1770  1.5844 -0.0313
 4890SOL    HW226307   3.262   2.859   0.737 -1.1469 -1.2715  0.4618
 4891SOL     OW26308   4.015   2.357   8.486  0.0991  0.1093  0.3178
 4891SOL    HW126309   3.953   2.305   8.435  1.2164  1.9688 -3.0099
 4891SOL    HW226310   3.953   2.408   8.538 -0.0809  2.0558 -1.8084
 4892SOL     OW26311   2.034   3.413   2.216 -0.0785  0.6152 -0.5711
 4892SOL    HW126312   1.962   3.466   2.183  0.7415  0.5215 -2.5335
 4892SOL    HW226313   2.094   3.482   2.245  0.0264  0.7014 -0.9982
 4893SOL     OW26314   0.028   2.183  16.784  0.1235  0.4323  0.3170
 4893SOL    HW126315   4.719   2.255  16.831  0.7967 -0.1565  1.8528
 4893SOL    HW226316   0.107   2.233  16.760 -0.4277  1.2228  0.1375
 4894SOL     OW26317   1.077   0.737  13.477 -0.2857  0.1435  0.1628
 4894SOL    HW126318   1.120   0.684  13.544 -0.0984  0.2429  0.1222
 4894SOL    HW226319   1.004   0.775  13.526 -1.9783 -1.3768 -1.1693
 4895SOL     OW26320   3.484   2.067   6.910 -0.7257 -0.1889 -0.4286
 4895SOL    HW126321   3.541   2.081   6.986 -2.1621 -1.4210  0.9005
 4895SOL    HW226322   3.496   2.152   6.869 -1.5211  0.1459  0.0320
 4896SOL     OW26323   4.549   2.235  13.477 -0.1719 -0.2884 -0.0752
 4896SOL    HW126324   4.584   2.169  13.536  1.6930  0.8517  0.0917
 4896SOL    HW226325   4.622   2.244  13.416  1.2668 -0.1250  1.6897
 4897SOL     OW26326   1.596   4.644   4.345  0.5418  0.1004 -0.7846
 4897SOL    HW126327   1.682   4.687   4.347  2.3996 -3.7168  1.6632
 4897SOL    HW226328   1.567   4.687   4.264  0.1035  0.9866 -0.1505
 4898SOL     OW26329   3.238   4.249   6.355  0.4611  0.3132 -0.1545
 4898SOL    HW126330   3.334   4.244   6.361  0.5547  1.4160 -0.7866
 4898SOL    HW226331   3.219   4.301   6.277  2.0169  0.8269 -0.1869
 4899SOL     OW26332   0.753   1.108   4.489  0.2772  0.3143  0.6168
 4899SOL    HW126333   0.660   1.124   4.470  0.2475 -0.6819 -0.0607
 4899SOL    HW226334   0.780   1.179   4.548  0.6313  0.9231 -0.2752
 4900SOL     OW26335   0.181   1.165   8.168  0.0708 -0.5720  0.2300
 4900SOL    HW126336   0.241   1.225   8.125 -0.4162  0.1478  0.5523
 4900SOL    HW226337   0.139   1.224   8.232  0.4112 -0.4320  0.3225
 4901SOL     OW26338   0.894   2.837   5.849 -0.1810  0.1100 -0.1003
 4901SOL    HW126339   0.861   2.776   5.915 -1.5600  0.9504 -0.0022
 4901SOL    HW226340   0.974   2.792   5.822  0.0596 -0.7275  2.0115
 4902SOL     OW26341   2.822   2.619   6.574  0.1811 -0.5086  0.2538
 4902SOL    HW126342   2.862   2.676   6.640  1.5576 -2.1316  0.8040
 4902SOL    HW226343   2.742   2.591   6.618  0.4895  0.7951  1.6465
 4903SOL     OW26344   1.557   2.723  16.044 -0.3838 -0.5772 -0.7173
 4903SOL    HW126345   1.522   2.756  15.961 -0.8030  3.6519  1.1201
 4903SOL    HW226346   1.509   2.640  16.043 -1.7251  0.1758  1.6542
 4904SOL     OW26347   2.851   4.136  13.444 -0.4577  0.0336  0.5059
 4904SOL    HW126348   2.759   4.130  13.418  0.1442 -2.5279 -1.0089
 4904SOL    HW226349   2.863   4.052  13.488 -1.7297 -1.0374 -1.2246
 4905SOL     OW26350   4.526   1.556  17.322 -0.0636 -0.8287 -0.2790
 4905SOL    HW126351   4.579   1.577  17.245 -2.1917  0.1102 -1.4780
 4905SOL    HW226352   4.544   1.629  17.380 -1.2514 -0.4895 -0.3407
 4906SOL     OW26353   1.205   0.110   6.814 -0.0160  0.0179  0.2582
 4906SOL    HW126354   1.284   0.147   6.776 -0.6248 -1.3978 -2.3811
 4906SOL    HW226355   1.234   0.095   6.904 -0.9125  1.2903  0.7665
 4907SOL     OW26356   0.625   3.658  13.417  0.8309  0.2424  0.8150
 4907SOL    HW126357   0.536   3.694  13.419  0.6214 -0.1232 -3.0904
 4907SOL    HW226358   0.609   3.565  13.405 -1.4409  0.7096  0.1970
 4908SOL     OW26359   4.525   4.529   4.145  0.6008  0.0628 -0.0946
 4908SOL    HW126360   4.529   4.604   4.203  3.0733 -1.5200  1.7568
 4908SOL    HW226361   4.607   4.484   4.162  0.5577  0.6127  1.4768
 4909SOL     OW26362   1.632   1.902   6.869 -0.1717  0.1874 -0.1798
 4909SOL    HW126363   1.691   1.880   6.942 -0.8274 -1.0928 -0.0439
 4909SOL    HW226364   1.602   1.990   6.894 -0.8488  0.0066 -0.3714
 4910SOL     OW26365   3.621   0.041  11.314  0.2197  0.7066  0.4698
 4910SOL    HW126366   3.624   0.132  11.283  0.8384  0.9827  1.3544
 4910SOL    HW226367   3.564   0.064  11.386  0.4254  1.5004  0.3737
 4911SOL     OW26368   0.360   2.993   0.556  0.4658  0.0445 -0.2258
 4911SOL    HW126369   0.447   2.957   0.536  0.9576  0.5656  0.9523
 4911SOL    HW226370   0.303   2.945   0.497 -0.3663 -0.3680  0.9203
 4912SOL     OW26371   0.716   2.510   4.405 -0.2634  0.5146  0.4219
 4912SOL    HW126372   0.737   2.455   4.329  0.3592  0.9334  0.2933
 4912SOL    HW226373   0.621   2.521   4.397 -0.0327  1.6276 -0.6704
 4913SOL     OW26374   3.812   3.189  10.104 -0.2498 -0.0951 -0.2145
 4913SOL    HW126375   3.814   3.191  10.200 -1.1216  1.4398 -0.2377
 4913SOL    HW226376   3.717   3.186  10.103 -0.2657 -0.1181  0.7404
 4914SOL     OW26377   3.787   0.904  12.541  0.0530  0.9324  0.0020
 4914SOL    HW126378   3.723   0.920  12.471 -2.1707  1.3078  2.1224
 4914SOL    HW226379   3.770   0.815  12.569 -4.3977  1.7622 -0.1011
 4915SOL     OW26380   3.264   1.774   7.392  0.1968 -0.3971 -0.1029
 4915SOL    HW126381   3.328   1.845   7.382  2.4355 -2.2344  1.1655
 4915SOL    HW226382   3.191   1.827   7.361 -0.1067 -0.1766  1.0287
 4916SOL     OW26383   4.266   1.035   5.750  0.5347 -0.1520 -0.1414
 4916SOL    HW126384   4.325   1.072   5.685  1.0136 -0.2639  0.2255
 4916SOL    HW226385   4.189   1.089   5.730 -0.9495 -1.6457  1.5947
 4917SOL     OW26386   1.460   0.456   5.952 -0.1997  0.2468  0.3585
 4917SOL    HW126387   1.387   0.506   5.915 -1.9588 -2.1357  0.6281
 4917SOL    HW226388   1.505   0.418   5.876 -2.5049  1.0224 -1.4243
 4918SOL     OW26389   2.147   2.321   3.244 -0.1768 -0.3849  0.1112
 4918SOL    HW126390   2.121   2.388   3.306 -0.8377 -1.3692  0.9001
 4918SOL    HW226391   2.236   2.344   3.217 -0.8728 -0.3701 -2.1722
 4919SOL     OW26392   1.035   0.172   7.594 -0.0237  0.2159 -0.1312
 4919SOL    HW126393   1.075   0.206   7.514  2.0063  2.6488  1.9120
 4919SOL    HW226394   0.948   0.145   7.563  1.5039 -4.1336 -0.5503
 4920SOL     OW26395   2.471   2.050   8.213 -0.4916 -0.4980 -0.3751
 4920SOL    HW126396   2.385   2.008   8.209 -0.6518 -0.3590  1.7445
 4920SOL    HW226397   2.451   2.131   8.164 -0.0793  0.3126  0.7960
 4921SOL     OW26398   3.710   3.646   4.125 -0.5461 -0.2223  0.3478
 4921SOL    HW126399   3.754   3.595   4.058 -2.2789 -1.4149  0.1107
 4921SOL    HW226400   3.659   3.582   4.174  0.1080 -1.0482 -0.0522
 4922SOL     OW26401   1.142   3.353   7.218  0.5120 -0.3223  0.3589
 4922SOL    HW126402   1.227   3.363   7.176 -0.0049  2.0185 -0.1592
 4922SOL    HW226403   1.084   3.337   7.143  0.8179  2.1191 -0.3985
 4923SOL     OW26404   1.741   0.993   8.376 -0.7410 -0.3684  0.4978
 4923SOL    HW126405   1.807   1.062   8.388 -1.7899  0.6366  0.5549
 4923SOL    HW226406   1.766   0.958   8.290 -2.8205 -1.0954  0.1892
 4924SOL     OW26407   3.084   4.111  12.434  0.5371  0.2074  0.3253
 4924SOL    HW126408   3.037   4.065  12.504 -1.5816 -1.1779 -2.0113
 4924SOL    HW226409   3.076   4.203  12.456 -2.3293  0.0012  0.1343
 4925SOL     OW26410   4.362   4.404   4.437 -0.4701  0.4100 -0.4246
 4925SOL    HW126411   4.429   4.393   4.504 -0.8483  0.5563 -0.0219
 4925SOL    HW226412   4.363   4.499   4.422  0.2539  0.5387  0.4448
 4926SOL     OW26413   2.772   2.918   8.928  0.1457  0.9430  0.2020
 4926SOL    HW126414   2.794   2.832   8.964  4.7470  0.6657 -3.2365
 4926SOL    HW226415   2.721   2.951   9.002 -0.1768 -1.9146  1.2368
 4927SOL     OW26416   1.111   1.437   4.386  0.0695  0.1331 -0.1722
 4927SOL    HW126417   1.117   1.481   4.470 -1.1785 -0.6020  0.2891
 4927SOL    HW226418   1.076   1.513   4.339 -0.3273 -0.2504 -0.4970
 4928SOL     OW26419   2.736   4.704   2.631 -0.9083  0.2355 -0.2449
 4928SOL    HW126420   2.806   4.650   2.667  0.2162  0.6477 -1.8214
 4928SOL    HW226421   2.668   4.697   2.698 -0.1125  0.1496  0.5432
 4929SOL     OW26422   0.139   1.531   8.669 -0.0330 -0.2284  0.0064
 4929SOL    HW126423   0.171   1.534   8.759  1.4464 -0.3265 -0.5128
 4929SOL    HW226424   0.217   1.497   8.626  0.3484  0.9027 -0.2043
 4930SOL     OW26425   0.056   3.756   7.268  0.1983  0.1809 -0.2019
 4930SOL    HW126426   0.126   3.700   7.232  1.7497  1.0309  1.4930
 4930SOL    HW226427   0.086   3.844   7.243 -0.1136  0.4944  0.5291
 4931SOL     OW26428   1.490   1.246   8.803  0.1338  0.2183 -0.2954
 4931SOL    HW126429   1.476   1.338   8.823 -0.1702 -0.8121  4.4133
 4931SOL    HW226430   1.539   1.225   8.883  1.3836  3.1753 -0.2917
 4932SOL     OW26431   2.964   3.625   3.159  0.7684 -0.0479 -0.0013
 4932SOL    HW126432   2.919   3.633   3.075  0.8105  0.3946  0.0187
 4932SOL    HW226433   3.033   3.692   3.163  0.0522  0.7850 -1.6422
 4933SOL     OW26434   3.957   3.255   3.611 -0.4184  0.0445 -0.4443
 4933SOL    HW126435   4.000   3.221   3.689  1.2889 -1.0883 -1.8772
 4933SOL    HW226436   3.954   3.179   3.552  1.4636 -0.2707 -0.1146
 4934SOL     OW26437   4.056   0.127   7.586  0.4207 -0.0248  0.2638
 4934SOL    HW126438   4.003   0.054   7.552  0.1295 -0.1487  0.9896
 4934SOL    HW226439   4.015   0.204   7.545 -0.5400  0.7805  2.7678
 4935SOL     OW26440   1.248   0.652  14.304 -0.0987  0.2879 -0.2755
 4935SOL    HW126441   1.286   0.592  14.241  0.2902 -1.3738  1.5667
 4935SOL    HW226442   1.328   0.697  14.331 -1.6287  4.0273 -1.9735
 4936SOL     OW26443   0.883   0.412   1.371 -0.0339  0.1529  0.3561
 4936SOL    HW126444   0.977   0.429   1.361 -0.6155  3.1371  0.0743
 4936SOL    HW226445   0.852   0.490   1.417  0.1541  1.7688 -2.2756
 4937SOL     OW26446   4.078   0.753   2.356 -0.2053 -0.2125  0.2496
 4937SOL    HW126447   4.163   0.713   2.335 -0.0187  1.3821 -2.0780
 4937SOL    HW226448   4.110   0.835   2.393 -0.4323 -0.5274  1.1488
 4938SOL     OW26449   2.308   0.482  14.481  0.2676  0.4450 -0.6047
 4938SOL    HW126450   2.278   0.537  14.409  0.3485  0.1768 -0.8457
 4938SOL    HW226451   2.242   0.414  14.497 -0.6992  0.9086 -2.6765
 4939SOL     OW26452   3.481   4.624   7.805 -0.1301 -0.2896 -0.0752
 4939SOL    HW126453   3.469   4.712   7.840  1.6340  1.2643 -3.4021
 4939SOL    HW226454   3.531   4.649   7.728 -0.1381 -2.4830 -0.8174
 4940SOL     OW26455   3.020   3.376   1.551 -0.5296  1.2289  0.1669
 4940SOL    HW126456   3.071   3.317   1.495 -1.4932  2.6747 -2.2681
 4940SOL    HW226457   3.039   3.340   1.637 -2.1657  1.0046  0.4293
 4941SOL     OW26458   1.641   1.164   7.041  0.3637 -0.1358  0.1369
 4941SOL    HW126459   1.555   1.182   7.003  0.2713  2.3773  1.5154
 4941SOL    HW226460   1.690   1.099   6.991 -2.1612  0.0100 -2.5430
 4942SOL     OW26461   3.182   1.945   5.546 -0.0622 -0.5316 -0.2424
 4942SOL    HW126462   3.157   1.996   5.623 -0.0258  0.5961 -0.9819
 4942SOL    HW226463   3.102   1.897   5.522  0.5844 -2.3736  1.2962
 4943SOL     OW26464   3.004   3.721   1.345 -0.5975  0.2754  0.0606
 4943SOL    HW126465   2.936   3.788   1.339  1.4868  2.1836 -2.6329
 4943SOL    HW226466   2.991   3.684   1.431 -0.9110  1.4310  0.5149
 4944SOL     OW26467   3.620   1.985   6.605  0.1273  0.2343  0.2861
 4944SOL    HW126468   3.666   2.006   6.686 -2.7332  1.2349  1.6403
 4944SOL    HW226469   3.599   2.070   6.566 -1.5292  0.0766  0.8394
 4945SOL     OW26470   1.466   4.220   9.437  0.2371 -0.0848  0.0409
 4945SOL    HW126471   1.481   4.166   9.514 -1.4257  1.8967  1.7542
 4945SOL    HW226472   1.435   4.299   9.482 -1.7026  0.1489 -1.7088
 4946SOL     OW26473   1.887   2.866   8.943 -0.1278  0.0742 -0.1859
 4946SOL    HW126474   1.875   2.792   8.883 -3.1468  1.4555 -1.2926
 4946SOL    HW226475   1.868   2.941   8.887 -0.8100  0.5488  0.6656
 4947SOL     OW26476   1.328   3.110   5.602  0.1550  0.2200 -0.4113
 4947SOL    HW126477   1.335   3.139   5.693 -1.8188  0.2294 -0.2559
 4947SOL    HW226478   1.417   3.085   5.578  0.2240  1.9641 -1.9797
 4948SOL     OW26479   4.647   4.491   2.608 -0.4134 -0.1356 -0.3167
 4948SOL    HW126480   4.699   4.491   2.689  1.5192 -4.3950 -1.5170
 4948SOL    HW226481   4.607   4.577   2.621  0.1953  0.1940 -0.5895
 4949SOL     OW26482   3.368   3.850   4.112  0.0763 -0.1484 -0.4108
 4949SOL    HW126483   3.455   3.810   4.109  0.2370  0.3603 -2.2394
 4949SOL    HW226484   3.339   3.809   4.193 -0.9209 -0.9545 -1.1763
 4950SOL     OW26485   0.097   0.044  11.875 -0.8836 -0.0053 -0.2998
 4950SOL    HW126486   0.153   4.720  11.927 -0.5022  0.0982 -0.5982
 4950SOL    HW226487   0.072   0.102  11.947  0.2520 -1.2627  1.1122
 4951SOL     OW26488   2.402   3.980  16.897 -0.1175 -0.3066 -0.3950
 4951SOL    HW126489   2.394   3.905  16.956  0.6648  0.3422  0.5214
 4951SOL    HW226490   2.333   3.961  16.833 -0.0164  1.1854 -0.9519
 4952SOL     OW26491   1.194   0.472   7.162  0.0261 -0.2209 -0.5703
 4952SOL    HW126492   1.288   0.490   7.158 -0.1652  1.0167  0.7901
 4952SOL    HW226493   1.150   0.537   7.216 -2.5893 -3.5224  1.3116
 4953SOL     OW26494   2.360   3.542  13.992  0.1256 -0.0184 -0.1927
 4953SOL    HW126495   2.435   3.599  13.977 -1.2862  1.3090 -2.1039
 4953SOL    HW226496   2.399   3.470  14.042 -0.7768 -0.8510 -0.6773
 4954SOL     OW26497   1.705   0.404   8.214  0.1261 -0.5968  0.4118
 4954SOL    HW126498   1.776   0.363   8.163  0.9825  0.7808  0.4882
 4954SOL    HW226499   1.731   0.359   8.294  1.3011 -2.2143 -0.8964
 4955SOL     OW26500   2.889   2.858  13.413 -0.2514 -0.3274  0.4555
 4955SOL    HW126501   2.956   2.927  13.409 -1.7831  1.0782 -0.9485
 4955SOL    HW226502   2.826   2.899  13.471 -0.0013  1.3746 -0.4837
 4956SOL     OW26503   2.478   3.128   5.486  0.5408  0.4088 -0.5540
 4956SOL    HW126504   2.427   3.087   5.556 -0.0993  2.2528  0.0791
 4956SOL    HW226505   2.556   3.156   5.533  0.6546 -1.6657  0.4609
 4957SOL     OW26506   1.150   2.220   2.356  0.1605 -0.6341 -0.3531
 4957SOL    HW126507   1.217   2.152   2.364  1.3732  0.3898 -1.8337
 4957SOL    HW226508   1.114   2.192   2.272 -1.9287 -0.0101  0.3276
 4958SOL     OW26509   1.971   4.718  15.988 -0.2006 -0.8469  0.2394
 4958SOL    HW126510   2.004   4.678  16.068  2.7702  0.6193 -0.2855
 4958SOL    HW226511   2.050   0.020  15.949 -1.7641  0.0430 -2.0972
 4959SOL     OW26512   1.008   3.687   0.753  0.2152  0.3452  0.0858
 4959SOL    HW126513   1.084   3.738   0.725  2.0436 -1.6746  1.4443
 4959SOL    HW226514   0.946   3.759   0.764  0.7331  0.5962  1.2453
 4960SOL     OW26515   1.398   3.133  12.721 -0.3261 -0.1705  0.0418
 4960SOL    HW126516   1.338   3.058  12.722  1.9367 -1.9806 -1.3970
 4960SOL    HW226517   1.449   3.117  12.800 -2.9178  0.8725  1.9386
 4961SOL     OW26518   2.902   2.251   4.197  0.0713  0.1891  0.4412
 4961SOL    HW126519   2.856   2.259   4.280  1.8707 -2.0493  1.6530
 4961SOL    HW226520   2.950   2.170   4.216 -2.3672 -1.3785  0.0046
 4962SOL     OW26521   0.756   3.399   8.833 -0.2814  0.0087 -0.1357
 4962SOL    HW126522   0.790   3.311   8.852  2.8957  0.6760 -2.7693
 4962SOL    HW226523   0.824   3.450   8.876 -0.5774 -0.0755  0.4282
 4963SOL     OW26524   2.141   4.485   2.772  0.3555 -0.0816 -0.2632
 4963SOL    HW126525   2.154   4.550   2.841 -1.9889 -0.6957  0.7713
 4963SOL    HW226526   2.233   4.471   2.753  0.0302  0.0201 -1.9104
 4964SOL     OW26527   2.308   3.204  13.749 -0.5535 -0.2165 -0.0999
 4964SOL    HW126528   2.226   3.238  13.713  1.2516  2.5771 -1.5765
 4964SOL    HW226529   2.324   3.135  13.684 -1.5560  0.0956 -0.6843
 4965SOL     OW26530   4.261   3.486   2.728  0.3042  0.3283 -0.1187
 4965SOL    HW126531   4.272   3.581   2.738 -0.4611  0.3367  0.5936
 4965SOL    HW226532   4.223   3.470   2.814 -0.1788  0.1277 -0.3706
 4966SOL     OW26533   1.612   2.766   0.347  0.0491 -0.4234 -0.2148
 4966SOL    HW126534   1.573   2.680   0.360  1.2141 -0.7505  1.1302
 4966SOL    HW226535   1.538   2.813   0.385  0.0178 -0.3811 -0.3286
 4967SOL     OW26536   2.842   4.461   6.868 -1.0890 -0.0037  0.1199
 4967SOL    HW126537   2.749   4.450   6.847 -0.7144  0.3493 -1.6902
 4967SOL    HW226538   2.883   4.382   6.833 -0.8884  1.1811 -2.2701
 4968SOL     OW26539   1.926   0.558  12.506 -0.2812  0.2773  0.3204
 4968SOL    HW126540   1.974   0.500  12.564 -0.2809 -0.0912 -0.0488
 4968SOL    HW226541   1.951   0.527  12.419  0.1796  1.7470 -0.0718
 4969SOL     OW26542   1.268   4.501  15.260 -0.0829  0.2400 -0.2488
 4969SOL    HW126543   1.345   4.445  15.248  0.3516  0.5520  1.1711
 4969SOL    HW226544   1.300   4.582  15.298  1.4626  0.0592 -1.1555
 4970SOL     OW26545   1.008   3.133   4.993 -0.2844  0.0992  0.8910
 4970SOL    HW126546   0.928   3.083   5.008 -0.5423  0.1816 -0.1891
 4970SOL    HW226547   0.984   3.192   4.921 -3.4113 -2.0990  0.1394
 4971SOL     OW26548   4.671   4.381  10.781  0.6236  0.1261 -0.0400
 4971SOL    HW126549   4.721   4.461  10.795 -1.1965  0.7416  2.8232
 4971SOL    HW226550   4.718   4.356  10.701  2.2909 -0.8136  1.2336
 4972SOL     OW26551   0.504   0.039   0.700 -0.2596  0.4372 -0.1394
 4972SOL    HW126552   0.456   4.697   0.667  2.5736 -1.1359 -0.6338
 4972SOL    HW226553   0.562   4.730   0.763 -0.9416 -2.2002 -1.3093
 4973SOL     OW26554   0.235   1.060   6.197 -0.5318 -0.6286 -0.0532
 4973SOL    HW126555   0.199   1.079   6.110  1.9476  1.2181 -0.6679
 4973SOL    HW226556   0.229   1.148   6.236 -2.1192 -0.4270 -0.7508
 4974SOL     OW26557   0.592   3.116   1.697  0.3084 -0.2303 -0.1329
 4974SOL    HW126558   0.569   3.191   1.642 -1.8991 -0.2263  0.8004
 4974SOL    HW226559   0.526   3.130   1.766  0.2867  0.6476 -0.3350
 4975SOL     OW26560   1.943   2.045  12.507  0.5186 -0.2154  0.3231
 4975SOL    HW126561   1.997   2.006  12.576  1.5483 -0.7999 -0.7999
 4975SOL    HW226562   2.004   2.109  12.471  1.2068 -1.1869 -0.2394
 4976SOL     OW26563   4.700   3.710   2.390 -0.2219 -0.5941 -0.6132
 4976SOL    HW126564   0.049   3.723   2.344  1.5630 -1.0267  2.4556
 4976SOL    HW226565   4.649   3.714   2.310 -0.8712 -0.5204 -0.1903
 4977SOL     OW26566   0.857   2.435  17.603 -0.0186 -0.0138  1.0489
 4977SOL    HW126567   0.884   2.381  17.677 -3.7339  1.8285  3.7843
 4977SOL    HW226568   0.827   2.374  17.536 -0.1585 -0.5763  1.6127
 4978SOL     OW26569   3.222   3.995   2.780 -0.5778  0.3093 -0.4781
 4978SOL    HW126570   3.176   3.913   2.761  0.8497 -0.5180 -0.3592
 4978SOL    HW226571   3.230   4.043   2.697  2.2753  1.3522  0.3888
 4979SOL     OW26572   4.394   1.162   1.544  0.6120  0.3099  0.0201
 4979SOL    HW126573   4.441   1.232   1.589  0.0385  1.5814 -1.3760
 4979SOL    HW226574   4.375   1.203   1.460 -1.0615 -1.2128 -0.3636
 4980SOL     OW26575   0.114   4.732   5.973 -0.0197  0.0150 -0.1181
 4980SOL    HW126576   0.029   0.037   5.996  1.9728  2.8661  2.2936
 4980SOL    HW226577   0.166   0.077   5.960 -1.0439  0.7069 -0.0026
 4981SOL     OW26578   3.085   2.721   6.193  0.1062  0.5598  0.5317
 4981SOL    HW126579   3.113   2.781   6.124 -1.1320 -1.1983 -1.4890
 4981SOL    HW226580   3.006   2.677   6.162  1.0098  0.3888 -1.5524
 4982SOL     OW26581   0.014   0.410  10.115 -0.5316 -0.1002 -0.2505
 4982SOL    HW126582   0.029   0.473  10.186 -1.3468 -2.1763  1.7579
 4982SOL    HW226583   4.654   0.424  10.111 -0.5875 -0.4276 -0.0704
 4983SOL     OW26584   3.691   0.667   3.809  0.2455  0.4327 -0.0753
 4983SOL    HW126585   3.683   0.581   3.849  0.4842  0.9578  1.1031
 4983SOL    HW226586   3.624   0.659   3.741  0.0586 -0.1527  0.1733
 4984SOL     OW26587   1.738   1.707   2.041 -0.1494  0.1878 -0.1284
 4984SOL    HW126588   1.678   1.632   2.045 -0.4092  0.5588  3.7885
 4984SOL    HW226589   1.733   1.724   1.947  0.5557  0.6834 -0.0741
 4985SOL     OW26590   2.418   2.108   0.401 -0.6342 -0.5163 -0.2873
 4985SOL    HW126591   2.482   2.095   0.472 -2.0864 -2.2040  0.6896
 4985SOL    HW226592   2.371   2.187   0.429 -0.3792 -1.0375  1.5986
 4986SOL     OW26593   1.067   2.177   1.810 -0.3572 -0.1928 -0.3698
 4986SOL    HW126594   0.978   2.182   1.777  0.0663  1.5138 -1.3082
 4986SOL    HW226595   1.098   2.256   1.765 -0.5183 -0.4336 -0.8985
 4987SOL     OW26596   1.479   1.789  16.439 -0.0986  0.3829 -0.0983
 4987SOL    HW126597   1.570   1.776  16.412  0.1252 -0.7268  1.2236
 4987SOL    HW226598   1.453   1.700  16.415 -1.5691  0.3601  1.6272
 4988SOL     OW26599   3.406   3.040   7.773  0.2131 -1.0472 -0.4210
 4988SOL    HW126600   3.376   3.115   7.823 -1.1029 -2.3160  0.6901
 4988SOL    HW226601   3.360   2.967   7.815 -1.3293 -0.0745 -0.4020
 4989SOL     OW26602   0.831   0.993   4.199  0.9341 -0.0694  0.4271
 4989SOL    HW126603   0.766   1.037   4.253  1.0209  0.9610 -0.3029
 4989SOL    HW226604   0.874   1.059   4.145  2.7618 -0.6733  1.1420
 4990SOL     OW26605   2.068   2.098  10.186  0.0021  0.1711  0.2388
 4990SOL    HW126606   2.037   2.117  10.097  1.0578  0.1868 -0.1283
 4990SOL    HW226607   2.160   2.121  10.174  0.9685 -2.1102  3.2070
 4991SOL     OW26608   2.872   4.436   2.019  0.0694  0.2280 -0.4071
 4991SOL    HW126609   2.795   4.409   1.970 -0.5388 -0.7978  1.1202
 4991SOL    HW226610   2.918   4.353   2.033  0.6915  0.6465  0.0277
 4992SOL     OW26611   0.384   1.258   3.704  0.5999 -0.8372  0.1951
 4992SOL    HW126612   0.361   1.311   3.628  1.5899 -0.8220 -0.0982
 4992SOL    HW226613   0.303   1.207   3.702 -0.3634  0.7730 -1.8773
 4993SOL     OW26614   4.074   4.695   8.585 -0.7349  0.1507  0.5204
 4993SOL    HW126615   4.017   4.618   8.584 -2.7583  1.6182  2.1963
 4993SOL    HW226616   4.129   4.676   8.510 -0.4722  2.3998  0.1277
 4994SOL     OW26617   4.135   1.316   3.042 -0.5711  0.3472  0.0006
 4994SOL    HW126618   4.205   1.382   3.039  2.4868 -3.1113 -5.7366
 4994SOL    HW226619   4.116   1.302   3.134  0.8552 -0.7651  0.1246
 4995SOL     OW26620   0.856   3.586   6.884  0.1385  0.1930  0.0089
 4995SOL    HW126621   0.829   3.678   6.888  1.6175  0.7248 -2.3225
 4995SOL    HW226622   0.924   3.581   6.950 -1.4383 -0.8937  1.5629
 4996SOL     OW26623   3.191   1.139   1.776  0.0305 -0.0439  0.4096
 4996SOL    HW126624   3.144   1.223   1.782 -1.3117 -0.8328  1.0582
 4996SOL    HW226625   3.216   1.135   1.684 -1.2625 -0.3981  0.0764
 4997SOL     OW26626   0.015   4.044   5.311 -0.3156  0.1403  0.2543
 4997SOL    HW126627   0.109   4.037   5.293 -0.2330 -0.5763  0.9511
 4997SOL    HW226628   4.728   3.980   5.379 -1.0767 -0.1299 -0.2426
 4998SOL     OW26629   1.701   0.898   1.710 -0.2181 -0.3527 -0.1804
 4998SOL    HW126630   1.778   0.872   1.658  1.2742 -2.3428  2.9698
 4998SOL    HW226631   1.743   0.879   1.794 -0.3778  1.7663  0.3828
 4999SOL     OW26632   3.082   0.275   8.865 -0.1061 -0.6392  0.4502
 4999SOL    HW126633   3.018   0.287   8.795  2.0990  0.7369 -1.3635
 4999SOL    HW226634   3.056   0.189   8.896  1.4074 -0.9865  0.7654
 5000SOL     OW26635   2.956   3.117   5.107 -0.0236 -0.3710 -0.5183
 5000SOL    HW126636   3.018   3.145   5.039  2.2063 -0.1854  1.5913
 5000SOL    HW226637   3.007   3.156   5.177  0.1178 -0.4776 -0.5604
 5001SOL     OW26638   2.425   4.159   0.950 -0.4035  0.1149  0.5892
 5001SOL    HW126639   2.511   4.170   0.990  0.1776 -1.6511 -0.1530
 5001SOL    HW226640   2.378   4.108   1.016 -0.0399 -2.4714 -1.1230
 5002SOL     OW26641   3.970   3.451   4.360  0.9435 -0.1366  0.5921
 5002SOL    HW126642   3.889   3.454   4.308 -0.0945 -2.7174  2.0602
 5002SOL    HW226643   4.032   3.425   4.291  0.9500 -0.7791  0.8377
 5003SOL     OW26644   1.502   2.998   7.370  0.1253 -0.6430  0.3627
 5003SOL    HW126645   1.416   3.032   7.393 -0.5815 -2.7416  0.8712
 5003SOL    HW226646   1.476   2.958   7.288  0.3260  0.6692 -0.3406
 5004SOL     OW26647   4.670   1.064   3.358 -0.1008  0.8643  0.1297
 5004SOL    HW126648   4.627   1.007   3.295  1.0430 -0.6485  0.7191
 5004SOL    HW226649   0.029   1.060   3.341  0.4745  0.3734  3.4075
 5005SOL     OW26650   2.804   0.294  15.691 -0.3359 -0.3216  0.0034
 5005SOL    HW126651   2.834   0.380  15.663 -0.3446 -0.1971  0.3761
 5005SOL    HW226652   2.779   0.267  15.602 -2.9754  0.4070  0.5193
 5006SOL     OW26653   2.884   2.458   7.849 -0.3222 -0.0105  1.1084
 5006SOL    HW126654   2.851   2.445   7.937 -1.0983 -3.7428  0.2772
 5006SOL    HW226655   2.878   2.550   7.825  0.1746  0.4304  2.6788
 5007SOL     OW26656   2.967   3.260   5.628  0.6247  0.4504  0.3787
 5007SOL    HW126657   3.012   3.321   5.685  2.1276 -1.4078  1.2048
 5007SOL    HW226658   3.033   3.197   5.597  1.7471  1.7367  0.1503
 5008SOL     OW26659   2.400   1.942   6.940 -0.0620  0.1309 -0.3059
 5008SOL    HW126660   2.429   1.966   6.852  1.3865  0.5524  0.2877
 5008SOL    HW226661   2.360   2.022   6.975  0.4935  0.7381 -1.0619
 5009SOL     OW26662   1.380   2.985   8.451  0.3109  0.2383  0.0444
 5009SOL    HW126663   1.463   2.962   8.408 -1.2390 -0.3587 -2.6189
 5009SOL    HW226664   1.344   3.043   8.384 -1.0498 -0.0308  0.5570
 5010SOL     OW26665   3.704   0.101   6.945 -0.0758  0.1033 -0.6601
 5010SOL    HW126666   3.769   0.055   6.893  2.2607  1.7330  0.8291
 5010SOL    HW226667   3.625   0.064   6.905  0.5975 -2.0819  0.0818
 5011SOL     OW26668   1.253   0.086  15.074  0.0044  0.0743  0.0548
 5011SOL    HW126669   1.271   0.062  15.165  0.1084 -1.3809 -0.3546
 5011SOL    HW226670   1.311   0.160  15.059  0.2535  0.5752  3.4773
 5012SOL     OW26671   4.631   3.129  13.640  0.4050 -0.3617  0.2010
 5012SOL    HW126672   4.646   3.139  13.546 -1.7466  0.0259 -0.0925
 5012SOL    HW226673   4.555   3.184  13.658  0.1291 -0.8049  0.3775
 5013SOL     OW26674   1.396   3.080   3.098  0.2971 -0.3961 -0.1637
 5013SOL    HW126675   1.317   3.072   3.045  0.2424 -1.1829  0.0383
 5013SOL    HW226676   1.466   3.099   3.036 -1.0855 -1.7950 -2.1653
 5014SOL     OW26677   3.900   0.427   6.542 -0.2723 -0.2465  0.1120
 5014SOL    HW126678   3.989   0.417   6.508  0.9377 -0.4311  3.2687
 5014SOL    HW226679   3.856   0.346   6.516  0.2963 -0.8861  1.1334
 5015SOL     OW26680   0.551   1.451  10.918  0.4167 -0.0291  0.6192
 5015SOL    HW126681   0.512   1.393  10.983  2.1863  0.7902  2.4191
 5015SOL    HW226682   0.555   1.403  10.836  0.2562 -0.6458  0.9774
 5016SOL     OW26683   3.839   1.426   7.679  0.2531 -0.1042 -0.4591
 5016SOL    HW126684   3.813   1.373   7.754 -0.1024  0.0390 -0.4819
 5016SOL    HW226685   3.769   1.487   7.654 -1.0013 -0.6613  1.6848
 5017SOL     OW26686   4.387   4.154   3.793  0.0174  0.7131  0.1283
 5017SOL    HW126687   4.390   4.193   3.880 -1.8687  1.2588 -0.0468
 5017SOL    HW226688   4.410   4.064   3.818 -1.7439  0.5073  1.0676
 5018SOL     OW26689   0.554   2.091   2.673  0.1213 -0.3535 -0.1282
 5018SOL    HW126690   0.640   2.062   2.644 -0.3172 -1.1088 -0.6949
 5018SOL    HW226691   0.559   2.179   2.637 -0.4841  0.3872  1.6338
 5019SOL     OW26692   4.322   0.229  10.977  0.9476  0.0513  0.3778
 5019SOL    HW126693   4.321   0.325  10.985  2.1766 -0.0111  1.2767
 5019SOL    HW226694   4.407   0.199  11.008  1.0088 -0.3195 -0.1411
 5020SOL     OW26695   2.682   1.057   3.549 -0.1889  0.1464  0.6399
 5020SOL    HW126696   2.616   1.072   3.482  1.5657 -0.1272 -1.1754
 5020SOL    HW226697   2.641   1.072   3.634  0.5128  1.2710  0.7837
 5021SOL     OW26698   3.541   4.684   2.876  0.5060  0.5427  0.6289
 5021SOL    HW126699   3.520   4.591   2.881  2.5221  0.0855  0.8057
 5021SOL    HW226700   3.467   4.734   2.841  1.7998  0.1021 -2.7513
 5022SOL     OW26701   1.848   1.095  15.181 -0.0688 -0.1195  0.0167
 5022SOL    HW126702   1.808   1.073  15.097  0.3003 -1.8776  0.2853
 5022SOL    HW226703   1.776   1.139  15.227  0.6322  1.0766 -0.0501
 5023SOL     OW26704   3.515   3.693   5.851  0.3748 -0.2124 -0.2061
 5023SOL    HW126705   3.509   3.601   5.878  0.5250  0.4382  2.0164
 5023SOL    HW226706   3.475   3.743   5.922  2.3022 -2.0285  2.1266
 5024SOL     OW26707   2.122   2.374   8.664 -0.7572  0.0844  0.4694
 5024SOL    HW126708   2.027   2.359   8.662 -0.3889 -2.3084  1.4598
 5024SOL    HW226709   2.122   2.470   8.673  1.9711  0.0413  0.7919
 5025SOL     OW26710   0.430   1.631  16.930  0.7047  0.4275  0.0323
 5025SOL    HW126711   0.401   1.588  16.849  1.1755 -0.5475  0.3851
 5025SOL    HW226712   0.502   1.687  16.901  0.2322  1.4787  0.9087
 5026SOL     OW26713   4.617   3.135   3.546 -0.5487 -0.9256 -0.0752
 5026SOL    HW126714   4.702   3.091   3.545 -1.0891 -1.9983  1.5303
 5026SOL    HW226715   4.569   3.071   3.598  0.1485  1.2705  3.2979
 5027SOL     OW26716   3.072   3.294   3.069 -0.0381 -0.1588 -0.1129
 5027SOL    HW126717   3.053   3.232   2.998 -0.1388  1.7936 -1.8016
 5027SOL    HW226718   2.993   3.349   3.068  0.4677  0.5800  1.2737
 5028SOL     OW26719   0.653   2.138   0.000  0.0919 -0.4435  0.0672
 5028SOL    HW126720   0.663   2.080  17.662 -0.5294  0.7189 -0.9120
 5028SOL    HW226721   0.733   2.189  17.736 -0.5026  0.4059 -2.2302
 5029SOL     OW26722   0.801   1.538   3.250  0.2822  0.3965  0.1846
 5029SOL    HW126723   0.778   1.448   3.226  0.0434  0.3827  0.4535
 5029SOL    HW226724   0.782   1.587   3.170 -1.2079 -1.5226 -0.6621
 5030SOL     OW26725   0.955   1.526  15.543  0.3772 -0.2939 -0.0964
 5030SOL    HW126726   0.861   1.537  15.557  0.4603 -2.6616  2.4596
 5030SOL    HW226727   0.968   1.511  15.450  1.9684  1.6316 -0.1741
 5031SOL     OW26728   4.693   2.994   8.662  0.3077  0.2200  0.0610
 5031SOL    HW126729   0.019   2.919   8.664 -0.3758 -0.3125  0.7906
 5031SOL    HW226730   4.727   3.070   8.710 -1.6752  0.6925  0.6864
 5032SOL     OW26731   1.071   2.800   5.568 -0.0249 -0.1278 -0.4466
 5032SOL    HW126732   1.126   2.759   5.635 -0.8255 -1.6636 -0.7307
 5032SOL    HW226733   1.134   2.787   5.497 -1.0178  0.9491 -1.5241
 5033SOL     OW26734   3.651   4.344   5.405  0.2538  0.5062  0.3161
 5033SOL    HW126735   3.650   4.362   5.311  3.3992  0.5846  0.3070
 5033SOL    HW226736   3.647   4.432   5.442 -0.2352  0.5047  0.2755
 5034SOL     OW26737   4.322   1.800   3.265 -0.9695  0.0777 -0.5446
 5034SOL    HW126738   4.333   1.719   3.314 -2.5721 -0.9389 -1.9015
 5034SOL    HW226739   4.228   1.816   3.258 -0.8483 -0.0742 -2.7024
 5035SOL     OW26740   1.399   4.176   8.397 -0.2333  0.1778  0.2355
 5035SOL    HW126741   1.430   4.247   8.341  3.9000 -0.9162  1.1133
 5035SOL    HW226742   1.353   4.226   8.465 -1.4646  1.6560 -1.6944
 5036SOL     OW26743   2.542   4.622   8.569 -0.2445  0.8830 -0.4242
 5036SOL    HW126744   2.545   4.526   8.573  0.6293  1.0223  2.1915
 5036SOL    HW226745   2.597   4.649   8.495  0.1038  0.7200 -0.2223
 5037SOL     OW26746   3.767   0.064   7.545 -0.3198  0.1224 -0.5068
 5037SOL    HW126747   3.798   0.011   7.619  1.8243  1.7925 -0.1954
 5037SOL    HW226748   3.676   0.084   7.567 -0.5273  1.7062 -2.8592
 5038SOL     OW26749   0.955   4.232  13.846  0.0150 -0.0926  0.0790
 5038SOL    HW126750   1.042   4.196  13.866  0.2871  0.9622  0.7588
 5038SOL    HW226751   0.924   4.162  13.787  0.4064  1.1996 -1.6708
 5039SOL     OW26752   1.623   0.760   1.501 -0.1816 -0.6365  0.1185
 5039SOL    HW126753   1.549   0.725   1.551 -1.6150 -0.8977 -2.1853
 5039SOL    HW226754   1.665   0.814   1.568 -3.9626  0.7075  1.3857
 5040SOL     OW26755   3.996   2.432   9.265  0.1516  0.3045 -0.0681
 5040SOL    HW126756   4.068   2.430   9.328 -0.2002  0.9115  0.3525
 5040SOL    HW226757   4.006   2.352   9.213  0.5482  1.3052 -1.5310
 5041SOL     OW26758   3.902   4.587   5.104  0.5456 -0.1519  0.0193
 5041SOL    HW126759   3.868   4.634   5.180  2.2727 -0.5927  1.0736
 5041SOL    HW226760   3.933   4.510   5.152  1.5834  1.7588  2.4149
 5042SOL     OW26761   1.238   4.467   4.761  0.4591 -0.1771  0.1374
 5042SOL    HW126762   1.232   4.540   4.699  1.3120 -0.2828 -0.0788
 5042SOL    HW226763   1.280   4.396   4.711 -1.3043 -1.4225  0.4256
 5043SOL     OW26764   1.622   4.307  14.054  0.5717 -0.5328  0.0222
 5043SOL    HW126765   1.606   4.398  14.030  1.5559 -0.3071  0.2109
 5043SOL    HW226766   1.594   4.320  14.144  0.1819  0.0432 -0.1790
 5044SOL     OW26767   0.682   0.665   7.157 -0.4431  0.4112 -0.9273
 5044SOL    HW126768   0.637   0.749   7.163  1.5141  1.4118 -0.5277
 5044SOL    HW226769   0.776   0.681   7.165  0.1814 -1.9180 -3.5481
 5045SOL     OW26770   2.002   1.156   0.168 -0.5400  0.0132  0.1854
 5045SOL    HW126771   2.011   1.251   0.162 -1.0542  0.0934  0.6613
 5045SOL    HW226772   2.094   1.134   0.176  0.0644  1.9354 -1.4632
 5046SOL     OW26773   3.409   0.159   5.905 -0.1170 -0.2740  0.3953
 5046SOL    HW126774   3.504   0.165   5.894 -0.1752 -1.2035 -0.6739
 5046SOL    HW226775   3.405   0.149   6.000  0.7462 -0.5186  0.4017
 5047SOL     OW26776   2.327   4.056   0.709 -0.0746 -0.1934 -0.2838
 5047SOL    HW126777   2.381   4.072   0.786  1.0233 -1.5812 -0.7542
 5047SOL    HW226778   2.293   3.967   0.717 -0.7013  0.0749  0.0791
 5048SOL     OW26779   2.186   3.024  16.335  0.4468 -0.4922  0.7859
 5048SOL    HW126780   2.130   3.077  16.279  0.0688 -1.2009  0.4879
 5048SOL    HW226781   2.159   3.054  16.422 -0.0886 -3.3848  1.6133
 5049SOL     OW26782   1.075   1.909   2.703 -0.3885 -0.1813 -0.2705
 5049SOL    HW126783   1.027   1.981   2.661  2.4387  0.7330 -1.9193
 5049SOL    HW226784   1.142   1.887   2.639 -1.2272 -2.1389 -0.4537
 5050SOL     OW26785   1.031   4.205   5.314  0.6089  0.1494  0.2389
 5050SOL    HW126786   1.063   4.294   5.296 -2.5661  1.3175  0.3166
 5050SOL    HW226787   1.048   4.159   5.232  0.2464  3.7259 -1.8810
 5051SOL     OW26788   2.342   0.482   0.386 -0.5103  0.2407  0.0609
 5051SOL    HW126789   2.296   0.432   0.318 -3.3642  1.0628  1.3589
 5051SOL    HW226790   2.407   0.417   0.411  0.0973  0.9406  0.2904
 5052SOL     OW26791   3.734   1.153  14.629 -0.1418 -0.1180  0.3633
 5052SOL    HW126792   3.798   1.106  14.576  0.1087  0.1573  0.4150
 5052SOL    HW226793   3.727   1.236  14.582  1.0108 -1.2048 -1.7091
 5053SOL     OW26794   4.482   0.256   3.398 -0.8311  0.2873 -0.2950
 5053SOL    HW126795   4.499   0.214   3.313 -0.6112  0.3108 -0.2618
 5053SOL    HW226796   4.496   0.181   3.455  0.9930  1.9336  1.4377
 5054SOL     OW26797   0.171   2.806   5.661 -0.0666 -0.2509 -0.2596
 5054SOL    HW126798   0.136   2.895   5.653  1.2513  0.0885 -2.4941
 5054SOL    HW226799   0.260   2.833   5.682 -0.3979 -0.6734  1.6684
 5055SOL     OW26800   1.827   0.974   6.473 -0.2783  0.5765 -0.0619
 5055SOL    HW126801   1.756   1.038   6.479 -0.3617  0.4293  0.4652
 5055SOL    HW226802   1.778   0.911   6.420 -1.1561  0.2092  1.1952
 5056SOL     OW26803   4.336   1.310   3.740 -0.2761  0.3338  0.2790
 5056SOL    HW126804   4.427   1.340   3.744  0.2536 -1.3759  1.0716
 5056SOL    HW226805   4.289   1.389   3.766 -1.8322 -1.0094  1.5126
 5057SOL     OW26806   4.608   0.616   6.438 -0.1588  0.1027 -0.0868
 5057SOL    HW126807   4.645   0.592   6.353  0.0023  0.6464 -0.1755
 5057SOL    HW226808   4.643   0.703   6.458 -1.5085  1.1585 -2.2780
 5058SOL     OW26809   3.464   4.385   9.224 -0.3485  0.3033 -0.0311
 5058SOL    HW126810   3.551   4.407   9.258  0.4065 -0.3871 -1.5405
 5058SOL    HW226811   3.400   4.442   9.268  1.0931  0.6937  1.5943
 5059SOL     OW26812   4.126   2.203   4.658 -0.2310  0.3002  0.1331
 5059SOL    HW126813   4.112   2.114   4.690 -0.9914  0.2239 -0.4191
 5059SOL    HW226814   4.072   2.196   4.580 -0.2639 -0.6398  0.2423
 5060SOL     OW26815   4.345   3.420   4.215  0.1746  0.0238 -0.1935
 5060SOL    HW126816   4.439   3.437   4.222 -0.3836  3.3268 -0.9094
 5060SOL    HW226817   4.327   3.447   4.305  1.0041 -0.9646  0.2781
 5061SOL     OW26818   1.800   2.402   4.828  0.1094 -0.1812 -0.1977
 5061SOL    HW126819   1.774   2.324   4.779  0.0307 -0.7199  0.7057
 5061SOL    HW226820   1.739   2.471   4.803  1.0991  1.2732  1.4327
 5062SOL     OW26821   1.107   2.535   4.773  0.5615  0.5039 -0.0167
 5062SOL    HW126822   1.136   2.549   4.683  1.4656  0.2724  0.2380
 5062SOL    HW226823   1.122   2.621   4.813 -0.8247  1.3746 -1.3577
 5063SOL     OW26824   3.084   1.523   9.728  0.2163 -0.0251  0.3841
 5063SOL    HW126825   2.997   1.488   9.746 -0.3777  1.1993 -0.0854
 5063SOL    HW226826   3.089   1.595   9.790 -0.0848  0.8093 -0.5575
 5064SOL     OW26827   0.109   2.489   4.589 -0.3516  0.0564 -0.0275
 5064SOL    HW126828   0.160   2.433   4.530  1.0523  0.9474  0.3742
 5064SOL    HW226829   0.115   2.441   4.671 -5.2477  2.0949  1.5410
 5065SOL     OW26830   4.628   1.933   4.695  0.0735  0.0480  0.1638
 5065SOL    HW126831   4.542   1.946   4.658  0.5865 -0.1709 -1.0914
 5065SOL    HW226832   4.608   1.953   4.787  0.5818  1.4056 -0.0254
 5066SOL     OW26833   2.762   2.357   9.164  0.6058  0.2338 -0.7743
 5066SOL    HW126834   2.678   2.372   9.122  0.9863  0.5310 -1.4344
 5066SOL    HW226835   2.822   2.357   9.089  2.1727  0.2994  0.4680
 5067SOL     OW26836   0.179   2.224   1.992 -0.0985 -0.3043  0.4720
 5067SOL    HW126837   0.272   2.216   1.972 -0.1835  1.9409 -0.8169
 5067SOL    HW226838   0.172   2.319   1.991  4.5797  0.0495  1.6501
 5068SOL     OW26839   2.560   2.294   7.390 -0.1204  0.0769  0.0056
 5068SOL    HW126840   2.632   2.282   7.452  0.0663 -0.6129 -0.3483
 5068SOL    HW226841   2.589   2.240   7.316  2.4210 -1.7481  2.2984
 5069SOL     OW26842   1.887   3.977   8.797  0.0255  0.5660 -0.0808
 5069SOL    HW126843   1.945   4.050   8.819  2.5640 -1.1383 -1.1255
 5069SOL    HW226844   1.835   4.022   8.730 -0.8303  1.4076  1.1489
 5070SOL     OW26845   2.286   3.202  14.896  0.2417  0.1924 -0.6497
 5070SOL    HW126846   2.201   3.173  14.863 -0.3551  0.9421  0.2240
 5070SOL    HW226847   2.331   3.218  14.813  0.3552  1.1975 -0.3955
 5071SOL     OW26848   0.253   4.663   3.256  0.0461 -0.1078 -0.1263
 5071SOL    HW126849   0.209   0.001   3.302 -2.3328 -1.4652 -0.2904
 5071SOL    HW226850   0.282   4.708   3.177 -0.4911  0.4128 -0.0271
 5072SOL     OW26851   2.708   3.054   4.984  0.6822  0.0189  0.1600
 5072SOL    HW126852   2.790   3.075   5.028  1.5269 -0.4574 -1.2065
 5072SOL    HW226853   2.737   3.054   4.893  2.6175  1.2890  0.7855
 5073SOL     OW26854   2.401   3.163   3.275  0.3732 -0.6095 -0.2874
 5073SOL    HW126855   2.367   3.089   3.325 -0.6521 -0.8729 -1.3701
 5073SOL    HW226856   2.474   3.195   3.327  0.3729  0.3493 -0.8684
 5074SOL     OW26857   3.584   3.393   8.140  0.2843  0.3995  0.4254
 5074SOL    HW126858   3.528   3.322   8.171  1.4048 -0.5586  0.2208
 5074SOL    HW226859   3.577   3.467   8.200 -1.3908 -0.2169  0.9909
 5075SOL     OW26860   0.493   1.542   4.155  0.2938 -0.5457 -0.3916
 5075SOL    HW126861   0.464   1.451   4.143 -1.3856  0.0354 -0.8854
 5075SOL    HW226862   0.530   1.540   4.242  0.2148 -1.3127 -0.3767
 5076SOL     OW26863   3.573   1.776   8.428  0.2660 -0.0535  0.9000
 5076SOL    HW126864   3.509   1.780   8.499 -1.2688  0.1929 -0.4802
 5076SOL    HW226865   3.584   1.681   8.418 -0.4612 -0.0289 -0.1447
 5077SOL     OW26866   2.865   3.852   7.505 -0.5189  0.0626  0.5963
 5077SOL    HW126867   2.883   3.769   7.549  1.0842 -0.2539 -0.6673
 5077SOL    HW226868   2.853   3.821   7.416 -1.1057  2.6243 -0.2112
 5078SOL     OW26869   2.735   2.006   6.914 -0.2964 -0.0818 -0.5152
 5078SOL    HW126870   2.809   1.964   6.958  0.1228  0.3107 -0.8535
 5078SOL    HW226871   2.663   1.955   6.952 -2.0439  1.6507 -1.5324
 5079SOL     OW26872   2.382   1.305   2.902 -1.1518  0.1070 -0.2703
 5079SOL    HW126873   2.315   1.292   2.968  0.0154  2.8755  1.4797
 5079SOL    HW226874   2.352   1.232   2.849 -0.3277 -0.6179  0.2640
 5080SOL     OW26875   4.350   2.205  12.087  0.5420  0.1637 -0.1689
 5080SOL    HW126876   4.293   2.205  12.010 -2.2512 -1.5155  1.9068
 5080SOL    HW226877   4.323   2.293  12.111 -0.2517 -0.6086  1.7580
 5081SOL     OW26878   4.264   0.015   4.454 -0.0690 -0.1562  0.1483
 5081SOL    HW126879   4.210   4.711   4.386 -0.8715  1.3786 -0.0943
 5081SOL    HW226880   4.235   0.106   4.440  1.9360  0.2232 -1.7238
 5082SOL     OW26881   3.080   3.945   1.662  0.0603  0.0535  0.3384
 5082SOL    HW126882   3.082   3.865   1.715  2.0259  0.4357  0.8255
 5082SOL    HW226883   3.138   3.928   1.588 -0.1461 -0.8359  0.3755
 5083SOL     OW26884   3.370   1.636   7.993 -0.0644  0.4727 -0.3573
 5083SOL    HW126885   3.276   1.656   7.993 -0.7947 -2.9339 -0.8613
 5083SOL    HW226886   3.379   1.584   8.073 -0.5929 -1.0777 -1.3138
 5084SOL     OW26887   3.257   4.101   2.024 -0.6018 -0.1487 -0.2726
 5084SOL    HW126888   3.272   4.009   2.046 -0.0624  0.1408  0.5966
 5084SOL    HW226889   3.291   4.100   1.934 -0.4157 -0.2176 -0.2008
 5085SOL     OW26890   0.990   3.788   5.753 -0.2270 -0.3497 -0.3580
 5085SOL    HW126891   0.975   3.752   5.840 -0.9872  0.0142 -0.3381
 5085SOL    HW226892   1.083   3.770   5.737  0.2993  1.6133  0.4131
 5086SOL     OW26893   2.241   3.272   4.369 -0.2173  0.2403  0.3022
 5086SOL    HW126894   2.276   3.232   4.290 -3.8896 -0.5583 -0.9262
 5086SOL    HW226895   2.233   3.196   4.427  1.7349 -1.7666 -2.1150
 5087SOL     OW26896   0.520   1.224   3.332  0.5633  0.6246  0.5230
 5087SOL    HW126897   0.482   1.160   3.392 -0.1018 -0.0076 -0.5704
 5087SOL    HW226898   0.583   1.165   3.290 -0.4253  0.7998 -1.1946
 5088SOL     OW26899   4.088   2.168   6.589 -0.3377  0.1468  0.1616
 5088SOL    HW126900   4.175   2.184   6.552  0.4581 -0.9293  1.5814
 5088SOL    HW226901   4.030   2.227   6.541  0.0699 -0.6952 -1.3407
 5089SOL     OW26902   1.984   3.121   6.943 -0.0466  0.2553 -0.1214
 5089SOL    HW126903   1.910   3.163   6.899 -0.1993  1.5804  1.3672
 5089SOL    HW226904   1.955   3.030   6.948 -0.2481  0.2785 -0.9853
 5090SOL     OW26905   0.072   2.545   0.245 -0.2286 -0.2515 -0.3199
 5090SOL    HW126906   4.730   2.573   0.296 -1.1864 -0.5724 -1.6023
 5090SOL    HW226907   0.098   2.628   0.204 -1.1808  0.1439 -0.1313
 5091SOL     OW26908   1.589   4.524   3.902  0.8211 -0.0335 -0.1870
 5091SOL    HW126909   1.582   4.477   3.985 -1.5806  1.4369  0.4377
 5091SOL    HW226910   1.498   4.553   3.909  0.2851 -1.8533  0.3895
 5092SOL     OW26911   1.321   1.786   2.470  0.1688  0.2882 -1.0633
 5092SOL    HW126912   1.231   1.812   2.453  0.2557  1.4265  0.2399
 5092SOL    HW226913   1.345   1.755   2.382 -1.4943 -0.9780 -1.0547
 5093SOL     OW26914   0.853   4.386   3.688  0.2770  0.5041  0.2105
 5093SOL    HW126915   0.764   4.354   3.672 -0.5641  2.6032  0.6718
 5093SOL    HW226916   0.827   4.469   3.648  0.7752 -0.3757 -1.8997
 5094SOL     OW26917   1.616   1.249   3.486  0.5195  0.0589 -0.0349
 5094SOL    HW126918   1.530   1.291   3.491  0.1672 -0.6434 -0.2090
 5094SOL    HW226919   1.613   1.211   3.574  1.8866  1.4003  0.5987
 5095SOL     OW26920   2.628   0.196  10.353 -0.5015  0.8432  0.4461
 5095SOL    HW126921   2.657   0.237  10.435 -0.7780 -0.3220  1.1370
 5095SOL    HW226922   2.582   0.264  10.305 -0.4160  0.9896  0.5734
 5096SOL     OW26923   2.262   2.914   4.831  0.2501 -0.4874  0.6186
 5096SOL    HW126924   2.264   2.984   4.897 -0.2740  0.0162  0.1052
 5096SOL    HW226925   2.346   2.869   4.843  1.3183  0.3794 -3.5225
 5097SOL     OW26926   1.158   1.625   7.173  0.0658 -0.1750  0.0246
 5097SOL    HW126927   1.200   1.709   7.189 -0.9788  0.6556 -1.6288
 5097SOL    HW226928   1.186   1.577   7.251 -0.6511  2.2889  1.7828
 5098SOL     OW26929   1.162   1.106   7.804  0.3946  0.6970 -0.0239
 5098SOL    HW126930   1.188   1.085   7.894  0.0556 -0.1030 -0.1197
 5098SOL    HW226931   1.111   1.186   7.820  0.9232  0.5768  2.2535
 5099SOL     OW26932   3.171   3.271   5.272 -0.2799  0.0980 -0.3248
 5099SOL    HW126933   3.099   3.263   5.334 -1.5251 -0.2237 -1.7973
 5099SOL    HW226934   3.247   3.254   5.328 -0.1450 -0.2461 -0.6099
 5100SOL     OW26935   2.171   2.245   5.929 -0.4407  0.1499 -0.4124
 5100SOL    HW126936   2.121   2.292   5.995 -0.8232 -0.2223 -0.4341
 5100SOL    HW226937   2.110   2.250   5.855 -0.4479  0.9666 -0.3527
 5101SOL     OW26938   2.223   3.949   3.475 -0.1678  0.3481 -0.0542
 5101SOL    HW126939   2.280   4.024   3.488 -1.5052  1.2941  0.3056
 5101SOL    HW226940   2.139   3.993   3.490 -1.6218 -2.3780 -0.1309
 5102SOL     OW26941   1.993   2.179   9.932  0.4044 -0.0036  0.1255
 5102SOL    HW126942   1.942   2.258   9.951 -2.5308 -1.7001 -0.6137
 5102SOL    HW226943   1.964   2.184   9.841 -0.9096 -1.8743  0.4356
 5103SOL     OW26944   3.538   3.871  10.837 -0.6375 -0.2846  0.3341
 5103SOL    HW126945   3.558   3.952  10.790  0.5623 -0.3824  0.6704
 5103SOL    HW226946   3.471   3.832  10.782  0.2889  2.4973 -2.7682
 5104SOL     OW26947   0.246   1.664  13.746  0.1313 -0.3466  0.1885
 5104SOL    HW126948   0.270   1.755  13.764  1.2774 -0.9387  1.5899
 5104SOL    HW226949   0.331   1.624  13.729  0.0720 -0.1218 -0.6558
 5105SOL     OW26950   3.991   2.887   6.509  0.5291  0.2220 -0.5496
 5105SOL    HW126951   3.986   2.977   6.542  2.1886 -0.1304  0.6484
 5105SOL    HW226952   3.960   2.848   6.592  1.1357 -0.2314 -0.5429
 5106SOL     OW26953   0.928   3.157   8.849  0.0529  0.1170 -0.0810
 5106SOL    HW126954   1.017   3.176   8.876 -0.0295  0.8180 -0.3018
 5106SOL    HW226955   0.931   3.064   8.872  2.9705  0.2602  0.0408
 5107SOL     OW26956   2.713   3.657   2.422  0.5474  0.3212 -0.3521
 5107SOL    HW126957   2.679   3.744   2.440  0.5069  0.2995 -0.3230
 5107SOL    HW226958   2.652   3.600   2.468  0.8834 -0.9535 -1.4805
 5108SOL     OW26959   3.809   0.224   1.636  0.3301 -0.0497  0.3384
 5108SOL    HW126960   3.747   0.273   1.691  0.8376 -0.4119  1.2442
 5108SOL    HW226961   3.854   0.163   1.695 -0.2579  0.7212  1.6027
 5109SOL     OW26962   1.291   1.012   9.215 -0.2558  0.2436  0.1668
 5109SOL    HW126963   1.342   0.982   9.140  0.7350  1.5957  0.3069
 5109SOL    HW226964   1.295   1.107   9.204  1.7165  0.4237  2.2192
 5110SOL     OW26965   4.694   0.246   4.087 -0.3052 -0.3848  0.1296
 5110SOL    HW126966   4.641   0.199   4.022 -2.2812 -0.9379  2.1381
 5110SOL    HW226967   4.674   0.338   4.069 -0.9578 -0.7869 -1.2441
 5111SOL     OW26968   4.501   2.124  16.358 -0.5298  0.6735  0.2331
 5111SOL    HW126969   4.556   2.047  16.342 -1.4818  0.0076  0.2149
 5111SOL    HW226970   4.443   2.083  16.423  0.0645 -0.9184 -0.2453
 5112SOL     OW26971   2.177   2.149   5.031  0.1526  0.8062  0.4277
 5112SOL    HW126972   2.147   2.081   5.091 -1.6818 -0.2256 -1.6499
 5112SOL    HW226973   2.107   2.143   4.966  1.5997 -1.4247 -0.9234
 5113SOL     OW26974   3.747   3.540   1.337 -0.2960 -0.2876  0.2515
 5113SOL    HW126975   3.653   3.539   1.317 -0.9845  0.5778  3.4826
 5113SOL    HW226976   3.759   3.463   1.393 -0.1604  1.6974  2.9742
 5114SOL     OW26977   2.613   2.182   6.471 -0.4513  0.2689 -0.6359
 5114SOL    HW126978   2.696   2.147   6.437 -1.4197 -1.4905 -1.1678
 5114SOL    HW226979   2.639   2.274   6.471  2.7260 -0.6205  1.1460
 5115SOL     OW26980   1.698   3.735   4.327 -0.6940  0.2442  0.0463
 5115SOL    HW126981   1.787   3.750   4.358 -0.9046 -0.8136  1.1559
 5115SOL    HW226982   1.721   3.688   4.246 -0.2409  0.5869 -0.0252
 5116SOL     OW26983   3.851   0.221  12.402  0.7425 -0.2796  0.0968
 5116SOL    HW126984   3.830   0.300  12.451 -0.1910  0.0731 -0.8715
 5116SOL    HW226985   3.862   0.166  12.480  0.5078 -1.2454 -0.5467
 5117SOL     OW26986   3.292   3.546  14.129  0.4093 -0.0672  0.0177
 5117SOL    HW126987   3.349   3.503  14.065  1.3789 -0.1778  0.9547
 5117SOL    HW226988   3.224   3.586  14.075  0.8095  0.5839  0.0073
 5118SOL     OW26989   3.829   1.721  11.643  0.3126  0.0064 -0.0700
 5118SOL    HW126990   3.759   1.656  11.646 -1.4565  1.8443 -1.2300
 5118SOL    HW226991   3.836   1.746  11.551 -0.6450  3.1821  0.6828
 5119SOL     OW26992   3.912   0.685  11.102 -0.1276  0.6028  0.4032
 5119SOL    HW126993   3.835   0.631  11.119  0.7569 -0.5935  0.5850
 5119SOL    HW226994   3.873   0.767  11.131  0.2110  0.8839  0.0600
 5120SOL     OW26995   0.150   1.372   3.360 -0.4578 -0.1582  0.3698
 5120SOL    HW126996   0.229   1.386   3.414  0.4636 -1.2208 -0.7106
 5120SOL    HW226997   0.167   1.283   3.329  0.7203  0.3493 -0.4431
 5121SOL     OW26998   2.281   0.534  16.280 -0.0148  0.1347 -0.2564
 5121SOL    HW126999   2.216   0.471  16.249 -0.0666  1.3485 -2.5817
 5121SOL    HW227000   2.246   0.622  16.274 -0.5440 -0.0603  0.0286
 5122SOL     OW27001   1.922   1.402   4.943 -0.4005  0.0849 -0.0589
 5122SOL    HW127002   2.017   1.395   4.956 -0.2668  2.0103  0.1296
 5122SOL    HW227003   1.880   1.353   5.014 -1.2688  2.3813  1.0219
 5123SOL     OW27004   1.084   3.140   8.448  0.2320  0.2764  0.1510
 5123SOL    HW127005   1.093   3.046   8.435  1.7562  0.5623 -0.8551
 5123SOL    HW227006   0.993   3.153   8.477  0.3560 -1.1725  1.1617
 5124SOL     OW27007   3.360   2.315  14.730  0.0444 -0.4475  0.1687
 5124SOL    HW127008   3.347   2.222  14.745  1.4861 -1.1934 -3.1447
 5124SOL    HW227009   3.283   2.336  14.678 -0.4738 -1.5776  0.4805
 5125SOL     OW27010   2.910   0.179  14.080 -0.0238 -0.3306 -0.7692
 5125SOL    HW127011   2.969   0.205  14.151 -0.0391  1.3677 -1.3842
 5125SOL    HW227012   2.867   0.104  14.123 -0.8175  0.5107 -0.0949
 5126SOL     OW27013   0.109   2.094  14.401 -0.1489 -0.1528  0.6062
 5126SOL    HW127014   0.156   2.049  14.471  1.4378 -1.5180 -1.3106
 5126SOL    HW227015   0.175   2.132  14.343 -2.2802 -1.2894 -2.6226
 5127SOL     OW27016   0.027   2.900   2.660 -0.6470 -0.2035 -0.5369
 5127SOL    HW127017   0.096   2.909   2.594  0.3294 -0.0029  0.5055
 5127SOL    HW227018   4.727   2.989   2.662  0.7746  0.3006  1.3676
 5128SOL     OW27019   3.195   1.628   4.412  0.0996 -0.2259 -0.4056
 5128SOL    HW127020   3.244   1.552   4.443 -0.0772  0.1368  0.7953
 5128SOL    HW227021   3.248   1.648   4.335 -0.3339  2.7632  0.0698
 5129SOL     OW27022   0.755   2.087   5.763  0.3324 -0.3684  0.0915
 5129SOL    HW127023   0.693   2.127   5.824 -1.1040 -0.6251 -1.2108
 5129SOL    HW227024   0.712   2.002   5.755  1.4557 -1.0049  0.6723
 5130SOL     OW27025   1.850   0.757   3.546  0.9490 -0.2367  0.0481
 5130SOL    HW127026   1.810   0.765   3.459 -0.4440  1.3602  0.8312
 5130SOL    HW227027   1.781   0.714   3.598  0.0507 -1.1516 -1.9004
 5131SOL     OW27028   2.647   2.465  13.891  0.2859  0.0903 -0.8565
 5131SOL    HW127029   2.690   2.532  13.838 -2.4692  1.8219 -0.9074
 5131SOL    HW227030   2.562   2.452  13.850 -0.6795 -0.0267  1.1975
 5132SOL     OW27031   3.710   3.816   5.694 -0.0908 -0.2308 -0.4263
 5132SOL    HW127032   3.656   3.759   5.748 -0.7275  0.7568 -0.0230
 5132SOL    HW227033   3.655   3.892   5.679 -1.4647 -1.1220  0.1411
 5133SOL     OW27034   4.253   3.686   4.121  0.1904 -0.2661  0.0162
 5133SOL    HW127035   4.274   3.593   4.120 -0.7991 -0.5002  0.4784
 5133SOL    HW227036   4.206   3.686   4.038 -1.7918 -0.9258  1.1219
 5134SOL     OW27037   2.744   0.522   5.277 -0.1946 -0.0125  0.7754
 5134SOL    HW127038   2.733   0.555   5.187  2.2543  1.2604  0.9216
 5134SOL    HW227039   2.750   0.428   5.264 -0.9298 -0.0654  0.8154
 5135SOL     OW27040   4.348   1.231   7.104 -0.3206  0.1496 -0.9119
 5135SOL    HW127041   4.366   1.138   7.099  0.7287  0.2452  0.9945
 5135SOL    HW227042   4.255   1.235   7.083  0.1889  0.0099 -3.2422
 5136SOL     OW27043   1.495   1.705  12.099  0.1284 -0.3095 -0.0339
 5136SOL    HW127044   1.459   1.617  12.089  0.7922 -0.3249 -2.4245
 5136SOL    HW227045   1.542   1.696  12.182 -3.0149 -1.1032  1.6497
 5137SOL     OW27046   2.887   2.468  14.200 -0.1824  0.4030  0.5382
 5137SOL    HW127047   2.965   2.492  14.149  0.9126  0.2131  2.1061
 5137SOL    HW227048   2.902   2.509  14.286  0.0732 -0.8567  1.1012
 5138SOL     OW27049   1.213   0.945   8.347 -0.4043  0.1403 -0.0593
 5138SOL    HW127050   1.296   0.904   8.320 -1.5449 -3.8567  2.4839
 5138SOL    HW227051   1.208   0.912   8.436 -1.5347  0.5903  0.0408
 5139SOL     OW27052   1.109   3.330   2.717 -0.1021 -0.7068  0.2046
 5139SOL    HW127053   1.034   3.355   2.662  0.7912 -1.6993 -1.4816
 5139SOL    HW227054   1.138   3.248   2.677 -0.2727 -1.3259  1.3449
 5140SOL     OW27055   4.045   1.231   4.012  0.4821  0.0170  0.4751
 5140SOL    HW127056   4.073   1.144   3.983  0.0374 -0.1460  0.5428
 5140SOL    HW227057   3.963   1.249   3.967 -0.0115 -1.5040  0.7914
 5141SOL     OW27058   3.417   2.486   3.222  0.2617  0.5511 -0.5226
 5141SOL    HW127059   3.444   2.420   3.286  1.7846  0.2364 -1.4833
 5141SOL    HW227060   3.443   2.449   3.137 -1.3733 -0.2482 -0.6833
 5142SOL     OW27061   0.076   3.991   3.140 -0.7009  0.6506  0.2674
 5142SOL    HW127062   0.083   3.898   3.165 -2.3975  0.6877  0.9331
 5142SOL    HW227063   0.049   3.967   3.051 -1.3039  0.6276  0.4526
 5143SOL     OW27064   3.025   4.402   6.533  0.0608 -0.0036  0.1736
 5143SOL    HW127065   3.062   4.424   6.619  0.9781  0.8607 -0.4361
 5143SOL    HW227066   3.098   4.346   6.507  1.1669  1.3066  0.4230
 5144SOL     OW27067   0.216   3.919   2.582  0.1293 -0.0588  0.0385
 5144SOL    HW127068   0.154   3.849   2.600 -0.6147  0.3180 -1.0403
 5144SOL    HW227069   0.291   3.894   2.636  0.3103  1.5812  0.5425
 5145SOL     OW27070   3.398   4.276   5.235 -0.2547  0.8908  0.5805
 5145SOL    HW127071   3.352   4.205   5.191  0.9041  0.0508  0.7242
 5145SOL    HW227072   3.488   4.277   5.204 -0.4474  0.6988  0.0250
 5146SOL     OW27073   1.382   0.168   6.512 -0.2544  0.2020  0.1131
 5146SOL    HW127074   1.438   0.099   6.476 -3.0085 -1.3580 -1.2184
 5146SOL    HW227075   1.322   0.185   6.440  1.0629 -1.7453 -1.4438
 5147SOL     OW27076   3.599   1.088   5.757 -0.7060  0.0938 -0.5065
 5147SOL    HW127077   3.689   1.121   5.764 -0.2831 -1.0487 -0.5292
 5147SOL    HW227078   3.601   1.021   5.825 -0.1685  2.4936  1.8396
 5148SOL     OW27079   3.416   0.542   9.856  0.0852  0.5460  0.4398
 5148SOL    HW127080   3.482   0.560   9.923  0.6649  3.0330 -0.7895
 5148SOL    HW227081   3.468   0.545   9.775 -1.5846 -0.5647 -0.6803
 5149SOL     OW27082   0.055   2.156  17.501 -0.0125 -0.5173  0.3099
 5149SOL    HW127083   4.717   2.190  17.448  0.5282  0.5572  0.2516
 5149SOL    HW227084   0.004   2.128  17.577 -0.2183  0.6816  0.6261
 5150SOL     OW27085   0.117   2.797   7.350 -0.2447  0.5116 -0.2661
 5150SOL    HW127086   0.165   2.801   7.268 -0.0479  2.5135 -0.0535
 5150SOL    HW227087   0.119   2.891   7.372  2.2629 -0.3626  3.3295
 5151SOL     OW27088   0.747   2.777  11.818  0.4957  0.2704  0.0335
 5151SOL    HW127089   0.744   2.682  11.806 -0.1321  0.6110 -2.5856
 5151SOL    HW227090   0.744   2.809  11.728  1.1942 -1.5585 -0.6434
 5152SOL     OW27091   1.554   1.374   8.202 -0.2137 -0.2592 -0.0338
 5152SOL    HW127092   1.502   1.453   8.193 -0.7166 -0.6968 -1.0310
 5152SOL    HW227093   1.531   1.340   8.289  3.6430 -1.0370  0.6865
 5153SOL     OW27094   2.503   4.096  17.276 -0.3644 -0.3401  0.2812
 5153SOL    HW127095   2.497   4.177  17.326  0.5737 -2.1518  3.3197
 5153SOL    HW227096   2.491   4.138  17.190 -2.8214 -0.9325  0.3375
 5154SOL     OW27097   4.373   0.424   2.941  0.1698 -0.4546  0.0193
 5154SOL    HW127098   4.447   0.482   2.921  0.3831 -0.0714  1.8622
 5154SOL    HW227099   4.340   0.476   3.015 -0.9618 -0.2605 -0.6209
 5155SOL     OW27100   1.661   2.550   6.290  0.5123 -0.5151  0.2119
 5155SOL    HW127101   1.613   2.504   6.358 -1.5293  2.5294  0.8440
 5155SOL    HW227102   1.638   2.496   6.215 -2.5195  0.5732  0.3760
 5156SOL     OW27103   3.152   3.591   9.887 -0.1500 -0.1719  0.2302
 5156SOL    HW127104   3.183   3.631   9.968  0.2660  0.1381 -0.0837
 5156SOL    HW227105   3.070   3.636   9.863 -1.0420 -0.0002  3.6339
 5157SOL     OW27106   3.758   2.321   3.502 -0.1022 -0.1735  0.1241
 5157SOL    HW127107   3.764   2.391   3.437 -0.6789 -0.5441 -0.3264
 5157SOL    HW227108   3.790   2.353   3.586  1.8651  0.7494 -0.9498
 5158SOL     OW27109   4.448   1.209   9.675  0.0291 -0.2325 -0.5460
 5158SOL    HW127110   4.407   1.130   9.638 -0.6311  0.8309 -2.1046
 5158SOL    HW227111   4.537   1.176   9.685 -0.5815 -2.1915 -1.4574
 5159SOL     OW27112   1.121   3.242  12.891 -0.5098 -0.1595 -0.3695
 5159SOL    HW127113   1.113   3.307  12.821  0.3049 -0.0724 -0.3929
 5159SOL    HW227114   1.216   3.229  12.893 -0.8584 -2.9809 -1.9834
 5160SOL     OW27115   2.311   2.186   9.395  0.1082  0.7460 -0.2173
 5160SOL    HW127116   2.357   2.176   9.312  0.8620  0.4094  0.2336
 5160SOL    HW227117   2.226   2.203   9.355 -0.6030 -0.4517  0.7908
 5161SOL     OW27118   3.435   0.341  11.900  0.4238 -0.2859  0.8987
 5161SOL    HW127119   3.386   0.263  11.873  2.0988 -1.0613  0.0801
 5161SOL    HW227120   3.510   0.299  11.943  1.2703 -1.3432 -1.6152
 5162SOL     OW27121   1.436   0.800   1.306 -0.3430  0.7187 -0.4172
 5162SOL    HW127122   1.442   0.706   1.293  2.1466  0.5623  1.9399
 5162SOL    HW227123   1.506   0.807   1.371 -0.6153  0.7586 -0.1245
 5163SOL     OW27124   2.997   1.582   5.765 -0.1181 -0.0374  0.2666
 5163SOL    HW127125   3.068   1.600   5.827 -0.3471 -0.7425  0.7418
 5163SOL    HW227126   2.942   1.651   5.801  0.8664  0.1273  1.4464
 5164SOL     OW27127   3.249   2.075  14.729 -0.1164  0.2447  0.5421
 5164SOL    HW127128   3.164   2.039  14.703 -0.9582  2.4443  0.2907
 5164SOL    HW227129   3.292   1.990  14.737  0.1389  0.1772 -1.3530
 5165SOL     OW27130   0.164   3.963   7.119 -0.6585 -0.7985  0.1445
 5165SOL    HW127131   0.174   3.963   7.024  0.1746  0.7197  0.2189
 5165SOL    HW227132   0.082   4.011   7.128 -0.0267  0.4084 -0.5093
 5166SOL     OW27133   3.402   3.267  17.384 -0.2373 -0.1948  0.2165
 5166SOL    HW127134   3.308   3.264  17.400 -0.3309 -2.2400 -0.7255
 5166SOL    HW227135   3.413   3.361  17.401  1.8177 -0.4815  0.4973
 5167SOL     OW27136   1.907   0.272   7.270 -0.0463 -0.6768 -0.3125
 5167SOL    HW127137   1.851   0.328   7.324  1.9536 -1.4935  2.6459
 5167SOL    HW227138   1.908   0.192   7.323 -0.4026 -0.1107  0.5415
 5168SOL     OW27139   3.022   3.538  16.966  0.0042  0.3739  0.3209
 5168SOL    HW127140   2.964   3.535  17.043 -0.4679 -0.2309 -0.0626
 5168SOL    HW227141   3.092   3.476  16.987 -1.6593 -1.4095  0.5824
 5169SOL     OW27142   1.751   2.905   6.710 -0.3515 -0.7248 -0.4765
 5169SOL    HW127143   1.697   2.983   6.703 -1.4820 -1.4360  0.4879
 5169SOL    HW227144   1.682   2.839   6.722  0.2154 -1.5082 -1.4173
 5170SOL     OW27145   3.338   0.451  16.624 -0.4140 -0.1936 -0.2535
 5170SOL    HW127146   3.394   0.377  16.600 -0.8787 -0.3160 -0.9705
 5170SOL    HW227147   3.409   0.498  16.667  0.1152 -0.7433 -0.5324
 5171SOL     OW27148   1.541   0.268  13.321 -0.3679 -0.7121 -0.5437
 5171SOL    HW127149   1.568   0.356  13.291  2.6400 -2.1886 -2.2257
 5171SOL    HW227150   1.470   0.242  13.263  0.2876 -1.8495 -0.8369
 5172SOL     OW27151   1.157   0.292   5.879  0.0461 -0.0266 -0.3130
 5172SOL    HW127152   1.155   0.335   5.964  0.8569  2.3298 -1.4864
 5172SOL    HW227153   1.064   0.296   5.859 -0.1045 -0.9155  0.2356
 5173SOL     OW27154   3.467   2.601   6.083 -0.2138  0.5161  0.7220
 5173SOL    HW127155   3.402   2.550   6.035 -1.9824  1.4250  2.1354
 5173SOL    HW227156   3.535   2.608   6.016 -0.4931  0.5133  0.4335
 5174SOL     OW27157   0.846   3.874   1.796 -0.2406  0.3252  0.0328
 5174SOL    HW127158   0.754   3.854   1.782 -0.0577 -0.7730  0.4654
 5174SOL    HW227159   0.886   3.787   1.802 -1.1107  0.0382  1.4065
 5175SOL     OW27160   4.165   1.498   8.159 -0.6383 -0.2490  0.5730
 5175SOL    HW127161   4.072   1.517   8.148 -1.1085 -2.9552 -0.0665
 5175SOL    HW227162   4.166   1.403   8.165 -0.1408 -0.2962 -0.2384
 5176SOL     OW27163   0.755   1.169  16.763 -0.0308  0.4371 -0.3541
 5176SOL    HW127164   0.805   1.167  16.681  2.3915 -0.8246  1.1432
 5176SOL    HW227165   0.791   1.087  16.797 -0.5497  0.4579  0.2577
 5177SOL     OW27166   0.963   1.609   2.760 -0.6441  0.3074  0.3992
 5177SOL    HW127167   1.030   1.593   2.694  1.5277 -0.9926  2.9486
 5177SOL    HW227168   1.009   1.671   2.816  0.1462 -0.5001  0.6289
 5178SOL     OW27169   3.297   2.434  12.464  0.0631 -0.1646 -0.2953
 5178SOL    HW127170   3.205   2.420  12.442 -0.0366 -0.9464  0.6547
 5178SOL    HW227171   3.320   2.342  12.477  0.5867  0.2463  1.6827
 5179SOL     OW27172   3.560   1.243   0.614  0.4091  0.1110  0.5882
 5179SOL    HW127173   3.591   1.327   0.579  0.6952 -0.5608 -0.7605
 5179SOL    HW227174   3.468   1.266   0.628  0.4897 -0.0420  1.4042
 5180SOL     OW27175   4.066   1.797   3.325  0.5692 -0.3940  0.9850
 5180SOL    HW127176   4.026   1.870   3.372  2.3037  0.4285  1.1683
 5180SOL    HW227177   4.068   1.733   3.396  0.2563 -1.2714  0.2173
 5181SOL     OW27178   0.409   0.794   4.193 -0.2573 -0.5180 -0.5909
 5181SOL    HW127179   0.332   0.739   4.209 -0.2688 -0.5528 -0.7660
 5181SOL    HW227180   0.367   0.844   4.123  2.0441  0.5543 -1.2004
 5182SOL     OW27181   4.356   3.144   7.990 -0.0358 -0.9198  1.1134
 5182SOL    HW127182   4.396   3.192   7.919  0.9676 -2.3230  0.7274
 5182SOL    HW227183   4.430   3.084   8.002 -0.8729 -2.1732  0.1024
 5183SOL     OW27184   2.193   4.557   7.084 -0.7085 -0.4970 -0.3548
 5183SOL    HW127185   2.276   4.548   7.036 -0.6816 -2.7061  0.1192
 5183SOL    HW227186   2.196   4.641   7.130 -1.3435 -0.7381  0.1190
 5184SOL     OW27187   4.698   1.529   7.797 -0.4584 -0.1778 -0.6290
 5184SOL    HW127188   4.660   1.610   7.830 -0.7367 -0.1848 -0.9331
 5184SOL    HW227189   4.618   1.476   7.802 -1.1165  0.9410  0.7642
 5185SOL     OW27190   0.423   3.582  12.752 -0.0407  0.3010 -0.1334
 5185SOL    HW127191   0.343   3.532  12.766  0.9883 -1.0871  0.7782
 5185SOL    HW227192   0.408   3.621  12.666  1.0137  1.7991  0.3469
 5186SOL     OW27193   1.765   0.130   0.873  0.3187  0.3616 -0.4145
 5186SOL    HW127194   1.691   0.191   0.869  0.8852  0.9966 -1.4751
 5186SOL    HW227195   1.745   0.074   0.948 -0.4801 -1.9878 -2.3940
 5187SOL     OW27196   1.574   0.225   1.898  0.9769  0.1467 -0.2079
 5187SOL    HW127197   1.588   0.137   1.933 -1.4002  0.5736  1.8472
 5187SOL    HW227198   1.577   0.264   1.986 -2.6676  1.1804 -0.5419
 5188SOL     OW27199   2.027   2.688   3.397  0.7538 -0.9157  0.5123
 5188SOL    HW127200   2.050   2.697   3.304  0.8905 -0.2850  0.6089
 5188SOL    HW227201   2.060   2.769   3.435 -1.7683  2.5708 -4.7327
 5189SOL     OW27202   0.239   2.692   5.205 -0.1998  0.5325 -0.2450
 5189SOL    HW127203   0.276   2.779   5.221 -0.9877  1.3736 -2.9815
 5189SOL    HW227204   0.198   2.679   5.291 -0.0495 -1.4051 -0.4515
 5190SOL     OW27205   4.282   0.516   4.163 -0.2089  0.1055 -0.4138
 5190SOL    HW127206   4.267   0.428   4.197 -0.9662  0.0035 -1.0067
 5190SOL    HW227207   4.192   0.544   4.180 -0.9722 -2.0318 -0.8868
 5191SOL     OW27208   4.703   3.818   5.481 -0.0038  0.0477  0.4101
 5191SOL    HW127209   4.685   3.750   5.546 -1.9152  1.8165  1.7185
 5191SOL    HW227210   4.718   3.753   5.411  0.7626 -0.5556  1.1308
 5192SOL     OW27211   2.377   3.836   5.260 -0.5881 -0.3429 -0.7504
 5192SOL    HW127212   2.461   3.882   5.258 -0.7981 -0.0014 -1.7342
 5192SOL    HW227213   2.333   3.898   5.318 -2.3963 -0.4611 -1.9861
 5193SOL     OW27214   3.577   1.570   3.169  0.0085 -0.3138  0.3353
 5193SOL    HW127215   3.622   1.546   3.088 -2.3485 -2.1917 -0.4145
 5193SOL    HW227216   3.633   1.641   3.201 -2.2960  1.1610  1.1222
 5194SOL     OW27217   0.108   1.168   1.229 -0.1029  0.8171  0.3433
 5194SOL    HW127218   0.130   1.115   1.153  0.1949 -0.3296  1.2267
 5194SOL    HW227219   0.188   1.172   1.282  0.1166 -0.9068  0.1678
 5195SOL     OW27220   1.634   1.069   8.652 -0.0526  0.1230  0.2098
 5195SOL    HW127221   1.622   1.155   8.692  0.9874 -0.2923  1.4025
 5195SOL    HW227222   1.542   1.044   8.645  0.1438 -0.3782 -0.5768
 5196SOL     OW27223   0.581   1.911   5.357 -0.2777 -0.4411  0.5436
 5196SOL    HW127224   0.644   1.973   5.319 -2.6454  2.2925  1.0884
 5196SOL    HW227225   0.539   1.965   5.424 -1.9287 -0.3289 -0.5790
 5197SOL     OW27226   2.665   0.583   6.059 -0.2089 -0.1708 -0.0838
 5197SOL    HW127227   2.689   0.491   6.053  1.3653  0.2014  0.3732
 5197SOL    HW227228   2.655   0.604   5.966  1.3633  3.9091  0.6485
 5198SOL     OW27229   4.157   0.418   6.407  0.0561  0.3245 -0.0221
 5198SOL    HW127230   4.215   0.488   6.437  1.6948 -1.0827  0.1458
 5198SOL    HW227231   4.228   0.354   6.399  0.2697  0.3693  1.5425
 5199SOL     OW27232   2.240   3.230   2.933  0.4777 -0.0578 -0.4077
 5199SOL    HW127233   2.184   3.157   2.961  1.2033 -0.0248  1.1048
 5199SOL    HW227234   2.325   3.215   2.974  0.3538 -1.5656 -0.6814
 5200SOL     OW27235   3.596   1.209  16.520 -0.4208  0.1932  0.1185
 5200SOL    HW127236   3.526   1.271  16.499 -0.9676 -0.2268  0.7133
 5200SOL    HW227237   3.673   1.257  16.491 -0.1843 -0.6197 -0.6061
 5201SOL     OW27238   0.648   3.374  13.293 -0.3870  0.4142  0.3546
 5201SOL    HW127239   0.736   3.410  13.276 -0.9820  1.4893 -0.4711
 5201SOL    HW227240   0.598   3.408  13.219 -1.7947 -0.0819  1.0845
 5202SOL     OW27241   0.794   4.012   8.290 -0.5671  0.2845 -0.2396
 5202SOL    HW127242   0.878   3.975   8.263 -0.4639 -0.8888  1.6902
 5202SOL    HW227243   0.752   3.940   8.336 -0.2549 -0.5974 -1.3395
 5203SOL     OW27244   0.325   0.969   7.243  0.2056  0.5893  0.6368
 5203SOL    HW127245   0.244   0.962   7.192  1.6473 -1.2319 -1.4202
 5203SOL    HW227246   0.308   0.906   7.313 -0.7876 -0.1287 -0.2550
 5204SOL     OW27247   2.464   4.422   3.997 -1.0965  0.8015  0.6978
 5204SOL    HW127248   2.443   4.331   4.018 -2.9532  1.1451  0.3246
 5204SOL    HW227249   2.536   4.430   4.060 -0.8823  2.5647  0.2232
 5205SOL     OW27250   1.285   2.353   2.035 -0.0021 -0.0370  0.4836
 5205SOL    HW127251   1.224   2.426   2.041  0.2289  0.2516 -0.8380
 5205SOL    HW227252   1.359   2.393   2.082  1.5927 -0.4897 -1.6673
 5206SOL     OW27253   4.658   0.626   4.276  0.4333  0.5494  0.7062
 5206SOL    HW127254   4.602   0.589   4.344  0.0979 -0.7727 -0.2859
 5206SOL    HW227255   4.607   0.699   4.240 -1.9563 -1.6202 -0.2829
 5207SOL     OW27256   0.926   2.383   7.095 -0.0276 -0.0614  0.1828
 5207SOL    HW127257   0.940   2.447   7.165 -2.0621 -1.2992  1.7146
 5207SOL    HW227258   0.851   2.412   7.044  0.1889  0.7930  0.3623
 5208SOL     OW27259   3.170   4.059   6.830  0.2273 -0.1980 -0.2783
 5208SOL    HW127260   3.188   4.033   6.739  2.3895  0.5861 -0.0901
 5208SOL    HW227261   3.103   4.127   6.821  1.0439  0.6534  0.0449
 5209SOL     OW27262   2.650   0.622  14.004 -0.0771 -0.1314 -0.4913
 5209SOL    HW127263   2.616   0.562  13.937  0.9166 -0.2822 -0.8619
 5209SOL    HW227264   2.652   0.710  13.966 -1.2940 -0.7762 -2.0457
 5210SOL     OW27265   4.706   3.608   8.870 -0.1063 -0.8171  0.1646
 5210SOL    HW127266   4.627   3.617   8.817 -0.9817  1.6042  1.8719
 5210SOL    HW227267   0.031   3.658   8.814 -0.8263  1.7375  1.6607
 5211SOL     OW27268   3.404   3.741  12.104  0.4496 -0.1197 -0.0658
 5211SOL    HW127269   3.482   3.760  12.156  0.6046 -0.2509 -0.2487
 5211SOL    HW227270   3.415   3.648  12.084  0.1472  0.0625 -1.1193
 5212SOL     OW27271   2.413   2.949  11.137  0.1976  0.0361 -0.1769
 5212SOL    HW127272   2.327   2.944  11.178  0.1164  0.5048 -0.2812
 5212SOL    HW227273   2.396   2.902  11.055 -1.4427 -2.1946  1.4479
 5213SOL     OW27274   1.203   1.408   9.470 -0.0883 -0.0477 -0.2825
 5213SOL    HW127275   1.278   1.391   9.414  1.1541 -0.1873  1.4285
 5213SOL    HW227276   1.224   1.337   9.530  0.6950  0.3833 -0.0377
 5214SOL     OW27277   0.475   0.919   8.612  0.4284 -0.0364 -0.3852
 5214SOL    HW127278   0.490   0.826   8.628 -2.1593 -0.2855  0.6228
 5214SOL    HW227279   0.565   0.952   8.614  1.1929 -2.1205 -0.5129
 5215SOL     OW27280   2.133   2.135   4.543  0.2271 -0.0354  0.3475
 5215SOL    HW127281   2.220   2.113   4.576 -0.7850 -2.1255  1.6025
 5215SOL    HW227282   2.118   2.053   4.496  1.6349 -0.5435  0.7929
 5216SOL     OW27283   0.132   1.387   8.327  0.3538  0.5493 -0.2388
 5216SOL    HW127284   0.205   1.422   8.377  0.4828  1.1558 -0.8575
 5216SOL    HW227285   0.071   1.451   8.363 -0.0288  0.1154 -0.1003
 5217SOL     OW27286   1.078   4.351   1.644 -0.9660  0.5883 -0.3864
 5217SOL    HW127287   1.044   4.271   1.684  1.1738 -0.1803 -0.1151
 5217SOL    HW227288   1.169   4.348   1.674 -0.3731  1.6698 -2.0595
 5218SOL     OW27289   2.678   2.321  14.156  0.0559  0.0675 -0.4611
 5218SOL    HW127290   2.674   2.326  14.061  3.3901  1.3580 -0.5419
 5218SOL    HW227291   2.754   2.376  14.174 -0.0866 -0.4198  1.5818
 5219SOL     OW27292   1.148   1.789  13.874 -0.5941 -0.0559 -1.1019
 5219SOL    HW127293   1.145   1.788  13.778  0.5667  0.0141 -1.1383
 5219SOL    HW227294   1.057   1.793  13.904  0.3642  1.2421  1.6086
 5220SOL     OW27295   3.929   0.922   5.129  0.1629  0.1374  0.2744
 5220SOL    HW127296   4.015   0.911   5.088  0.1225  2.3356 -0.3945
 5220SOL    HW227297   3.930   1.013   5.159  0.8268 -0.0895  0.9585
 5221SOL     OW27298   3.380   1.725   5.601  0.0274 -0.1714 -0.8959
 5221SOL    HW127299   3.303   1.778   5.579 -0.2808 -0.3586 -0.2766
 5221SOL    HW227300   3.358   1.646   5.552  0.3468 -0.5236 -0.4740
 5222SOL     OW27301   3.172   3.288   4.899 -0.1988  0.2768  0.1604
 5222SOL    HW127302   3.098   3.324   4.850  0.1380  1.5822  0.6052
 5222SOL    HW227303   3.165   3.345   4.975  0.0469  1.8169 -0.9582
 5223SOL     OW27304   3.203   2.789   2.512  0.0197 -0.0247  0.5041
 5223SOL    HW127305   3.246   2.845   2.447  0.1755 -0.7572 -0.0191
 5223SOL    HW227306   3.118   2.824   2.537  0.3550  0.9918  0.2289
 5224SOL     OW27307   2.474   2.512   6.377  0.1582 -0.3556  0.4429
 5224SOL    HW127308   2.446   2.591   6.331  2.3435  0.4664  0.5410
 5224SOL    HW227309   2.520   2.542   6.455 -1.7636  2.1256  0.6043
 5225SOL     OW27310   2.682   4.269   1.284 -0.2023  0.2684  0.2467
 5225SOL    HW127311   2.687   4.360   1.256  1.0156  0.3205  0.6175
 5225SOL    HW227312   2.713   4.268   1.375  0.9608 -0.3522 -0.1589
 5226SOL     OW27313   0.632   1.186   1.448  0.4891  0.3358  0.5205
 5226SOL    HW127314   0.700   1.249   1.471 -0.2616  1.6070 -0.6709
 5226SOL    HW227315   0.594   1.157   1.531  1.3066 -1.3111  0.3130
 5227SOL     OW27316   2.513   0.853   6.543 -0.6475  0.0623 -0.3830
 5227SOL    HW127317   2.442   0.917   6.538 -0.0965  0.6006 -1.2552
 5227SOL    HW227318   2.477   0.777   6.498  1.7879 -0.8758 -0.7499
 5228SOL     OW27319   2.982   1.517  12.023 -0.0566  0.4305  0.6299
 5228SOL    HW127320   2.988   1.422  12.025  0.1381  0.4307 -0.0710
 5228SOL    HW227321   3.074   1.539  12.006 -0.2297  1.4144  0.9478
 5229SOL     OW27322   2.128   1.363   2.404 -0.1596  0.2703  0.2973
 5229SOL    HW127323   2.204   1.399   2.450 -0.6339  1.4708  0.1210
 5229SOL    HW227324   2.053   1.420   2.420 -0.4283 -0.2075  0.7316
 5230SOL     OW27325   2.761   1.363  15.686  0.1348  0.5023 -0.0599
 5230SOL    HW127326   2.693   1.344  15.622  0.0887 -0.4173  0.2712
 5230SOL    HW227327   2.821   1.397  15.619 -0.0550 -1.0898 -1.0281
 5231SOL     OW27328   2.025   4.691   4.599  0.0046 -0.3465  0.8039
 5231SOL    HW127329   2.098   4.630   4.605  0.1395 -0.3224 -0.7303
 5231SOL    HW227330   2.026   4.717   4.507 -0.1298 -2.7977  0.1310
 5232SOL     OW27331   1.020   1.765   6.685  0.1729 -0.0753  0.2835
 5232SOL    HW127332   1.097   1.732   6.731  0.0734 -2.3142 -1.1289
 5232SOL    HW227333   1.049   1.734   6.599 -0.2864 -1.8234  0.7531
 5233SOL     OW27334   3.345   4.118   4.393 -0.4897  0.0078 -0.0854
 5233SOL    HW127335   3.262   4.071   4.392 -0.7438  0.4071  2.8116
 5233SOL    HW227336   3.324   4.176   4.466 -1.1695  1.9870 -1.8629
 5234SOL     OW27337   3.246   4.161   9.941  0.5431  0.0666  0.1076
 5234SOL    HW127338   3.188   4.182  10.015 -0.3024 -0.8130 -0.2970
 5234SOL    HW227339   3.300   4.088   9.970  1.0566  0.9532  1.3810
 5235SOL     OW27340   1.477   0.859  12.214 -0.3613 -0.1612  0.2707
 5235SOL    HW127341   1.489   0.893  12.125  1.3135  0.7131  0.8443
 5235SOL    HW227342   1.419   0.931  12.241  0.3297  0.8253 -0.8897
 5236SOL     OW27343   1.803   2.411   5.739 -0.3334 -0.0952  0.1177
 5236SOL    HW127344   1.732   2.346   5.735 -1.3380  1.2552 -4.0726
 5236SOL    HW227345   1.781   2.462   5.662 -2.0326  1.8104  1.8652
 5237SOL     OW27346   4.286   4.183   1.488  0.2106 -0.5102 -0.5778
 5237SOL    HW127347   4.204   4.224   1.460  0.1210 -0.1791  0.1736
 5237SOL    HW227348   4.278   4.181   1.583  1.4404  0.6477 -0.4552
 5238SOL     OW27349   0.759   1.302   8.267  0.6130  0.0898  0.2377
 5238SOL    HW127350   0.827   1.244   8.231 -1.3924 -1.4598 -1.0388
 5238SOL    HW227351   0.734   1.351   8.189  0.9553  0.2484  0.2282
 5239SOL     OW27352   0.310   3.746   6.528 -0.1902  0.0712 -0.3985
 5239SOL    HW127353   0.297   3.694   6.449 -0.6018 -0.8568  0.2854
 5239SOL    HW227354   0.304   3.835   6.494  0.9631  0.2235 -0.2005
 5240SOL     OW27355   0.137   3.235   6.701  0.2643  0.4048  0.0552
 5240SOL    HW127356   0.054   3.253   6.656  0.4963 -0.6019 -0.7850
 5240SOL    HW227357   0.178   3.321   6.700 -0.7211  0.8442 -2.0799
 5241SOL     OW27358   1.796   1.118  10.092  0.2351 -0.0279  0.4319
 5241SOL    HW127359   1.744   1.058  10.145 -1.5184  0.1866 -1.0298
 5241SOL    HW227360   1.812   1.195  10.148  0.5354 -0.7341  1.3107
 5242SOL     OW27361   3.905   1.497  11.798 -0.3919  0.1146 -0.6586
 5242SOL    HW127362   3.941   1.445  11.726 -0.3657 -2.8294  1.4781
 5242SOL    HW227363   3.919   1.585  11.762 -1.1938 -0.4348 -2.3040
 5243SOL     OW27364   2.210   3.025   1.603  0.3260 -0.2384 -0.7118
 5243SOL    HW127365   2.228   3.119   1.601  2.2209 -0.6232 -2.2345
 5243SOL    HW227366   2.267   3.007   1.678 -1.8320 -2.0531  0.4967
 5244SOL     OW27367   3.976   1.584   4.295 -0.2019 -0.5386 -0.3041
 5244SOL    HW127368   4.040   1.536   4.243 -0.5435  0.2833 -1.4688
 5244SOL    HW227369   3.926   1.518   4.344 -1.3191  1.3417  1.1059
 5245SOL     OW27370   2.613   2.603   7.634 -0.2262 -0.0651 -0.2900
 5245SOL    HW127371   2.606   2.699   7.641 -0.4224  0.0794 -2.4191
 5245SOL    HW227372   2.707   2.587   7.646 -0.5368 -0.6817  1.2930
 5246SOL     OW27373   2.507   1.741   4.143  0.4487 -0.3400  0.0943
 5246SOL    HW127374   2.560   1.672   4.184 -0.7570 -1.7904 -0.7870
 5246SOL    HW227375   2.487   1.797   4.218 -0.3985  0.0413 -0.4156
 5247SOL     OW27376   0.346   2.330  14.022  0.3826 -0.2744 -0.1161
 5247SOL    HW127377   0.261   2.374  14.017 -0.9325 -3.0897 -3.1332
 5247SOL    HW227378   0.407   2.388  13.977  2.4556 -0.0655  3.0226
 5248SOL     OW27379   2.343   3.144  12.166  0.2268 -0.2872 -0.3068
 5248SOL    HW127380   2.272   3.092  12.129  0.4499  0.0509 -1.2044
 5248SOL    HW227381   2.337   3.223  12.113  0.9336 -0.0826 -0.0841
 5249SOL     OW27382   0.615   2.132   4.129  0.4996 -0.0142  0.3004
 5249SOL    HW127383   0.603   2.054   4.184  0.2026  0.3427  0.7417
 5249SOL    HW227384   0.646   2.090   4.049 -0.7720  0.5338 -0.4761
 5250SOL     OW27385   3.229   3.171  16.353  0.5977  0.4864  0.1631
 5250SOL    HW127386   3.215   3.217  16.436 -1.2559 -1.7184  1.0586
 5250SOL    HW227387   3.143   3.152  16.315  1.6896 -0.0338 -2.0245
 5251SOL     OW27388   2.697   3.943   4.532  0.2188 -0.5260 -0.1583
 5251SOL    HW127389   2.749   3.932   4.452  0.0718  2.9818 -0.7264
 5251SOL    HW227390   2.772   3.934   4.591  0.5415 -0.3906 -0.5493
 5252SOL     OW27391   0.614   2.648   0.607  0.1246 -0.3453 -0.2225
 5252SOL    HW127392   0.522   2.676   0.602  0.8865  1.8038 -2.2742
 5252SOL    HW227393   0.636   2.676   0.696 -0.3585 -0.3413 -0.1024
 5253SOL     OW27394   0.447   2.907   5.701 -0.4695  0.1862  0.3554
 5253SOL    HW127395   0.451   2.971   5.630 -1.8320 -0.7631 -0.5898
 5253SOL    HW227396   0.486   2.960   5.770 -3.4815 -0.4165  2.5377
 5254SOL     OW27397   2.380   0.910   2.873  0.5365 -0.1177  0.7818
 5254SOL    HW127398   2.409   0.820   2.859  0.6355 -0.2881  2.1687
 5254SOL    HW227399   2.426   0.924   2.955  0.4311 -1.1008  1.0106
 5255SOL     OW27400   3.149   3.935   4.436  0.0327 -0.5369 -0.1725
 5255SOL    HW127401   3.175   3.862   4.379  1.2453  0.4999 -0.9502
 5255SOL    HW227402   3.176   3.903   4.522  1.8298 -1.3864 -1.0474
 5256SOL     OW27403   3.664   1.415   3.577  0.0244 -0.7306  0.6086
 5256SOL    HW127404   3.635   1.324   3.581 -1.5123 -0.3112 -1.0687
 5256SOL    HW227405   3.582   1.464   3.581 -0.0290 -0.8370  0.7805
 5257SOL     OW27406   0.970   0.172   4.062  0.0660  0.7249 -0.4666
 5257SOL    HW127407   0.930   0.229   4.127 -0.5948  1.0562 -1.1532
 5257SOL    HW227408   1.054   0.215   4.043 -0.9393  1.8205 -2.5193
 5258SOL     OW27409   2.183   0.720   9.369  0.0531 -0.9279  0.3583
 5258SOL    HW127410   2.118   0.761   9.312 -0.4222  0.5309  1.9272
 5258SOL    HW227411   2.126   0.680   9.435 -0.9917 -1.1829 -0.6816
 5259SOL     OW27412   3.751   3.147   7.133 -0.3161 -0.0715 -0.5530
 5259SOL    HW127413   3.817   3.210   7.104 -0.8915 -0.0923 -1.8745
 5259SOL    HW227414   3.805   3.091   7.190 -0.1081  1.4586  0.7503
 5260SOL     OW27415   1.761   2.981   1.896  0.1716 -0.1580 -0.0237
 5260SOL    HW127416   1.819   3.057   1.888  0.7139 -0.3934  1.7108
 5260SOL    HW227417   1.676   3.020   1.874  0.5970  0.7992  0.0197
 5261SOL     OW27418   0.961   2.685   7.035 -0.4209 -0.3766  0.1674
 5261SOL    HW127419   0.958   2.683   7.130 -0.7916  0.8184  0.1783
 5261SOL    HW227420   0.871   2.704   7.009 -1.0299 -0.8435  1.9282
 5262SOL     OW27421   1.169   0.869   8.602 -0.2633  0.2111 -0.1916
 5262SOL    HW127422   1.227   0.813   8.653  0.3226  0.6859 -0.3388
 5262SOL    HW227423   1.204   0.951   8.637 -1.3441  0.9002 -0.7098
 5263SOL     OW27424   4.024   0.589   4.221 -0.0830  0.3183  0.5287
 5263SOL    HW127425   3.941   0.560   4.258 -0.5284  0.6774 -0.1791
 5263SOL    HW227426   3.990   0.668   4.179  1.3194  0.5368 -0.2064
 5264SOL     OW27427   2.527   0.333   7.683  0.0216  0.0021 -0.6344
 5264SOL    HW127428   2.503   0.253   7.730 -0.4700 -0.4618 -1.6955
 5264SOL    HW227429   2.600   0.302   7.631  1.2451 -0.7720  1.5298
 5265SOL     OW27430   3.841   1.698   9.084  0.3762  0.4181  0.0902
 5265SOL    HW127431   3.762   1.695   9.031 -2.0464  0.1646  3.7242
 5265SOL    HW227432   3.857   1.606   9.104 -1.7991  0.3413  1.5213
 5266SOL     OW27433   0.875   2.668   2.613 -0.0796 -0.4526 -0.6655
 5266SOL    HW127434   0.947   2.617   2.649  1.0407  1.0536 -0.7402
 5266SOL    HW227435   0.864   2.725   2.689  2.0463 -0.8156 -0.0922
 5267SOL     OW27436   0.322   4.696  16.220 -0.3529  0.8852  0.5470
 5267SOL    HW127437   0.239   4.690  16.173  0.4922 -0.3629 -0.7854
 5267SOL    HW227438   0.376   4.728  16.149  0.0156  0.1643  0.4983
 5268SOL     OW27439   0.689   1.248  12.793 -0.1050 -0.7446 -0.1760
 5268SOL    HW127440   0.687   1.257  12.698  3.2873  1.7066 -0.0501
 5268SOL    HW227441   0.785   1.256  12.793 -0.2419  1.0633  1.8935
 5269SOL     OW27442   3.938   1.536   3.242 -0.1932 -0.0570  0.2077
 5269SOL    HW127443   3.854   1.563   3.279 -0.3316 -0.0458 -0.1106
 5269SOL    HW227444   3.992   1.534   3.321  1.1623 -0.1666 -0.7169
 5270SOL     OW27445   1.807   4.657   6.916  0.8942 -0.3615  0.4541
 5270SOL    HW127446   1.717   4.625   6.904  0.9961 -1.1460  1.7535
 5270SOL    HW227447   1.788   0.010   6.950 -0.7755  0.0004 -1.3500
 5271SOL     OW27448   0.691   3.209  13.519  0.3991  0.3787 -0.0986
 5271SOL    HW127449   0.651   3.271  13.458 -0.1230 -0.1022 -0.2368
 5271SOL    HW227450   0.768   3.180  13.470 -0.5578  0.7145 -1.7782
 5272SOL     OW27451   0.964   2.823   7.536 -0.5255  0.0765  0.2077
 5272SOL    HW127452   0.879   2.784   7.516 -0.8033  1.1531 -0.7220
 5272SOL    HW227453   0.931   2.913   7.534  0.1050  0.2949 -0.2439
 5273SOL     OW27454   3.677   2.690   1.771  0.4140  0.1476 -1.0860
 5273SOL    HW127455   3.720   2.606   1.757  2.3334  0.5275  2.5019
 5273SOL    HW227456   3.612   2.660   1.834  1.6283 -1.2099 -0.4688
 5274SOL     OW27457   1.702   0.247  15.427  0.3653 -0.2320 -0.3242
 5274SOL    HW127458   1.692   0.175  15.364 -3.4360 -0.1979  0.2353
 5274SOL    HW227459   1.795   0.265  15.411  0.5443 -1.1436 -0.3164
 5275SOL     OW27460   2.979   0.631  14.960 -0.5939 -0.2308  0.0529
 5275SOL    HW127461   2.944   0.584  14.884  3.1978 -2.9927  0.0421
 5275SOL    HW227462   2.894   0.657  14.997 -0.4671 -1.3895  1.1414
 5276SOL     OW27463   3.317   2.388   1.945  0.0360 -0.3621 -0.8361
 5276SOL    HW127464   3.289   2.304   1.981  0.2721 -0.8587 -1.8368
 5276SOL    HW227465   3.239   2.445   1.949 -0.3777 -1.0147  0.5353
 5277SOL     OW27466   3.067   3.356   3.750 -0.4822  0.4390  0.6582
 5277SOL    HW127467   3.146   3.330   3.703 -0.7332  1.9464 -0.6268
 5277SOL    HW227468   3.003   3.357   3.678 -0.3575  1.1729  0.5610
 5278SOL     OW27469   2.759   0.475  16.733  0.1081 -0.2113  0.1414
 5278SOL    HW127470   2.678   0.525  16.731 -1.3283 -2.5203  0.4832
 5278SOL    HW227471   2.749   0.414  16.806 -0.2432 -1.0794 -0.6395
 5279SOL     OW27472   2.026   3.319   1.428  0.5562  0.4124 -0.0661
 5279SOL    HW127473   2.103   3.375   1.414  0.7769  0.1718  0.1853
 5279SOL    HW227474   1.954   3.366   1.386  0.1916 -0.3848 -0.3491
 5280SOL     OW27475   4.610   3.196   7.131 -0.4089 -0.0622 -0.7627
 5280SOL    HW127476   4.558   3.115   7.130  1.6162 -1.3551 -1.5294
 5280SOL    HW227477   4.701   3.168   7.142  0.0070 -0.1111 -4.2827
 5281SOL     OW27478   0.118   2.671  17.037 -0.1256  0.3506  0.0765
 5281SOL    HW127479   0.025   2.677  17.014 -0.4859 -1.2526  1.0850
 5281SOL    HW227480   0.119   2.577  17.055 -3.1678  0.5656  1.4573
 5282SOL     OW27481   1.268   2.959   8.903  0.0182 -0.1630 -0.0901
 5282SOL    HW127482   1.269   3.054   8.915 -4.1824 -0.0340 -0.6932
 5282SOL    HW227483   1.200   2.936   8.966  0.1010  0.5128  0.2553
 5283SOL     OW27484   0.454   2.846   9.816 -0.5710 -0.2581 -0.3955
 5283SOL    HW127485   0.445   2.766   9.868  1.1384  0.0336  0.3269
 5283SOL    HW227486   0.365   2.879   9.827 -0.4308  0.6083 -1.7528
 5284SOL     OW27487   3.026   1.938   6.027  0.0345  0.5075 -0.1570
 5284SOL    HW127488   3.015   2.013   6.086  3.2333  1.0075 -0.1995
 5284SOL    HW227489   3.077   1.879   6.082 -0.8626  0.6631  0.8465
 5285SOL     OW27490   3.851   1.411   8.304  0.7868  0.1183  0.2194
 5285SOL    HW127491   3.850   1.448   8.216  0.3300  1.0100  0.5993
 5285SOL    HW227492   3.853   1.319   8.279 -2.3519 -0.2411  1.1658
 5286SOL     OW27493   4.608   1.219   6.663 -0.1321 -0.4356 -0.2682
 5286SOL    HW127494   4.677   1.286   6.669 -0.6107 -0.0762  1.2362
 5286SOL    HW227495   4.603   1.186   6.573 -0.3948 -2.3369  0.4613
 5287SOL     OW27496   0.595   4.557   6.119  0.3475  0.4576 -0.0684
 5287SOL    HW127497   0.607   4.635   6.065  1.8041  2.2474  2.8124
 5287SOL    HW227498   0.650   4.504   6.062  0.1482  0.2569 -0.0716
 5288SOL     OW27499   3.915   4.465  11.061 -0.6248 -0.3081 -0.1187
 5288SOL    HW127500   3.853   4.461  11.134 -1.3979  2.6378 -0.6386
 5288SOL    HW227501   3.919   4.560  11.055  1.2703 -0.3315  0.9824
 5289SOL     OW27502   4.580   3.817   7.444  0.3404 -0.2299  0.3080
 5289SOL    HW127503   4.617   3.855   7.524  2.9660 -0.0144 -1.0018
 5289SOL    HW227504   4.651   3.783   7.390  1.8094  2.3150  0.6310
 5290SOL     OW27505   2.017   0.793   9.159 -0.3572 -0.0229 -0.5342
 5290SOL    HW127506   1.981   0.838   9.082  1.9226  0.8436 -1.0910
 5290SOL    HW227507   1.942   0.754   9.204 -0.7017  0.0808 -1.0252
 5291SOL     OW27508   4.685   0.537   2.097  1.4641 -0.0106 -0.1571
 5291SOL    HW127509   4.619   0.508   2.034 -0.2363  0.3905  1.4473
 5291SOL    HW227510   0.010   0.581   2.036 -0.3817  0.9055 -1.2995
 5292SOL     OW27511   2.043   2.675   5.124 -0.4349  0.2334  0.5590
 5292SOL    HW127512   2.079   2.599   5.080  0.4017  0.5576  0.6867
 5292SOL    HW227513   2.122   2.724   5.147  0.7385 -1.9271  1.1499
 5293SOL     OW27514   3.017   1.200   8.638 -0.2210 -0.0726  0.0042
 5293SOL    HW127515   2.967   1.216   8.718 -0.0837 -0.6327  0.2029
 5293SOL    HW227516   3.044   1.286   8.605 -1.6096  0.8380  1.2990
 5294SOL     OW27517   2.160   1.729  10.683 -0.2750 -0.0566 -0.0456
 5294SOL    HW127518   2.179   1.745  10.775 -3.1690 -1.5549  0.8477
 5294SOL    HW227519   2.184   1.813  10.645 -1.8929 -0.0729 -1.1164
 5295SOL     OW27520   3.240   4.087  10.637 -0.3990 -0.1627  0.5867
 5295SOL    HW127521   3.162   4.140  10.652 -0.0755  1.2433 -2.6820
 5295SOL    HW227522   3.198   4.008  10.602 -1.0972  1.7461 -2.9356
 5296SOL     OW27523   0.322   1.931   9.148  0.1956  0.0789 -0.3572
 5296SOL    HW127524   0.296   1.990   9.077 -1.9645  2.0258  2.0899
 5296SOL    HW227525   0.243   1.946   9.199 -0.1252 -0.4851 -0.6952
 5297SOL     OW27526   0.739   2.760   9.928 -0.6934  0.0686  0.8571
 5297SOL    HW127527   0.779   2.708   9.997 -0.7232  0.2570  1.0164
 5297SOL    HW227528   0.645   2.751   9.946 -1.1634  1.6605 -0.7326
 5298SOL     OW27529   4.405   4.194   6.610 -0.0109 -0.4016 -0.3801
 5298SOL    HW127530   4.312   4.199   6.633  0.0504  0.5040 -0.3296
 5298SOL    HW227531   4.443   4.138   6.677 -1.7341  0.2492  1.1612
 5299SOL     OW27532   1.134   2.601   1.314  0.2014 -0.1520 -0.3818
 5299SOL    HW127533   1.094   2.522   1.277  1.8476 -1.7499  1.2903
 5299SOL    HW227534   1.189   2.625   1.239 -2.2475 -1.8854 -2.7529
 5300SOL     OW27535   0.792   3.611   8.375 -0.2463 -0.3639  0.1221
 5300SOL    HW127536   0.729   3.541   8.356 -1.9426  1.4880 -1.0170
 5300SOL    HW227537   0.737   3.688   8.369  0.8648  0.3117 -1.4123
 5301SOL     OW27538   0.044   1.776   6.565 -0.0168 -0.1851  0.1247
 5301SOL    HW127539   0.134   1.769   6.532 -0.6324 -1.7091 -1.2223
 5301SOL    HW227540   0.019   1.852   6.512 -1.4058 -0.8479 -0.1722
 5302SOL     OW27541   0.592   1.227   4.160  0.6634 -0.1540 -0.8028
 5302SOL    HW127542   0.532   1.181   4.101 -2.4119  2.9532 -0.0789
 5302SOL    HW227543   0.664   1.248   4.102 -0.8423  0.8008 -2.3335
 5303SOL     OW27544   0.889   2.260   4.511  0.1940 -0.2720  0.6665
 5303SOL    HW127545   0.965   2.238   4.458  0.0316  1.3584 -0.2343
 5303SOL    HW227546   0.859   2.344   4.476  2.0104 -0.0396 -0.3287
 5304SOL     OW27547   3.596   4.327  16.258  0.2421 -0.3085  0.2775
 5304SOL    HW127548   3.612   4.336  16.164 -1.5806 -1.0202 -0.1002
 5304SOL    HW227549   3.634   4.243  16.283  1.5241  0.0450 -0.4944
 5305SOL     OW27550   2.536   1.488   7.403 -0.2525 -0.1028 -0.5419
 5305SOL    HW127551   2.588   1.568   7.404  1.0077 -0.9124 -1.3887
 5305SOL    HW227552   2.478   1.497   7.328 -1.3512 -0.3609  0.2831
 5306SOL     OW27553   1.623   1.590   2.923  0.1553  0.3309 -0.1648
 5306SOL    HW127554   1.689   1.631   2.979 -1.0478 -0.5590  1.8951
 5306SOL    HW227555   1.666   1.517   2.878  0.6774  0.8762 -0.5614
 5307SOL     OW27556   2.214   2.317   9.715  0.1623 -0.7079 -0.7573
 5307SOL    HW127557   2.298   2.323   9.668  0.7737 -1.4203  0.2553
 5307SOL    HW227558   2.250   2.275   9.793  0.4498  0.4209 -0.2744
 5308SOL     OW27559   1.005   3.461   8.960  0.6479  0.4108 -0.1574
 5308SOL    HW127560   0.982   3.475   9.052 -0.6913 -0.5453 -0.3368
 5308SOL    HW227561   1.077   3.522   8.947 -0.1125  1.3253 -0.0665
 5309SOL     OW27562   4.689   2.142   8.093  0.1757  0.5825 -0.0459
 5309SOL    HW127563   4.653   2.055   8.075  2.0479 -0.2705  0.3707
 5309SOL    HW227564   4.604   2.186   8.100  0.3636  0.8516  0.5604
 5310SOL     OW27565   0.387   0.295   3.454  0.2373  0.3383 -0.3101
 5310SOL    HW127566   0.473   0.266   3.485 -0.0300  0.7069  0.7696
 5310SOL    HW227567   0.362   0.373   3.504  2.2115  0.0871  1.0676
 5311SOL     OW27568   1.736   1.325   6.660  0.2403 -0.0791 -0.4547
 5311SOL    HW127569   1.734   1.381   6.738 -0.5961 -0.3650 -0.2617
 5311SOL    HW227570   1.700   1.243   6.695  1.0521 -0.6931 -1.0747
 5312SOL     OW27571   4.025   3.735   8.721 -0.3802  0.6042  0.2150
 5312SOL    HW127572   4.006   3.693   8.637 -0.2909  0.1796  0.4034
 5312SOL    HW227573   4.099   3.675   8.733 -0.9295  0.0614  0.9508
 5313SOL     OW27574   3.157   0.751   6.802  0.0527 -0.0155 -0.4790
 5313SOL    HW127575   3.159   0.696   6.724  1.0933  0.5748 -0.8652
 5313SOL    HW227576   3.168   0.684   6.870  0.8002 -0.6879 -1.2600
 5314SOL     OW27577   4.295   3.129   6.973  0.2620  0.0824  0.0604
 5314SOL    HW127578   4.241   3.156   7.047  0.0090 -1.7460  0.5432
 5314SOL    HW227579   4.355   3.063   7.007  3.4937  1.7770 -2.4248
 5315SOL     OW27580   0.588   3.802   4.928 -0.1160 -1.2660  0.4177
 5315SOL    HW127581   0.676   3.832   4.903 -0.9863  2.1072  1.4429
 5315SOL    HW227582   0.539   3.882   4.910  0.3335 -1.6623 -2.4623
 5316SOL     OW27583   1.348   3.038   7.747 -0.1548 -0.1066 -0.0791
 5316SOL    HW127584   1.292   3.096   7.696 -0.4893  1.5261  2.1299
 5316SOL    HW227585   1.429   3.086   7.731 -0.1962  0.3256  0.9847
 5317SOL     OW27586   0.317   0.831   5.199  0.0771 -0.0837  0.0061
 5317SOL    HW127587   0.290   0.814   5.289 -0.5920  0.4764 -0.0889
 5317SOL    HW227588   0.360   0.916   5.212  0.0981  0.0787 -1.1246
 5318SOL     OW27589   0.870   4.374   6.501  0.3582 -0.4480  0.2312
 5318SOL    HW127590   0.822   4.345   6.424 -0.3674  0.3900  0.3626
 5318SOL    HW227591   0.943   4.416   6.456 -0.2044 -1.6659 -1.7711
 5319SOL     OW27592   3.301   2.757   8.841  1.2126 -0.2094  0.0466
 5319SOL    HW127593   3.308   2.822   8.770 -2.6936  1.7167  1.4171
 5319SOL    HW227594   3.208   2.742   8.855  1.7987 -1.9098  2.1125
 5320SOL     OW27595   0.072   2.818   0.574 -0.3736  0.1197 -0.3273
 5320SOL    HW127596   0.143   2.776   0.527  0.4634 -0.4770  1.4670
 5320SOL    HW227597   0.024   2.863   0.504  0.1610  0.4360 -0.4906
 5321SOL     OW27598   1.273   2.333   4.544 -0.5427 -0.2103 -0.6713
 5321SOL    HW127599   1.216   2.398   4.503 -1.2277  0.0058  0.6305
 5321SOL    HW227600   1.324   2.300   4.470  0.5533 -0.7336  0.3231
 5322SOL     OW27601   0.576   0.791  14.882 -0.1278  0.2470  0.1319
 5322SOL    HW127602   0.545   0.723  14.942  0.7128 -0.7611 -0.5801
 5322SOL    HW227603   0.506   0.780  14.817  1.1733 -0.9662 -1.0480
 5323SOL     OW27604   1.309   1.132  10.613  0.4281 -0.8456 -0.1197
 5323SOL    HW127605   1.235   1.192  10.604  0.2684 -0.8933  0.9412
 5323SOL    HW227606   1.326   1.126  10.706  2.7198  0.4088 -0.4718
 5324SOL     OW27607   2.036   0.155   8.870 -0.0028  0.1485 -0.3882
 5324SOL    HW127608   1.992   0.195   8.944  0.3106 -0.5051  0.1494
 5324SOL    HW227609   2.016   0.221   8.804 -1.2868 -1.5807 -1.7678
 5325SOL     OW27610   2.176   4.001  14.364  0.7505 -0.7295 -0.5260
 5325SOL    HW127611   2.161   4.022  14.456  0.7757 -2.8037 -0.0435
 5325SOL    HW227612   2.093   4.012  14.318  1.3615  1.9005 -0.9948
 5326SOL     OW27613   3.726   2.479   5.955  0.2137 -0.3888  0.0075
 5326SOL    HW127614   3.701   2.387   5.959  2.3018 -0.9833 -0.8728
 5326SOL    HW227615   3.726   2.486   5.860 -2.7986  2.4204  0.2174
 5327SOL     OW27616   4.554   1.925   1.535 -0.2977  0.3791 -0.4235
 5327SOL    HW127617   4.573   2.017   1.513 -3.6786  1.1415 -0.0889
 5327SOL    HW227618   4.586   1.884   1.455  0.6391 -0.2532  0.2780
 5328SOL     OW27619   2.158   1.309   5.279 -0.0567  0.3172  0.0256
 5328SOL    HW127620   2.215   1.273   5.347 -0.3854 -0.4313 -0.0862
 5328SOL    HW227621   2.145   1.236   5.218 -0.9368 -0.9767  1.7549
 5329SOL     OW27622   2.694   1.772   5.085  0.7408 -0.0397 -0.3007
 5329SOL    HW127623   2.665   1.687   5.053 -1.8204  0.5700  0.4163
 5329SOL    HW227624   2.662   1.835   5.021  1.1269 -0.6172 -1.0621
 5330SOL     OW27625   2.758   4.088   1.910 -0.2838 -0.6334 -0.9515
 5330SOL    HW127626   2.712   4.046   1.983 -2.5434  0.2087 -1.9052
 5330SOL    HW227627   2.698   4.163   1.910 -1.4961 -1.6011 -0.9734
 5331SOL     OW27628   0.013   3.848   9.025  0.5377 -0.2943  0.1064
 5331SOL    HW127629   0.036   3.882   8.938 -1.9607 -1.0097 -0.8290
 5331SOL    HW227630   4.726   3.759   8.995  0.7189  0.0408 -1.0289
 5332SOL     OW27631   2.790   1.533   8.371 -0.6966  0.0032  0.0131
 5332SOL    HW127632   2.741   1.508   8.293 -0.3442 -0.2196 -0.1355
 5332SOL    HW227633   2.720   1.518   8.435 -0.3469 -0.7645  0.2147
 5333SOL     OW27634   2.121   4.347  12.427  0.0264  0.4277 -0.4140
 5333SOL    HW127635   2.210   4.315  12.442 -0.0007  0.2290 -0.6734
 5333SOL    HW227636   2.094   4.285  12.359 -0.7871  1.4020 -0.9701
 5334SOL     OW27637   3.350   4.441   3.080 -0.4880  0.6275  0.4170
 5334SOL    HW127638   3.353   4.367   3.020  1.9187  0.9573  0.1321
 5334SOL    HW227639   3.439   4.475   3.075 -0.2052 -0.0491  0.7820
 5335SOL     OW27640   3.819   1.781   2.402 -0.0247  0.3995 -0.0671
 5335SOL    HW127641   3.856   1.699   2.435  2.4959  2.1916  1.5817
 5335SOL    HW227642   3.822   1.765   2.308  0.6174  1.1243 -0.1661
 5336SOL     OW27643   3.619   2.707   2.367  0.2119 -0.6420 -0.0081
 5336SOL    HW127644   3.585   2.765   2.299  0.3507 -0.6587 -0.0921
 5336SOL    HW227645   3.684   2.766   2.405 -2.2479  0.2000  2.8655
 5337SOL     OW27646   1.090   4.471  14.745  0.3162  0.0434 -0.0944
 5337SOL    HW127647   1.090   4.555  14.790  1.5985  0.7639 -1.4301
 5337SOL    HW227648   1.163   4.430  14.791 -0.3440 -1.0139  0.0093
 5338SOL     OW27649   0.920   3.356   4.846 -0.4888 -0.6216 -0.7190
 5338SOL    HW127650   0.870   3.418   4.899  1.7610 -0.3879  1.1389
 5338SOL    HW227651   0.860   3.342   4.772 -1.2310  1.0103 -0.4322
 5339SOL     OW27652   0.438   2.771   6.807 -0.4570  0.2089  0.4066
 5339SOL    HW127653   0.422   2.709   6.877 -1.0222  1.1691  1.1293
 5339SOL    HW227654   0.353   2.763   6.762 -0.4087  1.6027  0.0383
 5340SOL     OW27655   0.714   4.275   4.738  0.3664 -0.1048 -0.1437
 5340SOL    HW127656   0.636   4.319   4.703  0.4108  0.1149  0.0353
 5340SOL    HW227657   0.761   4.354   4.765 -1.5371  0.6249  1.0133
 5341SOL     OW27658   3.548   4.681   0.206  0.0825 -0.8284  0.2789
 5341SOL    HW127659   3.633   4.670   0.163 -1.3637 -0.1748 -2.7245
 5341SOL    HW227660   3.580   0.005   0.274  0.8628  3.5296 -3.8028
 5342SOL     OW27661   1.489   1.477  17.343  0.4429 -0.4380 -0.3532
 5342SOL    HW127662   1.401   1.514  17.331 -0.0532 -1.3164  0.5554
 5342SOL    HW227663   1.513   1.478  17.251 -0.4987 -0.4083 -0.5924
 5343SOL     OW27664   3.832   1.377  16.133  0.0464 -0.1267 -0.3931
 5343SOL    HW127665   3.773   1.386  16.058  0.4103 -1.0414 -0.7961
 5343SOL    HW227666   3.811   1.460  16.176 -1.2890 -1.3350  1.2717
 5344SOL     OW27667   3.701   1.872  15.334 -0.2484 -0.4172 -0.1515
 5344SOL    HW127668   3.678   1.887  15.242 -1.6283 -0.1602  0.2322
 5344SOL    HW227669   3.616   1.839  15.363  0.9250 -2.0471  1.4234
 5345SOL     OW27670   4.352   2.146   9.666  0.4531  0.0552 -0.2432
 5345SOL    HW127671   4.390   2.205   9.601  1.5781 -0.2044  0.1825
 5345SOL    HW227672   4.320   2.076   9.609  2.0013 -0.0209 -0.9934
 5346SOL     OW27673   1.405   1.298  15.780 -1.0815 -0.3153 -0.9583
 5346SOL    HW127674   1.384   1.257  15.864 -1.4155  0.7237 -0.5247
 5346SOL    HW227675   1.333   1.252  15.736 -1.5621 -1.2160  0.7874
 5347SOL     OW27676   3.678   3.537   0.716  0.0034  0.1340 -0.1324
 5347SOL    HW127677   3.728   3.561   0.638 -1.1922  2.3672 -0.2150
 5347SOL    HW227678   3.673   3.443   0.697 -0.2107  0.3592 -1.2088
 5348SOL     OW27679   2.531   1.394   3.291 -0.0465 -0.5141 -0.0184
 5348SOL    HW127680   2.475   1.425   3.220  0.6680  1.3340  0.2336
 5348SOL    HW227681   2.577   1.476   3.307 -0.3973 -0.4470  0.6741
 5349SOL     OW27682   2.580   3.438   8.209  0.2954  0.2543  0.1348
 5349SOL    HW127683   2.524   3.464   8.282  0.4825 -0.0103  0.3722
 5349SOL    HW227684   2.523   3.475   8.141 -0.0908 -1.6595 -0.5852
 5350SOL     OW27685   0.965   2.374   5.088 -0.2280  0.2184 -0.1165
 5350SOL    HW127686   1.045   2.323   5.089 -1.3311 -1.5057 -0.4925
 5350SOL    HW227687   0.937   2.363   4.998 -0.5438 -0.7182  0.0975
 5351SOL     OW27688   0.045   2.745  14.129 -0.2177 -0.2711 -0.4389
 5351SOL    HW127689   4.688   2.772  14.130 -0.3428 -0.6803 -0.7510
 5351SOL    HW227690   0.076   2.805  14.196 -1.6169  0.0178 -0.0454
 5352SOL     OW27691   1.611   0.112   3.290  0.0415  0.4296  0.0293
 5352SOL    HW127692   1.609   0.068   3.375  0.3975 -1.1408 -0.7765
 5352SOL    HW227693   1.700   0.147   3.297  0.2827  0.0210 -1.1015
 5353SOL     OW27694   3.561   3.868   2.863 -0.4487  0.0502 -0.2259
 5353SOL    HW127695   3.541   3.796   2.923 -2.2654  1.1774  0.5161
 5353SOL    HW227696   3.655   3.874   2.881 -0.0747  2.3677 -2.9217
 5354SOL     OW27697   3.134   1.256   9.207 -0.2416 -0.5062  0.0318
 5354SOL    HW127698   3.047   1.278   9.238 -0.4858  0.5133 -1.4286
 5354SOL    HW227699   3.115   1.167   9.178  2.6571 -1.0569 -0.1698
 5355SOL     OW27700   1.223   1.309   2.308  0.3436  0.1271 -0.5708
 5355SOL    HW127701   1.179   1.251   2.246 -1.0403  0.0991  0.4218
 5355SOL    HW227702   1.150   1.345   2.359 -0.1905  0.9770 -1.9239
 5356SOL     OW27703   3.457   2.820   7.346 -0.0434 -0.5517  0.5159
 5356SOL    HW127704   3.389   2.847   7.408 -0.6426  1.1357 -0.8718
 5356SOL    HW227705   3.474   2.903   7.301 -2.8728  0.6827  1.7063
 5357SOL     OW27706   3.643   4.297   5.115  0.0583  0.0738  0.2994
 5357SOL    HW127707   3.678   4.221   5.069  2.3140  0.0343  2.0531
 5357SOL    HW227708   3.686   4.365   5.063 -1.7859  1.6012  0.7741
 5358SOL     OW27709   4.126   0.977   4.626 -0.2485  0.0022 -0.0890
 5358SOL    HW127710   4.136   0.924   4.547 -0.1616 -1.9232  1.2174
 5358SOL    HW227711   4.212   1.017   4.616 -0.5483  0.1207 -2.3456
 5359SOL     OW27712   4.337   2.529   9.722 -0.0086 -0.0836  0.0113
 5359SOL    HW127713   4.252   2.553   9.759  0.1290  0.2242  0.1336
 5359SOL    HW227714   4.375   2.474   9.790  2.3256  1.9062  0.3259
 5360SOL     OW27715   0.086   0.044   5.447 -0.5094  0.6759 -0.1523
 5360SOL    HW127716   0.115   0.116   5.392 -1.7948  1.7629  0.5855
 5360SOL    HW227717   0.021   0.083   5.506 -0.2799 -1.5387  1.5794
 5361SOL     OW27718   2.014   4.656   4.127  0.1005  0.3831 -0.2678
 5361SOL    HW127719   2.082   4.720   4.104 -0.6951  0.9647 -0.9995
 5361SOL    HW227720   2.052   4.577   4.163  0.8229  0.6498 -0.4416
 5362SOL     OW27721   3.272   3.714  10.091 -0.3600 -0.1086  0.0002
 5362SOL    HW127722   3.298   3.713  10.184 -1.1168 -0.3560  0.2010
 5362SOL    HW227723   3.339   3.775  10.059  1.1980 -1.1562  1.2669
 5363SOL     OW27724   2.660   1.114   1.034  0.2969 -0.1859 -0.0795
 5363SOL    HW127725   2.679   1.055   1.107 -0.9588 -2.0586 -1.2672
 5363SOL    HW227726   2.677   1.197   1.078 -0.6520  0.3264 -0.6876
 5364SOL     OW27727   0.769   3.958   6.645  0.6570 -0.3623  0.2811
 5364SOL    HW127728   0.746   3.960   6.552 -1.2709  1.9114  0.8064
 5364SOL    HW227729   0.849   4.011   6.640  0.3746  0.0129 -0.3404
 5365SOL     OW27730   0.066   0.678   0.491 -0.7723  0.5853 -0.1731
 5365SOL    HW127731   0.138   0.665   0.429 -1.9523  0.1197 -1.4498
 5365SOL    HW227732   0.108   0.699   0.574 -0.2655 -1.7323  0.1546
 5366SOL     OW27733   0.200   2.382   6.887  0.0016  0.7982 -0.0734
 5366SOL    HW127734   0.106   2.400   6.896 -0.6197 -2.9769  0.9566
 5366SOL    HW227735   0.216   2.294   6.854 -2.2196 -0.0414  1.0974
 5367SOL     OW27736   1.884   2.208   7.562 -0.1783  0.3518 -0.0828
 5367SOL    HW127737   1.934   2.278   7.605  0.6917 -1.1031  1.2687
 5367SOL    HW227738   1.938   2.129   7.564  0.0900  0.4909 -2.2492
 5368SOL     OW27739   2.411   2.411   7.579  0.2938  0.5600  0.1326
 5368SOL    HW127740   2.479   2.392   7.514  0.6715  0.1611  0.6504
 5368SOL    HW227741   2.460   2.471   7.635  0.1428  1.8228 -1.0986
 5369SOL     OW27742   1.672   4.156   4.097 -0.0564 -0.0061  0.1566
 5369SOL    HW127743   1.607   4.139   4.029 -0.1174 -0.9322  0.4520
 5369SOL    HW227744   1.613   4.170   4.171 -0.0553  2.1234 -0.2533
 5370SOL     OW27745   3.187   0.189  11.626  0.1912  0.3026 -0.2484
 5370SOL    HW127746   3.216   0.194  11.717 -0.2548  3.7116 -0.3104
 5370SOL    HW227747   3.105   0.147  11.654  0.7447 -0.3018  0.4879
 5371SOL     OW27748   3.932   2.298   1.681 -0.8276  0.0494 -0.9738
 5371SOL    HW127749   3.876   2.237   1.729 -0.7721  0.7965  0.0329
 5371SOL    HW227750   3.866   2.368   1.679 -0.2472  0.6056 -0.7559
 5372SOL     OW27751   2.093   4.196  12.895 -0.6006  0.9087  0.4533
 5372SOL    HW127752   2.030   4.134  12.931 -1.2389  2.1399  1.4347
 5372SOL    HW227753   2.151   4.128  12.859  1.0562  1.6120  1.8348
 5373SOL     OW27754   4.638   1.585  11.076  0.0670 -0.2073 -0.0243
 5373SOL    HW127755   4.683   1.669  11.089 -1.8795  0.9387 -0.7524
 5373SOL    HW227756   4.598   1.614  10.995 -0.8758 -3.2381 -0.6582
 5374SOL     OW27757   4.658   2.824   4.269  0.1806  0.1756 -0.1207
 5374SOL    HW127758   4.646   2.766   4.344  0.5770  2.4269  1.6866
 5374SOL    HW227759   4.585   2.810   4.209 -0.4924  0.3089  0.6749
 5375SOL     OW27760   0.675   3.496  12.677 -0.3191 -0.5327  0.1546
 5375SOL    HW127761   0.657   3.443  12.599  2.3893 -0.9761 -0.1632
 5375SOL    HW227762   0.591   3.494  12.723 -1.0254  0.1408 -1.0976
 5376SOL     OW27763   2.638   0.066   5.633 -0.2284  0.1213  0.1008
 5376SOL    HW127764   2.582   0.140   5.658 -1.9339 -1.3836  0.7158
 5376SOL    HW227765   2.580   4.730   5.605  0.7661  0.5271 -2.9580
 5377SOL     OW27766   1.195   2.112   4.687  0.4845  0.6383  0.6835
 5377SOL    HW127767   1.271   2.061   4.661 -0.0913  1.4215 -2.5593
 5377SOL    HW227768   1.219   2.193   4.640  1.6536  0.9097  1.7811
 5378SOL     OW27769   2.691   2.521   6.776 -0.0244  0.0042 -0.1195
 5378SOL    HW127770   2.738   2.554   6.853  1.8561  0.2380 -1.3523
 5378SOL    HW227771   2.694   2.428   6.799 -4.6952 -0.0366  0.3075
 5379SOL     OW27772   2.150   3.680   6.109  0.3212  0.3312 -0.0022
 5379SOL    HW127773   2.170   3.716   6.023 -1.2487  0.1904 -0.4153
 5379SOL    HW227774   2.185   3.744   6.171 -1.7146  2.4679 -1.0963
 5380SOL     OW27775   3.030   0.972   7.936  0.1592  0.1772 -0.0465
 5380SOL    HW127776   3.087   0.939   7.866 -0.9361 -1.0663 -0.3469
 5380SOL    HW227777   3.046   1.066   7.935  1.0534  0.0506  1.5037
 5381SOL     OW27778   4.018   0.079  17.251 -0.4306  0.3026  0.4768
 5381SOL    HW127779   3.953   0.107  17.186  1.4360  2.0621 -0.6224
 5381SOL    HW227780   3.964   0.066  17.330 -0.4320  1.0152  0.5960
 5382SOL     OW27781   0.481   2.725  16.803  0.2436 -0.0503  0.3062
 5382SOL    HW127782   0.429   2.763  16.874 -1.0987  0.5282 -0.9705
 5382SOL    HW227783   0.448   2.787  16.737 -1.7776 -0.1888  1.1745
 5383SOL     OW27784   3.768   3.514   6.858 -0.0027 -0.0306  0.0313
 5383SOL    HW127785   3.839   3.569   6.891  1.3680 -1.9257  0.2263
 5383SOL    HW227786   3.741   3.479   6.943  0.7781  1.2977  0.8302
 5384SOL     OW27787   1.557   3.477   0.470  0.0539  0.1394 -0.2614
 5384SOL    HW127788   1.585   3.406   0.413  0.4545  0.2694 -0.2290
 5384SOL    HW227789   1.566   3.426   0.551  0.5773 -2.9927 -2.2929
 5385SOL     OW27790   1.057   0.373   3.386  0.8154  0.3452  0.3487
 5385SOL    HW127791   1.150   0.360   3.367  0.6292 -0.2130 -0.1671
 5385SOL    HW227792   1.018   0.345   3.303  1.9857  0.0723 -0.1086
 5386SOL     OW27793   3.833   2.586  11.692 -0.4143  0.2046 -0.7105
 5386SOL    HW127794   3.865   2.501  11.662  0.9841  0.0264  1.2419
 5386SOL    HW227795   3.744   2.574  11.659 -0.0042  0.2851 -1.8301
 5387SOL     OW27796   1.480   1.371   3.900  0.0353  0.4320 -0.5946
 5387SOL    HW127797   1.519   1.458   3.887  1.2758  0.2207  1.6881
 5387SOL    HW227798   1.404   1.372   3.841  1.4596 -1.5516 -2.4744
 5388SOL     OW27799   4.547   0.039   7.979 -0.2428  0.1680  0.2988
 5388SOL    HW127800   4.631   4.732   7.961 -0.5169 -0.7290  1.0730
 5388SOL    HW227801   4.521   4.731   8.060 -1.2288 -0.3007 -0.2555
 5389SOL     OW27802   4.550   3.166   2.784 -0.2217 -0.0076  0.2886
 5389SOL    HW127803   4.589   3.117   2.856 -0.4703  2.1935  1.9261
 5389SOL    HW227804   4.455   3.168   2.796 -0.1172  2.7139  0.7882
 5390SOL     OW27805   4.552   0.346   5.868 -0.0770  0.2497  0.2816
 5390SOL    HW127806   4.486   0.280   5.846 -1.9051  2.4371 -0.7475
 5390SOL    HW227807   4.497   0.422   5.885 -0.7594 -0.1328 -0.2417
 5391SOL     OW27808   3.687   1.720  10.965 -0.1522 -0.1125  0.5761
 5391SOL    HW127809   3.708   1.813  10.953 -1.5448  0.2806  1.2087
 5391SOL    HW227810   3.704   1.677  10.882  0.0988  2.6614 -0.8230
 5392SOL     OW27811   3.279   0.099   4.677  0.0042 -0.0463 -0.3079
 5392SOL    HW127812   3.309   0.160   4.745 -0.3980  0.1353 -0.2886
 5392SOL    HW227813   3.238   0.035   4.735  0.9215 -1.5780 -1.3544
 5393SOL     OW27814   2.002   3.414   2.940 -0.0574 -0.4973  0.3768
 5393SOL    HW127815   1.967   3.480   3.001  2.1958  1.0093  0.0316
 5393SOL    HW227816   2.059   3.370   3.003  2.2684  0.7163 -0.8832
 5394SOL     OW27817   0.808   1.496   1.685  0.2048 -0.4330  0.1761
 5394SOL    HW127818   0.719   1.491   1.649 -0.2719 -3.4360  1.8389
 5394SOL    HW227819   0.800   1.565   1.751 -0.7732  0.2234 -0.6102
 5395SOL     OW27820   2.586   4.470   6.780  0.7585  0.3905  0.0004
 5395SOL    HW127821   2.589   4.396   6.719 -1.7079  0.5495 -0.2831
 5395SOL    HW227822   2.606   4.546   6.726  0.4748  0.6831  0.3078
 5396SOL     OW27823   1.549   1.471   8.533  0.6723 -0.1470  0.3528
 5396SOL    HW127824   1.641   1.446   8.530  0.5260 -0.6074 -0.3407
 5396SOL    HW227825   1.505   1.388   8.515  3.8914 -2.1249  1.6382
 5397SOL     OW27826   3.248   3.948   3.343 -0.0978  0.6240 -0.2337
 5397SOL    HW127827   3.158   3.936   3.314  0.0691  1.7914 -1.2474
 5397SOL    HW227828   3.274   3.858   3.360 -1.3606  0.4241  0.6438
 5398SOL     OW27829   0.485   4.290   5.293 -0.7360  0.1876  0.0970
 5398SOL    HW127830   0.546   4.252   5.355 -0.8581  1.6610  1.1056
 5398SOL    HW227831   0.485   4.381   5.322 -1.4804  1.0597 -2.5514
 5399SOL     OW27832   0.563   2.969  12.989 -0.2386  0.0347 -0.2583
 5399SOL    HW127833   0.591   3.008  13.073 -2.4799 -2.1345  1.4901
 5399SOL    HW227834   0.468   2.981  12.988 -0.1415  0.8194 -0.3414
 5400SOL     OW27835   0.936   4.683  12.117 -0.1578  0.2926 -0.3048
 5400SOL    HW127836   1.010   4.729  12.078 -0.5449  2.1178  1.1021
 5400SOL    HW227837   0.868   0.016  12.111 -3.1605 -2.6971  0.3722
 5401SOL     OW27838   2.740   2.022  16.250 -0.1619 -0.2507  0.1474
 5401SOL    HW127839   2.800   2.089  16.215  0.1905 -0.7393 -0.1774
 5401SOL    HW227840   2.724   2.067  16.333  0.2236  1.0757 -0.4989
 5402SOL     OW27841   0.727   3.728  12.517  0.8976 -0.3904  0.8353
 5402SOL    HW127842   0.673   3.806  12.535  1.0717 -0.2548  0.7685
 5402SOL    HW227843   0.707   3.679  12.597  0.4464 -0.0380  0.9419
 5403SOL     OW27844   0.631   0.050   6.384 -0.2878 -0.2048  0.0386
 5403SOL    HW127845   0.596   0.049   6.295 -0.5475  0.4535  0.1367
 5403SOL    HW227846   0.569   4.730   6.433  1.5968 -1.1038  1.4482
 5404SOL     OW27847   3.511   0.209   2.693  0.3005  0.3266 -0.2023
 5404SOL    HW127848   3.589   0.196   2.638  1.8043  1.8570  1.5551
 5404SOL    HW227849   3.448   0.160   2.640  0.8584 -2.2461  1.5094
 5405SOL     OW27850   0.962   2.035   0.603  0.1734  0.1665 -0.0969
 5405SOL    HW127851   1.013   2.008   0.526  1.8675  0.0624  1.0654
 5405SOL    HW227852   0.873   2.021   0.570  1.3569 -0.1462 -3.2135
 5406SOL     OW27853   2.307   2.410   8.190 -0.2335  0.4408 -0.2379
 5406SOL    HW127854   2.335   2.389   8.278  0.6409 -2.0417 -1.1115
 5406SOL    HW227855   2.291   2.504   8.197  0.4813  0.3878  2.0565
 5407SOL     OW27856   3.658   3.716  16.713  0.1760 -0.4512  0.2273
 5407SOL    HW127857   3.702   3.729  16.797  3.5020 -2.2139 -1.2477
 5407SOL    HW227858   3.699   3.631  16.699 -1.5518 -0.7741 -2.7536
 5408SOL     OW27859   0.600   3.098  13.239 -0.3901 -0.0380  0.2419
 5408SOL    HW127860   0.505   3.089  13.241 -0.2870 -1.4986 -1.5541
 5408SOL    HW227861   0.609   3.186  13.275  1.5720 -0.5473  1.0195
 5409SOL     OW27862   1.887   1.435   7.429  0.1486 -0.2569 -0.2054
 5409SOL    HW127863   1.879   1.374   7.503  0.5029 -1.2491 -0.9821
 5409SOL    HW227864   1.865   1.375   7.358  2.0604  1.5676 -2.3193
 5410SOL     OW27865   0.726   2.166   1.077  0.1323  0.3583  0.2204
 5410SOL    HW127866   0.821   2.158   1.069  0.2943  2.3049  0.1070
 5410SOL    HW227867   0.720   2.237   1.012  1.8014  0.7461  0.4896
 5411SOL     OW27868   2.629   3.597   1.187  0.5293  0.2866  0.0938
 5411SOL    HW127869   2.660   3.671   1.135  1.9361 -0.7029 -0.4923
 5411SOL    HW227870   2.542   3.582   1.150 -0.9132  0.3610  3.4719
 5412SOL     OW27871   0.555   4.679   9.663 -0.0171  0.0861 -0.4812
 5412SOL    HW127872   0.475   4.700   9.615 -0.8193 -0.1587  0.7547
 5412SOL    HW227873   0.616   4.681   9.589 -0.0437  1.4803 -0.4771
 5413SOL     OW27874   3.862   4.423   9.061  0.3541  0.4997 -0.6351
 5413SOL    HW127875   3.936   4.390   9.112  1.5049  1.6338 -1.5981
 5413SOL    HW227876   3.870   4.381   8.976  1.7037  2.3266 -1.3905
 5414SOL     OW27877   4.112   0.664   3.713 -0.2662  0.3788  0.0201
 5414SOL    HW127878   4.071   0.701   3.791  0.8385 -1.3882  1.4591
 5414SOL    HW227879   4.059   0.708   3.647  1.9150  1.1921 -1.1822
 5415SOL     OW27880   0.921   2.317  10.460  0.0985 -0.1527 -0.1442
 5415SOL    HW127881   0.998   2.273  10.493 -0.6622 -0.4656  1.2187
 5415SOL    HW227882   0.849   2.262  10.489  0.2785  0.6181  1.7727
 5416SOL     OW27883   3.915   2.067   8.400  0.2459 -0.2200 -0.3446
 5416SOL    HW127884   3.890   2.026   8.317 -0.8528 -1.0951  0.4280
 5416SOL    HW227885   3.856   2.019   8.458 -0.0018  1.7441  1.0545
 5417SOL     OW27886   0.083   4.195  16.326 -1.0438  0.0354  0.5129
 5417SOL    HW127887   4.726   4.216  16.310 -0.2099  1.4420 -2.4203
 5417SOL    HW227888   0.082   4.116  16.380 -1.7149 -0.9809 -0.9967
 5418SOL     OW27889   2.325   1.830   8.513 -0.1136  0.0404  0.3324
 5418SOL    HW127890   2.271   1.850   8.437  1.4736 -1.0627 -1.0828
 5418SOL    HW227891   2.372   1.913   8.519  1.6783 -0.8197 -1.8380
 5419SOL     OW27892   3.922   4.645  16.665 -0.1472  0.0898  0.1323
 5419SOL    HW127893   3.982   4.686  16.727 -0.5636  1.1838 -0.1974
 5419SOL    HW227894   3.989   4.602  16.610 -0.2446 -1.2278  1.0476
 5420SOL     OW27895   1.052   4.196  12.698  0.3830  0.2592 -0.0456
 5420SOL    HW127896   1.035   4.224  12.608  1.0143  1.9061  0.3444
 5420SOL    HW227897   1.113   4.261  12.734 -1.0056  1.6836 -0.2634
 5421SOL     OW27898   3.742   0.648   6.601 -0.0884  0.1435 -0.0495
 5421SOL    HW127899   3.737   0.650   6.696 -1.0418 -0.9967 -0.0645
 5421SOL    HW227900   3.800   0.574   6.581 -0.7373  0.0176 -1.5260
 5422SOL     OW27901   1.819   1.999   5.376 -0.6283  0.0955  0.1125
 5422SOL    HW127902   1.865   2.052   5.311 -1.0300  0.0154 -0.2318
 5422SOL    HW227903   1.737   2.046   5.384  0.0770  1.3373 -0.0004
 5423SOL     OW27904   0.434   0.175   5.719  0.2696 -0.8446  0.1241
 5423SOL    HW127905   0.440   0.260   5.676 -2.0614 -1.3987 -1.2743
 5423SOL    HW227906   0.432   0.122   5.640  2.4613  0.9428 -1.1297
 5424SOL     OW27907   3.314   1.390   8.437  0.0279 -0.5583 -0.6693
 5424SOL    HW127908   3.364   1.310   8.454 -1.7260 -1.2531  1.3387
 5424SOL    HW227909   3.287   1.414   8.526 -0.1007 -0.1916 -0.8087
 5425SOL     OW27910   1.800   0.813  12.559  0.2715 -0.6293  0.6927
 5425SOL    HW127911   1.727   0.797  12.499  0.5571 -1.2347  0.5133
 5425SOL    HW227912   1.837   0.727  12.543  1.9609  0.1260  0.5124
 5426SOL     OW27913   1.664   0.637   8.761  0.1598  0.4641 -0.8084
 5426SOL    HW127914   1.693   0.724   8.732 -0.8315  0.9852 -0.2450
 5426SOL    HW227915   1.726   0.587   8.708 -0.7425 -0.0268 -1.3971
 5427SOL     OW27916   0.930   1.914  10.718  0.5584  0.6880 -0.1868
 5427SOL    HW127917   0.947   1.821  10.727  2.8011  1.1401  0.3486
 5427SOL    HW227918   0.835   1.923  10.712  0.4516 -0.2976  0.1895
 5428SOL     OW27919   4.028   2.142   3.496 -0.2777 -0.0479 -0.1260
 5428SOL    HW127920   3.996   2.216   3.547 -0.4384  0.2003 -0.5830
 5428SOL    HW227921   4.109   2.110   3.535 -0.3428  0.9022  0.7808
 5429SOL     OW27922   0.790   3.299   9.391  0.1954  0.0442  0.1491
 5429SOL    HW127923   0.856   3.362   9.362 -0.4206  1.4707  1.8144
 5429SOL    HW227924   0.847   3.226   9.414 -0.0684  0.5930  2.6019
 5430SOL     OW27925   1.195   1.330   5.018 -0.0350  0.3236 -0.2562
 5430SOL    HW127926   1.234   1.310   5.103 -1.1882 -0.5235  0.0683
 5430SOL    HW227927   1.265   1.294   4.963 -0.8908 -2.1289  0.2641
 5431SOL     OW27928   1.049   4.484  15.111 -0.4551 -0.5087  0.1517
 5431SOL    HW127929   1.110   4.466  15.182 -0.5792 -3.7819 -0.5895
 5431SOL    HW227930   1.024   4.574  15.134 -3.1990 -0.5388 -2.7344
 5432SOL     OW27931   2.508   1.679  11.954  0.6749  0.1186 -0.1715
 5432SOL    HW127932   2.509   1.650  12.046  1.1708 -0.1691 -0.2698
 5432SOL    HW227933   2.460   1.609  11.909  1.2433  0.4683 -1.3010
 5433SOL     OW27934   4.151   3.192   8.743 -0.0401  0.2987  0.2757
 5433SOL    HW127935   4.084   3.160   8.682  0.9592 -0.6300 -0.3286
 5433SOL    HW227936   4.229   3.149   8.708 -0.6756 -1.0620  0.5230
 5434SOL     OW27937   0.201   1.865   3.695 -0.3926  0.1883 -0.0455
 5434SOL    HW127938   0.225   1.952   3.663 -1.2710  0.6724  0.6011
 5434SOL    HW227939   0.248   1.844   3.776  0.8717  0.5632 -0.6846
 5435SOL     OW27940   4.209   1.248   6.393  0.3441 -0.2179 -0.1606
 5435SOL    HW127941   4.187   1.186   6.463  3.0179 -0.7918  0.1629
 5435SOL    HW227942   4.286   1.291   6.429 -1.8831  1.5474  2.5460
 5436SOL     OW27943   2.812   2.588  10.368 -0.6418 -0.4122  0.0616
 5436SOL    HW127944   2.747   2.532  10.327  1.5785 -2.2440 -0.9539
 5436SOL    HW227945   2.763   2.603  10.449  0.6503  3.4018  0.1739
 5437SOL     OW27946   0.599   1.289   7.892  0.5149 -0.1558  0.7191
 5437SOL    HW127947   0.653   1.312   7.816  0.5092 -1.5723  0.2985
 5437SOL    HW227948   0.635   1.358   7.947  0.8340  0.1930  0.0847
 5438SOL     OW27949   3.696   3.188   1.710  0.1146 -0.2626  0.0178
 5438SOL    HW127950   3.602   3.205   1.719  0.3783  0.6413  0.9932
 5438SOL    HW227951   3.704   3.097   1.681 -0.3282 -0.7379  1.3789
 5439SOL     OW27952   0.026   4.076   8.020  0.6239  0.2877  0.1738
 5439SOL    HW127953   4.700   4.035   8.082 -1.1985  0.4549 -1.4903
 5439SOL    HW227954   0.006   4.031   7.938  1.2257  0.1993  0.0790
 5440SOL     OW27955   4.627   4.503   7.063  0.2249 -0.4109  0.4057
 5440SOL    HW127956   4.605   4.572   7.000 -1.1565 -0.8943  0.3515
 5440SOL    HW227957   4.549   4.496   7.118  1.2814  0.3582  2.0210
 5441SOL     OW27958   0.001   1.490  11.455 -0.5060  0.2010 -0.2598
 5441SOL    HW127959   0.025   1.578  11.427  0.5209 -0.0172 -0.0609
 5441SOL    HW227960   4.642   1.505  11.469 -0.1551  1.9144  0.3258
 5442SOL     OW27961   0.284   4.163  10.644  0.3275 -0.3937 -0.7956
 5442SOL    HW127962   0.212   4.101  10.655  1.1187 -0.6334  2.8069
 5442SOL    HW227963   0.337   4.127  10.573  2.5042  0.0922  0.5964
 5443SOL     OW27964   0.101   3.039   6.031 -0.0802  0.2997  0.5627
 5443SOL    HW127965   0.113   2.956   6.078 -2.2146 -1.1533 -1.4169
 5443SOL    HW227966   0.041   3.078   6.095 -0.9929  0.6138 -0.4751
 5444SOL     OW27967   2.900   4.416   8.419  0.2621  0.3856  0.0926
 5444SOL    HW127968   2.850   4.334   8.415  1.3296 -0.2284 -0.5020
 5444SOL    HW227969   2.967   4.381   8.477  1.0744  1.8316  0.0063
 5445SOL     OW27970   3.951   4.676  17.512  0.6983 -0.2564 -0.1315
 5445SOL    HW127971   3.925   4.708  17.598 -0.4069  0.9538 -0.9247
 5445SOL    HW227972   4.027   4.620  17.531 -0.4771 -2.0057 -0.5871
 5446SOL     OW27973   0.634   3.331  12.459 -0.4080  0.5096  0.2955
 5446SOL    HW127974   0.710   3.374  12.419 -0.4252  0.6586  0.4209
 5446SOL    HW227975   0.575   3.322  12.385  1.1439 -0.3253 -0.8312
 5447SOL     OW27976   4.425   3.261   8.486  0.5616  0.1320  0.3417
 5447SOL    HW127977   4.364   3.267   8.413 -0.7476 -0.3502  1.3939
 5447SOL    HW227978   4.494   3.203   8.454 -3.9103 -2.9062 -3.7299
 5448SOL     OW27979   3.773   0.017   9.922  0.0425 -0.2049  0.4177
 5448SOL    HW127980   3.721   4.697   9.863 -0.2250  2.2685 -1.6380
 5448SOL    HW227981   3.849   0.021   9.864 -0.6585 -1.4363 -0.5783
 5449SOL     OW27982   2.215   0.279   8.069 -0.8409  0.4121 -0.9340
 5449SOL    HW127983   2.273   0.258   8.143 -0.0805  1.7499 -1.1366
 5449SOL    HW227984   2.255   0.354   8.023  0.3276 -1.2788 -2.6773
 5450SOL     OW27985   3.099   0.126   7.562  0.1629 -0.5684 -0.4165
 5450SOL    HW127986   3.082   0.216   7.589  1.6771 -0.7407  1.1143
 5450SOL    HW227987   3.184   0.144   7.522 -1.0222  2.1222 -1.7194
 5451SOL     OW27988   2.841   2.105   7.987  0.0662 -0.4027 -0.3533
 5451SOL    HW127989   2.908   2.053   7.944 -1.9465  0.1448 -4.1299
 5451SOL    HW227990   2.894   2.164   8.041  1.3482 -1.3508 -0.5756
 5452SOL     OW27991   0.440   2.475  11.523  0.5401 -0.7417 -0.2753
 5452SOL    HW127992   0.462   2.459  11.614 -1.2854 -2.8221 -0.1928
 5452SOL    HW227993   0.349   2.504  11.531  1.1109  0.5599  1.2533
 5453SOL     OW27994   2.290   2.082   7.918  0.1943 -0.0753  0.9107
 5453SOL    HW127995   2.340   2.020   7.865  0.5983 -0.8836  2.2700
 5453SOL    HW227996   2.270   2.146   7.848  1.6373 -1.1302 -0.4699
 5454SOL     OW27997   0.017   1.773   4.953 -0.4263 -0.0785  0.2183
 5454SOL    HW127998   4.671   1.729   4.979 -0.7511 -0.9429 -2.2878
 5454SOL    HW227999   4.718   1.817   4.875  0.8689  1.1180  0.3320
 5455SOL     OW28000   3.347   0.322   7.185 -0.3564  0.8719 -0.2852
 5455SOL    HW128001   3.383   0.296   7.100  1.2745  0.3889  0.5513
 5455SOL    HW228002   3.423   0.373   7.215 -0.2963  0.5089  0.1756
 5456SOL     OW28003   0.169   1.100   3.674  0.2209 -0.3672 -0.4059
 5456SOL    HW128004   0.122   1.023   3.643  0.3606  0.4070 -2.5008
 5456SOL    HW228005   0.110   1.172   3.650 -0.8614 -1.1166 -0.0094
 5457SOL     OW28006   0.563   3.573   6.782 -0.3928 -0.0412  0.2184
 5457SOL    HW128007   0.534   3.657   6.817  2.5572  0.9370  0.3006
 5457SOL    HW228008   0.644   3.552   6.828 -2.1357 -0.2028  3.1488
 5458SOL     OW28009   0.816   2.915   4.029  0.0153 -0.2617 -0.1925
 5458SOL    HW128010   0.790   2.977   4.097  2.2755  0.7576 -0.2548
 5458SOL    HW228011   0.867   2.847   4.074 -0.9484 -1.6884 -1.2387
 5459SOL     OW28012   3.685   4.394   0.431  0.1382 -0.0144 -0.0028
 5459SOL    HW128013   3.773   4.431   0.430 -0.4866  1.4918 -1.0322
 5459SOL    HW228014   3.690   4.334   0.505  0.2528 -0.5588 -0.4505
 5460SOL     OW28015   3.088   0.798   2.387 -0.5711  0.2301  0.1005
 5460SOL    HW128016   3.081   0.877   2.441 -3.3545 -0.0715  0.2288
 5460SOL    HW228017   3.039   0.735   2.440  0.0237 -0.8294 -0.6277
 5461SOL     OW28018   1.593   3.480   5.224 -0.0352 -0.7702  0.0327
 5461SOL    HW128019   1.626   3.570   5.226  0.3196 -0.8692 -0.9862
 5461SOL    HW228020   1.635   3.434   5.297 -0.1833 -0.3737  0.3684
 5462SOL     OW28021   1.648   0.192  10.595 -0.0774  0.2324  0.0807
 5462SOL    HW128022   1.607   0.126  10.652  0.6198  0.1920  0.5281
 5462SOL    HW228023   1.741   0.172  10.597  0.0647  0.9156  0.4204
 5463SOL     OW28024   4.550   0.094   9.999  0.2213  0.2324 -0.5183
 5463SOL    HW128025   4.504   0.044  10.066  1.7284  0.5009  0.7094
 5463SOL    HW228026   4.510   0.181  10.005 -0.2509  0.0683 -1.3024
 5464SOL     OW28027   2.286   3.349   5.257  0.0965 -0.7795  0.0357
 5464SOL    HW128028   2.209   3.400   5.230 -0.3206 -2.3446 -1.7669
 5464SOL    HW228029   2.258   3.325   5.345 -0.3554  1.8334  0.6127
 5465SOL     OW28030   2.553   4.361   7.977 -0.6919 -0.1902 -0.0035
 5465SOL    HW128031   2.571   4.321   7.892  1.4828 -0.7727  0.7149
 5465SOL    HW228032   2.636   4.332   8.015 -1.2278 -2.1433 -0.3382
 5466SOL     OW28033   3.817   1.262   3.876  0.0909 -0.1993 -0.3413
 5466SOL    HW128034   3.787   1.176   3.846 -1.0112  0.5446 -1.4201
 5466SOL    HW228035   3.737   1.315   3.863 -0.6986 -1.1999  0.4586
 5467SOL     OW28036   4.571   4.131   1.481 -0.3981  0.3381  0.5611
 5467SOL    HW128037   4.486   4.089   1.475 -0.9902  1.4340  1.2695
 5467SOL    HW228038   4.617   4.087   1.409  1.0002 -0.1378  1.7452
 5468SOL     OW28039   3.435   0.332   8.257 -0.2513  0.2464  0.2682
 5468SOL    HW128040   3.356   0.357   8.208 -1.5124 -4.4394 -0.0758
 5468SOL    HW228041   3.399   0.278   8.328  1.5489 -1.2158  0.0326
 5469SOL     OW28042   4.438   1.975   1.775 -0.4038  0.5546  0.2582
 5469SOL    HW128043   4.505   1.959   1.842 -1.3740 -1.9342  0.6296
 5469SOL    HW228044   4.486   1.959   1.694  1.7715 -1.1926  1.8968
 5470SOL     OW28045   4.542   0.372   6.958  0.1441  0.4946 -0.2133
 5470SOL    HW128046   4.503   0.444   6.908  0.9952  0.6309 -0.6968
 5470SOL    HW228047   4.567   0.321   6.881  1.1052  0.1919  0.3014
 5471SOL     OW28048   0.314   4.293   7.214  0.6002  0.3204  0.6680
 5471SOL    HW128049   0.237   4.267   7.165  1.4082  1.3476 -1.1056
 5471SOL    HW228050   0.311   4.386   7.194  0.3835 -0.5345 -3.2558
 5472SOL     OW28051   0.462   0.258   8.151  0.4205 -0.2754 -0.3757
 5472SOL    HW128052   0.478   0.283   8.242  3.1061  1.1919 -1.2449
 5472SOL    HW228053   0.483   0.341   8.109  2.1316  0.6325  2.3134
 5473SOL     OW28054   4.280   3.509   7.292 -0.3351  0.5040 -0.4130
 5473SOL    HW128055   4.253   3.500   7.201 -0.3872 -0.1804 -0.3292
 5473SOL    HW228056   4.346   3.440   7.298 -0.7447  0.1970  0.5880
 5474SOL     OW28057   0.457   2.571   5.859 -0.4255 -0.4085 -0.2525
 5474SOL    HW128058   0.436   2.565   5.953 -2.7637  1.2729 -0.6618
 5474SOL    HW228059   0.386   2.521   5.818 -0.7000 -1.0264  0.9599
 5475SOL     OW28060   1.762   2.472   2.694 -0.1561 -0.3207 -0.0788
 5475SOL    HW128061   1.788   2.392   2.739 -1.7399 -0.5498  0.4222
 5475SOL    HW228062   1.723   2.438   2.614 -1.4746 -1.3831  1.0222
 5476SOL     OW28063   2.471   4.140   2.807 -0.0326  0.4054  0.3443
 5476SOL    HW128064   2.506   4.159   2.895 -2.7226  0.1450  1.4541
 5476SOL    HW228065   2.553   4.125   2.760 -0.3735 -1.5936  0.4004
 5477SOL     OW28066   3.259   1.185   2.338  0.6906  0.1430 -0.6831
 5477SOL    HW128067   3.284   1.254   2.399 -1.4491  0.6292 -0.3363
 5477SOL    HW228068   3.201   1.131   2.393  1.5971  0.2641  0.3925
 5478SOL     OW28069   0.713   2.793   7.003  0.4702  0.5264 -0.1860
 5478SOL    HW128070   0.640   2.732   7.012 -0.7854  2.3624  2.1025
 5478SOL    HW228071   0.671   2.864   6.955  0.8176  1.1475  0.4287
 5479SOL     OW28072   3.543   2.876   3.911  0.1636 -0.3723 -0.3471
 5479SOL    HW128073   3.523   2.945   3.847  1.3915 -1.0695 -1.4656
 5479SOL    HW228074   3.451   2.857   3.931  0.6168 -0.8169  1.3175
 5480SOL     OW28075   0.780   1.235  13.527  0.2260  0.1358 -0.5339
 5480SOL    HW128076   0.795   1.304  13.591 -0.2809 -0.2472 -0.0032
 5480SOL    HW228077   0.716   1.179  13.570 -0.9732  0.7347 -1.5492
 5481SOL     OW28078   3.816   3.500   2.823  0.3116  0.2076 -0.4010
 5481SOL    HW128079   3.770   3.565   2.876 -0.2235 -0.0587 -0.5407
 5481SOL    HW228080   3.903   3.498   2.862 -0.0765  0.3150  0.4739
 5482SOL     OW28081   3.232   0.127   0.064  0.1212 -0.9922 -0.3395
 5482SOL    HW128082   3.171   0.196   0.088  1.0358 -0.0529 -0.7352
 5482SOL    HW228083   3.217   0.069   0.139 -0.9208  0.5360  0.6117
 5483SOL     OW28084   1.066   1.155   8.535  0.2285  0.4921 -0.0536
 5483SOL    HW128085   1.089   1.094   8.465  1.6738  1.5593 -0.5129
 5483SOL    HW228086   1.057   1.236   8.485 -0.1327  2.2066  2.8223
 5484SOL     OW28087   1.332   3.382   2.106  0.6342 -0.4681  0.1938
 5484SOL    HW128088   1.312   3.398   2.199 -2.3914 -0.6935 -0.4284
 5484SOL    HW228089   1.326   3.469   2.067  0.6381 -0.5230  0.0717
 5485SOL     OW28090   2.981   1.198   6.987 -0.3312 -0.3172  0.2656
 5485SOL    HW128091   2.958   1.263   6.921 -1.2683 -0.2485  0.6713
 5485SOL    HW228092   2.966   1.120   6.934 -3.1073 -0.0906  0.7374
 5486SOL     OW28093   0.534   4.040   4.805 -0.4676 -0.6783 -0.0680
 5486SOL    HW128094   0.572   4.007   4.724 -0.7244  0.6275 -0.7175
 5486SOL    HW228095   0.564   4.130   4.808  0.3486 -0.9457 -0.2322
 5487SOL     OW28096   1.783   2.144   4.991 -0.4028 -0.0047 -0.5768
 5487SOL    HW128097   1.692   2.170   4.999 -0.8506 -1.8790  0.5034
 5487SOL    HW228098   1.823   2.197   5.060  2.3497 -1.4028 -1.0820
 5488SOL     OW28099   0.957   2.421   8.328  0.3016  0.4684 -0.1391
 5488SOL    HW128100   0.966   2.501   8.379  1.3360 -0.3460  0.9688
 5488SOL    HW228101   0.999   2.362   8.391  1.8721  0.2206 -1.3951
 5489SOL     OW28102   3.270   2.349  17.501 -0.0116 -0.4546 -0.3887
 5489SOL    HW128103   3.305   2.260  17.504  1.3399  0.0495 -1.3829
 5489SOL    HW228104   3.314   2.382  17.423  1.2221 -1.4516 -0.1088
 5490SOL     OW28105   1.829   1.952   2.662 -0.2166 -0.1473 -0.1670
 5490SOL    HW128106   1.873   1.868   2.677 -1.9167 -0.9787  0.1327
 5490SOL    HW228107   1.789   1.966   2.747  0.2286 -1.6042  0.2804
 5491SOL     OW28108   1.453   4.353   2.336 -0.6863  0.2068  0.3916
 5491SOL    HW128109   1.412   4.317   2.415  0.8942 -1.9671  0.2178
 5491SOL    HW228110   1.462   4.440   2.375 -3.2154  0.5777  0.1389
 5492SOL     OW28111   1.777   4.654   1.121  0.2673 -0.0184 -0.3138
 5492SOL    HW128112   1.802   0.001   1.164 -1.5722 -0.6549  1.9399
 5492SOL    HW228113   1.705   4.618   1.173 -0.1532  1.4309  0.0972
 5493SOL     OW28114   1.006   1.935   5.665 -0.2059 -0.9021 -0.0059
 5493SOL    HW128115   0.920   1.930   5.706  0.3281  2.1468  1.4439
 5493SOL    HW228116   1.025   2.029   5.663  0.5968 -1.0458  0.6728
 5494SOL     OW28117   0.959   0.281   8.893 -0.5892  0.0659  0.1451
 5494SOL    HW128118   0.929   0.364   8.931  0.7410  1.1227 -1.1412
 5494SOL    HW228119   1.035   0.320   8.850  0.1928 -1.6517 -0.0376
 5495SOL     OW28120   3.023   0.376  16.448  0.6963  0.1827  0.4988
 5495SOL    HW128121   3.020   0.283  16.470  1.0823  0.3268  1.1385
 5495SOL    HW228122   2.981   0.363  16.363  0.7697 -0.9631  0.6391
 5496SOL     OW28123   4.183   3.165   6.043  0.0997  0.1123  0.2501
 5496SOL    HW128124   4.167   3.230   5.975  4.9640 -0.4113 -1.3838
 5496SOL    HW228125   4.229   3.224   6.102  0.9056  0.6948 -0.9746
 5497SOL     OW28126   4.331   1.866   7.043 -0.0232 -0.1686  0.3053
 5497SOL    HW128127   4.261   1.814   7.083 -1.8116  1.0395 -1.2486
 5497SOL    HW228128   4.347   1.805   6.971 -3.7109  0.8669 -1.4182
 5498SOL     OW28129   0.799   4.345  17.450  0.3033  0.3775 -0.1608
 5498SOL    HW128130   0.778   4.351  17.357 -0.2840 -0.5784 -0.0842
 5498SOL    HW228131   0.826   4.253  17.450  1.1507  0.6241 -0.5017
 5499SOL     OW28132   2.364   1.589   5.911 -0.3448 -0.2797 -0.1783
 5499SOL    HW128133   2.364   1.494   5.917  0.1840 -0.3315 -1.0167
 5499SOL    HW228134   2.302   1.587   5.837 -2.7541 -0.2900  1.8494
 5500SOL     OW28135   2.611   1.198   7.094  0.1017 -0.3127 -0.6162
 5500SOL    HW128136   2.666   1.276   7.103 -1.3366  0.6136  0.0888
 5500SOL    HW228137   2.609   1.195   6.998  1.3883 -1.0136 -0.6236
 5501SOL     OW28138   2.488   0.152   2.818 -0.2291 -0.0592  0.6087
 5501SOL    HW128139   2.480   0.062   2.789 -1.5864 -0.0987  1.0893
 5501SOL    HW228140   2.570   0.144   2.868 -0.4733  1.9752  1.3310
 5502SOL     OW28141   0.852   2.100   6.980  0.2148  0.7356  0.1851
 5502SOL    HW128142   0.775   2.069   7.027 -1.7097 -0.5198 -3.8017
 5502SOL    HW228143   0.850   2.194   7.000 -1.5788  1.3267 -2.8236
 5503SOL     OW28144   0.093   3.962   4.983 -0.5443  0.4366  0.1404
 5503SOL    HW128145   0.170   4.014   4.961 -2.1338  2.4184 -0.7665
 5503SOL    HW228146   0.133   3.895   5.039 -1.0800 -1.3417 -1.6065
 5504SOL     OW28147   1.874   1.678   4.053  0.1174 -0.3744 -0.5044
 5504SOL    HW128148   1.876   1.583   4.051 -0.4733 -0.3781 -1.0025
 5504SOL    HW228149   1.865   1.709   3.963  0.4042  1.3362  0.0508
 5505SOL     OW28150   3.869   0.581   3.370  0.1730 -0.1774 -0.2813
 5505SOL    HW128151   3.908   0.585   3.458 -0.2733 -1.4885 -0.0345
 5505SOL    HW228152   3.897   0.664   3.332  0.8808  0.7754  2.2876
 5506SOL     OW28153   4.664   3.051   7.749 -0.0578 -0.3185 -0.5444
 5506SOL    HW128154   4.610   2.972   7.740  0.6208 -0.8189 -0.2093
 5506SOL    HW228155   4.665   3.055   7.845  0.1231  1.9556 -0.6516
 5507SOL     OW28156   1.845   3.016  13.197  0.0513  0.0088  0.2038
 5507SOL    HW128157   1.928   3.028  13.151  0.8640  2.4235  2.2786
 5507SOL    HW228158   1.855   3.058  13.282 -1.0306  3.9970 -1.6167
 5508SOL     OW28159   0.729   3.907   3.726  0.0564 -0.5885 -0.0101
 5508SOL    HW128160   0.768   3.848   3.662  0.4324 -1.0780  0.6746
 5508SOL    HW228161   0.795   3.976   3.723 -0.8683  0.3521  1.1989
 5509SOL     OW28162   0.435   1.379   9.548  0.1771 -0.0059  0.1210
 5509SOL    HW128163   0.517   1.428   9.553  0.7611 -0.8123 -1.7438
 5509SOL    HW228164   0.461   1.312   9.485 -0.6561 -0.0706 -0.1484
 5510SOL     OW28165   0.175   3.191   0.651 -0.0878  0.4643 -0.0886
 5510SOL    HW128166   0.143   3.212   0.564 -0.4123  0.0704 -0.0641
 5510SOL    HW228167   0.206   3.102   0.636 -1.0650 -0.1830  1.6876
 5511SOL     OW28168   4.695   2.992   1.150  0.0888  0.3822  0.5022
 5511SOL    HW128169   4.676   3.031   1.235 -1.6813 -0.9568  0.7222
 5511SOL    HW228170   4.687   2.897   1.156 -0.3051  0.4796  1.4567
 5512SOL     OW28171   0.135   2.082   9.378  0.2936 -0.6265  0.1468
 5512SOL    HW128172   0.097   2.025   9.311  0.5562  1.6412 -1.9481
 5512SOL    HW228173   0.085   2.162   9.365  0.2005 -0.3231  2.4268
 5513SOL     OW28174   3.621   3.948   1.822  0.3107 -0.4584  0.3877
 5513SOL    HW128175   3.663   3.982   1.743 -0.4080 -0.4610  0.0053
 5513SOL    HW228176   3.528   3.966   1.806  0.3439 -1.5813 -1.0183
 5514SOL     OW28177   1.280   3.671   2.283 -0.5268 -0.0374 -0.1720
 5514SOL    HW128178   1.333   3.730   2.335 -2.3692  1.1400  0.3444
 5514SOL    HW228179   1.321   3.681   2.197 -0.9988 -2.0830 -0.6502
 5515SOL     OW28180   2.820   1.908   4.097 -0.1891  0.4788  0.1266
 5515SOL    HW128181   2.910   1.933   4.121 -0.1253  0.8636 -0.5250
 5515SOL    HW228182   2.839   1.820   4.064 -0.1288  0.3992  0.3751
 5516SOL     OW28183   2.596   4.229   7.738 -0.0946 -0.2241 -0.5109
 5516SOL    HW128184   2.605   4.135   7.756  0.7262 -0.0714 -0.1194
 5516SOL    HW228185   2.638   4.233   7.653 -0.1250 -1.6386 -0.5966
 5517SOL     OW28186   4.421   1.675  11.245  0.5768  0.3647  0.1724
 5517SOL    HW128187   4.456   1.586  11.242 -1.9407 -0.5621 -1.0292
 5517SOL    HW228188   4.498   1.732  11.255  1.0717  0.1112 -2.1422
 5518SOL     OW28189   4.138   0.037   1.901  0.6355  0.2455  0.0609
 5518SOL    HW128190   4.189   0.055   1.980 -0.1693 -1.4024  0.9462
 5518SOL    HW228191   4.101   4.685   1.920 -0.3813  0.3372 -1.4929
 5519SOL     OW28192   0.507   3.244   6.771  0.4061  0.1999  0.1930
 5519SOL    HW128193   0.451   3.180   6.726 -0.6228  0.6873  0.7770
 5519SOL    HW228194   0.446   3.313   6.796 -0.4911 -0.2552 -0.7137
 5520SOL     OW28195   4.120   0.061   5.475 -0.3108 -0.3472  0.0221
 5520SOL    HW128196   4.064   0.138   5.485  0.2728 -0.4048  3.7970
 5520SOL    HW228197   4.088   0.035   5.389 -0.4551 -0.3539  0.0777
 5521SOL     OW28198   2.694   1.611   2.059  0.0663  0.2173  0.0765
 5521SOL    HW128199   2.630   1.620   1.989  2.4584 -0.0410 -2.1306
 5521SOL    HW228200   2.650   1.544   2.111 -1.2490 -0.0751 -1.4333
 5522SOL     OW28201   3.561   4.288   8.553  0.1901 -0.4425 -0.1461
 5522SOL    HW128202   3.597   4.345   8.621  1.2262  0.0015 -1.0752
 5522SOL    HW228203   3.590   4.306   8.464  0.7981  1.3158  0.4129
 5523SOL     OW28204   3.689   4.389   4.620 -0.0206  0.2582  0.3382
 5523SOL    HW128205   3.767   4.380   4.564 -1.1756 -1.2216 -1.0603
 5523SOL    HW228206   3.729   4.367   4.704 -1.4591 -1.1921  0.6357
 5524SOL     OW28207   2.976   2.653   4.384  0.2317  0.1399  0.2393
 5524SOL    HW128208   3.047   2.658   4.449  0.7917  1.8105 -0.4881
 5524SOL    HW228209   2.995   2.565   4.352  1.7720 -0.4477  2.7856
 5525SOL     OW28210   3.033   3.484  13.639  0.0738 -0.9050  0.3464
 5525SOL    HW128211   2.987   3.412  13.681 -1.7226  0.2114  0.3226
 5525SOL    HW228212   3.109   3.492  13.696 -0.9853 -1.3238  1.8123
 5526SOL     OW28213   3.580   4.098  10.206  0.8074  0.2315 -0.8001
 5526SOL    HW128214   3.596   4.180  10.252 -3.4416  0.6795 -0.0930
 5526SOL    HW228215   3.522   4.056  10.271  1.4556  0.6301  0.0424
 5527SOL     OW28216   0.740   0.292  10.699 -0.4959 -0.1093  0.3406
 5527SOL    HW128217   0.705   0.358  10.638  0.3396  1.4191  1.5319
 5527SOL    HW228218   0.832   0.275  10.680 -0.3516  0.9793  0.0343
 5528SOL     OW28219   2.602   1.086  10.428 -0.6505  0.4403 -0.1921
 5528SOL    HW128220   2.639   0.998  10.417 -2.3778 -0.2889 -0.0707
 5528SOL    HW228221   2.536   1.063  10.493 -1.5270 -1.3889 -1.7064
 5529SOL     OW28222   3.062   2.409  12.319  0.3041 -0.2968  0.1867
 5529SOL    HW128223   3.078   2.473  12.250 -1.4546 -0.6268 -0.5366
 5529SOL    HW228224   2.980   2.373  12.285 -1.0554  1.5433  1.4721
 5530SOL     OW28225   1.748   0.887  14.625 -0.5415  0.0037  0.0498
 5530SOL    HW128226   1.840   0.862  14.615 -0.0938  1.9616 -0.6294
 5530SOL    HW228227   1.747   0.969  14.576 -2.4123  0.0120  0.0839
 5531SOL     OW28228   1.087   0.180   2.182  0.3249 -0.1081  0.0324
 5531SOL    HW128229   1.081   0.143   2.095 -1.8439  2.1915 -0.8060
 5531SOL    HW228230   1.163   0.135   2.219  0.7454 -1.0791 -2.0500
 5532SOL     OW28231   0.905   4.637   2.318  0.2081 -0.0462  0.1542
 5532SOL    HW128232   0.849   4.708   2.349  0.3096 -0.8429  2.1150
 5532SOL    HW228233   0.837   4.573   2.296  0.3377 -0.3695  0.6938
 5533SOL     OW28234   3.648   0.476  10.116  0.1947 -0.2377 -0.0481
 5533SOL    HW128235   3.733   0.513  10.090  1.9533 -2.6306  2.2634
 5533SOL    HW228236   3.674   0.427  10.194 -0.2938 -1.3811 -0.6041
 5534SOL     OW28237   0.081   1.347  16.858 -0.3460 -0.5902  0.0277
 5534SOL    HW128238   4.729   1.308  16.862  0.0794 -1.4233  1.3158
 5534SOL    HW228239   0.109   1.357  16.950 -0.5712 -0.8400  0.1214
 5535SOL     OW28240   3.497   3.499   8.743 -0.2093  0.9359  0.4467
 5535SOL    HW128241   3.524   3.457   8.825  0.9873 -0.5060 -0.6820
 5535SOL    HW228242   3.448   3.431   8.697  1.5954  0.3422 -0.6115
 5536SOL     OW28243   1.265   2.248  10.791  0.1539  0.9291 -0.0866
 5536SOL    HW128244   1.259   2.153  10.793 -0.0159  0.9288 -0.5276
 5536SOL    HW228245   1.245   2.279  10.702  1.0478  0.0791 -0.5788
 5537SOL     OW28246   0.346   0.766   6.823 -0.4273  0.0857  0.0343
 5537SOL    HW128247   0.270   0.712   6.802 -0.4204 -1.0855  2.9271
 5537SOL    HW228248   0.401   0.707   6.875 -1.7355 -2.7678 -1.8323
 5538SOL     OW28249   2.979   1.474   2.310 -0.1207 -0.2070 -0.2691
 5538SOL    HW128250   2.993   1.399   2.252  2.8403  0.9103 -0.9914
 5538SOL    HW228251   3.050   1.537   2.295  1.5862 -2.1339 -0.3163
 5539SOL     OW28252   3.417   1.182   3.530  0.1854  0.2719 -0.4109
 5539SOL    HW128253   3.350   1.137   3.581 -0.8217 -2.4201 -4.0856
 5539SOL    HW228254   3.356   1.227   3.471 -0.3354 -0.9440 -0.7849
 5540SOL     OW28255   2.604   1.207  14.698 -0.7209  0.2753  0.2116
 5540SOL    HW128256   2.559   1.161  14.769 -1.8522  0.0647 -0.6413
 5540SOL    HW228257   2.527   1.229  14.646  0.7506 -0.5583 -2.3263
 5541SOL     OW28258   4.041   1.051  16.338 -0.6796  0.6821  0.0083
 5541SOL    HW128259   4.014   0.959  16.336  1.4818 -0.0336  4.0978
 5541SOL    HW228260   4.113   1.058  16.275 -0.6888  0.9427  0.0287
 5542SOL     OW28261   0.508   2.204   0.223  0.2546  0.3360  0.0789
 5542SOL    HW128262   0.563   2.154   0.162  0.7693  1.0000  0.0001
 5542SOL    HW228263   0.501   2.284   0.170 -2.3423  1.4110  2.0605
 5543SOL     OW28264   0.281   0.979   2.555 -0.0134 -0.4186  0.3210
 5543SOL    HW128265   0.290   0.968   2.461 -0.7121  0.6787  0.1192
 5543SOL    HW228266   0.373   0.968   2.578 -0.0418  0.4172  0.8490
 5544SOL     OW28267   1.007   4.056   6.490 -0.3062  0.4300 -0.0089
 5544SOL    HW128268   1.056   3.986   6.448 -3.1556 -0.5417 -1.6765
 5544SOL    HW228269   1.004   4.124   6.422  1.6124 -0.8868 -1.3907
 5545SOL     OW28270   3.550   4.236  13.105  0.2247  0.5698 -0.4056
 5545SOL    HW128271   3.501   4.254  13.185  0.8861  0.9894 -0.1063
 5545SOL    HW228272   3.488   4.255  13.034 -0.2402  1.2598  0.1796
 5546SOL     OW28273   0.879   0.993  11.936  0.1398  0.0626  0.6399
 5546SOL    HW128274   0.902   1.002  11.844 -3.0227  0.8535 -0.0661
 5546SOL    HW228275   0.784   0.990  11.927 -0.0298  1.5760  1.8975
 5547SOL     OW28276   2.720   1.787  15.060  0.7506  0.6023  0.3418
 5547SOL    HW128277   2.746   1.812  14.972 -0.3454  1.2813  0.2075
 5547SOL    HW228278   2.746   1.868  15.103 -2.9468  2.2663 -0.5223
 5548SOL     OW28279   2.366   2.892   9.258 -0.0333 -0.3361  0.6298
 5548SOL    HW128280   2.347   2.948   9.333 -2.0841  0.8588 -0.7771
 5548SOL    HW228281   2.274   2.874   9.240  0.2085 -1.9170  0.9627
 5549SOL     OW28282   1.471   4.629   5.629  0.0799  0.6031 -0.2605
 5549SOL    HW128283   1.464   4.708   5.684  1.4522  0.4735  0.1088
 5549SOL    HW228284   1.419   4.568   5.681  0.2771 -1.4974 -2.5604
 5550SOL     OW28285   1.756   2.704   4.054  0.7634 -0.2195  0.0923
 5550SOL    HW128286   1.760   2.729   4.147  0.8725  4.3795 -1.1142
 5550SOL    HW228287   1.663   2.703   4.033  0.6676  0.3691  0.4540
 5551SOL     OW28288   4.151   4.223   5.921  0.5510  0.3993  0.1744
 5551SOL    HW128289   4.177   4.136   5.951 -1.3903  0.8677  3.1620
 5551SOL    HW228290   4.221   4.236   5.857 -0.3112 -0.2566 -0.8990
 5552SOL     OW28291   4.173   4.697  12.532  0.0700 -0.4241 -0.3512
 5552SOL    HW128292   4.240   4.699  12.464  2.3593  0.9994  1.9366
 5552SOL    HW228293   4.172   0.057  12.547 -0.3516 -0.3234 -0.9873
 5553SOL     OW28294   2.150   1.876   8.316 -0.5063 -0.4731 -0.2684
 5553SOL    HW128295   2.133   1.821   8.240  2.2657 -2.2446  0.3753
 5553SOL    HW228296   2.099   1.955   8.302 -1.4983 -0.6205  2.3676
 5554SOL     OW28297   1.691   1.592  16.771 -0.1270  0.1286  0.0154
 5554SOL    HW128298   1.675   1.575  16.679  0.4037  2.3445 -0.5018
 5554SOL    HW228299   1.772   1.640  16.755  0.9526 -1.0380  1.9479
 5555SOL     OW28300   3.969   2.595   5.855  0.1397 -0.3442 -0.1074
 5555SOL    HW128301   4.025   2.519   5.871  1.3524  0.5339 -0.1842
 5555SOL    HW228302   3.889   2.565   5.899  0.1945  1.0367  0.9209
 5556SOL     OW28303   0.708   3.047  14.995 -0.1515  0.3499 -0.6721
 5556SOL    HW128304   0.650   2.973  15.013  0.4154  0.2724  0.8499
 5556SOL    HW228305   0.753   3.019  14.915 -0.1720  0.3752 -0.6922
 5557SOL     OW28306   1.898   3.241   4.410  0.3168 -0.3246  0.5053
 5557SOL    HW128307   1.962   3.302   4.446 -0.4333  1.5803 -1.3806
 5557SOL    HW228308   1.838   3.227   4.484  0.5827  0.8850  0.9574
 5558SOL     OW28309   3.628   0.129  12.282  0.0979  0.1317 -1.2336
 5558SOL    HW128310   3.627   0.080  12.365 -1.2096  0.2928 -1.1448
 5558SOL    HW228311   3.720   0.154  12.291  0.5875 -2.4907  1.0995
 5559SOL     OW28312   0.703   3.605   9.581 -0.2038 -0.0467  0.6248
 5559SOL    HW128313   0.764   3.676   9.558 -2.4344  1.8214  0.4647
 5559SOL    HW228314   0.751   3.539   9.630 -0.9058 -1.7427 -1.0007
 5560SOL     OW28315   1.770   4.630  17.589 -0.1345  0.5817  0.2933
 5560SOL    HW128316   1.804   4.626  17.500  1.3173  1.2843  0.8148
 5560SOL    HW228317   1.707   4.702  17.586  1.9694  2.5996  4.0818
 5561SOL     OW28318   0.354   3.400   6.965 -0.0579  0.1909  0.0482
 5561SOL    HW128319   0.300   3.474   6.996  1.5697  1.5417 -0.3252
 5561SOL    HW228320   0.421   3.408   7.033 -0.1930  1.6607  0.0173
 5562SOL     OW28321   4.391   2.411   2.840  0.0734 -0.3184 -0.3573
 5562SOL    HW128322   4.399   2.341   2.904 -2.3878 -0.7281 -0.5244
 5562SOL    HW228323   4.435   2.369   2.766 -1.7843 -1.1938 -0.9533
 5563SOL     OW28324   3.198   1.456   7.648  0.3795  0.4161  0.0410
 5563SOL    HW128325   3.271   1.482   7.591 -0.1465  0.4603 -0.6044
 5563SOL    HW228326   3.123   1.466   7.591  0.2910 -1.4259 -0.1556
 5564SOL     OW28327   0.669   2.171   6.272  0.3429 -0.5132  0.4585
 5564SOL    HW128328   0.585   2.154   6.230 -0.0972  4.4476 -0.6367
 5564SOL    HW228329   0.701   2.086   6.304  1.9683 -0.7524 -1.7632
 5565SOL     OW28330   3.743   0.318  10.293 -0.0316  0.2110  0.2326
 5565SOL    HW128331   3.828   0.317  10.339  0.9626  0.1452 -1.6046
 5565SOL    HW228332   3.688   0.263  10.349 -0.5151 -1.0080 -1.4669
 5566SOL     OW28333   0.310   3.406  15.115 -0.3095 -0.2048 -0.1817
 5566SOL    HW128334   0.354   3.479  15.159 -0.6910  0.5368 -1.0301
 5566SOL    HW228335   0.383   3.355  15.079 -1.0857 -1.3971 -0.0720
 5567SOL     OW28336   0.726   0.304   2.492 -0.2353 -0.1587  0.0707
 5567SOL    HW128337   0.659   0.289   2.425  0.9954 -2.1678 -0.7022
 5567SOL    HW228338   0.798   0.312   2.430  1.3054 -0.2094  1.8610
 5568SOL     OW28339   4.395   4.456  13.829  0.5214 -0.1283  0.3903
 5568SOL    HW128340   4.460   4.388  13.814 -0.4701 -0.5021 -2.1314
 5568SOL    HW228341   4.345   4.431  13.751  2.4963  0.1106 -0.9224
 5569SOL     OW28342   3.473   3.514   6.575  0.1451  0.4380  0.3859
 5569SOL    HW128343   3.385   3.492   6.544 -0.1629 -0.7846  2.1451
 5569SOL    HW228344   3.469   3.466   6.658 -0.8611  2.1869  1.3441
 5570SOL     OW28345   2.337   2.571  17.128  0.2873 -0.1783 -0.2126
 5570SOL    HW128346   2.320   2.534  17.215 -4.2295 -1.0574 -1.4585
 5570SOL    HW228347   2.327   2.664  17.144  0.0479 -0.0318 -1.2193
 5571SOL     OW28348   1.887   1.119   5.469  0.2640  0.3722  0.3925
 5571SOL    HW128349   1.952   1.050   5.484 -0.1186 -0.1683 -0.4239
 5571SOL    HW228350   1.832   1.078   5.402 -1.6068 -0.1976  2.3082
 5572SOL     OW28351   2.589   0.401   4.626 -0.0316  0.0440  0.2975
 5572SOL    HW128352   2.641   0.361   4.557 -0.6233  0.0033 -0.1219
 5572SOL    HW228353   2.615   0.493   4.622 -0.1538  0.0767  0.2624
 5573SOL     OW28354   3.682   0.602   8.582  0.4252  0.1953 -0.3097
 5573SOL    HW128355   3.723   0.516   8.573 -2.0048 -0.9628 -0.4989
 5573SOL    HW228356   3.620   0.591   8.509  0.8698  1.9807 -0.9464
 5574SOL     OW28357   4.379   1.853   1.081 -0.9199  0.8907 -0.0757
 5574SOL    HW128358   4.291   1.842   1.118 -0.1429 -0.8662  1.2747
 5574SOL    HW228359   4.381   1.944   1.053  0.7033  0.7261 -0.4937
 5575SOL     OW28360   4.182   4.168   7.475  0.0823 -0.5653  0.0619
 5575SOL    HW128361   4.267   4.155   7.432 -0.2026  0.2259 -0.7449
 5575SOL    HW228362   4.186   4.093   7.535  0.4487 -0.7548 -0.1936
 5576SOL     OW28363   0.771   3.601   6.543 -0.6317 -0.6942  0.1321
 5576SOL    HW128364   0.723   3.632   6.619 -1.4216  0.8550 -0.9905
 5576SOL    HW228365   0.706   3.617   6.474 -3.0073  0.6248  2.6577
 5577SOL     OW28366   3.918   4.198  14.416 -0.0540  0.4699  0.1195
 5577SOL    HW128367   3.994   4.176  14.362  1.4105  1.0987  1.9040
 5577SOL    HW228368   3.845   4.171  14.360 -0.5331 -0.1528  1.0566
 5578SOL     OW28369   2.754   4.167   8.390  0.5795  0.3320  0.2041
 5578SOL    HW128370   2.832   4.149   8.337 -0.7797 -0.9058 -1.3556
 5578SOL    HW228371   2.683   4.117   8.350  0.0747  1.8052 -0.7346
 5579SOL     OW28372   2.582   1.963   3.992  0.2479  0.2810  0.4897
 5579SOL    HW128373   2.527   1.894   4.030  1.0142 -0.5879  0.0187
 5579SOL    HW228374   2.665   1.940   4.035  0.8009  1.5716  0.0844
 5580SOL     OW28375   4.612   0.305   2.269 -0.1137 -0.0883 -0.0776
 5580SOL    HW128376   4.696   0.345   2.249 -0.7124  1.8614  1.2720
 5580SOL    HW228377   4.579   0.373   2.327  0.6816 -0.5301  0.8846
 5581SOL     OW28378   0.441   2.363   3.914 -0.0427 -0.3521  0.3462
 5581SOL    HW128379   0.435   2.458   3.906 -2.3570 -0.6378 -1.1135
 5581SOL    HW228380   0.412   2.357   4.005  1.0130 -0.1755  0.6975
 5582SOL     OW28381   1.237   3.717   5.693 -0.2732 -0.1064  0.0968
 5582SOL    HW128382   1.263   3.763   5.614 -0.6208  0.0810  0.0938
 5582SOL    HW228383   1.318   3.684   5.733 -0.0013  1.6563  1.0093
 5583SOL     OW28384   2.036   3.237  17.102  0.0823  0.7953 -0.3291
 5583SOL    HW128385   2.081   3.199  17.178 -2.7593 -0.4473  0.7626
 5583SOL    HW228386   2.054   3.330  17.112  1.2619  0.5676 -0.3546
 5584SOL     OW28387   0.374   0.369   4.737  0.3042  0.0167 -0.2344
 5584SOL    HW128388   0.344   0.378   4.647  3.6640  1.0020 -1.2830
 5584SOL    HW228389   0.305   0.417   4.782  0.2824  0.3205 -0.5877
 5585SOL     OW28390   2.908   3.717   3.487 -0.4668  0.0135 -0.7519
 5585SOL    HW128391   2.997   3.692   3.511 -0.8598  1.2538  1.9763
 5585SOL    HW228392   2.871   3.730   3.574 -3.1664  0.1515 -1.9269
 5586SOL     OW28393   2.978   3.746   7.817 -0.0379 -0.4699  0.1552
 5586SOL    HW128394   3.074   3.743   7.811 -0.1020 -0.1062 -1.1327
 5586SOL    HW228395   2.948   3.676   7.759 -0.1154 -0.3705  0.0766
 5587SOL     OW28396   1.336   1.723  11.763 -0.5948 -0.0546  0.2670
 5587SOL    HW128397   1.273   1.767  11.821 -3.0227 -1.6123 -1.1923
 5587SOL    HW228398   1.353   1.640  11.809  0.9841  0.7122  1.0643
 5588SOL     OW28399   1.591   1.292   5.690 -0.8215  0.0731 -0.0252
 5588SOL    HW128400   1.679   1.322   5.669  0.0798 -2.4637  0.1595
 5588SOL    HW228401   1.552   1.276   5.604 -0.9828  1.2160 -0.1597
 5589SOL     OW28402   2.809   0.997   3.186 -0.1600  0.4725  0.6324
 5589SOL    HW128403   2.897   1.036   3.182  1.1896 -2.7483 -1.4641
 5589SOL    HW228404   2.780   0.998   3.277  1.1428  0.8491  1.0539
 5590SOL     OW28405   3.444   3.927  10.379  0.0014 -0.2952  0.2505
 5590SOL    HW128406   3.431   3.837  10.409  0.1139 -0.5893 -0.5750
 5590SOL    HW228407   3.356   3.965  10.376  0.2989  0.2612 -1.9979
 5591SOL     OW28408   0.822   3.988   9.309 -0.3679 -0.1498  0.1211
 5591SOL    HW128409   0.814   4.079   9.338 -0.5337 -0.5248  1.2517
 5591SOL    HW228410   0.823   3.931   9.386 -3.5346 -1.2654 -0.6776
 5592SOL     OW28411   1.896   3.826   9.262  0.3177 -0.6520 -1.2211
 5592SOL    HW128412   1.887   3.888   9.190  2.8243  2.9143  1.5457
 5592SOL    HW228413   1.921   3.885   9.332  1.2744 -0.4049 -1.7753
 5593SOL     OW28414   0.741   3.421   7.106  0.1406  0.3203 -0.2526
 5593SOL    HW128415   0.808   3.473   7.151  1.4466  1.3418 -3.3367
 5593SOL    HW228416   0.785   3.411   7.021 -0.1351 -1.7811 -0.1477
 5594SOL     OW28417   3.707   1.302   1.981  0.3926 -0.5938  1.0256
 5594SOL    HW128418   3.732   1.277   1.892 -1.2958  1.4484 -0.0379
 5594SOL    HW228419   3.612   1.291   1.973  0.4606 -1.7136  1.6762
 5595SOL     OW28420   0.979   1.532   1.120 -0.1025 -0.3197  0.1144
 5595SOL    HW128421   0.954   1.514   1.029  0.0927  1.1843 -0.2321
 5595SOL    HW228422   0.895   1.557   1.158  0.6951 -0.3924  1.9056
 5596SOL     OW28423   1.811   1.803   5.209 -0.4479 -0.0002  0.2709
 5596SOL    HW128424   1.727   1.760   5.193 -0.4040 -0.7659  2.1183
 5596SOL    HW228425   1.792   1.852   5.289 -1.3615  1.9429 -1.1219
 5597SOL     OW28426   2.260   2.395   8.938 -0.0392  0.5423 -0.1289
 5597SOL    HW128427   2.172   2.406   8.975  0.8903 -0.0047  2.2863
 5597SOL    HW228428   2.258   2.394   8.843 -1.2228  0.9357 -0.1068
 5598SOL     OW28429   2.136   3.080   5.590 -0.3398  0.3495  0.7651
 5598SOL    HW128430   2.177   3.166   5.592  0.2086  0.1322 -1.1223
 5598SOL    HW228431   2.095   3.081   5.676  0.5766  1.2194  1.1836
 5599SOL     OW28432   0.147   0.384   2.506 -0.1167  0.8342 -0.2627
 5599SOL    HW128433   0.134   0.423   2.419 -0.0767  3.0586  0.7174
 5599SOL    HW228434   0.173   0.296   2.480  2.0369  1.4563 -0.2017
 5600SOL     OW28435   3.430   0.082   1.435 -0.7837  0.0838 -0.2159
 5600SOL    HW128436   3.523   0.105   1.440 -1.5030  2.8618  0.7080
 5600SOL    HW228437   3.400   0.131   1.359 -0.9846 -0.6071 -0.5781
 5601SOL     OW28438   0.544   0.360   2.280 -0.5795  0.2399  0.4628
 5601SOL    HW128439   0.488   0.285   2.298  0.4916 -0.1755  2.1408
 5601SOL    HW228440   0.593   0.330   2.203 -1.6756 -0.2514 -0.0294
 5602SOL     OW28441   4.308   3.717   1.913 -0.0951  0.0493 -0.5217
 5602SOL    HW128442   4.253   3.723   1.991  0.2627  3.6823 -0.5696
 5602SOL    HW228443   4.310   3.810   1.894  0.2203  0.1742  0.1255
 5603SOL     OW28444   0.096   2.705   5.432  0.0430 -0.4266  0.0471
 5603SOL    HW128445   0.122   2.715   5.524  2.7888 -2.2892 -0.5594
 5603SOL    HW228446   0.044   2.784   5.420  0.4842 -0.3265 -1.1567
 5604SOL     OW28447   2.287   0.440  11.823 -0.4793 -0.3215  1.0650
 5604SOL    HW128448   2.229   0.475  11.890  0.7284 -1.4806  2.6915
 5604SOL    HW228449   2.365   0.426  11.877  1.3662  0.7677 -1.2960
 5605SOL     OW28450   0.066   2.202  16.410 -0.4527 -0.2306 -0.0344
 5605SOL    HW128451   0.083   2.214  16.317  0.2858 -0.2660  0.0934
 5605SOL    HW228452   4.712   2.229  16.435 -0.2890 -0.3479  0.6772
 5606SOL     OW28453   3.749   3.991   9.334  0.5002 -0.4695  0.1675
 5606SOL    HW128454   3.767   3.901   9.361 -0.0186  0.1529  2.6380
 5606SOL    HW228455   3.678   4.010   9.395  0.8136  0.9402  0.0990
 5607SOL     OW28456   4.474   2.452   9.954  0.4984  0.1177  1.0037
 5607SOL    HW128457   4.456   2.470  10.046 -1.4974 -1.5670  0.9605
 5607SOL    HW228458   4.517   2.366   9.957  0.9502  0.3422  0.9155
 5608SOL     OW28459   3.752   2.628   5.438 -0.1272  0.0803  0.4609
 5608SOL    HW128460   3.825   2.675   5.399  0.4260 -0.1669  1.1948
 5608SOL    HW228461   3.727   2.700   5.497  1.9248 -0.9092  2.5510
 5609SOL     OW28462   4.597   0.634  12.506  0.2511 -0.6426  0.0975
 5609SOL    HW128463   4.661   0.686  12.457 -0.7517 -0.7693 -1.3573
 5609SOL    HW228464   4.515   0.670  12.474  1.1331 -0.1099 -1.6055
 5610SOL     OW28465   3.356   3.109   3.044  0.3478 -0.3857  0.3284
 5610SOL    HW128466   3.299   3.058   2.986 -0.7948 -0.3124  1.3751
 5610SOL    HW228467   3.371   3.179   2.981 -0.2532 -0.2492  0.3366
 5611SOL     OW28468   4.317   3.555   8.067  0.2251 -0.1318 -0.5286
 5611SOL    HW128469   4.406   3.590   8.074  0.3504 -0.5371 -0.0904
 5611SOL    HW228470   4.318   3.486   8.133  0.7841 -0.2374 -0.6514
 5612SOL     OW28471   2.829   2.538   5.259  0.1948 -0.1718  0.1598
 5612SOL    HW128472   2.822   2.596   5.335 -1.7164  0.0994 -0.2170
 5612SOL    HW228473   2.740   2.515   5.233  0.3439  0.9293 -1.3588
 5613SOL     OW28474   3.527   0.618   7.860 -0.3772 -0.1311  0.4859
 5613SOL    HW128475   3.572   0.588   7.781 -0.6768 -1.0064  0.6565
 5613SOL    HW228476   3.484   0.701   7.837  0.2575  0.2142  0.5273
 5614SOL     OW28477   4.207   0.223  12.555 -0.2132 -0.2588  0.5994
 5614SOL    HW128478   4.288   0.234  12.505 -1.1100  0.3341 -0.7133
 5614SOL    HW228479   4.159   0.292  12.510 -1.1503 -1.8767 -0.8764
 5615SOL     OW28480   3.836   3.474   6.591 -0.1397 -0.0583  0.2872
 5615SOL    HW128481   3.926   3.487   6.623 -0.1579  1.2245 -0.1644
 5615SOL    HW228482   3.790   3.461   6.674  2.9248 -2.1938  1.6750
 5616SOL     OW28483   1.065   3.238  14.791  0.2089 -0.2491  0.2389
 5616SOL    HW128484   1.134   3.203  14.847  1.6197  1.0929 -0.6815
 5616SOL    HW228485   1.031   3.300  14.855  1.7252 -0.2842  1.0883
 5617SOL     OW28486   1.429   0.619   6.179 -0.3504 -0.5233 -0.2884
 5617SOL    HW128487   1.442   0.533   6.139  0.9789 -0.5967  0.2861
 5617SOL    HW228488   1.434   0.674   6.102  0.3171 -0.2489 -0.0537
 5618SOL     OW28489   3.863   3.190   2.720 -0.2555  0.1284 -0.2354
 5618SOL    HW128490   3.867   3.277   2.760  2.8566  0.2850 -0.8756
 5618SOL    HW228491   3.807   3.142   2.781  4.5122 -0.9021  3.3417
 5619SOL     OW28492   3.766   1.897   8.261  0.2469 -0.2013  0.0646
 5619SOL    HW128493   3.709   1.868   8.333 -1.6259 -2.9508 -2.4961
 5619SOL    HW228494   3.719   1.848   8.193  1.7492  0.7779 -1.6463
 5620SOL     OW28495   3.700   1.437   5.216 -0.4124  0.6976 -0.4937
 5620SOL    HW128496   3.670   1.527   5.203  2.3239  1.5877 -0.6786
 5620SOL    HW228497   3.787   1.434   5.176  0.9587  2.1116  2.3774
 5621SOL     OW28498   1.650   1.990   9.910 -0.6618  0.0661  0.3104
 5621SOL    HW128499   1.700   1.986   9.991 -0.0207 -1.6678 -0.1714
 5621SOL    HW228500   1.725   1.994   9.850 -2.0300 -2.0953 -1.5349
 5622SOL     OW28501   1.258   3.195   1.413  0.2066 -0.2489 -0.3831
 5622SOL    HW128502   1.241   3.288   1.425 -1.9946 -0.6613 -0.3076
 5622SOL    HW228503   1.191   3.149   1.464  1.0757 -1.8591 -0.7021
 5623SOL     OW28504   2.849   3.498   1.838  0.4199 -0.0099  0.1240
 5623SOL    HW128505   2.834   3.461   1.925 -0.8344  0.2238  0.0093
 5623SOL    HW228506   2.796   3.442   1.782  0.6991 -0.3593  0.2134
 5624SOL     OW28507   2.744   3.397   7.992 -0.0763 -0.8139 -0.1334
 5624SOL    HW128508   2.706   3.423   8.077  2.3179  3.5272 -0.3697
 5624SOL    HW228509   2.803   3.325   8.011  1.1999  0.0490 -0.8502
 5625SOL     OW28510   0.511   0.096   4.679 -0.5762  0.0979 -0.6072
 5625SOL    HW128511   0.482   0.180   4.713  2.3214  0.0715  1.9885
 5625SOL    HW228512   0.552   0.061   4.758  0.2607  2.1271 -0.1488
 5626SOL     OW28513   4.619   3.946   6.529 -0.2580 -0.0781 -0.5105
 5626SOL    HW128514   4.701   3.931   6.481  0.3769  0.7512  0.3179
 5626SOL    HW228515   4.556   3.955   6.458  0.5504 -2.1708 -1.4940
 5627SOL     OW28516   2.997   4.046   7.760  0.0616 -0.2496  0.1733
 5627SOL    HW128517   3.077   4.027   7.809 -0.4208  0.5249  1.2717
 5627SOL    HW228518   2.994   3.975   7.697 -1.7323  1.1887 -1.3626
 5628SOL     OW28519   1.003   2.421   9.442  0.0083 -0.4029  0.3714
 5628SOL    HW128520   1.019   2.503   9.489  0.7118 -1.2129  1.5298
 5628SOL    HW228521   0.917   2.408   9.481  0.2287 -1.9087  0.3558
 5629SOL     OW28522   4.168   2.371   8.895 -0.2811 -0.6606 -0.3129
 5629SOL    HW128523   4.235   2.305   8.907 -0.1294 -0.7212 -1.4437
 5629SOL    HW228524   4.198   2.412   8.814  0.5285 -1.1711 -0.2658
 5630SOL     OW28525   4.226   1.818  16.407 -0.0629  0.3808  0.3105
 5630SOL    HW128526   4.275   1.886  16.451 -0.7720  0.3134  1.2029
 5630SOL    HW228527   4.259   1.827  16.317 -0.4589 -2.4832 -0.1451
 5631SOL     OW28528   3.817   1.149   0.556  0.5348  0.3122  0.5184
 5631SOL    HW128529   3.724   1.171   0.565  0.2029 -0.7122 -0.4935
 5631SOL    HW228530   3.832   1.161   0.463  0.1010  1.2977  0.5763
 5632SOL     OW28531   2.691   2.816   1.264 -0.0940  0.0950 -0.2716
 5632SOL    HW128532   2.631   2.785   1.196 -0.4257 -0.7273  0.4026
 5632SOL    HW228533   2.650   2.901   1.283 -1.8216 -0.5744 -1.0803
 5633SOL     OW28534   1.982   2.690   9.889  0.6370 -0.4225 -0.4703
 5633SOL    HW128535   2.031   2.704   9.970  0.2415 -0.2703 -0.2570
 5633SOL    HW228536   1.896   2.668   9.923  0.5274 -1.1542 -1.2224
 5634SOL     OW28537   0.305   3.900   3.512  0.7998  0.2222 -0.3230
 5634SOL    HW128538   0.399   3.891   3.526  0.5916 -0.3654  0.6632
 5634SOL    HW228539   0.257   3.846   3.574  2.3678  0.9567  1.5558
 5635SOL     OW28540   4.108   0.736  11.974  0.0203 -0.6306  0.5322
 5635SOL    HW128541   4.030   0.764  12.022  0.1705 -0.8444  0.9011
 5635SOL    HW228542   4.079   0.658  11.926  1.1705 -1.3550  1.0377
 5636SOL     OW28543   1.959   1.294   2.936  0.1354  0.0186 -0.5048
 5636SOL    HW128544   2.005   1.228   2.988 -0.4494 -0.9884 -1.2462
 5636SOL    HW228545   1.867   1.270   2.952 -0.7108  4.0539  0.5250
 5637SOL     OW28546   1.544   3.640   2.904  0.1282 -0.0608  0.2154
 5637SOL    HW128547   1.457   3.678   2.916  0.0263 -0.2782  0.1746
 5637SOL    HW228548   1.522   3.546   2.907 -1.5771  0.2989 -1.2345
 5638SOL     OW28549   1.649   3.875   2.736  0.0912 -0.7737 -0.2127
 5638SOL    HW128550   1.610   3.810   2.794  1.4316  0.0678  1.6311
 5638SOL    HW228551   1.731   3.887   2.784 -0.1485  0.5537 -0.1323
 5639SOL     OW28552   1.535   0.283   0.944  0.0918  0.2412 -0.8457
 5639SOL    HW128553   1.492   0.369   0.948  0.6815  0.4979  0.1443
 5639SOL    HW228554   1.547   0.260   1.036 -0.6679  2.4947 -0.1794
 5640SOL     OW28555   3.948   1.842   3.597 -0.3787 -0.1116  0.1407
 5640SOL    HW128556   4.031   1.832   3.642  0.0923  0.2410 -0.6459
 5640SOL    HW228557   3.910   1.913   3.649 -1.2093 -0.4959  0.0701
 5641SOL     OW28558   4.236   0.259   4.206  0.1943  0.0986  0.1996
 5641SOL    HW128559   4.286   0.257   4.287  3.4890 -1.6104 -1.8828
 5641SOL    HW228560   4.274   0.183   4.161 -1.4046 -2.4060  3.0571
 5642SOL     OW28561   2.148   1.852   7.053  0.3754  0.4193 -0.0013
 5642SOL    HW128562   2.216   1.831   6.989 -0.2912 -0.6818 -0.3609
 5642SOL    HW228563   2.138   1.770   7.102  1.3688  0.5746  0.4494
 5643SOL     OW28564   0.453   1.582   7.785 -0.7837  0.1117  0.4970
 5643SOL    HW128565   0.370   1.548   7.749 -1.0339 -0.0197  1.1904
 5643SOL    HW228566   0.419   1.606   7.871  1.0890  3.1443  0.3980
 5644SOL     OW28567   1.461   1.159  11.142 -0.3197 -0.1572  0.1461
 5644SOL    HW128568   1.511   1.240  11.147  0.9358 -0.9275  0.1851
 5644SOL    HW228569   1.394   1.177  11.208  0.3292  0.1902  0.7074
 5645SOL     OW28570   1.270   2.759  10.696 -0.0978 -0.6614  0.1732
 5645SOL    HW128571   1.268   2.699  10.621  1.0263  2.6017 -2.4452
 5645SOL    HW228572   1.339   2.823  10.677 -1.6517  0.9791  0.1173
 5646SOL     OW28573   3.947   0.266   5.464 -0.0134  0.0328  0.3728
 5646SOL    HW128574   3.861   0.308   5.473  0.2393  0.7383 -0.5596
 5646SOL    HW228575   3.974   0.301   5.379  0.3119 -2.7165 -0.6628
 5647SOL     OW28576   4.321   4.644   6.774  0.1682  0.5450 -0.1425
 5647SOL    HW128577   4.274   4.585   6.716  1.4000 -1.9390  1.3887
 5647SOL    HW228578   4.273   4.612   6.850  1.6995  3.3269  2.0321
 5648SOL     OW28579   1.756   0.902   4.663  0.0042  0.2293 -0.2649
 5648SOL    HW128580   1.761   0.832   4.728  1.5845 -0.5922 -1.2385
 5648SOL    HW228581   1.669   0.880   4.630  0.1802  0.4994 -0.9184
 5649SOL     OW28582   1.969   4.456  16.843 -0.1614  0.3856 -0.1764
 5649SOL    HW128583   1.888   4.431  16.888 -0.7973  1.0749 -0.9487
 5649SOL    HW228584   2.033   4.421  16.905 -1.1015 -2.0998 -0.5934
 5650SOL     OW28585   1.112   0.791   7.758 -0.1607 -0.3390 -0.0875
 5650SOL    HW128586   1.058   0.741   7.697 -1.3413 -0.9023  1.4101
 5650SOL    HW228587   1.037   0.831   7.802 -0.5477  0.0425 -1.0792
 5651SOL     OW28588   1.933   3.627   4.950  0.3854 -0.1907  0.7067
 5651SOL    HW128589   2.003   3.651   5.010  0.3998 -0.0337  0.6278
 5651SOL    HW228590   1.861   3.685   4.974 -0.4390  0.9022 -4.3556
 5652SOL     OW28591   2.917   2.499   7.430  0.1455  0.0081  0.0640
 5652SOL    HW128592   2.909   2.594   7.442  1.1566  0.0884  0.0667
 5652SOL    HW228593   2.990   2.479   7.487  0.8068 -0.6443 -1.0124
 5653SOL     OW28594   0.181   1.583   5.530 -0.0755 -0.0605 -0.1539
 5653SOL    HW128595   0.194   1.584   5.625 -0.5897 -0.4645 -0.0802
 5653SOL    HW228596   0.086   1.583   5.517 -0.3206  0.0843  1.6143
 5654SOL     OW28597   2.740   4.005   7.159 -0.5801 -0.3524 -0.7854
 5654SOL    HW128598   2.822   4.047   7.185 -0.2160 -0.9855 -0.9121
 5654SOL    HW228599   2.745   4.033   7.068 -3.6483  2.8985  0.0487
 5655SOL     OW28600   2.854   3.019   0.772 -0.3841  0.3877 -0.4816
 5655SOL    HW128601   2.834   3.042   0.863  0.4147 -1.6348  0.2101
 5655SOL    HW228602   2.785   2.957   0.750  1.7321 -2.3808  0.6021
 5656SOL     OW28603   4.095   4.372  11.637 -0.3354 -0.0573  0.0881
 5656SOL    HW128604   4.057   4.317  11.568  0.8513  0.3173 -0.8572
 5656SOL    HW228605   4.017   4.396  11.688 -1.0003 -0.6878 -0.6247
 5657SOL     OW28606   2.081   1.266   8.840  0.0187 -0.7039  0.1221
 5657SOL    HW128607   2.084   1.172   8.822 -0.3818 -0.7079  0.0919
 5657SOL    HW228608   2.172   1.283   8.813  0.0742  2.8328  2.6802
 5658SOL     OW28609   4.108   0.439   5.949  0.1602 -0.5498 -0.5084
 5658SOL    HW128610   4.070   0.516   5.909 -0.1899 -0.7309 -0.5241
 5658SOL    HW228611   4.045   0.416   6.018  0.3622 -1.1365 -0.5203
 5659SOL     OW28612   0.647   4.601   0.909 -0.4169 -0.1509  0.3688
 5659SOL    HW128613   0.669   4.689   0.941 -0.6344 -0.0218  0.1646
 5659SOL    HW228614   0.703   4.542   0.960  1.3079 -0.1300 -1.4787
 5660SOL     OW28615   0.779   0.929   2.443 -0.6294 -0.2942 -0.4048
 5660SOL    HW128616   0.822   0.872   2.379  0.0457 -0.7666  0.4662
 5660SOL    HW228617   0.818   1.013   2.419 -1.9566  0.4822  0.1801
 5661SOL     OW28618   2.092   0.984  11.417  0.0487 -0.4574  0.2151
 5661SOL    HW128619   2.042   0.929  11.357 -0.2221 -0.1964  0.2011
 5661SOL    HW228620   2.115   0.926  11.489 -0.4554  0.3776  1.0578
 5662SOL     OW28621   2.889   1.520  11.171 -0.4121  0.1664 -0.3096
 5662SOL    HW128622   2.978   1.499  11.197 -0.9531 -0.8786  0.7476
 5662SOL    HW228623   2.846   1.509  11.256  0.6502  3.3534  0.6312
 5663SOL     OW28624   1.982   2.595  11.320  0.1275  0.6504  0.7775
 5663SOL    HW128625   1.906   2.590  11.262 -0.1879  0.6047  1.1907
 5663SOL    HW228626   1.963   2.524  11.382 -0.8760 -0.2847 -0.6071
 5664SOL     OW28627   4.488   1.842  14.033  0.1941 -0.5112  0.0014
 5664SOL    HW128628   4.437   1.907  13.985  0.3499  0.8703  1.7191
 5664SOL    HW228629   4.539   1.900  14.090  1.4086 -2.1430  0.5714
 5665SOL     OW28630   3.940   2.571   3.596  0.3293  0.5335 -0.5272
 5665SOL    HW128631   3.883   2.643   3.623  0.3090 -0.3752  1.8648
 5665SOL    HW228632   3.908   2.500   3.652  0.2500  2.7264  2.2069
 5666SOL     OW28633   3.792   4.289   1.181  0.4864 -0.6668 -0.4817
 5666SOL    HW128634   3.710   4.247   1.155 -0.9033  0.6869  1.6778
 5666SOL    HW228635   3.817   4.333   1.100  1.3500 -3.1311 -1.5441
 5667SOL     OW28636   4.094   3.597  14.398  0.4044  0.5258  0.0200
 5667SOL    HW128637   4.042   3.530  14.354  0.3186  0.8210 -0.3294
 5667SOL    HW228638   4.038   3.621  14.472  0.0288 -2.0224  0.5525
 5668SOL     OW28639   2.728   4.108   1.087 -0.1034  0.3570 -0.1833
 5668SOL    HW128640   2.819   4.084   1.070  0.3973  1.3776  1.1098
 5668SOL    HW228641   2.731   4.161   1.167  1.8634 -1.2046  0.7869
 5669SOL     OW28642   0.394   3.692  12.498  0.2142  0.0641 -0.4822
 5669SOL    HW128643   0.441   3.773  12.518  2.6850 -1.5835  0.4246
 5669SOL    HW228644   0.434   3.676  12.413  1.1542  0.6437 -0.1543
 5670SOL     OW28645   1.231   2.589  15.207  0.3982 -0.1011  0.7623
 5670SOL    HW128646   1.165   2.604  15.140 -0.7172 -0.4277  1.7795
 5670SOL    HW228647   1.312   2.607  15.159  1.4095 -2.4466  1.6038
 5671SOL     OW28648   4.342   3.634   9.095 -0.0891 -0.4904 -0.4095
 5671SOL    HW128649   4.282   3.586   9.152 -0.7772  0.9240  0.0502
 5671SOL    HW228650   4.361   3.711   9.149  0.9222 -1.2987  0.3926
 5672SOL     OW28651   4.499   3.617   1.522  0.0623  0.0291  0.4161
 5672SOL    HW128652   4.409   3.586   1.523 -0.2512  0.9001 -1.0961
 5672SOL    HW228653   4.476   3.708   1.540  2.3060  1.0352 -1.7978
 5673SOL     OW28654   0.612   3.295  16.289  0.6255 -0.0607 -0.0798
 5673SOL    HW128655   0.697   3.255  16.309  0.1476 -1.1545 -0.2338
 5673SOL    HW228656   0.637   3.350  16.215  1.3419  1.2295  1.1235
 5674SOL     OW28657   4.545   1.997   4.942 -0.6691 -0.3712 -0.0560
 5674SOL    HW128658   4.459   2.001   4.983 -1.4853  2.2674 -2.0700
 5674SOL    HW228659   4.586   2.077   4.975  2.3067 -0.9932 -2.2263
 5675SOL     OW28660   2.175   0.049  10.489  0.4894  0.6638 -0.2536
 5675SOL    HW128661   2.230   0.055  10.411 -2.4669 -2.0899 -2.5577
 5675SOL    HW228662   2.230   0.081  10.560 -0.2343  0.5901  0.3432
 5676SOL     OW28663   0.860   3.900   2.544 -0.1417  0.1846 -0.1796
 5676SOL    HW128664   0.936   3.886   2.600 -0.3314 -1.9892 -0.4294
 5676SOL    HW228665   0.909   3.932   2.468 -1.8715  1.1253 -0.8906
 5677SOL     OW28666   3.643   2.217   0.250  0.4442 -0.2144  0.2870
 5677SOL    HW128667   3.715   2.180   0.302  2.3358  0.1691 -2.0791
 5677SOL    HW228668   3.646   2.170   0.167  0.8153  1.9665 -0.9289
 5678SOL     OW28669   1.074   3.037   1.520  0.0197  0.1652  0.0010
 5678SOL    HW128670   0.992   3.086   1.524 -0.2955 -0.2995 -0.7817
 5678SOL    HW228671   1.049   2.948   1.493  0.5242  0.1709 -0.4717
 5679SOL     OW28672   2.275   0.345   7.556  0.4035  0.4102  0.2044
 5679SOL    HW128673   2.244   0.419   7.503 -0.3413 -1.1565 -1.5259
 5679SOL    HW228674   2.344   0.383   7.610 -0.3493  1.4903  0.4104
 5680SOL     OW28675   2.599   3.425   4.641  0.4118  0.5078 -0.1399
 5680SOL    HW128676   2.529   3.366   4.667 -1.1450  2.6259  0.4665
 5680SOL    HW228677   2.597   3.414   4.546  2.1717  1.0125 -0.2379
 5681SOL     OW28678   4.194   0.484   1.920  0.2421  0.2387  0.5325
 5681SOL    HW128679   4.245   0.414   1.879 -0.2088  0.1129  0.1944
 5681SOL    HW228680   4.232   0.568   1.895  2.7886 -0.7982  0.9388
 5682SOL     OW28681   4.589   4.007   3.454  0.3178 -0.4338 -0.4552
 5682SOL    HW128682   4.529   4.033   3.385 -0.3808  0.5038  0.4883
 5682SOL    HW228683   4.561   3.922   3.488 -4.2449  1.0707 -0.5125
 5683SOL     OW28684   2.396   2.728   8.023 -0.4645 -0.2597 -0.5462
 5683SOL    HW128685   2.422   2.648   7.979  1.4243 -0.2643  0.5507
 5683SOL    HW228686   2.323   2.700   8.078  0.0870 -0.1832  0.2284
 5684SOL     OW28687   1.881   0.002  16.857 -0.0199 -0.0331 -0.1662
 5684SOL    HW128688   1.840   0.016  16.771  0.8992 -0.9823 -0.7547
 5684SOL    HW228689   1.924   4.656  16.829 -0.9712 -1.2130  1.7250
 5685SOL     OW28690   4.394   3.845   9.842  0.1125  0.4634  0.3099
 5685SOL    HW128691   4.425   3.758   9.867 -0.8019  0.1363  0.3340
 5685SOL    HW228692   4.439   3.859   9.759  1.1063 -1.8634  0.4750
 5686SOL     OW28693   0.196   3.385   8.503 -0.4623 -0.3212  0.4119
 5686SOL    HW128694   0.164   3.387   8.593  0.0613  0.0546  0.5891
 5686SOL    HW228695   0.145   3.452   8.456 -0.2797 -0.1308  0.4862
 5687SOL     OW28696   3.456   0.919   7.746  0.1469  0.0459 -0.3548
 5687SOL    HW128697   3.491   0.968   7.820 -0.3515  1.0738 -0.8002
 5687SOL    HW228698   3.366   0.951   7.748 -0.9619 -3.0547 -0.5705
 5688SOL     OW28699   0.912   1.070   1.733  0.1426 -0.0490  0.4757
 5688SOL    HW128700   0.945   1.020   1.658  0.1575 -1.0587  1.1509
 5688SOL    HW228701   0.861   1.002   1.776 -1.6615  1.4001  0.6170
 5689SOL     OW28702   3.930   2.231   6.816 -0.1150 -0.2722 -0.0127
 5689SOL    HW128703   3.873   2.155   6.806  2.6172 -2.1441 -1.4185
 5689SOL    HW228704   4.004   2.208   6.760 -0.2360  1.7275 -1.0002
 5690SOL     OW28705   0.798   0.615   9.470 -0.3419  0.6190  0.0170
 5690SOL    HW128706   0.772   0.701   9.502 -1.4332  1.4244 -2.9672
 5690SOL    HW228707   0.894   0.617   9.467 -0.3259 -1.1114 -0.7496
 5691SOL     OW28708   1.887   3.370   7.232  0.3560  0.2173 -0.1625
 5691SOL    HW128709   1.975   3.380   7.197  0.0742  0.9466 -0.6809
 5691SOL    HW228710   1.841   3.376   7.148  0.8547 -0.9867 -0.5208
 5692SOL     OW28711   2.203   1.368   3.958  0.5323  0.6346  0.1890
 5692SOL    HW128712   2.222   1.453   3.918  0.5955  0.8539  0.6889
 5692SOL    HW228713   2.162   1.397   4.039  0.2672 -1.7225  0.9194
 5693SOL     OW28714   0.133   0.950  12.015 -0.2970  0.1017  0.5481
 5693SOL    HW128715   0.219   0.948  11.972 -0.1560 -0.4085  0.8537
 5693SOL    HW228716   0.109   1.041  11.996  0.6789  0.0918 -0.7279
 5694SOL     OW28717   1.896   3.828  11.438  0.2090 -0.6180  0.3324
 5694SOL    HW128718   1.896   3.733  11.448 -0.1795 -0.6383  0.1233
 5694SOL    HW228719   1.833   3.849  11.506 -0.3438 -1.4219  0.0600
 5695SOL     OW28720   0.041   2.513   7.815  0.2153  0.3382 -0.6274
 5695SOL    HW128721   0.084   2.433   7.846  1.9468  1.9239  1.0998
 5695SOL    HW228722   0.071   2.569   7.886 -1.0371 -0.9418  0.9077
 5696SOL     OW28723   4.034   0.490  12.057 -0.3401 -0.0123  0.1843
 5696SOL    HW128724   4.105   0.425  12.050  0.1977  0.8114 -1.9208
 5696SOL    HW228725   3.958   0.436  12.034  1.1133 -1.3724 -1.4969
 5697SOL     OW28726   0.694   1.884   0.168 -0.2110 -0.4112 -0.4388
 5697SOL    HW128727   0.606   1.845   0.166 -0.7500  0.5162  4.3953
 5697SOL    HW228728   0.681   1.963   0.116 -0.7843  0.0607  0.4250
 5698SOL     OW28729   3.992   3.016   5.216  0.1981 -0.3057  0.5867
 5698SOL    HW128730   3.962   2.968   5.138  2.0437 -0.6874  0.1073
 5698SOL    HW228731   4.025   3.099   5.181  0.4814 -0.0763  1.4016
 5699SOL     OW28732   1.021   1.368   8.400 -0.0927  0.3162 -0.0323
 5699SOL    HW128733   1.061   1.455   8.393 -0.4119  0.3981 -0.8361
 5699SOL    HW228734   0.927   1.386   8.390 -0.2193 -1.4485 -1.9653
 5700SOL     OW28735   0.814   2.892   1.720  0.0856 -0.4040  0.5776
 5700SOL    HW128736   0.764   2.973   1.729  2.9037  1.4894 -0.7350
 5700SOL    HW228737   0.777   2.856   1.640  1.2321 -0.5783  0.1227
 5701SOL     OW28738   4.298   2.529   7.862  0.5978  0.0552 -0.6573
 5701SOL    HW128739   4.307   2.536   7.957  0.0520  2.0256 -0.7591
 5701SOL    HW228740   4.337   2.443   7.844  0.3980 -0.2640  0.4129
 5702SOL     OW28741   3.156   0.524   8.197 -0.0622  0.1103 -0.3069
 5702SOL    HW128742   3.208   0.563   8.127  3.8110  0.3765  2.6586
 5702SOL    HW228743   3.071   0.520   8.154 -0.8051 -2.8968  1.4118
 5703SOL     OW28744   2.124   4.135   0.994 -0.3061 -0.1790  0.4155
 5703SOL    HW128745   2.190   4.067   0.980 -2.1889 -1.5928 -1.6213
 5703SOL    HW228746   2.067   4.127   0.917 -2.5948  1.2221  1.9695
 5704SOL     OW28747   0.724   2.858   8.684  0.2664  0.8442 -0.5623
 5704SOL    HW128748   0.776   2.905   8.750  1.4834  0.9025 -1.5696
 5704SOL    HW228749   0.707   2.779   8.736 -0.2640  0.8570 -0.7176
 5705SOL     OW28750   2.635   3.940   6.681  0.2835  0.0675 -0.1698
 5705SOL    HW128751   2.612   4.018   6.630 -2.5553  0.0941  1.1601
 5705SOL    HW228752   2.568   3.876   6.657 -0.2010  0.0455  1.2434
 5706SOL     OW28753   3.135   2.660   4.606  0.1258  0.1924  0.5026
 5706SOL    HW128754   3.216   2.675   4.655  0.6893 -0.0398 -0.3601
 5706SOL    HW228755   3.070   2.663   4.676 -2.6680  1.0799 -2.1337
 5707SOL     OW28756   2.933   2.769   6.849  0.2282  0.1097  0.5646
 5707SOL    HW128757   2.973   2.852   6.822  1.2267 -1.5420 -3.0487
 5707SOL    HW228758   2.847   2.792   6.884  0.1985 -2.9900  2.4592
 5708SOL     OW28759   3.447   2.760   9.939 -0.1828 -0.4711  0.6011
 5708SOL    HW128760   3.412   2.675   9.912 -2.4847  0.0516  1.9360
 5708SOL    HW228761   3.403   2.809   9.870  0.7924 -1.5531 -0.7806
 5709SOL     OW28762   1.622   1.149   1.000  0.5689  0.5832 -0.1718
 5709SOL    HW128763   1.547   1.117   1.050 -0.0719 -0.7333 -1.9604
 5709SOL    HW228764   1.580   1.204   0.934  0.5562  2.4848  1.4484
 5710SOL     OW28765   2.190   2.637   1.833 -0.1401 -0.3068  0.2429
 5710SOL    HW128766   2.167   2.689   1.756 -1.7129 -0.2255  0.7621
 5710SOL    HW228767   2.107   2.627   1.880 -0.6287  1.2472 -0.2730
 5711SOL     OW28768   2.549   1.166   8.488 -0.8913 -0.5251 -0.2840
 5711SOL    HW128769   2.638   1.156   8.453 -1.2072 -1.2227 -0.8876
 5711SOL    HW228770   2.529   1.075   8.510  0.2735 -0.8140 -0.4266
 5712SOL     OW28771   3.068   2.464  16.642  0.2920  0.3755 -0.2226
 5712SOL    HW128772   3.086   2.447  16.550 -0.2731 -0.5084 -0.1735
 5712SOL    HW228773   3.155   2.448  16.678  0.1806  1.9604  0.7619
 5713SOL     OW28774   2.123   4.396  11.181  0.0758 -0.1811  0.2183
 5713SOL    HW128775   2.131   4.351  11.097  0.8047  2.0600 -0.9123
 5713SOL    HW228776   2.192   4.460  11.166  0.0549  0.4379  2.6501
 5714SOL     OW28777   3.471   1.416   4.161 -0.2321  0.5589  0.3287
 5714SOL    HW128778   3.442   1.354   4.228  1.8706  1.0470  1.7070
 5714SOL    HW228779   3.501   1.486   4.219 -0.3407  0.6777  0.2406
 5715SOL     OW28780   2.503   2.126   6.757 -0.3404 -0.4705 -0.3054
 5715SOL    HW128781   2.562   2.093   6.690 -0.4814 -1.1344 -0.1069
 5715SOL    HW228782   2.565   2.188   6.795 -0.9047  0.2006 -0.4862
 5716SOL     OW28783   1.973   0.552   8.968  0.4439  0.5059  0.2133
 5716SOL    HW128784   2.047   0.537   9.026 -1.6822 -1.8143  2.3501
 5716SOL    HW228785   1.953   0.644   8.982  0.6259  0.6142 -0.2142
 5717SOL     OW28786   0.633   0.040   8.468 -0.2520 -0.2067  0.1426
 5717SOL    HW128787   0.609   0.116   8.520 -0.5099 -0.0250 -0.2436
 5717SOL    HW228788   0.546   0.021   8.434  0.1301  0.1902 -1.0705
 5718SOL     OW28789   3.466   3.006  12.043  0.7455  0.5820 -0.2451
 5718SOL    HW128790   3.456   3.086  11.992  0.2957 -0.6766 -2.1485
 5718SOL    HW228791   3.490   3.046  12.126 -1.7698 -1.1758  1.3202
 5719SOL     OW28792   4.329   0.662   6.412 -0.0402  0.1381 -0.3353
 5719SOL    HW128793   4.424   0.653   6.415  0.1791  2.3006 -0.8854
 5719SOL    HW228794   4.307   0.730   6.475 -0.3834 -1.4507  1.2587
 5720SOL     OW28795   1.224   0.075   9.151 -0.4588 -0.0495 -0.2304
 5720SOL    HW128796   1.160   0.061   9.081 -0.6253  0.7445 -0.2351
 5720SOL    HW228797   1.181   0.155   9.181 -0.4917 -0.0126 -0.3748
 5721SOL     OW28798   0.242   2.131   6.803 -0.1374  0.2165 -0.3814
 5721SOL    HW128799   0.203   2.096   6.724  1.7333  0.6867 -1.5102
 5721SOL    HW228800   0.287   2.057   6.844 -1.9151 -0.2793  0.6848
 5722SOL     OW28801   0.949   2.925   6.851  0.2986 -0.2723 -0.7786
 5722SOL    HW128802   0.959   2.946   6.944  1.1050  3.5619 -1.7266
 5722SOL    HW228803   0.962   2.830   6.859  0.0418 -0.3202 -0.9366
 5723SOL     OW28804   4.592   3.589   7.780  0.7059 -0.1403  0.0537
 5723SOL    HW128805   4.511   3.604   7.731  1.2507  2.2869 -0.0646
 5723SOL    HW228806   4.583   3.644   7.858  0.0337 -2.6613  1.7682
 5724SOL     OW28807   1.194   0.463   5.510  0.2782  0.1604  0.1852
 5724SOL    HW128808   1.231   0.526   5.448 -0.3826 -0.1767 -0.5468
 5724SOL    HW228809   1.104   0.491   5.526  0.8662  1.1125  1.8780
 5725SOL     OW28810   4.706   0.560  14.996  0.0630  0.2777  0.1012
 5725SOL    HW128811   0.033   0.493  15.025 -0.7405 -0.6318 -0.2648
 5725SOL    HW228812   0.040   0.627  14.990  1.5203 -1.0296  2.4886
 5726SOL     OW28813   2.026   0.842   3.946 -0.0564 -0.3813 -0.6871
 5726SOL    HW128814   2.029   0.764   3.891  3.2801 -1.1114  0.4924
 5726SOL    HW228815   1.955   0.894   3.910 -1.0877 -0.8742  0.6290
 5727SOL     OW28816   0.587   3.511   7.860 -0.4707 -0.3578 -0.4264
 5727SOL    HW128817   0.587   3.447   7.931  2.4318  0.5949  0.4530
 5727SOL    HW228818   0.533   3.465   7.796 -0.2453 -0.6219 -0.4279
 5728SOL     OW28819   1.378   1.641   8.643  0.0045  0.1451 -0.1426
 5728SOL    HW128820   1.448   1.592   8.600  0.0106 -0.1460  0.1940
 5728SOL    HW228821   1.299   1.629   8.591 -0.3342  0.9276  0.1861
 5729SOL     OW28822   0.325   2.979   7.501 -0.1737 -0.0355  0.1089
 5729SOL    HW128823   0.282   3.056   7.540  1.1156  0.2429  0.9603
 5729SOL    HW228824   0.283   2.915   7.558  0.5278 -0.8428 -0.2975
 5730SOL     OW28825   0.174   1.205   1.516  0.3383 -0.3091  0.2049
 5730SOL    HW128826   0.099   1.145   1.518 -0.1510  0.2853 -0.4405
 5730SOL    HW228827   0.140   1.272   1.575  0.6098  0.8507 -0.9611
 5731SOL     OW28828   4.596   0.429   7.931  0.3644  0.0738 -0.2720
 5731SOL    HW128829   4.621   0.427   7.839  2.5585 -1.4913  0.3641
 5731SOL    HW228830   4.533   0.501   7.931 -0.3519 -0.5424 -0.5607
 5732SOL     OW28831   0.472   3.539  16.503  0.6293 -0.0666 -0.1597
 5732SOL    HW128832   0.446   3.447  16.501  0.2391  0.0327  0.3823
 5732SOL    HW228833   0.482   3.547  16.597  1.6814 -2.2287 -0.1011
 5733SOL     OW28834   1.209   3.670   7.777  0.3133  0.4594  0.3336
 5733SOL    HW128835   1.293   3.714   7.786  1.8237 -2.4647  0.6114
 5733SOL    HW228836   1.208   3.613   7.854  0.4758  0.1612  0.1163
 5734SOL     OW28837   3.941   1.414   5.490 -0.6455 -0.1087 -0.3374
 5734SOL    HW128838   3.868   1.353   5.477  0.1816 -1.2492  0.3071
 5734SOL    HW228839   3.956   1.459   5.407  1.2058 -0.3061 -0.1132
 5735SOL     OW28840   4.388   4.255  12.741  0.0038  0.0732 -0.0463
 5735SOL    HW128841   4.365   4.346  12.723 -3.5037 -0.5646  1.0920
 5735SOL    HW228842   4.462   4.262  12.800  0.3823  2.5923 -0.8284
 5736SOL     OW28843   0.196   0.535   7.524 -0.6816 -1.2023 -0.0314
 5736SOL    HW128844   0.182   0.572   7.611 -2.0795 -1.0349 -0.3253
 5736SOL    HW228845   0.286   0.507   7.536 -0.0258  1.0155  0.1590
 5737SOL     OW28846   1.413   0.272   0.218 -0.6190 -0.0063 -0.1528
 5737SOL    HW128847   1.466   0.302   0.292 -0.7687  0.0046 -0.0511
 5737SOL    HW228848   1.357   0.208   0.261  2.2538 -0.7024  2.5130
 5738SOL     OW28849   4.360   0.162   2.068  0.3847  0.5004  0.0722
 5738SOL    HW128850   4.425   0.210   2.016  0.0117  1.2615  0.3086
 5738SOL    HW228851   4.392   0.073   2.053  1.5639  0.5951  2.0996
 5739SOL     OW28852   4.090   1.631   6.842  0.0561  0.5066 -0.3982
 5739SOL    HW128853   4.088   1.672   6.928  1.5761 -0.6623  0.1902
 5739SOL    HW228854   4.183   1.650   6.832  0.2021 -0.4335 -0.8147
 5740SOL     OW28855   3.040   1.250   4.074 -0.8574  0.2811 -0.3554
 5740SOL    HW128856   2.949   1.235   4.050 -0.8062 -0.3866 -0.1425
 5740SOL    HW228857   3.031   1.342   4.095  2.6326  0.4628  0.4519
 5741SOL     OW28858   1.229   0.576   8.443 -0.1772  0.7161  0.0548
 5741SOL    HW128859   1.141   0.613   8.456 -0.7836 -0.4339 -0.7778
 5741SOL    HW228860   1.241   0.524   8.523 -0.6695 -4.0923 -3.0708
 5742SOL     OW28861   3.777   4.614   9.409 -0.6964 -0.7017 -0.3446
 5742SOL    HW128862   3.744   4.537   9.363  0.8116 -1.6261  0.1248
 5742SOL    HW228863   3.854   4.635   9.356 -1.2244 -0.0065 -0.8351
 5743SOL     OW28864   3.318   1.837   8.281 -0.4723  0.0780  0.3135
 5743SOL    HW128865   3.377   1.832   8.356 -1.1546  1.4619  0.9319
 5743SOL    HW228866   3.385   1.862   8.217 -1.3113  1.3900 -0.0423
 5744SOL     OW28867   1.296   0.568   6.468  0.1701  0.1377  0.3484
 5744SOL    HW128868   1.289   0.579   6.373 -0.8351 -0.0286  0.4064
 5744SOL    HW228869   1.203   0.569   6.491  0.2224 -0.8872  0.6112
 5745SOL     OW28870   2.654   0.331  17.676 -0.9359  0.0941 -0.3284
 5745SOL    HW128871   2.599   0.321   0.016 -0.2965  0.1489  0.1356
 5745SOL    HW228872   2.615   0.404  17.629  0.0684  0.9568  0.1974
 5746SOL     OW28873   4.064   1.455   7.233 -0.6373 -0.1978  0.1770
 5746SOL    HW128874   4.037   1.492   7.318 -1.9133 -0.1976 -0.2312
 5746SOL    HW228875   4.054   1.361   7.249  1.6048 -0.7886 -1.9882
 5747SOL     OW28876   0.535   2.238   4.428 -0.0491 -0.0986  0.3845
 5747SOL    HW128877   0.474   2.164   4.425  1.0500 -1.0152  0.3808
 5747SOL    HW228878   0.620   2.207   4.396  0.3433  0.3650  0.9862
 5748SOL     OW28879   3.062   4.416   8.118  1.3782  0.0864 -0.0226
 5748SOL    HW128880   3.009   4.368   8.054 -1.0730  2.0688  0.5401
 5748SOL    HW228881   3.137   4.357   8.113 -0.1183 -1.8740  0.6019
 5749SOL     OW28882   1.945   3.700   4.454 -0.1614 -0.4421  0.3683
 5749SOL    HW128883   1.896   3.715   4.535 -0.2770  1.7783 -0.1263
 5749SOL    HW228884   2.004   3.630   4.484  0.6722  0.6149  1.1730
 5750SOL     OW28885   4.294   3.406  11.390 -0.1607 -0.6043 -0.1052
 5750SOL    HW128886   4.370   3.447  11.349  0.4307 -0.6462  0.9758
 5750SOL    HW228887   4.266   3.353  11.315 -0.2708 -0.2090 -0.3428
 5751SOL     OW28888   3.051   4.168   2.953 -0.1116  0.0937 -0.8120
 5751SOL    HW128889   3.111   4.097   2.932 -0.0900  0.2701 -1.3445
 5751SOL    HW228890   2.991   4.128   3.016  0.0327 -2.6087 -2.3599
 5752SOL     OW28891   1.492   1.104   3.747 -0.0021 -0.4867  0.3030
 5752SOL    HW128892   1.553   1.040   3.784 -0.5800 -0.9019  0.5357
 5752SOL    HW228893   1.502   1.168   3.817 -3.1613 -0.6546  0.8956
 5753SOL     OW28894   0.774   3.746  13.130 -0.0881 -0.4367 -0.2954
 5753SOL    HW128895   0.834   3.674  13.110 -0.5336 -1.3045  1.4871
 5753SOL    HW228896   0.706   3.741  13.063 -1.5047 -0.3562  1.1219
 5754SOL     OW28897   2.259   2.416   6.589 -0.6138  0.3754 -0.0647
 5754SOL    HW128898   2.313   2.477   6.639 -1.1619  2.0792 -1.5859
 5754SOL    HW228899   2.176   2.454   6.617 -0.0159  1.4934  0.1688
 5755SOL     OW28900   4.437   2.694   4.161 -0.3327  0.4939  1.0782
 5755SOL    HW128901   4.379   2.751   4.110 -2.7372 -3.3861 -0.4748
 5755SOL    HW228902   4.374   2.640   4.208 -0.3955  0.3390  0.8140
 5756SOL     OW28903   4.694   1.079   1.901 -0.1437 -0.4107  0.3281
 5756SOL    HW128904   0.049   1.083   1.934  0.8852  0.6178 -2.5757
 5756SOL    HW228905   4.704   1.009   1.837  0.1144 -1.0630  1.0818
 5757SOL     OW28906   3.294   0.949   2.869 -0.2495  0.0603 -0.0237
 5757SOL    HW128907   3.356   0.915   2.934 -0.5908  0.3195  0.4393
 5757SOL    HW228908   3.220   0.890   2.884  0.2980 -0.2786  1.3704
 5758SOL     OW28909   2.925   4.723  16.987  0.2586 -0.2350 -0.7582
 5758SOL    HW128910   2.950   0.029  17.070  2.4338 -1.4172 -0.8444
 5758SOL    HW228911   3.009   4.732  16.941  1.3919 -1.5759  1.0515
 5759SOL     OW28912   0.353   0.632  16.921 -0.0027  0.1118 -0.0605
 5759SOL    HW128913   0.378   0.615  17.012 -1.8500  1.7700  0.7387
 5759SOL    HW228914   0.348   0.727  16.918  0.1478  0.1716  1.5038
 5760SOL     OW28915   2.966   4.021   1.190  0.3413  0.6454  0.3234
 5760SOL    HW128916   2.929   4.005   1.277  2.4904 -0.6249  1.0073
 5760SOL    HW228917   3.037   4.080   1.213  0.0744  1.5904 -1.2766
 5761SOL     OW28918   0.045   4.344   3.067 -0.2982  0.2018  0.1356
 5761SOL    HW128919   4.730   4.263   3.084  3.4957 -2.3099 -0.9293
 5761SOL    HW228920   0.005   4.402   3.132  1.2374  0.0081  1.2390
 5762SOL     OW28921   1.735   3.230   0.466 -0.7821  0.1432 -0.6759
 5762SOL    HW128922   1.758   3.226   0.373 -1.9379 -0.6839 -0.9134
 5762SOL    HW228923   1.812   3.274   0.504 -0.5274 -2.0069  1.2894
 5763SOL     OW28924   0.935   1.804   3.799 -0.5423 -0.5419 -0.2815
 5763SOL    HW128925   1.008   1.866   3.800 -0.7514 -0.3070  0.9344
 5763SOL    HW228926   0.918   1.803   3.705  0.4075 -3.4706 -0.4291
 5764SOL     OW28927   4.426   3.513   3.624 -0.4437  0.0180 -0.5905
 5764SOL    HW128928   4.341   3.472   3.636  0.1589 -0.3444  2.4645
 5764SOL    HW228929   4.405   3.582   3.561 -0.0568 -0.9439 -1.7656
 5765SOL     OW28930   2.848   1.068   2.266 -0.6993 -0.2595 -0.5912
 5765SOL    HW128931   2.919   1.118   2.225  1.1967 -1.5815  1.1124
 5765SOL    HW228932   2.776   1.126   2.242 -0.7910 -0.7883 -1.6045
 5766SOL     OW28933   0.781   2.358   9.572  0.3819  0.4448  0.0971
 5766SOL    HW128934   0.725   2.315   9.637  0.2074  1.8003  0.8337
 5766SOL    HW228935   0.724   2.431   9.547  0.3056  0.3609  0.0266
 5767SOL     OW28936   2.327   0.080   4.971 -0.2888  0.0218 -0.4352
 5767SOL    HW128937   2.381   0.022   5.025 -0.3635  1.4877  1.1997
 5767SOL    HW228938   2.387   0.143   4.932 -1.4878  2.0995  1.1163
 5768SOL     OW28939   2.255   3.800   8.839  0.5010  0.3667 -0.0344
 5768SOL    HW128940   2.204   3.873   8.874  1.0179  0.5749  0.2934
 5768SOL    HW228941   2.334   3.810   8.892  1.2641 -1.2471 -0.8519
 5769SOL     OW28942   2.856   4.386   4.067  0.4694 -0.1624 -0.0096
 5769SOL    HW128943   2.934   4.429   4.032  0.1915 -1.8404 -2.7234
 5769SOL    HW228944   2.884   4.294   4.067  1.4211  0.1253  0.2035
 5770SOL     OW28945   4.571   4.584  16.039  0.0586  0.4330 -0.0529
 5770SOL    HW128946   4.621   4.654  16.081 -1.8304  0.8810  1.4451
 5770SOL    HW228947   4.483   4.618  16.023  0.5367 -0.0097 -3.5374
 5771SOL     OW28948   0.443   2.364  10.623 -0.6645  0.1291 -0.0860
 5771SOL    HW128949   0.429   2.306  10.548  0.0808  0.5276 -0.5335
 5771SOL    HW228950   0.486   2.445  10.594 -0.9547 -0.0158 -0.9176
 5772SOL     OW28951   0.139   3.997   9.240  0.0081  0.4167  0.2054
 5772SOL    HW128952   0.175   3.919   9.282 -1.0514  0.7053  1.6427
 5772SOL    HW228953   0.071   3.960   9.184 -0.8014  0.1883  1.3304
 5773SOL     OW28954   0.910   3.125  13.377  0.0596 -0.6414  0.0470
 5773SOL    HW128955   0.933   3.211  13.411  2.6183 -2.1598  2.1443
 5773SOL    HW228956   0.893   3.144  13.285  1.6723 -1.3010 -0.3865
 5774SOL     OW28957   0.998   0.267   3.148  0.3131  0.3995  0.5119
 5774SOL    HW128958   0.946   0.302   3.075 -0.7499 -0.0001  1.0792
 5774SOL    HW228959   1.007   0.180   3.109  1.4011 -0.3026  2.3546
 5775SOL     OW28960   0.269   1.448   7.004  0.3008 -0.0561 -0.1463
 5775SOL    HW128961   0.295   1.385   7.071  1.6792  0.9606  0.2614
 5775SOL    HW228962   0.342   1.502   6.975 -0.8147  1.6204  0.1758
 5776SOL     OW28963   3.919   4.604  12.512  0.2375 -0.6811 -0.4063
 5776SOL    HW128964   3.880   4.647  12.588  2.8502 -0.1824  0.6469
 5776SOL    HW228965   4.001   4.653  12.517 -0.5170  0.4950  0.6311
 5777SOL     OW28966   4.559   3.438   9.353  1.0308  0.2779  0.3358
 5777SOL    HW128967   4.564   3.439   9.257 -1.0207 -1.2434  0.1962
 5777SOL    HW228968   4.562   3.522   9.398 -1.6053  0.3516  0.3552
 5778SOL     OW28969   3.196   4.075   7.117 -0.5040 -0.8521 -0.5553
 5778SOL    HW128970   3.291   4.085   7.110 -0.7241  0.4372 -1.5714
 5778SOL    HW228971   3.170   4.026   7.039  0.7058 -1.7409 -0.4108
 5779SOL     OW28972   1.232   2.374   5.340 -0.0384 -0.1262  0.1090
 5779SOL    HW128973   1.165   2.408   5.280  0.2322 -0.1418 -0.1998
 5779SOL    HW228974   1.307   2.370   5.281 -0.6222 -1.0258 -0.5709
 5780SOL     OW28975   0.121   4.047  17.307 -0.3706  0.3384 -0.2365
 5780SOL    HW128976   0.201   4.020  17.354 -1.3069  1.0150  1.7403
 5780SOL    HW228977   0.056   4.079  17.369  0.4412  1.7216 -0.0939
 5781SOL     OW28978   2.170   1.083   6.048  0.3921  1.0022  0.1128
 5781SOL    HW128979   2.259   1.048   6.040 -0.7390 -2.4169  2.9021
 5781SOL    HW228980   2.166   1.134   5.967 -0.1850  0.6813 -0.0603
 5782SOL     OW28981   0.104   2.316   2.274 -0.1428  0.5056 -0.0669
 5782SOL    HW128982   0.029   2.270   2.237  1.5884 -0.3975 -2.4175
 5782SOL    HW228983   0.148   2.244   2.319 -0.9474  1.0104  1.5309
 5783SOL     OW28984   3.036   4.471  17.417 -0.2280  0.0574 -0.3196
 5783SOL    HW128985   3.042   4.503  17.327  1.9894 -0.2359 -0.2735
 5783SOL    HW228986   3.067   4.546  17.468  1.9346 -0.5130 -0.7923
 5784SOL     OW28987   3.102   4.426   0.636 -0.0932 -0.3125  0.0657
 5784SOL    HW128988   3.120   4.332   0.643 -0.9936 -0.5141 -0.3438
 5784SOL    HW228989   3.064   4.427   0.548 -2.1269  1.2513  0.9806
 5785SOL     OW28990   0.391   3.069   4.392  0.2324  0.1477 -0.4351
 5785SOL    HW128991   0.306   3.099   4.362 -0.0946  1.0051  1.2961
 5785SOL    HW228992   0.414   3.141   4.451  0.4248  0.5147 -0.9585
 5786SOL     OW28993   0.089   4.292   5.650  0.0833 -0.6272 -0.2195
 5786SOL    HW128994   0.055   4.374   5.614  0.0106 -0.0636  1.1462
 5786SOL    HW228995   0.181   4.318   5.647 -0.3913  1.0335 -0.4532
 5787SOL     OW28996   1.556   2.211   4.211 -0.0374  0.1847 -0.3311
 5787SOL    HW128997   1.651   2.212   4.204 -0.1569 -0.4887 -2.0493
 5787SOL    HW228998   1.535   2.182   4.300  0.9330  1.4233  0.3043
 5788SOL     OW28999   2.920   2.116   8.792  0.3852 -0.3984  0.4435
 5788SOL    HW129000   2.837   2.068   8.795  0.3494 -0.4672 -1.6945
 5788SOL    HW229001   2.914   2.166   8.711  2.5376 -0.3860  0.2875
 5789SOL     OW29002   4.393   2.615   9.142  0.4505  0.0926  0.3744
 5789SOL    HW129003   4.475   2.621   9.093  0.0305 -0.3519 -0.3855
 5789SOL    HW229004   4.342   2.686   9.103 -0.5918  0.3344  2.1764
 5790SOL     OW29005   0.578   0.301  16.982  0.4405  0.3286  0.6598
 5790SOL    HW129006   0.499   0.313  16.929  1.8435  1.6301 -1.1523
 5790SOL    HW229007   0.577   0.376  17.042  1.6600  1.7729 -1.1514
 5791SOL     OW29008   3.007   3.584  15.098  0.0231  0.4242 -0.1459
 5791SOL    HW129009   2.967   3.504  15.133 -2.3760  2.2766  1.3412
 5791SOL    HW229010   3.031   3.622  15.182  0.5631  1.1730 -0.6396
 5792SOL     OW29011   2.997   2.248  10.584 -0.1122  0.0633  0.3570
 5792SOL    HW129012   3.033   2.229  10.671 -1.6901  1.4145  1.3084
 5792SOL    HW229013   2.948   2.167  10.570  0.7331 -0.7308  1.9207
 5793SOL     OW29014   0.510   4.700   8.024 -0.2931 -0.7712  0.2534
 5793SOL    HW129015   0.458   4.648   8.087  1.5703 -0.5882  1.9519
 5793SOL    HW229016   0.593   4.659   8.050  0.2621 -0.9189 -1.7622
 5794SOL     OW29017   4.139   2.333   1.878 -0.1106 -0.2292 -0.6901
 5794SOL    HW129018   4.186   2.251   1.892  2.5960  1.7664  1.6475
 5794SOL    HW229019   4.076   2.305   1.811  0.0791 -0.5495 -0.7302
 5795SOL     OW29020   4.599   1.865   1.248  0.0085  0.2216 -0.1387
 5795SOL    HW129021   4.524   1.852   1.190  0.7993 -0.0353 -1.1042
 5795SOL    HW229022   4.667   1.822   1.194 -0.8333 -1.2333 -0.0391
 5796SOL     OW29023   1.158   1.343  10.858  0.1460 -0.4016 -0.5167
 5796SOL    HW129024   1.149   1.352  10.763  0.1204  2.3806 -0.2403
 5796SOL    HW229025   1.094   1.277  10.886 -0.1680  0.4669  0.8057
 5797SOL     OW29026   2.751   2.727   7.237 -0.4947 -0.3137  0.3069
 5797SOL    HW129027   2.733   2.633   7.237  0.2311 -0.4566  0.5393
 5797SOL    HW229028   2.691   2.767   7.174  0.0836  0.3690  0.1952
 5798SOL     OW29029   0.863   0.702   6.888  0.2875  0.3390  0.5516
 5798SOL    HW129030   0.819   0.785   6.873 -1.6474 -0.7695  0.1459
 5798SOL    HW229031   0.870   0.711   6.983 -0.0106  0.4109  0.5641
 5799SOL     OW29032   3.342   0.131   7.380  0.2258 -0.3015 -0.2473
 5799SOL    HW129033   3.333   0.200   7.314  1.4959 -1.2990 -1.4494
 5799SOL    HW229034   3.306   0.055   7.336 -1.6170 -1.0432  2.5238
 5800SOL     OW29035   3.310   3.290   4.250  0.4310 -0.4195 -0.6236
 5800SOL    HW129036   3.306   3.301   4.345 -1.8340  1.8016 -0.9944
 5800SOL    HW229037   3.223   3.329   4.243  0.9962  1.2912  1.7066
 5801SOL     OW29038   0.847   3.065   7.416  0.0337 -0.2243  0.2920
 5801SOL    HW129039   0.755   3.091   7.424  0.2947  0.1971  1.7710
 5801SOL    HW229040   0.891   3.149   7.408 -1.8682  0.6214 -1.3503
 5802SOL     OW29041   3.771   1.415   9.114 -0.0333 -0.3044  0.5337
 5802SOL    HW129042   3.702   1.381   9.170  1.4143  1.5168  3.4417
 5802SOL    HW229043   3.738   1.388   9.028 -3.4511  2.4478  0.9826
 5803SOL     OW29044   1.861   2.190   9.130 -0.3683  0.1251 -0.0250
 5803SOL    HW129045   1.808   2.215   9.054 -1.5460 -2.4991 -0.0293
 5803SOL    HW229046   1.896   2.112   9.088  0.7123  0.4234  0.3182
 5804SOL     OW29047   4.500   3.327  13.130 -0.1395  0.0404 -0.0274
 5804SOL    HW129048   4.444   3.404  13.139 -0.9525 -0.9658  3.7191
 5804SOL    HW229049   4.463   3.252  13.177 -0.4234  0.7394  0.8646
 5805SOL     OW29050   1.181   1.242  10.328 -0.0179 -0.5444  0.3243
 5805SOL    HW129051   1.121   1.312  10.303 -1.2785 -1.1900  1.5573
 5805SOL    HW229052   1.223   1.229  10.243  0.1805 -0.2323  0.3717
 5806SOL     OW29053   2.376   4.624  12.802 -0.3947 -0.5954 -0.3083
 5806SOL    HW129054   2.310   4.694  12.798  0.8099  0.6622  1.5511
 5806SOL    HW229055   2.325   4.561  12.853 -0.4163 -1.1485 -1.0178
 5807SOL     OW29056   2.834   3.706   2.062  0.3591 -0.4701 -0.0235
 5807SOL    HW129057   2.898   3.677   1.997 -1.0488  2.0579 -2.5195
 5807SOL    HW229058   2.758   3.695   2.004  0.7397  1.8927 -0.9671
 5808SOL     OW29059   2.304   4.545   6.212 -0.3320 -0.0815 -0.1798
 5808SOL    HW129060   2.259   4.567   6.131  0.0298  1.0710 -0.0688
 5808SOL    HW229061   2.398   4.561   6.196 -0.6771 -1.7103 -3.8941
 5809SOL     OW29062   2.423   0.099  13.180 -0.0627  0.2649 -0.4641
 5809SOL    HW129063   2.389   0.016  13.148 -1.5486  1.2846 -1.4787
 5809SOL    HW229064   2.507   0.103  13.135  0.2016  0.7444  0.0715
 5810SOL     OW29065   3.991   0.462  13.376 -0.5697 -0.4773 -0.0568
 5810SOL    HW129066   3.932   0.528  13.413 -0.0955  0.0930 -0.3048
 5810SOL    HW229067   4.062   0.447  13.439  1.6353 -0.6505 -2.5862
 5811SOL     OW29068   3.693   1.769   3.745  0.5786  0.9085 -0.2461
 5811SOL    HW129069   3.763   1.751   3.681  1.7376 -0.0026  1.2796
 5811SOL    HW229070   3.619   1.798   3.691  0.7199 -0.2480 -1.0729
 5812SOL     OW29071   4.164   4.385   2.869 -0.0854  0.3450  0.2604
 5812SOL    HW129072   4.166   4.481   2.861 -0.0854  0.2011 -1.5882
 5812SOL    HW229073   4.144   4.349   2.783 -2.9829  0.3889  0.9126
 5813SOL     OW29074   3.500   4.693   8.590  0.0196 -0.5391  0.6002
 5813SOL    HW129075   3.487   0.013   8.667  1.0166  1.8326 -0.9099
 5813SOL    HW229076   3.419   4.722   8.548  0.3347  1.3078  1.2453
 5814SOL     OW29077   3.807   3.108   3.147  0.2274  0.1846  0.8552
 5814SOL    HW129078   3.892   3.068   3.128 -0.1294 -0.1593 -0.0327
 5814SOL    HW229079   3.775   3.115   3.057 -1.2775  1.1394  1.4626
 5815SOL     OW29080   3.491   0.397   5.243  0.2724  0.0205  0.8243
 5815SOL    HW129081   3.561   0.431   5.298 -0.3731 -1.8307  2.8008
 5815SOL    HW229082   3.439   0.477   5.239 -0.6055 -0.6517 -1.4529
 5816SOL     OW29083   2.582   2.041  16.045 -0.6856  0.2198 -0.4101
 5816SOL    HW129084   2.640   2.066  15.973  0.1886 -0.3168  0.1209
 5816SOL    HW229085   2.630   2.028  16.127 -1.6582 -2.8086 -0.3353
 5817SOL     OW29086   2.922   2.870   2.513  0.2322 -0.1038  0.3337
 5817SOL    HW129087   2.924   2.965   2.499  0.3434 -0.1006  0.3705
 5817SOL    HW229088   2.837   2.847   2.476  1.2787 -0.9521 -1.5069
 5818SOL     OW29089   1.736   3.709   1.927 -0.2606 -0.2412 -0.0917
 5818SOL    HW129090   1.723   3.614   1.922 -0.7072 -0.2674  1.4613
 5818SOL    HW229091   1.730   3.729   1.834 -2.3266  1.9150  0.5022
 5819SOL     OW29092   2.655   2.289   3.350 -0.0253  0.6304  0.4024
 5819SOL    HW129093   2.697   2.364   3.308  0.1979 -0.5704 -1.5330
 5819SOL    HW229094   2.575   2.330   3.384  0.0845 -0.8936  2.5279
 5820SOL     OW29095   1.257   3.619   7.363 -0.6251 -0.0228 -0.0197
 5820SOL    HW129096   1.340   3.571   7.364  0.2025  1.4064  0.3093
 5820SOL    HW229097   1.196   3.574   7.422  0.3249  0.5375  1.3986
 5821SOL     OW29098   4.189   3.884   0.413 -0.1265 -0.4370 -0.0659
 5821SOL    HW129099   4.100   3.919   0.406 -0.2811 -0.7560  0.3330
 5821SOL    HW229100   4.231   3.951   0.467  0.1125  0.9794 -2.0073
 5822SOL     OW29101   0.330   0.133   5.017  0.2502  0.3453  0.0260
 5822SOL    HW129102   0.365   0.193   5.083  0.1310 -0.6865  1.0181
 5822SOL    HW229103   0.404   0.073   5.018  0.1002  0.1510 -0.6970
 5823SOL     OW29104   1.675   3.927   4.716 -0.1203 -0.1684 -0.3770
 5823SOL    HW129105   1.725   3.991   4.766 -1.7902  0.3789  0.5829
 5823SOL    HW229106   1.596   3.925   4.771  0.2609 -0.0769  0.1786
 5824SOL     OW29107   1.606   0.992  11.720 -0.2982 -0.3716  0.4852
 5824SOL    HW129108   1.623   0.984  11.626 -1.5922  1.2378  0.1288
 5824SOL    HW229109   1.699   1.002  11.742 -0.5674  1.1856  0.9145
 5825SOL     OW29110   0.991   0.343  10.679 -0.1462  0.4926 -0.3024
 5825SOL    HW129111   0.990   0.412  10.613 -1.1994  0.3427 -0.4387
 5825SOL    HW229112   1.028   0.385  10.757 -0.4546 -0.5311  0.3942
 5826SOL     OW29113   2.252   2.859   7.067 -0.2439 -0.0273  0.1076
 5826SOL    HW129114   2.219   2.904   7.145  1.0976  1.6836 -0.3295
 5826SOL    HW229115   2.185   2.793   7.050 -1.8846  0.4178  4.7703
 5827SOL     OW29116   2.629   2.358   1.997  0.0947 -0.0666  0.0140
 5827SOL    HW129117   2.535   2.340   1.993  0.3025 -0.3569 -3.5309
 5827SOL    HW229118   2.645   2.437   1.946 -1.0006 -1.7240 -2.8813
 5828SOL     OW29119   4.729   1.487   5.150 -0.2320 -0.1860  0.0615
 5828SOL    HW129120   0.074   1.526   5.114 -0.1641  0.6430  1.1191
 5828SOL    HW229121   0.005   1.393   5.136  0.4314 -0.2444  0.9345
 5829SOL     OW29122   2.510   0.362  11.962 -0.4842  0.1339  0.1059
 5829SOL    HW129123   2.586   0.309  11.939 -0.0006 -0.6042  3.3345
 5829SOL    HW229124   2.523   0.358  12.057 -0.2559  0.4077  0.0859
 5830SOL     OW29125   3.132   2.090   6.848 -0.1776 -0.0659  0.3570
 5830SOL    HW129126   3.162   2.156   6.911  1.0199  0.7154 -1.0472
 5830SOL    HW229127   3.105   2.028   6.917 -2.6950  1.0427  0.3624
 5831SOL     OW29128   4.656   2.794   6.687 -0.2807  0.1154  0.6713
 5831SOL    HW129129   4.678   2.781   6.779 -0.8963 -1.3526  0.6132
 5831SOL    HW229130   4.657   2.706   6.649  2.5670  1.2317 -1.8160
 5832SOL     OW29131   4.547   0.389   1.906 -0.3601 -0.6680  0.6321
 5832SOL    HW129132   4.476   0.355   1.851  0.9891 -1.4359 -0.6035
 5832SOL    HW229133   4.628   0.350   1.876  0.2294  0.3896  0.8461
 5833SOL     OW29134   0.644   2.714   3.960 -0.3468 -0.1317 -0.3847
 5833SOL    HW129135   0.582   2.744   4.027 -0.4727  0.8281 -0.9409
 5833SOL    HW229136   0.699   2.791   3.969 -0.5020 -0.1617  0.9040
 5834SOL     OW29137   4.133   2.245   3.233 -0.3179  0.3156 -0.3202
 5834SOL    HW129138   4.135   2.319   3.293  1.0896  0.8946 -1.0914
 5834SOL    HW229139   4.072   2.187   3.278 -0.0804  0.8520  0.6778
 5835SOL     OW29140   1.562   3.210   2.171  0.1262 -0.2740 -0.2569
 5835SOL    HW129141   1.574   3.120   2.200 -1.4552  0.6287  3.2345
 5835SOL    HW229142   1.467   3.224   2.173  0.5394  2.7652 -1.6570
 5836SOL     OW29143   1.290   3.916   4.406 -0.4393  0.3899  0.4780
 5836SOL    HW129144   1.371   3.892   4.451 -0.0503  1.8015  0.5276
 5836SOL    HW229145   1.231   3.931   4.479 -0.9845 -0.9941  0.3103
 5837SOL     OW29146   0.178   0.467   6.088  0.0781  0.3230 -0.0377
 5837SOL    HW129147   0.166   0.439   5.997 -0.0954  1.1135 -0.2644
 5837SOL    HW229148   0.250   0.409   6.114 -2.2364 -1.8360  1.4728
 5838SOL     OW29149   3.011   4.342   3.301  0.3283 -0.2342 -0.6534
 5838SOL    HW129150   3.040   4.390   3.223  1.6343 -0.3483 -0.2308
 5838SOL    HW229151   3.079   4.278   3.321  0.0189 -0.7939 -1.3831
 5839SOL     OW29152   4.414   3.466   1.790 -0.6353 -0.2918 -0.7302
 5839SOL    HW129153   4.495   3.515   1.806 -1.2592  0.8706 -1.1409
 5839SOL    HW229154   4.349   3.516   1.839  0.5549  0.7620 -0.2146
 5840SOL     OW29155   0.703   2.915  12.765 -0.1060 -0.3587  0.5047
 5840SOL    HW129156   0.665   2.895  12.851 -0.4791  3.0664  1.1094
 5840SOL    HW229157   0.636   2.967  12.720  1.3438  1.8601  0.9403
 5841SOL     OW29158   1.511   4.591   4.907 -0.6229  0.0832  0.4318
 5841SOL    HW129159   1.569   4.549   4.842 -2.4721 -1.2068 -0.3856
 5841SOL    HW229160   1.486   4.664   4.851 -0.3856 -1.3165 -1.5108
 5842SOL     OW29161   4.067   0.710   8.738  0.1594  0.6247 -0.1028
 5842SOL    HW129162   4.056   0.726   8.832 -0.8529 -1.4927  0.1405
 5842SOL    HW229163   3.994   0.757   8.697  0.5004  1.9515  0.8025
 5843SOL     OW29164   0.693   2.370   8.578  0.1338  0.2497 -0.2032
 5843SOL    HW129165   0.764   2.418   8.621 -0.6126  0.7607  0.4721
 5843SOL    HW229166   0.635   2.445   8.562 -1.3643 -0.4629  1.8932
 5844SOL     OW29167   1.177   0.757   0.243 -0.6923 -0.6378 -0.1928
 5844SOL    HW129168   1.262   0.712   0.238 -0.5227 -0.3679  0.2366
 5844SOL    HW229169   1.205   0.844   0.215 -1.0333  0.0162  1.4889
 5845SOL     OW29170   2.734   1.921   6.610  0.1102  0.9140  0.3433
 5845SOL    HW129171   2.754   1.828   6.624 -2.3742  0.4085  0.4016
 5845SOL    HW229172   2.756   1.964   6.693  0.2700 -0.7690  1.1815
 5846SOL     OW29173   2.820   3.749   7.206  0.3996  0.0987 -0.1996
 5846SOL    HW129174   2.777   3.834   7.199  1.3012  0.6715  1.2958
 5846SOL    HW229175   2.865   3.759   7.122 -2.4717  0.4330 -1.6986
 5847SOL     OW29176   0.458   1.895   2.290 -0.4249  0.2033  0.2392
 5847SOL    HW129177   0.454   1.989   2.275 -2.2185  0.0047 -0.5952
 5847SOL    HW229178   0.458   1.879   2.385 -0.2931 -1.0186  0.0406
 5848SOL     OW29179   1.556   2.322   7.887  0.5291 -0.3063  0.2489
 5848SOL    HW129180   1.589   2.369   7.811 -0.7488 -0.3029 -0.2994
 5848SOL    HW229181   1.609   2.243   7.877  1.5315  0.1857  1.5790
 5849SOL     OW29182   4.621   3.318   4.041 -0.1196  0.1403 -0.2784
 5849SOL    HW129183   4.650   3.234   4.078  0.3504  0.2858 -0.3091
 5849SOL    HW229184   4.589   3.363   4.119  0.9335 -2.4724  1.7015
 5850SOL     OW29185   1.696   2.987   7.147 -0.5315  0.6585 -0.1711
 5850SOL    HW129186   1.656   2.909   7.185  1.0482  0.2002  0.5409
 5850SOL    HW229187   1.768   2.937   7.108  0.2356  0.3078  1.7023
 5851SOL     OW29188   3.693   3.282   3.331  0.4184 -0.3135  0.3653
 5851SOL    HW129189   3.730   3.228   3.260 -1.0247 -0.8531  0.0089
 5851SOL    HW229190   3.718   3.226   3.404 -0.0316  0.6659  1.2587
 5852SOL     OW29191   4.385   2.746   6.282  0.3389  0.1225 -0.5712
 5852SOL    HW129192   4.360   2.784   6.367 -1.8494  0.7998 -1.5122
 5852SOL    HW229193   4.466   2.702   6.307 -0.3766 -0.6799  0.3362
 5853SOL     OW29194   0.963   2.149   2.873 -0.2581 -0.1325 -0.1620
 5853SOL    HW129195   0.974   2.162   2.779  1.0037 -1.2474 -0.1776
 5853SOL    HW229196   1.040   2.187   2.917  0.6400 -1.5110 -0.5444
 5854SOL     OW29197   0.457   0.592   7.330  0.4129 -0.0833 -0.6052
 5854SOL    HW129198   0.541   0.637   7.321  0.8858 -0.9626 -0.6029
 5854SOL    HW229199   0.478   0.531   7.401  2.8227  2.1377  0.5884
 5855SOL     OW29200   1.026   0.002   8.962  0.6319 -0.0754  0.2370
 5855SOL    HW129201   1.062   4.679   8.893 -3.0219  0.5340 -2.1464
 5855SOL    HW229202   1.038   0.089   8.923  0.3741 -0.0660  0.1786
 5856SOL     OW29203   1.258   2.792   4.384  0.0279  0.0178 -0.3619
 5856SOL    HW129204   1.325   2.812   4.318 -0.2513 -0.4418 -0.7884
 5856SOL    HW229205   1.185   2.853   4.370 -1.9219 -2.5069 -1.1784
 5857SOL     OW29206   4.205   2.763   5.165  0.1593  0.9010  0.1171
 5857SOL    HW129207   4.187   2.748   5.072  0.0240  0.0291  0.2784
 5857SOL    HW229208   4.212   2.857   5.178 -2.1190  1.1679 -0.7358
 5858SOL     OW29209   3.070   3.328  15.243 -0.5611  0.0988  0.5319
 5858SOL    HW129210   2.981   3.294  15.230  0.4487 -1.6590 -1.9516
 5858SOL    HW229211   3.084   3.296  15.332 -1.1800  1.1077  0.9887
 5859SOL     OW29212   4.610   1.535   8.152 -0.0877  0.1751 -0.5373
 5859SOL    HW129213   4.563   1.574   8.226 -0.3872 -2.2739  0.5477
 5859SOL    HW229214   4.667   1.605   8.120 -1.7465  0.7916 -2.1118
 5860SOL     OW29215   1.477   1.747  16.740 -0.0628  0.0051  0.1282
 5860SOL    HW129216   1.529   1.667  16.754  2.0861  1.2996 -0.3561
 5860SOL    HW229217   1.455   1.749  16.647  0.9411  1.5760 -0.0758
 5861SOL     OW29218   1.981   1.024   7.298  0.1834 -0.2473 -0.0109
 5861SOL    HW129219   1.938   1.081   7.234  3.2421  0.5031 -1.4197
 5861SOL    HW229220   1.938   1.044   7.381 -2.4353  2.0333 -1.9047
 5862SOL     OW29221   1.052   0.888   1.603  0.1965 -0.0250  0.1544
 5862SOL    HW129222   1.075   0.852   1.517  1.3113  3.0002 -0.8327
 5862SOL    HW229223   1.059   0.807   1.653 -0.4509 -0.3502 -0.2755
 5863SOL     OW29224   2.957   4.127   7.217  0.0338 -0.2285  0.2036
 5863SOL    HW129225   2.952   4.152   7.309 -3.4459  2.1529 -0.6503
 5863SOL    HW229226   3.049   4.130   7.189  0.0728 -0.1379  0.3426
 5864SOL     OW29227   4.334   4.098  13.658  0.1408  0.3891 -0.5282
 5864SOL    HW129228   4.392   4.167  13.690 -1.6017  1.6572 -0.1610
 5864SOL    HW229229   4.262   4.158  13.637  0.5247  0.8067 -0.6502
 5865SOL     OW29230   0.297   3.011  15.170 -0.2062  0.5716  0.4784
 5865SOL    HW129231   0.290   3.066  15.092 -0.4173  1.0845  0.8597
 5865SOL    HW229232   0.281   2.925  15.129  0.4476  0.5985  0.1631
 5866SOL     OW29233   1.315   3.181  16.609 -0.5283  0.4313  0.2861
 5866SOL    HW129234   1.324   3.100  16.660 -0.2191 -0.8695 -1.8515
 5866SOL    HW229235   1.269   3.233  16.675 -3.0080 -1.2080 -0.1896
 5867SOL     OW29236   1.007   2.563   5.820 -0.6946  0.1506 -0.0932
 5867SOL    HW129237   0.967   2.539   5.736  2.2931  1.0345 -1.7633
 5867SOL    HW229238   0.941   2.517   5.873 -0.6978  2.0068  1.5386
 5868SOL     OW29239   3.504   4.499   4.781 -0.1247  0.0187  0.9403
 5868SOL    HW129240   3.471   4.425   4.832 -1.4180  0.9144  1.4167
 5868SOL    HW229241   3.535   4.453   4.703 -1.4568  0.9801 -0.1494
 5869SOL     OW29242   0.272   2.613   3.947  0.0976  0.3454  0.0858
 5869SOL    HW129243   0.196   2.597   4.003  1.1422  0.8307  1.6148
 5869SOL    HW229244   0.242   2.547   3.884 -1.7980  0.1858  1.1612
 5870SOL     OW29245   1.139   0.169   9.786 -0.0381 -0.2353 -0.2833
 5870SOL    HW129246   1.183   0.241   9.831 -1.4753  0.6739 -0.3109
 5870SOL    HW229247   1.092   0.119   9.854  1.5097  0.1958  1.1047
 5871SOL     OW29248   3.610   4.719   5.473 -0.2306  0.0527  0.2586
 5871SOL    HW129249   3.582   4.652   5.536  0.9620 -0.0690  0.6574
 5871SOL    HW229250   3.531   0.039   5.473  0.5354  1.1467  0.4593
 5872SOL     OW29251   0.749   4.410  12.534 -0.0127  0.3819 -0.3653
 5872SOL    HW129252   0.753   4.480  12.469 -0.3465 -0.9244 -1.7853
 5872SOL    HW229253   0.789   4.447  12.613  1.7355 -0.8597 -0.6679
 5873SOL     OW29254   0.956   1.437  15.293 -0.3254 -0.0860  0.0643
 5873SOL    HW129255   0.916   1.380  15.229  0.7981  0.9247 -1.5395
 5873SOL    HW229256   0.970   1.510  15.233 -0.3041  1.6938  2.2201
 5874SOL     OW29257   0.804   3.605   2.711 -0.3182 -0.1624  0.0627
 5874SOL    HW129258   0.713   3.621   2.686  0.8428  2.8124 -2.2622
 5874SOL    HW229259   0.825   3.517   2.682 -1.1126 -0.4634  0.3945
 5875SOL     OW29260   4.484   3.340   4.644 -0.2617 -0.1668 -0.2795
 5875SOL    HW129261   4.457   3.295   4.724 -0.8375  1.3295  0.3614
 5875SOL    HW229262   4.539   3.410   4.679 -0.4229  0.2584 -0.8684
 5876SOL     OW29263   3.132   1.805   7.952  0.5660  0.7670  0.4726
 5876SOL    HW129264   3.075   1.867   7.906 -0.5536  0.4623  1.4428
 5876SOL    HW229265   3.078   1.788   8.029  0.5501  0.1713  0.3343
 5877SOL     OW29266   3.812   3.784  14.842 -0.1754  0.2044 -0.0604
 5877SOL    HW129267   3.739   3.722  14.851  0.7416 -0.7929  0.5013
 5877SOL    HW229268   3.790   3.849  14.909 -1.0564 -0.6902  0.5328
 5878SOL     OW29269   0.560   3.052  10.886  0.2464  0.1117 -0.3540
 5878SOL    HW129270   0.508   2.991  10.833  0.2097 -1.1754  1.1891
 5878SOL    HW229271   0.642   3.005  10.901  0.0634  0.6019  2.1477
 5879SOL     OW29272   0.355   3.416  12.332 -0.4872 -0.0805  0.3064
 5879SOL    HW129273   0.354   3.425  12.427  0.4632 -2.5202  0.5375
 5879SOL    HW229274   0.263   3.388  12.324 -0.1526 -1.0369 -0.2450
 5880SOL     OW29275   0.235   3.672   1.718  0.1738  0.5454  0.1469
 5880SOL    HW129276   0.232   3.747   1.778  2.1347  1.2958 -0.7095
 5880SOL    HW229277   0.188   3.705   1.641  0.1236 -0.7841 -0.3771
 5881SOL     OW29278   1.209   4.467  10.846  0.0108 -0.5669  0.0547
 5881SOL    HW129279   1.272   4.482  10.916  0.3930 -0.6587 -0.2714
 5881SOL    HW229280   1.244   4.524  10.778 -1.1608  0.0366 -0.0466
 5882SOL     OW29281   2.494   3.054   1.387 -0.3905  0.0335 -0.3840
 5882SOL    HW129282   2.517   2.998   1.461  0.2108 -0.9024 -1.2812
 5882SOL    HW229283   2.410   3.016   1.361 -1.7013  0.3327  3.4087
 5883SOL     OW29284   0.012   1.844   2.791  0.2788  0.0115  0.2482
 5883SOL    HW129285   0.106   1.826   2.787  0.5861  1.7980 -0.3206
 5883SOL    HW229286   4.725   1.796   2.871 -3.0058 -2.0748 -1.8484
 5884SOL     OW29287   4.547   0.629   5.021 -0.7542 -0.6861 -0.2937
 5884SOL    HW129288   4.624   0.657   5.071 -0.8411 -2.6734  0.9626
 5884SOL    HW229289   4.590   0.577   4.954 -0.1502  0.1240 -0.5173
 5885SOL     OW29290   3.862   1.232   4.224 -0.1782 -1.0270 -0.0871
 5885SOL    HW129291   3.931   1.227   4.159 -0.8467 -2.1536 -0.7044
 5885SOL    HW229292   3.814   1.151   4.210 -1.4133 -0.2151 -0.5661
 5886SOL     OW29293   0.545   2.328  15.742  0.4697 -0.0932  0.1024
 5886SOL    HW129294   0.543   2.285  15.828  4.2424  3.0892  1.8179
 5886SOL    HW229295   0.622   2.287  15.701 -0.2962 -1.5678  0.1317
 5887SOL     OW29296   1.184   1.804   8.801 -0.4014 -0.0306  0.0570
 5887SOL    HW129297   1.274   1.790   8.771 -0.8683 -0.9706 -0.9591
 5887SOL    HW229298   1.124   1.740   8.761  1.5581 -0.0736 -2.8209
 5888SOL     OW29299   4.416   3.168  11.586  0.4209 -0.1106  0.1064
 5888SOL    HW129300   4.467   3.110  11.530 -0.0311 -0.1222 -0.2912
 5888SOL    HW229301   4.389   3.238  11.527  2.4629  1.6505  1.2605
 5889SOL     OW29302   3.240   2.851   3.278 -0.3097 -0.1919  0.9547
 5889SOL    HW129303   3.261   2.820   3.190  0.9880  0.5405  1.0123
 5889SOL    HW229304   3.317   2.901   3.303  0.6959 -0.1466 -2.2617
 5890SOL     OW29305   4.619   2.757   2.356 -0.1710 -0.1970 -0.2980
 5890SOL    HW129306   4.578   2.688   2.408 -0.6249 -0.7745 -1.4098
 5890SOL    HW229307   4.707   2.723   2.365  0.2202  0.4898 -1.5236
 5891SOL     OW29308   0.964   4.026   6.878  0.3007 -0.5219  0.5520
 5891SOL    HW129309   1.008   4.011   6.961  1.2064 -0.0513  0.1574
 5891SOL    HW229310   0.901   3.953   6.880  0.4252 -0.5414  3.3257
 5892SOL     OW29311   0.996   4.091   8.659  0.6303 -0.5151 -0.0686
 5892SOL    HW129312   0.942   4.048   8.725 -1.4724  1.0467 -0.7896
 5892SOL    HW229313   0.930   4.126   8.599  3.4034  0.4635 -2.5679
 5893SOL     OW29314   0.489   2.079   5.836  0.2678  0.2550 -0.4494
 5893SOL    HW129315   0.440   2.045   5.761 -1.8796  0.1310  0.9960
 5893SOL    HW229316   0.425   2.065   5.906 -0.4303 -1.1448 -1.3817
 5894SOL     OW29317   3.753   3.271   4.227 -0.0755  0.1936 -0.2114
 5894SOL    HW129318   3.684   3.234   4.282 -1.5653 -1.8436 -3.4850
 5894SOL    HW229319   3.709   3.304   4.149 -1.8009 -2.0043 -0.1549
 5895SOL     OW29320   3.018   2.391  10.340  0.1048 -0.1358 -0.1462
 5895SOL    HW129321   2.956   2.460  10.362 -0.0392 -0.0975 -0.6687
 5895SOL    HW229322   2.994   2.317  10.396  1.4483 -0.2796  0.2587
 5896SOL     OW29323   2.428   2.119   8.491  0.0136 -0.0350 -0.3638
 5896SOL    HW129324   2.352   2.172   8.466  1.2207  1.0097 -1.8030
 5896SOL    HW229325   2.451   2.093   8.402  0.1050 -0.4796 -0.2096
 5897SOL     OW29326   2.026   2.939   7.259 -0.1560  0.3756 -0.4106
 5897SOL    HW129327   1.983   3.007   7.311  2.2026  0.9752  0.7409
 5897SOL    HW229328   1.965   2.939   7.185 -1.4000 -0.3712  0.6086
 5898SOL     OW29329   1.658   2.829  13.162  0.2446  0.1732 -0.2580
 5898SOL    HW129330   1.728   2.892  13.177  0.2161  0.2506 -0.4483
 5898SOL    HW229331   1.716   2.763  13.122 -1.0302 -1.2855  0.3023
 5899SOL     OW29332   2.027   1.847   9.529 -0.3045  0.7293  0.4747
 5899SOL    HW129333   1.996   1.862   9.439 -0.0243 -1.0483  0.0688
 5899SOL    HW229334   2.053   1.936   9.553  0.8481  0.4060  0.4195
 5900SOL     OW29335   4.547   4.272   4.030  0.5877 -0.1050 -0.2866
 5900SOL    HW129336   4.599   4.192   4.037  2.1853  1.0778  1.2114
 5900SOL    HW229337   4.486   4.275   4.104  1.0508  3.2833 -0.0742
 5901SOL     OW29338   3.974   3.559  14.103  0.2847  0.1159 -0.2296
 5901SOL    HW129339   3.930   3.509  14.171 -0.4657 -1.1036 -1.6239
 5901SOL    HW229340   3.988   3.650  14.130  0.4433  0.1815 -0.5344
 5902SOL     OW29341   4.371   3.477   3.118  0.0432  0.2655  0.4858
 5902SOL    HW129342   4.291   3.437   3.151 -0.9008  1.1415 -0.7564
 5902SOL    HW229343   4.347   3.569   3.126 -0.3674  0.2049 -0.0502
 5903SOL     OW29344   1.490   4.680  10.519 -0.6443  0.2241 -0.1611
 5903SOL    HW129345   1.545   4.644  10.450  0.9728  0.4159  1.0198
 5903SOL    HW229346   1.427   4.706  10.452 -0.1636  0.0608 -0.6727
 5904SOL     OW29347   2.082   4.458   3.727  0.2578  0.2311 -0.0893
 5904SOL    HW129348   2.031   4.522   3.777  1.5258 -0.0357  1.5373
 5904SOL    HW229349   2.170   4.488   3.750  0.9773 -2.2235  0.3374
 5905SOL     OW29350   2.978   2.106   2.029 -0.9053 -0.1388  0.4348
 5905SOL    HW129351   3.056   2.123   2.082 -1.3178  1.3428  0.5663
 5905SOL    HW229352   2.987   2.011   2.019 -1.5948 -0.1749  0.1963
 5906SOL     OW29353   1.042   3.007   4.376  0.0336 -0.8102  0.0848
 5906SOL    HW129354   0.953   3.011   4.341  0.0605 -0.5755  0.0442
 5906SOL    HW229355   1.086   3.073   4.323  2.3355 -1.4176  1.2587
 5907SOL     OW29356   3.395   0.742   7.227  0.3027 -0.2715 -0.6774
 5907SOL    HW129357   3.322   0.764   7.285  0.4554  0.3925 -0.7330
 5907SOL    HW229358   3.387   0.800   7.151  0.6295  1.4572  0.6259
 5908SOL     OW29359   0.229   3.143   6.991  0.0331 -0.5054  0.5711
 5908SOL    HW129360   0.261   3.222   6.947 -3.2318  0.6902  0.2963
 5908SOL    HW229361   0.208   3.089   6.914  0.3881  0.3828 -0.1462
 5909SOL     OW29362   4.105   1.624   2.238 -0.4980 -0.0347 -0.4624
 5909SOL    HW129363   4.038   1.664   2.182 -0.7107  0.8962  0.4563
 5909SOL    HW229364   4.053   1.558   2.283 -0.4032  0.7908  0.8406
 5910SOL     OW29365   2.281   1.769   9.390 -0.0373 -0.3343 -0.2913
 5910SOL    HW129366   2.208   1.746   9.447 -0.1792  1.1172  0.0985
 5910SOL    HW229367   2.320   1.683   9.375 -0.3169 -0.5652  0.3358
 5911SOL     OW29368   1.789   2.716   2.840 -0.1622  0.1464 -0.3860
 5911SOL    HW129369   1.767   2.689   2.929  1.2495  2.0425  0.5382
 5911SOL    HW229370   1.746   2.645   2.792 -1.6645  1.5733 -1.1663
 5912SOL     OW29371   1.534   3.963   3.283 -0.3433 -0.0977 -0.5413
 5912SOL    HW129372   1.555   4.003   3.199 -2.5181  1.2767 -0.4243
 5912SOL    HW229373   1.441   3.984   3.287 -0.4782 -0.6535 -0.8197
 5913SOL     OW29374   0.205   3.232  15.612 -0.2936 -0.1356 -0.3417
 5913SOL    HW129375   0.217   3.202  15.522  0.4760  1.1134 -0.6513
 5913SOL    HW229376   0.110   3.231  15.629 -0.4382 -0.8303 -1.1811
 5914SOL     OW29377   4.397   4.697  17.048  0.1095 -0.1160 -0.2616
 5914SOL    HW129378   4.440   4.627  16.997 -0.7794 -0.4222 -0.5969
 5914SOL    HW229379   4.311   4.657  17.060  0.7336 -1.4806 -0.2466
 5915SOL     OW29380   3.690   0.930   9.216 -0.1036  0.0498 -0.0299
 5915SOL    HW129381   3.685   1.004   9.155 -0.8845 -0.8563 -1.0437
 5915SOL    HW229382   3.776   0.945   9.255 -0.1275 -0.6914  0.2963
 5916SOL     OW29383   0.224   1.648   9.273  0.0229 -0.1979 -0.2691
 5916SOL    HW129384   0.196   1.650   9.181  0.9169 -0.0306 -0.5391
 5916SOL    HW229385   0.319   1.652   9.264  0.1593  1.4122  1.8571
 5917SOL     OW29386   0.298   1.161  11.786 -0.3093 -0.0659 -0.1530
 5917SOL    HW129387   0.312   1.076  11.828  0.2956  0.1602  0.0908
 5917SOL    HW229388   0.326   1.235  11.840 -2.3628  1.6888 -1.4873
 5918SOL     OW29389   4.572   0.007   2.746 -0.2024  0.4559  0.3353
 5918SOL    HW129390   4.519   0.022   2.824  1.5565 -0.1371  1.6572
 5918SOL    HW229391   4.562   0.084   2.691 -1.4850 -1.6361 -2.4125
 5919SOL     OW29392   1.099   3.712  17.279 -0.2691  0.4296  0.2432
 5919SOL    HW129393   1.058   3.709  17.193  0.4600  0.5254 -0.1026
 5919SOL    HW229394   1.029   3.762  17.322 -1.8463 -0.4358 -1.3345
 5920SOL     OW29395   3.026   4.625  13.701 -0.1278 -0.6717  0.0831
 5920SOL    HW129396   3.052   4.641  13.792  1.7713  0.2144 -0.6270
 5920SOL    HW229397   3.081   4.694  13.663  1.1341 -0.2613  2.6693
 5921SOL     OW29398   3.662   4.439   8.816 -0.5698 -0.1189  0.1211
 5921SOL    HW129399   3.594   4.385   8.857 -1.1810 -0.4165 -1.3069
 5921SOL    HW229400   3.746   4.405   8.847 -0.0532 -0.5262 -1.7144
 5922SOL     OW29401   4.647   0.041   7.279  0.4590 -0.3934  0.1230
 5922SOL    HW129402   4.717   4.714   7.302  0.6415 -0.6414 -1.1095
 5922SOL    HW229403   4.573   4.715   7.281  1.6163 -1.9175 -3.1750
 5923SOL     OW29404   4.724   3.272  14.025  0.9178 -0.4777  0.3260
 5923SOL    HW129405   4.716   3.192  13.972 -3.3281 -1.0532  1.8993
 5923SOL    HW229406   4.668   3.258  14.100  1.4008 -1.2366  0.5463
 5924SOL     OW29407   1.278   2.528  16.674 -0.2084 -0.0280  0.5670
 5924SOL    HW129408   1.276   2.612  16.629  0.1444  0.4166  1.3827
 5924SOL    HW229409   1.189   2.493  16.675 -0.5591  0.8538 -0.3902
 5925SOL     OW29410   1.687   4.084   3.502  0.2441 -0.0999  0.0957
 5925SOL    HW129411   1.703   4.171   3.466 -1.5851 -0.4488 -1.5405
 5925SOL    HW229412   1.623   4.048   3.441 -2.0267  0.9774  1.8292
 5926SOL     OW29413   0.964   0.983  11.436  0.2143 -0.3387 -0.1988
 5926SOL    HW129414   0.889   0.939  11.394  1.7671 -1.4184 -1.8411
 5926SOL    HW229415   1.032   0.933  11.391  1.3142  2.4098 -1.5144
 5927SOL     OW29416   1.433   0.654  10.992  0.0278  0.5383  0.0525
 5927SOL    HW129417   1.460   0.729  11.045 -2.9888  1.4880  0.2966
 5927SOL    HW229418   1.338   0.667  11.002 -0.0121 -0.2087  0.7082
 5928SOL     OW29419   4.273   0.674   9.379 -0.1374 -0.5132  0.1609
 5928SOL    HW129420   4.302   0.595   9.334  0.0823  1.6670 -3.5286
 5928SOL    HW229421   4.197   0.643   9.429  0.1820 -0.2736  0.7986
 5929SOL     OW29422   1.627   2.451   2.444 -1.3074  0.2289  0.2423
 5929SOL    HW129423   1.691   2.384   2.419  0.8208  2.1980  0.4645
 5929SOL    HW229424   1.559   2.424   2.383 -1.6732  2.0429 -0.1299
 5930SOL     OW29425   1.754   1.862   5.599  0.1178  0.4791  0.4479
 5930SOL    HW129426   1.787   1.901   5.518 -1.0580  0.9139  0.1652
 5930SOL    HW229427   1.699   1.795   5.559  1.1118  0.0842 -0.2614
 5931SOL     OW29428   4.126   2.468  13.449  0.0013 -0.9035 -0.1892
 5931SOL    HW129429   4.121   2.392  13.508  3.1068 -1.1058 -0.1358
 5931SOL    HW229430   4.045   2.513  13.469  0.5227 -0.1056  0.1284
 5932SOL     OW29431   4.720   3.176   8.862  0.0524 -0.2147 -0.1680
 5932SOL    HW129432   4.656   3.226   8.811 -0.3549 -1.9594 -1.3752
 5932SOL    HW229433   0.049   3.246   8.880 -2.3394  1.7335  0.6842
 5933SOL     OW29434   0.728   4.584  11.391  0.0439 -0.4380  0.4459
 5933SOL    HW129435   0.717   4.669  11.434 -0.4337 -0.4620  0.3689
 5933SOL    HW229436   0.805   4.609  11.340 -0.6493  0.3190 -0.2141
 5934SOL     OW29437   0.872   0.422  11.401 -0.0315 -0.4466  0.1830
 5934SOL    HW129438   0.878   0.373  11.483 -0.8836 -1.9547 -0.6528
 5934SOL    HW229439   0.782   0.399  11.377 -0.7116  1.3042  1.0619
 5935SOL     OW29440   1.055   1.894   7.493 -0.0534 -0.5479  0.1540
 5935SOL    HW129441   1.144   1.861   7.506  1.1288  2.2665 -0.6833
 5935SOL    HW229442   1.015   1.808   7.499  0.2502 -0.7710 -1.0635
 5936SOL     OW29443   2.984   3.272   6.305  0.0491  0.3429  0.0118
 5936SOL    HW129444   2.921   3.277   6.233  0.1970  0.4104 -0.1119
 5936SOL    HW229445   3.056   3.331   6.283 -0.8206  1.4511  0.0915
 5937SOL     OW29446   3.070   3.063  16.112  0.1641  0.1110 -0.1208
 5937SOL    HW129447   3.016   3.112  16.174  1.2702  1.4964 -0.2524
 5937SOL    HW229448   3.053   2.974  16.142 -0.7778 -0.5120 -2.4474
 5938SOL     OW29449   3.317   0.087   3.558 -0.2002 -0.1108 -0.2056
 5938SOL    HW129450   3.333   0.181   3.543  1.7955 -0.2338  1.2107
 5938SOL    HW229451   3.308   0.058   3.467 -1.5829  0.1470 -0.1535
 5939SOL     OW29452   3.419   3.757   8.121  0.5026  0.2000 -0.1871
 5939SOL    HW129453   3.397   3.675   8.076 -1.5058  1.6455 -1.8345
 5939SOL    HW229454   3.495   3.725   8.170  0.1303 -0.8683 -0.2994
 5940SOL     OW29455   3.938   4.166   4.966 -0.5543 -0.3457  0.2933
 5940SOL    HW129456   3.901   4.245   4.926 -1.8083 -1.8221 -1.4618
 5940SOL    HW229457   3.980   4.193   5.048  1.1343  1.2285 -1.0874
 5941SOL     OW29458   1.840   3.644   4.121  0.0875 -0.3225 -0.0156
 5941SOL    HW129459   1.869   3.555   4.140  0.3719 -0.1998  0.1248
 5941SOL    HW229460   1.886   3.663   4.039  0.1864 -0.1046  0.0906
 5942SOL     OW29461   3.224   1.506   9.240 -0.1245 -0.1316  0.0149
 5942SOL    HW129462   3.211   1.418   9.203 -0.7667 -0.1040  0.1820
 5942SOL    HW229463   3.251   1.487   9.330  1.5734  1.6900 -0.1196
 5943SOL     OW29464   4.688   3.544   5.591 -0.2021  0.3297 -0.0786
 5943SOL    HW129465   0.029   3.492   5.619 -2.0218 -1.1853  1.9077
 5943SOL    HW229466   4.679   3.597   5.670  0.0030 -1.2851  1.0210
 5944SOL     OW29467   3.569   3.629   1.648 -0.1459  0.0228 -0.4154
 5944SOL    HW129468   3.626   3.689   1.696 -0.8199  1.5282 -1.5000
 5944SOL    HW229469   3.624   3.552   1.631  1.2858  0.8670  0.3438
 5945SOL     OW29470   1.861   1.683   8.010  0.0909  0.1953 -0.0132
 5945SOL    HW129471   1.819   1.704   8.093  0.0053  1.5727 -0.3916
 5945SOL    HW229472   1.871   1.588   8.008  0.9245  0.2692  0.9793
 5946SOL     OW29473   2.391   2.644  11.316  0.2621 -0.6420 -0.3956
 5946SOL    HW129474   2.354   2.561  11.346  1.4568  0.9184  5.4115
 5946SOL    HW229475   2.449   2.605  11.250  1.8159  1.0654 -0.0557
 5947SOL     OW29476   4.414   0.250   8.049 -0.1269 -0.0283 -0.2272
 5947SOL    HW129477   4.466   0.174   8.024 -1.3103 -0.7757 -0.3725
 5947SOL    HW229478   4.477   0.320   8.031  0.3637 -0.3243  0.3300
 5948SOL     OW29479   3.210   3.815   5.054 -0.0437 -0.0462  0.3335
 5948SOL    HW129480   3.275   3.753   5.088 -0.5789 -2.1102 -2.3917
 5948SOL    HW229481   3.156   3.764   4.993  1.2652 -0.4286 -0.5164
 5949SOL     OW29482   3.273   4.221   8.263 -0.9805  0.3659  0.0793
 5949SOL    HW129483   3.273   4.142   8.210  3.8739 -0.6544  1.5891
 5949SOL    HW229484   3.295   4.181   8.347  2.4265  1.1938 -0.4211
 5950SOL     OW29485   0.208   1.712   8.301 -0.6128 -0.2456 -0.0553
 5950SOL    HW129486   0.281   1.738   8.356  1.1093 -1.2299 -1.8927
 5950SOL    HW229487   0.142   1.681   8.363 -2.8212  0.0930 -2.2438
 5951SOL     OW29488   1.884   0.794  14.899 -0.4170  0.1309  0.5354
 5951SOL    HW129489   1.802   0.830  14.934 -1.5808  1.7291 -3.8608
 5951SOL    HW229490   1.950   0.849  14.940  2.4366 -3.0592  0.2100
 5952SOL     OW29491   0.227   4.559   3.714  0.1373  0.4055 -0.2887
 5952SOL    HW129492   0.259   4.478   3.756 -0.5651 -0.2099 -0.9467
 5952SOL    HW229493   0.138   4.530   3.695 -0.6043  2.3967  0.1180
 5953SOL     OW29494   2.604   0.265   2.059 -0.2881  0.3863  0.2829
 5953SOL    HW129495   2.699   0.266   2.072 -0.2701  1.5119 -0.0047
 5953SOL    HW229496   2.592   0.350   2.017  2.2293 -0.2715 -1.7286
 5954SOL     OW29497   2.818   1.128   7.757 -0.3703 -0.3366 -0.7983
 5954SOL    HW129498   2.868   1.204   7.786 -0.4938 -0.5568 -0.0275
 5954SOL    HW229499   2.873   1.083   7.693  0.5762  1.5094 -1.2716
 5955SOL     OW29500   3.219   1.019   7.741 -0.2114  0.0779 -0.5757
 5955SOL    HW129501   3.144   1.016   7.681  0.6339 -2.8508 -1.5068
 5955SOL    HW229502   3.210   1.105   7.781 -3.2380  0.6834 -2.5307
 5956SOL     OW29503   4.235   1.516   2.658  0.0560 -0.1878 -0.0306
 5956SOL    HW129504   4.236   1.420   2.661  0.5139 -0.1143  2.3909
 5956SOL    HW229505   4.142   1.540   2.650 -0.3168 -1.5013  0.4079
 5957SOL     OW29506   1.716   3.827  13.830  0.0313 -0.1051 -0.3851
 5957SOL    HW129507   1.795   3.773  13.832 -0.7021 -1.1755 -0.2911
 5957SOL    HW229508   1.721   3.840  13.925 -0.3037 -2.1878 -0.0635
 5958SOL     OW29509   1.203   3.650   8.905 -0.5045 -0.2690  0.4383
 5958SOL    HW129510   1.281   3.704   8.911  0.0491 -0.8823 -1.3433
 5958SOL    HW229511   1.135   3.713   8.881  0.2937  1.0969  1.7820
 5959SOL     OW29512   2.880   1.567  17.125  0.1446  0.0190 -0.3885
 5959SOL    HW129513   2.788   1.587  17.103 -0.2430  0.0091  1.2137
 5959SOL    HW229514   2.920   1.653  17.140  0.2770 -0.0953 -0.0853
 5960SOL     OW29515   4.150   1.374   4.654  0.1145  0.2856  0.1143
 5960SOL    HW129516   4.114   1.370   4.565 -0.0826 -0.2959  0.2260
 5960SOL    HW229517   4.210   1.300   4.648  0.2799  0.5916 -2.0941
 5961SOL     OW29518   3.020   2.379   9.527 -0.3039  0.1671 -0.0860
 5961SOL    HW129519   2.936   2.381   9.481 -0.2992  0.6098 -0.0826
 5961SOL    HW229520   3.083   2.398   9.458 -0.8980 -0.0702 -0.6850
 5962SOL     OW29521   4.291   0.620   2.566  0.1760  0.0066  0.2742
 5962SOL    HW129522   4.224   0.672   2.611 -1.0082 -1.0467 -0.2622
 5962SOL    HW229523   4.360   0.686   2.571 -1.4035  1.6418  0.7481
 5963SOL     OW29524   2.922   1.200   5.560 -0.0393  0.0923 -0.7627
 5963SOL    HW129525   2.885   1.270   5.615 -0.7046 -0.3922 -0.5990
 5963SOL    HW229526   2.842   1.172   5.516 -1.7322 -1.0544  3.0446
 5964SOL     OW29527   2.915   2.756   2.837 -0.0093 -0.2333 -0.1851
 5964SOL    HW129528   2.987   2.819   2.844 -0.0255 -0.2835  0.4178
 5964SOL    HW229529   2.850   2.804   2.786  0.6185 -1.2946 -1.9502
 5965SOL     OW29530   3.190   4.556   6.152 -0.8887  0.2840  0.1941
 5965SOL    HW129531   3.246   4.619   6.197 -0.5043  0.5748 -0.6846
 5965SOL    HW229532   3.104   4.597   6.160 -1.5250 -0.9593 -0.3450
 5966SOL     OW29533   2.655   1.738   7.398 -0.4298  0.1655 -0.1935
 5966SOL    HW129534   2.719   1.780   7.455  1.9401 -0.7805 -2.1922
 5966SOL    HW229535   2.657   1.802   7.327  0.1423 -0.1927 -0.4935
 5967SOL     OW29536   3.483   4.336   6.603 -0.1859 -0.1587 -0.2942
 5967SOL    HW129537   3.561   4.369   6.647 -0.1930  2.2166 -2.1073
 5967SOL    HW229538   3.469   4.251   6.645  0.8846 -0.8780 -1.4116
 5968SOL     OW29539   0.961   1.305   0.217  0.4059 -0.5851  0.1214
 5968SOL    HW129540   0.963   1.290   0.122 -1.9348 -0.5093  0.0658
 5968SOL    HW229541   0.895   1.374   0.219  1.3816  0.2822  2.6718
 5969SOL     OW29542   0.797   3.572  12.278  0.5322  0.3239  0.0587
 5969SOL    HW129543   0.727   3.627  12.312 -0.2749  0.3891 -1.7189
 5969SOL    HW229544   0.806   3.607  12.189  3.6784  1.6518  0.9094
 5970SOL     OW29545   2.714   0.894   7.883 -0.1477  0.1141 -0.1794
 5970SOL    HW129546   2.663   0.952   7.939  3.2522  2.7898  0.1215
 5970SOL    HW229547   2.767   0.961   7.840 -0.5511 -0.8099 -2.1339
 5971SOL     OW29548   3.073   4.261   0.376  0.3747  0.1349 -0.2916
 5971SOL    HW129549   3.053   4.204   0.302  3.2538 -0.6931 -0.4222
 5971SOL    HW229550   3.040   4.348   0.351  1.2728 -0.3446 -3.1910
 5972SOL     OW29551   2.273   3.704   3.584  0.2417 -0.2898 -0.3481
 5972SOL    HW129552   2.329   3.674   3.512 -0.4624  0.5227 -1.2379
 5972SOL    HW229553   2.243   3.792   3.558  0.9951 -0.5702 -2.2170
 5973SOL     OW29554   0.967   0.936   9.243 -0.2711 -0.2875  0.4176
 5973SOL    HW129555   1.057   0.955   9.217 -0.5439 -2.0490 -1.8024
 5973SOL    HW229556   0.917   1.006   9.201  2.8276  0.1309 -2.5886
 5974SOL     OW29557   1.998   0.256   2.032  0.3249 -0.2111 -0.2588
 5974SOL    HW129558   2.011   0.230   2.124 -1.3330  0.1941  0.1001
 5974SOL    HW229559   2.088   0.274   2.006  0.2260 -0.0827 -0.5153
 5975SOL     OW29560   1.193   2.780   2.915  0.0737  0.5973 -0.1832
 5975SOL    HW129561   1.252   2.787   2.989 -0.4104 -1.2534  0.3620
 5975SOL    HW229562   1.160   2.870   2.909  1.8617  1.2594 -0.0617
 5976SOL     OW29563   1.751   2.568   3.454 -0.6196 -0.0081 -0.1684
 5976SOL    HW129564   1.842   2.596   3.451 -0.9297  1.2176  1.6918
 5976SOL    HW229565   1.733   2.508   3.382 -0.6428 -0.2154  0.0100
 5977SOL     OW29566   1.732   3.156   0.210 -0.0677  0.6704 -0.1330
 5977SOL    HW129567   1.660   3.094   0.204 -0.3923  1.1613 -1.1701
 5977SOL    HW229568   1.793   3.120   0.146 -0.6271 -0.0130 -0.2769
 5978SOL     OW29569   0.313   2.666   8.226 -0.0807 -0.8065  0.0275
 5978SOL    HW129570   0.296   2.734   8.292  0.0633  1.5254 -2.3443
 5978SOL    HW229571   0.408   2.661   8.228  0.0461  0.4676 -2.7046
 5979SOL     OW29572   2.460   2.244  17.364  0.0931  0.2860 -0.0392
 5979SOL    HW129573   2.488   2.208  17.448  3.7300  2.4445 -0.3424
 5979SOL    HW229574   2.383   2.189  17.351  0.8380 -1.3450  2.5355
 5980SOL     OW29575   3.365   2.348   2.645 -0.5461 -0.0579  0.6017
 5980SOL    HW129576   3.343   2.312   2.559 -0.9898  2.0400 -0.1574
 5980SOL    HW229577   3.375   2.442   2.630 -0.3602 -0.3963 -1.3914
 5981SOL     OW29578   0.106   1.575  13.079  0.0858  0.4970  0.8602
 5981SOL    HW129579   0.123   1.629  13.002 -0.9711 -2.3061 -1.3165
 5981SOL    HW229580   0.191   1.549  13.112 -0.8697 -2.3910  1.0493
 5982SOL     OW29581   2.854   2.130   5.362 -0.0325  0.3721  0.7500
 5982SOL    HW129582   2.866   2.139   5.456 -0.5030  1.0676  0.7451
 5982SOL    HW229583   2.808   2.212   5.342  0.9200  0.4772 -1.0128
 5983SOL     OW29584   2.110   4.655   1.112 -0.3871 -0.1289  0.2282
 5983SOL    HW129585   2.093   4.727   1.173  1.6180  0.4224  0.1532
 5983SOL    HW229586   2.153   4.585   1.162  2.0437  0.5765 -0.8507
 5984SOL     OW29587   0.750   1.491  16.500 -0.2728  0.1715 -0.1782
 5984SOL    HW129588   0.747   1.495  16.595  0.0140 -4.3772  0.0355
 5984SOL    HW229589   0.760   1.582  16.473 -0.1501  0.0053 -0.7055
 5985SOL     OW29590   4.117   1.167   5.164  0.6842  0.4242 -0.1418
 5985SOL    HW129591   4.154   1.099   5.108  0.0257  0.7998 -1.0303
 5985SOL    HW229592   4.179   1.237   5.144  0.5395 -0.1883 -2.7052
 5986SOL     OW29593   2.006   0.564   8.142  0.2006 -0.1136 -0.4718
 5986SOL    HW129594   2.089   0.557   8.095 -1.0713  1.4760 -2.9602
 5986SOL    HW229595   1.948   0.493   8.112  0.3456  1.2319 -3.9178
 5987SOL     OW29596   1.056   0.858   0.481  0.0991 -0.2635 -0.0752
 5987SOL    HW129597   1.031   0.934   0.428  2.4558  0.4671 -0.1437
 5987SOL    HW229598   1.093   0.803   0.413 -2.2607 -0.5617 -1.1163
 5988SOL     OW29599   3.780   0.350   8.570  0.3805 -0.2396  0.9578
 5988SOL    HW129600   3.847   0.292   8.534 -0.0702  0.3533 -0.8739
 5988SOL    HW229601   3.705   0.295   8.592 -0.4957  0.9016  0.8350
 5989SOL     OW29602   2.000   0.143  12.194  0.0224  0.0916  0.7532
 5989SOL    HW129603   1.910   0.138  12.227 -0.7140  0.9589 -1.0991
 5989SOL    HW229604   2.038   0.071  12.244 -1.5430 -1.0051  0.3546
 5990SOL     OW29605   2.627   1.847  10.458 -0.3065  0.3638 -0.0026
 5990SOL    HW129606   2.606   1.797  10.379  0.5909 -1.4367  0.8871
 5990SOL    HW229607   2.543   1.855  10.504 -1.2518 -0.9388 -1.4815
 5991SOL     OW29608   4.509   4.535   2.946 -0.0075 -0.8719  0.2726
 5991SOL    HW129609   4.534   4.550   2.855  0.0085 -1.8368  0.1110
 5991SOL    HW229610   4.509   4.439   2.941  0.8719 -0.8156 -1.0526
 5992SOL     OW29611   2.973   0.080  11.728  0.1412  0.2065  0.4193
 5992SOL    HW129612   2.924   0.009  11.685  2.6161 -0.3445 -1.5251
 5992SOL    HW229613   2.913   0.124  11.787  1.6010  0.2650  1.8643
 5993SOL     OW29614   0.452   2.034   3.335  0.3323  0.2581  0.5509
 5993SOL    HW129615   0.442   2.011   3.243  0.8514  1.6952  0.1418
 5993SOL    HW229616   0.527   2.092   3.323 -0.9235  1.3424 -2.0371
 5994SOL     OW29617   0.196   0.154   7.190  0.2963  0.5311  0.3346
 5994SOL    HW129618   0.113   0.110   7.176  1.1012 -0.4595 -1.2657
 5994SOL    HW229619   0.158   0.240   7.173  3.4579  1.7892 -0.2886
 5995SOL     OW29620   0.975   2.315  16.627 -0.3291 -0.4520  0.1372
 5995SOL    HW129621   0.963   2.290  16.719 -1.3506  0.5780  0.2817
 5995SOL    HW229622   1.059   2.271  16.611 -0.1471  0.2198 -0.7448
 5996SOL     OW29623   3.292   1.811  15.194  0.3421 -0.2809  0.9102
 5996SOL    HW129624   3.237   1.784  15.120  1.4183  0.3708 -0.1191
 5996SOL    HW229625   3.376   1.830  15.154 -0.2916 -0.9253 -0.7139
 5997SOL     OW29626   2.651   4.441   4.224  0.1042  0.5764  0.3582
 5997SOL    HW129627   2.736   4.443   4.180 -0.2983  2.1064 -0.3651
 5997SOL    HW229628   2.657   4.370   4.288 -0.2502  0.7836  0.6248
 5998SOL     OW29629   4.013   4.668   6.154  0.2244  0.3685  0.7230
 5998SOL    HW129630   4.006   4.575   6.178  0.3021  0.1493 -0.1025
 5998SOL    HW229631   4.105   4.690   6.141  0.8621 -2.6074  0.0807
 5999SOL     OW29632   1.700   0.910   6.923  0.2687 -0.5203 -0.3213
 5999SOL    HW129633   1.722   0.873   6.838  1.1531  0.2953 -0.4398
 5999SOL    HW229634   1.759   0.855   6.975  1.3724 -0.6154 -1.7091
 6000SOL     OW29635   0.443   1.713   0.067  0.0877 -0.4187 -0.3320
 6000SOL    HW129636   0.404   1.638   0.023 -2.2144 -0.8240  2.3530
 6000SOL    HW229637   0.370   1.751   0.117  0.4253 -0.3542  0.1079
 6001SOL     OW29638   2.315   0.050  15.508 -0.0534 -0.9345  0.1962
 6001SOL    HW129639   2.393   0.046  15.454 -0.8697  1.3501 -1.1736
 6001SOL    HW229640   2.245   0.081  15.451  1.5637  2.4187  0.0256
 6002SOL     OW29641   0.663   4.576  16.022 -0.0413 -0.5373 -0.6463
 6002SOL    HW129642   0.598   4.647  16.016  0.0572 -0.4296 -0.4358
 6002SOL    HW229643   0.618   4.492  16.018 -0.8758 -0.1438  0.3822
 6003SOL     OW29644   0.554   1.054   2.035 -0.2333 -0.5833  0.0815
 6003SOL    HW129645   0.541   0.990   1.965  1.4545 -0.9958  0.1351
 6003SOL    HW229646   0.547   1.135   1.984 -0.1613 -0.6221  0.0101
 6004SOL     OW29647   4.062   2.521   0.199 -0.0783  0.3643 -0.2703
 6004SOL    HW129648   3.988   2.465   0.174  1.2940 -0.5160 -2.3791
 6004SOL    HW229649   4.019   2.606   0.214  1.4398  0.8954  0.9881
 6005SOL     OW29650   2.892   4.391  15.195  0.1417  0.1922  0.0044
 6005SOL    HW129651   2.914   4.413  15.104 -2.4248 -0.7386 -0.8497
 6005SOL    HW229652   2.942   4.462  15.234  1.5370 -0.9028  0.2340
 6006SOL     OW29653   3.365   0.628  17.261 -0.2607  0.1677 -0.5294
 6006SOL    HW129654   3.340   0.702  17.205 -1.8696 -1.7918 -2.3980
 6006SOL    HW229655   3.289   0.574  17.239  1.1685 -1.0444 -2.4966
 6007SOL     OW29656   2.014   2.889   2.566  0.8797 -0.1146 -0.6353
 6007SOL    HW129657   1.954   2.831   2.518 -0.3680 -0.0858  0.8792
 6007SOL    HW229658   1.986   2.975   2.534  0.4073  0.5266  1.5260
 6008SOL     OW29659   3.917   0.049  14.109  0.5677  0.5847 -0.0745
 6008SOL    HW129660   3.850   0.008  14.163 -0.0441  0.8728 -0.6107
 6008SOL    HW229661   3.856   0.082  14.043  0.3492 -0.6695 -0.4956
 6009SOL     OW29662   2.132   3.586   5.593  0.3478  0.0047 -0.6505
 6009SOL    HW129663   2.215   3.633   5.601  0.6561 -0.8149  0.9262
 6009SOL    HW229664   2.066   3.654   5.606  1.9758  1.5603 -0.5716
 6010SOL     OW29665   3.496   1.420   5.928  0.1067  0.0918 -0.3925
 6010SOL    HW129666   3.431   1.351   5.933  1.0976 -0.8154  0.1454
 6010SOL    HW229667   3.459   1.484   5.989  1.9530 -1.0509  1.9466
 6011SOL     OW29668   2.530   0.749   0.044  0.7739 -0.0888 -0.4626
 6011SOL    HW129669   2.544   0.842   0.029  0.0517  0.2636  1.0345
 6011SOL    HW229670   2.446   0.740   0.088  0.9177 -1.0675 -0.3775
 6012SOL     OW29671   3.972   1.274   1.803 -0.4331 -0.2123  0.4622
 6012SOL    HW129672   4.049   1.284   1.747 -0.9555 -0.7413 -0.3504
 6012SOL    HW229673   4.001   1.206   1.864 -2.6462 -1.0089  0.6200
 6013SOL     OW29674   3.437   1.972   5.912 -0.4643 -0.0636  0.2634
 6013SOL    HW129675   3.508   2.036   5.917  1.6317 -2.3713 -0.4218
 6013SOL    HW229676   3.483   1.890   5.924 -0.6167  0.0051  1.3370
 6014SOL     OW29677   0.918   1.683   2.242  0.7175 -0.3618 -0.1022
 6014SOL    HW129678   0.877   1.769   2.230  3.1291  0.7644 -0.4455
 6014SOL    HW229679   0.854   1.627   2.198 -1.0345  2.2123 -0.8376
 6015SOL     OW29680   2.194   4.297   6.740 -0.0023 -0.4084 -0.4431
 6015SOL    HW129681   2.146   4.348   6.806 -0.6662 -2.2609  0.5128
 6015SOL    HW229682   2.224   4.368   6.683  0.3907 -0.8468 -0.7838
 6016SOL     OW29683   0.337   1.657   5.758  0.1007  0.1737 -0.2216
 6016SOL    HW129684   0.328   1.593   5.828 -0.6294 -0.3275 -0.7905
 6016SOL    HW229685   0.312   1.736   5.806  0.2101 -0.3505  0.7002
 6017SOL     OW29686   0.986   0.141  12.370  0.4997 -0.4307  0.3343
 6017SOL    HW129687   0.958   0.098  12.289 -0.4472  0.5945  0.1301
 6017SOL    HW229688   1.041   0.212  12.336  0.5892 -1.1055 -0.9215
 6018SOL     OW29689   3.236   1.956  10.339 -0.3126 -0.0997 -0.2450
 6018SOL    HW129690   3.313   1.899  10.334 -1.4111 -1.5973  0.1202
 6018SOL    HW229691   3.187   1.912  10.408 -0.2818  0.5685  0.2009
 6019SOL     OW29692   1.894   0.642  10.734  0.1088 -0.3992 -0.0946
 6019SOL    HW129693   1.825   0.707  10.722  1.7103  1.5063  1.0340
 6019SOL    HW229694   1.845   0.560  10.729  1.3933 -1.0071 -2.6725
 6020SOL     OW29695   0.709   1.412  14.772  0.0317 -0.2048  0.1553
 6020SOL    HW129696   0.660   1.467  14.711  1.0144  1.0668  0.5136
 6020SOL    HW229697   0.721   1.332  14.720 -1.1037 -0.4953  0.3542
 6021SOL     OW29698   3.358   2.686   4.743  0.0059  0.2805  0.7776
 6021SOL    HW129699   3.434   2.737   4.713  0.3077 -1.2310 -1.0332
 6021SOL    HW229700   3.403   2.602   4.746  0.6360  0.4397 -3.7645
 6022SOL     OW29701   0.831   4.587  14.648  0.4407  0.3975  0.6753
 6022SOL    HW129702   0.921   4.560  14.629  0.1752  0.1871 -0.3296
 6022SOL    HW229703   0.820   4.667  14.596  2.2596 -0.1060 -0.5030
 6023SOL     OW29704   1.657   4.216   9.724 -0.1953 -0.0289 -0.1117
 6023SOL    HW129705   1.603   4.286   9.761 -0.8757 -0.5930 -0.0528
 6023SOL    HW229706   1.594   4.154   9.688  1.6941 -2.1685  0.3156
 6024SOL     OW29707   1.687   0.446   5.423 -0.1846 -0.1316 -0.6422
 6024SOL    HW129708   1.629   0.439   5.499  0.4978 -0.1775 -0.1311
 6024SOL    HW229709   1.652   0.518   5.371  0.8401  0.9260  0.1349
 6025SOL     OW29710   1.346   2.801   5.656 -0.6646  0.3606 -0.2579
 6025SOL    HW129711   1.391   2.716   5.659 -2.3800 -0.5482 -0.1807
 6025SOL    HW229712   1.415   2.866   5.640 -1.6838  1.8044  1.2027
 6026SOL     OW29713   2.287   0.324   3.114  0.2640  0.1291 -0.0950
 6026SOL    HW129714   2.230   0.257   3.077 -0.5180  0.7000  0.0799
 6026SOL    HW229715   2.309   0.378   3.038  3.1330 -0.6602  0.1850
 6027SOL     OW29716   2.650   3.343  14.929  0.0448 -0.1170  0.3999
 6027SOL    HW129717   2.648   3.325  14.835  0.5410 -0.7181  0.5034
 6027SOL    HW229718   2.744   3.345  14.946  0.4568 -1.1560 -1.8166
 6028SOL     OW29719   4.723   2.874  13.552  0.4902  0.1007 -0.2256
 6028SOL    HW129720   4.698   2.945  13.611  1.8838  0.4725 -0.0776
 6028SOL    HW229721   0.033   2.811  13.608 -0.0866  0.9762  1.2239
 6029SOL     OW29722   0.024   3.394   6.488  0.1263  0.2348 -0.0344
 6029SOL    HW129723   4.700   3.319   6.501 -0.6989  0.5473 -1.9925
 6029SOL    HW229724   4.699   3.457   6.446 -1.3939 -0.9071  0.4097
 6030SOL     OW29725   1.707   3.714   3.785 -0.1674  0.1752  0.3934
 6030SOL    HW129726   1.720   3.638   3.842  0.9710  0.1320  0.0765
 6030SOL    HW229727   1.790   3.757   3.804  0.1793 -0.4882  0.3683
 6031SOL     OW29728   0.473   2.772   7.344 -0.0282  0.2148  0.0195
 6031SOL    HW129729   0.408   2.832   7.379 -1.8892 -1.2010 -0.9958
 6031SOL    HW229730   0.502   2.832   7.275  0.8729 -0.5527 -0.2676
 6032SOL     OW29731   1.189   3.893   3.399 -0.4008 -0.3895 -0.0589
 6032SOL    HW129732   1.239   3.873   3.478  1.4108  3.1049 -0.3349
 6032SOL    HW229733   1.187   3.989   3.397 -0.8866 -0.4408 -1.6725
 6033SOL     OW29734   3.158   0.446  11.501 -0.3779  0.0964  0.4508
 6033SOL    HW129735   3.157   0.353  11.524  1.7758 -0.0797 -0.0773
 6033SOL    HW229736   3.089   0.465  11.437 -0.4443 -2.3243 -0.1897
 6034SOL     OW29737   2.055   2.042  13.135 -0.4728  0.0285 -0.0042
 6034SOL    HW129738   2.070   2.016  13.226  0.2344  0.2880 -0.0435
 6034SOL    HW229739   2.033   1.966  13.082 -0.4698 -1.0830  1.6102
 6035SOL     OW29740   0.934   2.890   8.923 -0.4377 -0.0015 -0.1764
 6035SOL    HW129741   0.983   2.813   8.894  0.4598  0.6973 -0.5259
 6035SOL    HW229742   0.962   2.901   9.014  2.2870 -0.6772 -0.9363
 6036SOL     OW29743   0.225   1.067  16.043 -0.3275 -0.0439  0.3861
 6036SOL    HW129744   0.159   1.086  16.109  0.8272 -1.7897  2.0103
 6036SOL    HW229745   0.280   1.144  16.027  0.9289 -1.0453 -0.1551
 6037SOL     OW29746   1.790   2.848   5.061 -0.3983  0.2614 -0.0721
 6037SOL    HW129747   1.750   2.876   4.978  0.0123  2.3235  0.4288
 6037SOL    HW229748   1.882   2.847   5.034 -0.8181  0.4582 -1.5314
 6038SOL     OW29749   0.313   1.297   1.769 -0.1528 -0.4238 -0.0648
 6038SOL    HW129750   0.337   1.385   1.740  0.6292 -1.3129 -2.1597
 6038SOL    HW229751   0.218   1.288   1.763 -0.3741  2.2997 -0.4109
 6039SOL     OW29752   0.025   1.055   2.609  0.6896  0.2137 -0.2506
 6039SOL    HW129753   0.115   1.025   2.599  0.0261 -1.0063 -2.5537
 6039SOL    HW229754   0.029   1.150   2.596  1.8741  0.1230 -0.5834
 6040SOL     OW29755   2.476   0.850   2.580 -0.5349  0.3308  0.4173
 6040SOL    HW129756   2.550   0.797   2.550 -1.3360 -0.7221  0.2996
 6040SOL    HW229757   2.474   0.822   2.671 -1.0540 -1.2793 -0.0898
 6041SOL     OW29758   1.355   2.095   9.088  0.2061  0.0292  0.3750
 6041SOL    HW129759   1.408   2.016   9.079 -0.1798  0.0722 -2.3493
 6041SOL    HW229760   1.334   2.097   9.181 -0.8587 -0.4371  0.1415
 6042SOL     OW29761   2.081   1.023   6.757 -0.1850 -0.5342 -0.0536
 6042SOL    HW129762   2.064   1.106   6.713 -1.3842 -0.7393  0.0229
 6042SOL    HW229763   2.047   0.957   6.698  2.8027 -1.9353 -0.2290
 6043SOL     OW29764   1.011   0.587   7.590  0.5932 -0.3537 -0.9939
 6043SOL    HW129765   1.008   0.511   7.648 -0.6314 -0.2597 -0.9259
 6043SOL    HW229766   0.973   0.557   7.508 -0.1021 -0.2011 -0.7326
 6044SOL     OW29767   1.773   1.740   4.283  0.3585  0.2970  0.1801
 6044SOL    HW129768   1.797   1.703   4.198 -1.4125 -1.7987  0.5812
 6044SOL    HW229769   1.680   1.760   4.272 -0.2213 -2.8060 -0.7622
 6045SOL     OW29770   4.474   3.788  11.162 -0.6460  0.3091  0.4108
 6045SOL    HW129771   4.478   3.881  11.182 -1.8552  1.1061 -3.1004
 6045SOL    HW229772   4.539   3.749  11.222  0.1044  1.5012  0.3683
 6046SOL     OW29773   4.584   3.490   9.096 -0.6749 -0.1047  0.0368
 6046SOL    HW129774   4.640   3.523   9.026 -1.0953  0.0308 -0.2329
 6046SOL    HW229775   4.509   3.548   9.086 -0.1995  0.1918 -1.7162
 6047SOL     OW29776   3.723   2.597   9.087 -0.3021  0.2147 -0.1959
 6047SOL    HW129777   3.643   2.649   9.095  0.5252  0.9483  3.1468
 6047SOL    HW229778   3.705   2.533   9.018 -2.2754 -0.9049  1.3834
 6048SOL     OW29779   0.809   1.640  11.510  0.6018 -0.0430 -0.2972
 6048SOL    HW129780   0.731   1.613  11.560 -1.5925  1.5621 -2.8871
 6048SOL    HW229781   0.836   1.712  11.567 -0.5333 -0.0174  0.2143
 6049SOL     OW29782   4.348   3.117  13.540 -0.3251  0.5417  0.0718
 6049SOL    HW129783   4.392   3.196  13.508 -0.8113  0.9200  0.3413
 6049SOL    HW229784   4.369   3.058  13.468 -0.4086  1.8433 -1.0028
 6050SOL     OW29785   4.572   4.508   5.227 -0.0928  0.2497  0.2940
 6050SOL    HW129786   4.496   4.566   5.227  0.3099  0.7677 -1.0597
 6050SOL    HW229787   4.624   4.538   5.153 -0.4117  0.6767  0.2388
 6051SOL     OW29788   1.885   3.954   2.829  0.1414 -0.5627  0.1038
 6051SOL    HW129789   1.939   3.907   2.765 -0.1849 -2.7978  1.4802
 6051SOL    HW229790   1.956   3.978   2.889  0.2237  0.1875 -0.2901
 6052SOL     OW29791   2.182   0.099   7.169  0.1185  0.7556  0.1688
 6052SOL    HW129792   2.162   0.175   7.223 -0.2122 -0.0549  1.1911
 6052SOL    HW229793   2.267   0.117   7.130 -0.8132  1.0022 -1.7783
 6053SOL     OW29794   0.977   1.210  17.690 -0.7668  0.0824 -0.0008
 6053SOL    HW129795   0.940   1.122  17.696  0.3747 -0.4255 -0.4223
 6053SOL    HW229796   1.018   1.204  17.604  2.6190  1.2169  1.5335
 6054SOL     OW29797   1.904   0.912   9.482 -0.8026  0.9327  0.5376
 6054SOL    HW129798   1.809   0.917   9.499 -1.0964  0.1650 -0.8980
 6054SOL    HW229799   1.922   0.829   9.526 -0.3684  0.1969 -1.0190
 6055SOL     OW29800   2.509   4.380   8.300 -0.0077 -0.1143 -0.3113
 6055SOL    HW129801   2.507   4.448   8.233 -3.7028 -1.2550 -1.3545
 6055SOL    HW229802   2.567   4.317   8.258  3.0519  0.9955  2.2424
 6056SOL     OW29803   3.927   2.838   4.984 -0.3940  0.1750 -0.3111
 6056SOL    HW129804   3.854   2.885   4.944  0.4501  1.1218 -0.7231
 6056SOL    HW229805   3.917   2.749   4.949 -2.0686  0.0979  0.3238
 6057SOL     OW29806   4.341   4.201  16.158  0.0735  0.0789 -0.3202
 6057SOL    HW129807   4.329   4.123  16.104  0.4770  0.0016 -0.2984
 6057SOL    HW229808   4.285   4.268  16.118  0.1846 -0.2762 -1.0812
 6058SOL     OW29809   4.714   3.024  13.877  0.0802 -0.0293  0.0115
 6058SOL    HW129810   4.655   3.022  13.801 -0.5792 -3.8820  0.6289
 6058SOL    HW229811   0.059   3.035  13.825 -1.1913  0.1917 -1.8813
 6059SOL     OW29812   2.375   4.732   0.868 -0.3378 -0.2165  0.3757
 6059SOL    HW129813   2.312   4.660   0.866  1.7110 -2.0021  0.0234
 6059SOL    HW229814   2.444   4.688   0.918 -1.0226 -1.7757 -0.0716
 6060SOL     OW29815   0.315   4.115   4.921 -0.3794  0.0136  0.0118
 6060SOL    HW129816   0.396   4.087   4.878  0.6136  0.4447  1.5625
 6060SOL    HW229817   0.275   4.170   4.853  2.6907  5.3173  2.4648
 6061SOL     OW29818   4.141   0.414  10.061  0.4493 -0.3246 -0.7815
 6061SOL    HW129819   4.111   0.499  10.030  0.9494 -0.4974 -1.7299
 6061SOL    HW229820   4.093   0.395  10.142  2.1190 -0.0678  0.2500
 6062SOL     OW29821   3.380   1.364  16.381 -0.0029 -1.0779 -0.1885
 6062SOL    HW129822   3.398   1.319  16.298 -0.9367 -1.2114 -0.3254
 6062SOL    HW229823   3.327   1.435  16.344  0.2746  0.0190  1.5324
 6063SOL     OW29824   0.311   3.576   7.643 -0.3957 -0.4265 -0.4369
 6063SOL    HW129825   0.233   3.548   7.692  1.4982 -1.4310  1.9894
 6063SOL    HW229826   0.350   3.489   7.635 -0.4254 -0.7675  3.0168
 6064SOL     OW29827   1.057   3.298   6.008  0.1932 -0.2000 -0.4264
 6064SOL    HW129828   0.974   3.317   6.053  0.2608 -0.3826 -0.2263
 6064SOL    HW229829   1.071   3.205   6.023  2.6109  0.4968  1.5557
 6065SOL     OW29830   3.412   0.263   6.927 -0.1890  0.0839  0.3931
 6065SOL    HW129831   3.330   0.243   6.881  0.6466  0.0332 -1.0525
 6065SOL    HW229832   3.460   0.186   6.895 -0.2623  0.4410 -0.5620
 6066SOL     OW29833   3.251   0.008   0.544 -0.2255  0.1587 -0.1007
 6066SOL    HW129834   3.316   0.057   0.593 -0.5241 -0.7448  1.1952
 6066SOL    HW229835   3.263   4.655   0.582 -0.9855  0.9791  1.9597
 6067SOL     OW29836   4.212   2.965   7.656 -0.0574 -0.7754 -0.0739
 6067SOL    HW129837   4.184   3.056   7.662 -1.8113 -1.3848  0.8637
 6067SOL    HW229838   4.133   2.928   7.696 -1.1355 -2.5238 -3.8796
 6068SOL     OW29839   0.285   4.682   8.688  0.4588  0.2674  0.6757
 6068SOL    HW129840   0.229   4.606   8.675 -1.7142  2.0435 -0.3622
 6068SOL    HW229841   0.232   0.007   8.635 -0.1846 -0.3580  0.6124
 6069SOL     OW29842   1.532   0.321   7.809  0.3309 -0.2962 -0.8678
 6069SOL    HW129843   1.501   0.235   7.781 -1.3066  0.7744 -2.3147
 6069SOL    HW229844   1.622   0.324   7.777  1.1367 -0.7264  1.3511
 6070SOL     OW29845   4.664   4.215   4.639  0.1813 -0.2525 -0.4133
 6070SOL    HW129846   4.680   4.306   4.615 -0.4740  0.1679  0.7360
 6070SOL    HW229847   4.616   4.231   4.721 -1.4558 -3.3382 -0.7345
 6071SOL     OW29848   0.236   3.844   2.840  0.1467 -0.5816  0.4478
 6071SOL    HW129849   0.219   3.750   2.848 -2.2974 -0.2054 -0.2583
 6071SOL    HW229850   0.142   3.863   2.838  0.2402 -0.2019 -0.4106
 6072SOL     OW29851   1.749   0.443   3.367  0.0202  0.8013  0.8041
 6072SOL    HW129852   1.757   0.524   3.315  2.6127 -0.2065 -0.3680
 6072SOL    HW229853   1.657   0.440   3.395 -0.3065  3.3772  0.0362
 6073SOL     OW29854   3.593   4.362   1.770  0.4281 -0.0338 -0.2936
 6073SOL    HW129855   3.498   4.367   1.765  0.4575  0.9956  0.3388
 6073SOL    HW229856   3.600   4.299   1.842  1.4660 -1.1560 -1.3631
 6074SOL     OW29857   2.917   4.563  15.935 -0.2839 -0.8990  0.0829
 6074SOL    HW129858   2.906   4.646  15.888  1.3993 -1.5290 -1.4264
 6074SOL    HW229859   3.012   4.564  15.929 -0.1961 -1.2866  1.4624
 6075SOL     OW29860   1.429   1.942   4.630 -0.5152  0.1112  0.2371
 6075SOL    HW129861   1.485   1.945   4.707 -0.3567 -1.2157  0.1735
 6075SOL    HW229862   1.390   1.856   4.646  0.6392  0.1911  3.3448
 6076SOL     OW29863   0.785   0.509   3.808 -0.8865  0.6401 -0.1817
 6076SOL    HW129864   0.745   0.571   3.746 -0.5495  1.1570  0.1228
 6076SOL    HW229865   0.830   0.447   3.751 -0.0057 -1.5202  2.9232
 6077SOL     OW29866   2.565   0.370   3.223  0.0120 -0.1247  0.1030
 6077SOL    HW129867   2.583   0.297   3.282 -1.1816 -1.3092 -1.0274
 6077SOL    HW229868   2.474   0.396   3.230  0.5189  1.3325  1.3099
 6078SOL     OW29869   0.286   2.801   8.871 -0.1475 -0.1843 -0.5986
 6078SOL    HW129870   0.226   2.849   8.928 -0.8773 -0.5675 -1.0546
 6078SOL    HW229871   0.367   2.823   8.918 -1.5329  2.9843  0.3451
 6079SOL     OW29872   1.495   1.325   2.284 -0.3016  0.4299 -0.2414
 6079SOL    HW129873   1.535   1.405   2.317  1.8087  0.1799 -2.2427
 6079SOL    HW229874   1.403   1.336   2.310  1.0192  4.2296  2.8058
 6080SOL     OW29875   2.654   3.885   4.897  0.0445 -0.3437 -0.2953
 6080SOL    HW129876   2.580   3.915   4.844 -0.7334 -2.7117 -0.5241
 6080SOL    HW229877   2.677   3.810   4.842 -1.9337 -1.7437  0.7945
 6081SOL     OW29878   0.055   2.788   0.845 -0.0356  0.9057  0.5039
 6081SOL    HW129879   0.056   2.789   0.749 -0.6706  0.7589  0.4931
 6081SOL    HW229880   0.132   2.842   0.863  0.5069  1.0960 -2.4042
 6082SOL     OW29881   2.904   4.091   4.098  0.1581  0.1373  0.4487
 6082SOL    HW129882   2.909   4.070   4.192  2.2074  1.7932  0.7104
 6082SOL    HW229883   2.990   4.128   4.080  0.1278  0.6741  1.4009
 6083SOL     OW29884   2.878   0.152   4.338  0.4365  0.2840 -0.1736
 6083SOL    HW129885   2.885   0.071   4.287  0.9644 -1.3243  2.4701
 6083SOL    HW229886   2.793   0.137   4.380  0.4490 -1.8497 -0.9003
 6084SOL     OW29887   3.232   2.594   7.671  0.2776  0.3976  0.4686
 6084SOL    HW129888   3.301   2.545   7.626 -0.6096  0.0024 -0.4546
 6084SOL    HW229889   3.214   2.526   7.736 -1.0614  1.5057  1.2627
 6085SOL     OW29890   3.947   0.500   1.728 -0.3396 -0.1385 -0.9049
 6085SOL    HW129891   3.998   0.471   1.804 -0.3439  3.6787  0.5229
 6085SOL    HW229892   3.874   0.439   1.734  0.1697 -0.4698  1.9275
 6086SOL     OW29893   3.153   2.851   9.197 -0.2123 -0.5017 -0.1390
 6086SOL    HW129894   3.153   2.813   9.285 -0.1533  1.5248  0.7435
 6086SOL    HW229895   3.126   2.770   9.154 -0.8586  0.1945 -1.0427
 6087SOL     OW29896   3.579   1.526   7.663 -0.0693  0.7479 -0.7367
 6087SOL    HW129897   3.511   1.529   7.595 -0.0494 -0.5561 -0.8243
 6087SOL    HW229898   3.535   1.468   7.726 -0.0170 -1.9085 -3.1737
 6088SOL     OW29899   1.921   1.839   2.987 -0.6064 -0.4023  0.5846
 6088SOL    HW129900   1.899   1.753   3.021 -1.3118 -0.7073 -0.6477
 6088SOL    HW229901   1.936   1.815   2.895 -1.1647  1.1223  0.0931
 6089SOL     OW29902   1.333   0.316   2.059  0.0932 -0.2361 -0.1357
 6089SOL    HW129903   1.336   0.302   2.153 -2.7766 -1.5060 -0.2242
 6089SOL    HW229904   1.243   0.291   2.037 -1.5842  3.7121  2.2610
 6090SOL     OW29905   3.992   2.762   3.965 -0.0553 -0.0244 -0.1143
 6090SOL    HW129906   4.031   2.684   3.926  2.1085  1.4388 -0.8759
 6090SOL    HW229907   4.011   2.744   4.057 -0.3679  2.7245  0.4927
 6091SOL     OW29908   3.784   2.360   8.134 -0.3789  0.2246  0.0034
 6091SOL    HW129909   3.874   2.386   8.115 -0.1583  0.0815  0.8593
 6091SOL    HW229910   3.770   2.287   8.073 -1.9241 -0.5518  1.3000
 6092SOL     OW29911   1.233   2.268   4.975 -0.0612 -0.6380  0.3268
 6092SOL    HW129912   1.283   2.348   4.960  0.1862 -0.8357  0.0655
 6092SOL    HW229913   1.213   2.251   4.883 -1.3813 -1.4262  0.7600
 6093SOL     OW29914   3.811   0.378  11.979  0.3429  0.4106  0.2768
 6093SOL    HW129915   3.777   0.422  11.901  0.9061 -1.5725 -1.0903
 6093SOL    HW229916   3.742   0.314  11.995 -0.0410  0.9985  0.9829
 6094SOL     OW29917   0.342   3.442   2.168  1.0003 -0.1389  0.1411
 6094SOL    HW129918   0.319   3.476   2.082 -1.2600 -0.2982  0.6787
 6094SOL    HW229919   0.415   3.498   2.195  1.4497 -1.2632  1.2743
 6095SOL     OW29920   2.057   4.147   0.739 -0.3461 -0.4017  0.4563
 6095SOL    HW129921   2.150   4.139   0.720 -0.1308  0.7974  1.0077
 6095SOL    HW229922   2.036   4.230   0.697 -1.0584  0.3274  2.2392
 6096SOL     OW29923   2.206   3.449   4.070  0.5626  0.2599  0.3757
 6096SOL    HW129924   2.294   3.423   4.043  0.7030 -2.5829  3.7276
 6096SOL    HW229925   2.218   3.513   4.140  0.3590  1.1230 -0.3639
 6097SOL     OW29926   2.871   3.126   7.120 -0.2786  0.4727  0.1023
 6097SOL    HW129927   2.794   3.144   7.066 -0.7267 -0.1993  0.5248
 6097SOL    HW229928   2.839   3.078   7.196  0.2791 -1.0246 -0.6018
 6098SOL     OW29929   0.429   1.980   6.161  0.2257 -0.1833  0.3416
 6098SOL    HW129930   0.448   1.894   6.124 -1.1018 -0.8198  1.1447
 6098SOL    HW229931   0.337   1.993   6.140  0.1506 -0.3915  0.5364
 6099SOL     OW29932   4.659   4.170  17.451 -0.1022 -0.1637 -0.0707
 6099SOL    HW129933   4.617   4.255  17.463 -0.3649 -0.2525 -0.3794
 6099SOL    HW229934   4.596   4.108  17.415  0.6120 -1.6609  1.2438
 6100SOL     OW29935   1.680   3.920   5.945  0.1814 -0.6789  0.3687
 6100SOL    HW129936   1.753   3.927   5.884  1.4894 -2.5016  1.7127
 6100SOL    HW229937   1.663   4.012   5.966  1.0747 -0.5012  0.3154
 6101SOL     OW29938   1.576   3.735   5.720 -0.3981  0.7606  0.3219
 6101SOL    HW129939   1.614   3.786   5.792  1.4730 -1.5465  0.9602
 6101SOL    HW229940   1.526   3.666   5.763  2.3224 -2.2333 -1.3671
 6102SOL     OW29941   4.610   3.049   2.333  0.3306 -0.1708  0.4431
 6102SOL    HW129942   4.643   3.073   2.246  0.0159 -0.4148  0.2590
 6102SOL    HW229943   4.614   2.954   2.328  0.8319 -0.0949 -0.6151
 6103SOL     OW29944   1.364   1.237   4.831 -0.1423  0.6295  0.2123
 6103SOL    HW129945   1.302   1.225   4.760 -1.3853  1.3368  1.1757
 6103SOL    HW229946   1.441   1.261   4.780 -0.4865  0.9973 -0.1337
 6104SOL     OW29947   2.862   0.864   5.918 -0.0616 -0.3056  0.0681
 6104SOL    HW129948   2.925   0.888   5.850 -3.1785  2.0878 -1.9813
 6104SOL    HW229949   2.820   0.791   5.873 -0.1805 -1.0130  1.3536
 6105SOL     OW29950   3.675   3.243   2.485  0.3740  0.3385 -0.2359
 6105SOL    HW129951   3.719   3.184   2.545  0.1160  0.7644  0.3784
 6105SOL    HW229952   3.727   3.258   2.406  0.2758 -0.6721 -0.4881
 6106SOL     OW29953   1.127   3.239   5.212 -0.2499 -0.2934 -0.3975
 6106SOL    HW129954   1.080   3.198   5.139  2.3602 -0.4905 -1.9716
 6106SOL    HW229955   1.197   3.285   5.166 -1.2429 -0.0988 -1.7141
 6107SOL     OW29956   1.865   3.844  14.067  0.0100  0.0269  0.4561
 6107SOL    HW129957   1.954   3.810  14.074  0.0754 -0.2824 -1.6881
 6107SOL    HW229958   1.881   3.937  14.077  0.5422  0.0011 -0.1546
 6108SOL     OW29959   4.681   3.231  12.367 -0.2774  0.3479  0.5214
 6108SOL    HW129960   0.006   3.201  12.436  0.7536 -1.2220 -1.0151
 6108SOL    HW229961   0.010   3.288  12.324 -0.6153 -0.6606 -1.3289
 6109SOL     OW29962   3.040   3.925  17.447  0.7305 -0.0570 -0.3135
 6109SOL    HW129963   2.954   3.964  17.430  0.5416 -1.1642 -1.8877
 6109SOL    HW229964   3.093   3.962  17.376  0.7294  0.6618  0.0541
 6110SOL     OW29965   2.480   1.854   1.205 -0.2657 -0.3563  0.2772
 6110SOL    HW129966   2.420   1.898   1.146 -0.5418 -0.4209  0.5120
 6110SOL    HW229967   2.437   1.826   1.286 -0.7965  1.5800  0.6692
 6111SOL     OW29968   4.714   4.220   6.131  0.2384 -0.5374  0.3848
 6111SOL    HW129969   4.645   4.231   6.196 -0.3126  4.3075 -1.0211
 6111SOL    HW229970   0.053   4.266   6.173  0.8186 -0.4437 -0.7235
 6112SOL     OW29971   2.000   3.700  14.364  0.7014 -0.0074 -0.0451
 6112SOL    HW129972   1.918   3.742  14.338  0.7358  0.0239 -0.1030
 6112SOL    HW229973   2.055   3.701  14.286 -1.3620  3.0203 -1.4700
 6113SOL     OW29974   2.062   4.175   8.817 -0.1645 -0.1818  0.2693
 6113SOL    HW129975   2.070   4.261   8.775 -0.8935  0.4998  1.5283
 6113SOL    HW229976   2.095   4.180   8.907  0.1356  2.1355  0.0261
 6114SOL     OW29977   4.162   0.732  13.283  0.0035  0.5543 -0.1372
 6114SOL    HW129978   4.181   0.813  13.331 -2.5673  1.5391 -0.7449
 6114SOL    HW229979   4.216   0.747  13.206  0.0877  1.0730  0.0232
 6115SOL     OW29980   2.543   4.272  12.230  0.5475  0.1314 -0.5826
 6115SOL    HW129981   2.572   4.182  12.241  0.9522  0.3350  0.0245
 6115SOL    HW229982   2.494   4.272  12.312  1.4361  1.2201 -0.0563
 6116SOL     OW29983   1.531   4.641   2.376 -0.1043 -0.0147 -0.7621
 6116SOL    HW129984   1.444   4.644   2.416  0.6051 -0.1416  0.7893
 6116SOL    HW229985   1.572   4.686   2.451 -1.6481  0.4627 -0.2055
 6117SOL     OW29986   2.684   3.824   2.768  0.2714  0.0595 -0.3948
 6117SOL    HW129987   2.652   3.824   2.859 -0.8438  0.9927 -0.7870
 6117SOL    HW229988   2.656   3.905   2.726 -1.9151 -0.9457 -0.8253
 6118SOL     OW29989   4.348   0.243   3.783 -0.0969 -0.4015  0.1998
 6118SOL    HW129990   4.340   0.338   3.789  0.7018 -0.3215  0.0885
 6118SOL    HW229991   4.268   0.219   3.737 -0.1052  3.7733 -1.9448
 6119SOL     OW29992   2.018   2.548  16.910  0.1525 -0.2075  0.7992
 6119SOL    HW129993   1.924   2.545  16.929 -0.2535  1.7476 -0.8643
 6119SOL    HW229994   2.045   2.492  16.983 -2.1063  0.2764  2.0047
 6120SOL     OW29995   0.541   0.596   7.851 -0.5540 -0.4455  0.4909
 6120SOL    HW129996   0.470   0.575   7.911  0.8648 -0.7957  2.0427
 6120SOL    HW229997   0.608   0.606   7.918 -1.4608  1.2610  1.1330
 6121SOL     OW29998   0.918   3.965   0.470 -0.9498 -0.7187 -0.1188
 6121SOL    HW129999   0.881   3.965   0.559 -0.1956 -1.7258  0.1865
 6121SOL    HW230000   1.012   3.957   0.483 -1.0529 -0.1394  1.0032
 6122SOL     OW30001   2.054   0.233   5.696  0.3000  0.1612 -0.1944
 6122SOL    HW130002   2.106   0.195   5.766  0.9658  1.3727 -0.0301
 6122SOL    HW230003   2.064   0.176   5.620 -1.9615  2.0725 -1.9523
 6123SOL     OW30004   4.594   0.640   5.673 -0.4636 -0.1601 -0.0353
 6123SOL    HW130005   4.575   0.560   5.626 -1.7221  1.1024 -1.6659
 6123SOL    HW230006   4.583   0.715   5.615 -0.0457 -0.0441  0.0345
 6124SOL     OW30007   4.101   3.679   6.498 -0.3653 -0.6713  0.0422
 6124SOL    HW130008   4.047   3.756   6.478 -0.0126 -0.0942  1.3354
 6124SOL    HW230009   4.086   3.658   6.590  2.1086  3.1607  1.3036
 6125SOL     OW30010   1.792   0.036   1.764  0.0560  0.8555  0.4730
 6125SOL    HW130011   1.749   0.021   1.848  0.4896 -1.7662  0.2136
 6125SOL    HW230012   1.879   0.008   1.791  0.2714  0.1305 -0.9585
 6126SOL     OW30013   3.335   4.163  16.386 -0.8934 -0.0720  0.0897
 6126SOL    HW130014   3.337   4.200  16.475 -0.8644  0.3635 -0.0894
 6126SOL    HW230015   3.409   4.219  16.363 -1.7065  0.6830 -0.6547
 6127SOL     OW30016   4.247   2.349  17.102 -0.0668  0.1688 -0.6700
 6127SOL    HW130017   4.272   2.263  17.135  1.7754  1.2468  0.7700
 6127SOL    HW230018   4.266   2.396  17.184  2.7779 -0.3836 -1.0028
 6128SOL     OW30019   0.656   4.513   9.259  0.3658 -0.9455  0.4737
 6128SOL    HW130020   0.576   4.565   9.270  1.0630  0.0344  0.9773
 6128SOL    HW230021   0.692   4.576   9.197  2.1363 -1.3521  1.1108
 6129SOL     OW30022   3.290   0.874  17.154  0.7558  0.1201  0.1028
 6129SOL    HW130023   3.373   0.904  17.115  1.8915  1.0347  3.2281
 6129SOL    HW230024   3.229   0.945  17.137 -1.9411 -2.1176  0.5736
 6130SOL     OW30025   1.413   0.997   5.741 -0.4821 -0.6659 -0.0616
 6130SOL    HW130026   1.472   1.055   5.788 -0.7322 -1.1759  0.8947
 6130SOL    HW230027   1.380   1.049   5.668 -0.4988  1.0995  1.1933
 6131SOL     OW30028   2.022   4.122  11.232  0.5499  0.1714 -0.3102
 6131SOL    HW130029   2.088   4.071  11.278 -0.7601 -1.3933 -0.1586
 6131SOL    HW230030   2.081   4.151  11.162 -0.7720  0.7836 -1.1904
 6132SOL     OW30031   1.575   3.369   8.451  0.1839  0.5053 -0.0621
 6132SOL    HW130032   1.493   3.321   8.450  1.0990 -1.0219 -1.1400
 6132SOL    HW230033   1.548   3.438   8.512 -1.0665  1.4088 -1.6714
 6133SOL     OW30034   3.502   2.959   3.229 -0.1734 -0.3176  0.6502
 6133SOL    HW130035   3.538   2.891   3.173 -1.8594 -1.8614  1.4420
 6133SOL    HW230036   3.461   3.012   3.161 -1.3387 -2.6597 -0.4613
 6134SOL     OW30037   0.367   0.914  11.883 -0.0716 -0.1582  0.0169
 6134SOL    HW130038   0.448   0.928  11.932  0.5677 -2.7457 -0.2789
 6134SOL    HW230039   0.358   0.818  11.887 -2.1218  0.0211 -0.2522
 6135SOL     OW30040   2.105   1.768   6.242  0.1504 -0.0192  0.0262
 6135SOL    HW130041   2.049   1.690   6.243  1.0552 -0.6759 -2.5276
 6135SOL    HW230042   2.122   1.791   6.334 -1.0801 -1.2011  0.5583
 6136SOL     OW30043   1.152   0.723  11.025  0.0294 -0.3120 -0.5216
 6136SOL    HW130044   1.149   0.806  10.978 -0.8511 -0.0026  0.0861
 6136SOL    HW230045   1.111   0.747  11.108  0.7663  0.3547 -0.3567
 6137SOL     OW30046   2.954   1.343  11.800 -0.3279 -0.1628  0.1749
 6137SOL    HW130047   2.980   1.266  11.852  0.9593  0.8753  1.0658
 6137SOL    HW230048   2.989   1.319  11.714  1.3849  0.9399  0.5522
 6138SOL     OW30049   4.407   1.989   7.525  0.2396  0.1912  0.6103
 6138SOL    HW130050   4.422   1.917   7.464 -0.9903  0.0107  0.5338
 6138SOL    HW230051   4.470   2.053   7.491 -2.1955  1.0213 -2.2995
 6139SOL     OW30052   4.548   1.914   7.205 -0.0578  0.0753 -0.3083
 6139SOL    HW130053   4.485   1.897   7.135 -0.4615 -0.3972  0.1653
 6139SOL    HW230054   4.626   1.924   7.150 -0.5648  3.7142 -0.3310
 6140SOL     OW30055   4.068   1.286  13.663 -0.3443  0.4172  0.0825
 6140SOL    HW130056   4.052   1.329  13.747  0.7536 -3.2962  2.2010
 6140SOL    HW230057   4.130   1.223  13.700 -1.0395 -0.4383 -0.2240
 6141SOL     OW30058   2.514   0.572  16.699 -0.5241 -0.0979 -0.1964
 6141SOL    HW130059   2.441   0.577  16.761 -0.6892  0.7768 -0.4693
 6141SOL    HW230060   2.501   0.649  16.644  0.9245  1.2321  1.3248
 6142SOL     OW30061   1.968   1.470  10.735 -0.1588 -0.6907 -0.0111
 6142SOL    HW130062   1.994   1.448  10.825 -0.0073 -3.1825 -0.6567
 6142SOL    HW230063   2.034   1.531  10.703 -2.0077  1.0328 -0.5389
 6143SOL     OW30064   1.834   4.537   5.894 -0.6392 -0.2011 -0.0475
 6143SOL    HW130065   1.819   4.595   5.969 -0.4871  1.0654 -0.9879
 6143SOL    HW230066   1.765   4.551   5.829 -0.6936 -1.8025 -0.3325
 6144SOL     OW30067   2.851   2.031   0.705  0.2659 -0.3930 -0.4144
 6144SOL    HW130068   2.839   1.977   0.783 -2.5312  1.9737  0.8030
 6144SOL    HW230069   2.869   2.121   0.733  2.7860 -0.5927 -1.4761
 6145SOL     OW30070   3.718   0.131   2.502  0.5345 -0.3887 -0.6647
 6145SOL    HW130071   3.655   0.155   2.433 -0.1981 -1.2209 -0.2848
 6145SOL    HW230072   3.783   0.200   2.491  0.0627  0.0855 -0.5077
 6146SOL     OW30073   1.818   3.167   3.272 -0.3037 -0.1580  0.5739
 6146SOL    HW130074   1.749   3.102   3.256  0.8907 -1.3471  0.2670
 6146SOL    HW230075   1.786   3.240   3.218 -1.8869 -0.2572  1.3616
 6147SOL     OW30076   2.943   2.410   6.174 -0.4176  0.2526  0.1212
 6147SOL    HW130077   2.898   2.493   6.162 -2.4918 -1.0762 -1.3180
 6147SOL    HW230078   3.030   2.426   6.136 -0.8325 -1.1688 -1.4276
 6148SOL     OW30079   0.227   0.764  15.218 -0.2146 -0.7318 -0.2307
 6148SOL    HW130080   0.244   0.712  15.297 -1.1910  1.2644  1.2906
 6148SOL    HW230081   0.290   0.836  15.226  0.7050 -1.6629  1.0708
 6149SOL     OW30082   4.485   4.252   1.831 -0.2372  0.7440 -0.3399
 6149SOL    HW130083   4.497   4.341   1.799 -2.4994  0.6028 -1.6053
 6149SOL    HW230084   4.494   4.272   1.925  1.0011 -0.1475 -0.2826
 6150SOL     OW30085   3.235   1.619   3.596  0.0724 -0.0762 -0.6341
 6150SOL    HW130086   3.314   1.606   3.543  0.8188  1.1336  0.1874
 6150SOL    HW230087   3.185   1.666   3.529 -0.8486 -0.2815 -0.0892
 6151SOL     OW30088   1.359   1.986   2.791  0.9218  0.1911 -0.0983
 6151SOL    HW130089   1.376   1.896   2.761 -0.3716  0.9982 -3.2888
 6151SOL    HW230090   1.450   2.013   2.781  1.1467 -0.6771 -0.4196
 6152SOL     OW30091   0.194   2.619   2.198 -0.0050 -0.2835 -0.4165
 6152SOL    HW130092   0.289   2.616   2.202 -0.0490 -1.3356 -0.2367
 6152SOL    HW230093   0.179   2.571   2.117  0.5972 -1.5777  0.2481
 6153SOL     OW30094   4.162   2.211  13.630 -0.3218 -0.4700  0.1244
 6153SOL    HW130095   4.223   2.148  13.591 -0.7376 -0.5007 -0.4741
 6153SOL    HW230096   4.199   2.210  13.718  1.1221  0.0354 -0.4821
 6154SOL     OW30097   1.008   2.618  15.018  0.1254 -0.1203  0.1057
 6154SOL    HW130098   0.935   2.658  14.970 -0.8048 -0.6393  1.0976
 6154SOL    HW230099   0.971   2.533  15.042  0.5570  0.3902  2.5896
 6155SOL     OW30100   4.380   0.756   3.672  0.1679  0.1596 -0.5489
 6155SOL    HW130101   4.428   0.684   3.632 -0.3872  0.4443 -1.7391
 6155SOL    HW230102   4.292   0.718   3.682  0.4730 -1.3994 -3.6814
 6156SOL     OW30103   2.742   4.057  12.317  0.4554 -0.2257  0.6233
 6156SOL    HW130104   2.729   3.965  12.292 -1.5704  0.2732 -0.1640
 6156SOL    HW230105   2.814   4.084  12.260  0.1686  1.6333  1.1578
 6157SOL     OW30106   0.138   2.378   4.914  0.6601 -0.1021 -0.1692
 6157SOL    HW130107   0.133   2.305   4.975 -1.2957  0.2541  0.0852
 6157SOL    HW230108   0.232   2.397   4.921  0.7360 -0.3091 -0.6951
 6158SOL     OW30109   2.464   0.152   3.819 -0.1959  0.0523 -0.3412
 6158SOL    HW130110   2.387   0.128   3.872 -0.2990 -1.4451 -1.1643
 6158SOL    HW230111   2.418   0.200   3.751 -1.1229 -0.9650 -0.4349
 6159SOL     OW30112   3.920   1.168   0.786 -0.1978  0.0502 -0.3931
 6159SOL    HW130113   3.904   1.173   0.691  1.6065 -1.0398 -0.7587
 6159SOL    HW230114   3.833   1.157   0.823  0.1525  0.0704  0.4368
 6160SOL     OW30115   2.442   3.586  14.389 -0.0141 -0.1336 -0.2612
 6160SOL    HW130116   2.369   3.543  14.434  0.8266  0.5842  1.8370
 6160SOL    HW230117   2.485   3.517  14.340 -1.2071  0.6242 -2.3712
 6161SOL     OW30118   0.441   1.908   8.084 -0.1895  0.0585  0.3145
 6161SOL    HW130119   0.476   1.825   8.116 -0.4599 -0.2541 -0.1814
 6161SOL    HW230120   0.389   1.939   8.158 -0.3407  2.7252 -0.9250
 6162SOL     OW30121   3.253   3.480   1.754  0.5973 -0.1901 -0.3023
 6162SOL    HW130122   3.314   3.422   1.709  2.8406  0.0349  2.4436
 6162SOL    HW230123   3.195   3.420   1.802 -1.7477 -0.3248 -3.3133
 6163SOL     OW30124   4.367   0.276  10.152 -0.0989 -0.4999  0.0739
 6163SOL    HW130125   4.422   0.344  10.188 -1.5245  0.4924  0.3926
 6163SOL    HW230126   4.285   0.316  10.122  0.1003  0.0795  0.3132
 6164SOL     OW30127   1.197   0.918   3.453  0.0066  0.3050  0.0511
 6164SOL    HW130128   1.225   0.961   3.534 -1.5803 -0.2396  0.8987
 6164SOL    HW230129   1.278   0.874   3.430 -0.5436 -0.0411 -1.2547
 6165SOL     OW30130   0.438   0.365  12.478 -0.0524 -0.2100  0.0516
 6165SOL    HW130131   0.466   0.351  12.568  2.0543  1.1109 -0.3941
 6165SOL    HW230132   0.368   0.430  12.486 -0.1164 -0.3247  0.3931
 6166SOL     OW30133   3.315   1.373  10.478 -0.2924 -0.0612 -0.2904
 6166SOL    HW130134   3.333   1.441  10.413 -0.9915  0.3993 -0.0099
 6166SOL    HW230135   3.397   1.361  10.525 -1.1451 -0.2905  1.1372
 6167SOL     OW30136   3.083   0.327   5.289 -0.0458 -0.5461 -0.2476
 6167SOL    HW130137   3.083   0.404   5.232  0.8082  0.0220  0.5149
 6167SOL    HW230138   3.117   0.260   5.230  0.0138  0.8828 -1.8441
 6168SOL     OW30139   3.503   0.272   0.376  0.3032  0.9336 -0.2223
 6168SOL    HW130140   3.441   0.343   0.395 -1.0432  0.4129 -2.7739
 6168SOL    HW230141   3.502   0.274   0.281 -0.8948 -0.1360 -0.2256
 6169SOL     OW30142   3.352   1.694   2.853 -0.1663 -0.4423  0.2280
 6169SOL    HW130143   3.429   1.697   2.909 -0.2932 -1.4015  0.4421
 6169SOL    HW230144   3.326   1.786   2.863 -1.8200 -0.7873 -0.7153
 6170SOL     OW30145   3.758   2.192   7.912 -0.2013  0.6112  0.4335
 6170SOL    HW130146   3.760   2.098   7.892 -1.1128  0.8777 -0.9644
 6170SOL    HW230147   3.820   2.214   7.843  0.1799  0.1880  0.6478
 6171SOL     OW30148   1.963   4.062   4.170 -0.1091  0.3705  0.0232
 6171SOL    HW130149   1.956   3.994   4.104 -0.9536 -1.6581  2.1877
 6171SOL    HW230150   1.881   4.106   4.150 -0.1485  0.8612  1.2218
 6172SOL     OW30151   3.160   2.510   3.195 -0.2077  0.2063 -0.2039
 6172SOL    HW130152   3.238   2.531   3.246 -0.9388  2.6940 -0.0722
 6172SOL    HW230153   3.212   2.474   3.124  0.3886 -0.1481  0.4081
 6173SOL     OW30154   2.174   2.644   8.672 -0.0948 -0.1620 -0.3988
 6173SOL    HW130155   2.218   2.709   8.727 -1.9515 -0.1606  1.0505
 6173SOL    HW230156   2.140   2.702   8.604 -1.0073  0.0572  0.2544
 6174SOL     OW30157   3.851   0.187   2.195 -0.3459 -0.2667 -0.3979
 6174SOL    HW130158   3.889   0.245   2.261 -0.7327 -0.7938  0.2840
 6174SOL    HW230159   3.756   0.195   2.202 -0.3451 -0.4212 -0.2174
 6175SOL     OW30160   3.097   3.414   5.794 -0.1419  0.7387  0.2072
 6175SOL    HW130161   3.158   3.379   5.859 -1.7200 -1.2369  0.6036
 6175SOL    HW230162   3.025   3.444   5.849 -1.8635 -1.5372 -0.8299
 6176SOL     OW30163   4.679   4.454   5.901  0.0428 -0.1867  0.8768
 6176SOL    HW130164   0.039   4.452   5.916  0.8479  1.2872 -4.1055
 6176SOL    HW230165   4.638   4.422   5.981 -0.8692  1.0365  0.8977
 6177SOL     OW30166   2.965   1.484   6.320  0.0712  0.1544  0.1058
 6177SOL    HW130167   2.880   1.488   6.277  0.3961  1.3639 -0.4029
 6177SOL    HW230168   3.002   1.417   6.263 -0.0151  0.8069 -0.7048
 6178SOL     OW30169   1.372   2.894   6.900  0.2298  0.5127  0.2322
 6178SOL    HW130170   1.367   2.895   6.996 -1.5274  3.9070  0.1344
 6178SOL    HW230171   1.405   2.806   6.881 -0.4218  0.8063 -2.2039
 6179SOL     OW30172   2.152   3.835  11.578 -0.4893  0.2193  0.2378
 6179SOL    HW130173   2.097   3.820  11.654  1.3191 -2.2037  1.0478
 6179SOL    HW230174   2.093   3.838  11.503 -0.2515  0.4083  0.0580
 6180SOL     OW30175   2.724   4.005  12.607 -0.0405  0.1809  1.0144
 6180SOL    HW130176   2.804   4.034  12.651  1.5925 -1.6347 -0.7620
 6180SOL    HW230177   2.741   4.053  12.526  0.1229 -0.2112  0.8141
 6181SOL     OW30178   2.410   0.706   4.219 -0.5092 -0.0049  0.2008
 6181SOL    HW130179   2.328   0.659   4.230 -0.5971 -0.7408 -3.6417
 6181SOL    HW230180   2.382   0.769   4.153  1.0323  0.5145  0.0275
 6182SOL     OW30181   2.934   0.562  15.328 -0.0619 -0.2355  0.5785
 6182SOL    HW130182   2.911   0.637  15.273  1.6673 -0.6653 -0.7389
 6182SOL    HW230183   3.025   0.559  15.297 -1.0715  2.1208 -2.5892
 6183SOL     OW30184   0.446   3.094   5.511  0.2591 -0.3360 -0.0234
 6183SOL    HW130185   0.411   3.181   5.491 -0.9399 -0.5872  0.9595
 6183SOL    HW230186   0.400   3.033   5.453 -2.1980  0.3181  1.2235
 6184SOL     OW30187   3.671   0.960   6.002 -0.3392  0.2908 -0.0814
 6184SOL    HW130188   3.643   0.869   6.006  0.4356  0.1274  1.4472
 6184SOL    HW230189   3.681   0.988   6.093  2.2676 -2.0537  0.3404
 6185SOL     OW30190   1.984   2.637   7.285  0.2883  0.1600 -0.6251
 6185SOL    HW130191   2.023   2.724   7.282  1.2492 -0.1761  2.3375
 6185SOL    HW230192   2.047   2.594   7.342 -1.3805  0.7183  1.6419
 6186SOL     OW30193   3.682   3.761   8.987 -0.2572 -0.4021 -0.0824
 6186SOL    HW130194   3.591   3.787   9.002  0.8424  2.2536  2.1818
 6186SOL    HW230195   3.676   3.747   8.892 -2.2840 -3.7603  0.5696
 6187SOL     OW30196   3.491   3.202  11.766  0.1435 -0.2712 -0.4182
 6187SOL    HW130197   3.570   3.180  11.816 -0.9222 -1.6791  0.6442
 6187SOL    HW230198   3.521   3.209  11.675  1.8471  0.1125  0.1692
 6188SOL     OW30199   4.192   3.942   7.627  0.1476  0.3205 -0.3054
 6188SOL    HW130200   4.190   3.911   7.717  0.2443  2.0077  0.2845
 6188SOL    HW230201   4.188   3.862   7.574 -0.0039  0.1713 -0.0676
 6189SOL     OW30202   2.183   2.759   1.599 -0.7622 -0.1223  0.2902
 6189SOL    HW130203   2.186   2.854   1.586 -0.1900  0.1948  2.7341
 6189SOL    HW230204   2.235   2.737   1.522 -1.1815 -1.2749  0.3358
 6190SOL     OW30205   2.192   4.105   5.714  0.3637 -0.2210  0.2265
 6190SOL    HW130206   2.209   4.193   5.682  0.3421  0.0783  1.0315
 6190SOL    HW230207   2.284   4.081   5.726  0.0296 -0.7843  1.6968
 6191SOL     OW30208   2.209   3.477   6.368  0.2162 -0.6144  0.6801
 6191SOL    HW130209   2.203   3.494   6.462  2.8181 -0.8383  0.8692
 6191SOL    HW230210   2.134   3.524   6.333 -0.2248 -0.9230  1.2013
 6192SOL     OW30211   2.200   2.506   3.538  0.7479 -0.3877  0.1026
 6192SOL    HW130212   2.157   2.580   3.495 -0.2285 -0.5847  0.7581
 6192SOL    HW230213   2.127   2.445   3.534  0.6538 -0.2734  0.0928
 6193SOL     OW30214   2.658   2.976   9.524  0.4358 -0.5823  0.2700
 6193SOL    HW130215   2.593   2.941   9.584 -0.9406 -0.4012 -1.1055
 6193SOL    HW230216   2.612   3.046   9.477  1.5173  1.6059  2.4841
 6194SOL     OW30217   1.580   1.070   6.571 -0.3179 -0.4171 -0.3753
 6194SOL    HW130218   1.511   1.136   6.579  0.2770  0.0387  0.9810
 6194SOL    HW230219   1.535   1.010   6.512  1.9191 -2.0775 -0.4136
 6195SOL     OW30220   4.630   1.350   4.638  0.2418 -0.3943 -0.8385
 6195SOL    HW130221   4.648   1.257   4.652 -0.4516 -0.3905  0.1314
 6195SOL    HW230222   4.544   1.342   4.595  0.7853 -1.0673 -1.7935
 6196SOL     OW30223   0.236   1.403   4.071  0.5185  0.4879  0.1497
 6196SOL    HW130224   0.192   1.404   4.155  2.2368 -2.2794  1.0880
 6196SOL    HW230225   0.255   1.496   4.058 -1.8418  0.4682 -3.2768
 6197SOL     OW30226   2.999   2.057   3.679 -0.3659 -0.2822 -0.4520
 6197SOL    HW130227   3.026   2.143   3.712  0.9973 -1.3381  1.1968
 6197SOL    HW230228   2.990   2.071   3.585  0.1644 -0.0681 -0.4725
 6198SOL     OW30229   0.413   0.132  11.481  0.5442  0.1076  0.5945
 6198SOL    HW130230   0.404   0.048  11.526  2.1353 -0.9568 -1.0900
 6198SOL    HW230231   0.340   0.183  11.517  0.2980  0.1808 -0.0059
 6199SOL     OW30232   1.609   3.638   8.874  0.3028  0.6729  0.0590
 6199SOL    HW130233   1.548   3.683   8.933  0.2253  0.4339  0.1574
 6199SOL    HW230234   1.627   3.704   8.806  1.2874  0.7212  0.3757
 6200SOL     OW30235   2.140   1.695  16.344 -0.1550 -0.1117  0.1633
 6200SOL    HW130236   2.096   1.720  16.263  1.9338 -2.9881 -1.8399
 6200SOL    HW230237   2.215   1.647  16.309  0.6498  0.7470  0.6827
 6201SOL     OW30238   0.176   1.477   2.104  0.4204 -0.2415  0.3840
 6201SOL    HW130239   0.088   1.492   2.138  0.6712  4.4525 -1.1453
 6201SOL    HW230240   0.190   1.387   2.136 -1.2588 -0.5051  0.4136
 6202SOL     OW30241   1.208   1.759   4.545  0.6492  0.7167 -0.2343
 6202SOL    HW130242   1.123   1.780   4.584  0.1308  0.9292 -1.4808
 6202SOL    HW230243   1.230   1.678   4.592 -1.6035 -0.0871 -0.5744
 6203SOL     OW30244   1.922   2.616   5.393  0.0961 -0.4604 -0.6111
 6203SOL    HW130245   1.944   2.645   5.304  0.6273  0.8654 -0.0415
 6203SOL    HW230246   2.005   2.647   5.428 -0.0113 -1.7016  0.7175
 6204SOL     OW30247   4.593   2.188   6.539  0.1601 -0.3631  0.2052
 6204SOL    HW130248   4.676   2.226   6.510 -0.3763  1.2979  0.8447
 6204SOL    HW230249   4.614   2.179   6.632  2.7316  0.0596 -0.3349
 6205SOL     OW30250   2.617   1.630   6.017 -0.2280  0.0272  0.5289
 6205SOL    HW130251   2.537   1.626   5.964  0.9563  0.5228 -1.2732
 6205SOL    HW230252   2.685   1.620   5.950  0.1277  2.9503  0.4383
 6206SOL     OW30253   0.793   4.621   8.653  0.1748 -0.0192  0.4618
 6206SOL    HW130254   0.778   4.697   8.711 -1.4529  1.3505 -1.7453
 6206SOL    HW230255   0.773   4.662   8.569 -0.7387  2.2729  1.7832
 6207SOL     OW30256   4.102   0.667  16.639 -0.1193  0.5793 -0.0113
 6207SOL    HW130257   4.012   0.656  16.609  0.4436  4.0308 -2.9998
 6207SOL    HW230258   4.081   0.728  16.711  0.8732 -0.1565  0.8942
 6208SOL     OW30259   1.422   1.447  12.075 -0.4425  0.4480  0.8223
 6208SOL    HW130260   1.417   1.461  12.170 -0.7059 -1.5673  1.0975
 6208SOL    HW230261   1.371   1.368  12.058 -0.0828  0.6378 -1.1033
 6209SOL     OW30262   4.321   3.329   8.216  0.0850  0.3251  0.2041
 6209SOL    HW130263   4.331   3.262   8.148 -0.3741  0.7751 -0.3086
 6209SOL    HW230264   4.247   3.292   8.264 -0.1012 -0.5720 -0.7770
 6210SOL     OW30265   3.156   0.214   5.797  0.7094 -0.2214  0.4134
 6210SOL    HW130266   3.241   0.199   5.840  0.6978  1.6981  1.1205
 6210SOL    HW230267   3.187   0.267   5.724 -0.3620  0.5526  0.5279
 6211SOL     OW30268   1.606   1.573   0.731 -0.1198 -0.3648  0.2711
 6211SOL    HW130269   1.540   1.512   0.765  0.8723 -1.2028  0.6994
 6211SOL    HW230270   1.659   1.512   0.680 -0.8353 -0.0733 -0.8146
 6212SOL     OW30271   3.602   1.119   9.027 -0.4322 -0.7460  0.1033
 6212SOL    HW130272   3.562   1.185   9.083 -1.4299 -2.0145  0.8571
 6212SOL    HW230273   3.523   1.071   9.002 -1.4322  0.7884  0.2996
 6213SOL     OW30274   0.192   0.632   4.255 -0.2930  0.0948  0.6605
 6213SOL    HW130275   0.202   0.564   4.187  1.0948 -0.6743  1.6385
 6213SOL    HW230276   0.097   0.634   4.253 -0.3108 -1.5452 -0.8946
 6214SOL     OW30277   2.231   4.540   4.678 -0.2682 -0.1449 -0.3258
 6214SOL    HW130278   2.210   4.456   4.720  0.5334  0.9234  2.2006
 6214SOL    HW230279   2.325   4.537   4.697 -0.4486 -0.2310  0.5631
 6215SOL     OW30280   4.501   0.698   3.351 -0.1660 -0.6408 -0.4609
 6215SOL    HW130281   4.478   0.758   3.280  2.4562  1.2357  0.2839
 6215SOL    HW230282   4.596   0.699   3.343 -0.1206 -0.5678  0.0783
 6216SOL     OW30283   3.074   4.649   8.677  0.5557  0.0985 -0.2275
 6216SOL    HW130284   3.071   4.629   8.584  2.4836 -1.3016  0.0057
 6216SOL    HW230285   3.156   4.606   8.702  1.2870  0.8982 -1.2107
 6217SOL     OW30286   4.253   2.681   7.625  0.0472  0.7563  0.3623
 6217SOL    HW130287   4.244   2.773   7.649 -2.2849 -0.0692  2.7065
 6217SOL    HW230288   4.276   2.638   7.708  0.3981  1.9705  0.8936
 6218SOL     OW30289   3.495   2.887  11.722 -0.5156 -0.2998 -0.3958
 6218SOL    HW130290   3.569   2.941  11.752 -1.3113  0.9510 -0.6954
 6218SOL    HW230291   3.422   2.939  11.755  0.0593 -0.5385  1.2720
 6219SOL     OW30292   1.779   2.517   4.447 -0.6550  0.9342 -0.1881
 6219SOL    HW130293   1.808   2.545   4.533 -0.2125  0.4984 -0.2003
 6219SOL    HW230294   1.749   2.428   4.466 -0.0504  0.5730 -0.9107
 6220SOL     OW30295   1.806   0.742   7.109 -0.3537  0.2062 -0.0013
 6220SOL    HW130296   1.836   0.652   7.091  1.7154  1.3694 -2.3848
 6220SOL    HW230297   1.886   0.792   7.093  0.4107 -1.7472 -2.3318
 6221SOL     OW30298   0.357   1.215   7.127  0.8036 -0.0847  0.5217
 6221SOL    HW130299   0.323   1.126   7.137  1.0598 -0.4513 -1.8913
 6221SOL    HW230300   0.446   1.192   7.153  1.3634  1.8776  0.3714
 6222SOL     OW30301   4.460   2.143  10.100 -0.0794  0.3890  0.7635
 6222SOL    HW130302   4.386   2.092  10.066  1.4016 -1.4036  0.2430
 6222SOL    HW230303   4.498   2.164  10.015  2.2793 -0.9683  1.5007
 6223SOL     OW30304   1.078   4.644   8.700  0.1734  0.3277  0.1490
 6223SOL    HW130305   0.985   4.632   8.678  0.4797  0.7200 -1.3581
 6223SOL    HW230306   1.121   4.586   8.637  2.0012 -0.2061  1.9017
 6224SOL     OW30307   4.513   4.700   1.269 -0.0071  0.4387  0.2881
 6224SOL    HW130308   4.480   0.037   1.323  3.0981  0.7277  1.7451
 6224SOL    HW230309   4.606   4.703   1.289  0.1125  0.4262 -0.2674
 6225SOL     OW30310   0.818   2.523  16.826 -0.0972  0.1838  0.2347
 6225SOL    HW130311   0.760   2.508  16.751 -1.2135 -0.1476  1.1519
 6225SOL    HW230312   0.798   2.614  16.846  1.6847  0.4008  1.0013
 6226SOL     OW30313   0.808   1.703   3.032 -0.3436 -0.2088  0.0305
 6226SOL    HW130314   0.799   1.796   3.011  1.7140  0.1617  0.8609
 6226SOL    HW230315   0.766   1.661   2.957 -0.2718 -1.8791  0.9311
 6227SOL     OW30316   1.413   3.536   3.856  0.3545  0.5136 -0.7030
 6227SOL    HW130317   1.346   3.473   3.882  0.9659 -0.9295 -2.6396
 6227SOL    HW230318   1.481   3.474   3.829 -0.1044 -1.1952  2.0346
 6228SOL     OW30319   0.578   0.836   3.807  0.1212 -0.1409 -0.1675
 6228SOL    HW130320   0.664   0.879   3.811 -0.5067  0.9951  0.9212
 6228SOL    HW230321   0.589   0.773   3.736  0.9890 -1.4451  1.1274
 6229SOL     OW30322   2.670   0.954   3.995 -0.6649 -0.3938  0.0930
 6229SOL    HW130323   2.616   0.981   3.921  2.0956 -1.9326 -2.4791
 6229SOL    HW230324   2.684   0.860   3.978  1.2484 -0.3349  1.3172
 6230SOL     OW30325   2.753   3.348   5.042 -0.2501 -0.7779  0.2610
 6230SOL    HW130326   2.707   3.385   5.117  1.6169 -1.0556  1.5597
 6230SOL    HW230327   2.712   3.262   5.034 -0.6880 -0.7608  2.3119
 6231SOL     OW30328   2.620   1.194   2.848  0.0830  0.0778 -0.2485
 6231SOL    HW130329   2.539   1.244   2.860 -0.6022 -1.7298  2.6352
 6231SOL    HW230330   2.651   1.241   2.771  0.5339  1.0342  0.5214
 6232SOL     OW30331   0.933   2.086   7.643  0.6016 -0.0026  0.6408
 6232SOL    HW130332   0.973   2.027   7.579  1.1735  1.9252 -0.7836
 6232SOL    HW230333   0.988   2.075   7.720  1.3752  1.8869  0.3664
 6233SOL     OW30334   4.621   0.069   2.393  0.0521 -0.0302  0.5969
 6233SOL    HW130335   4.627   0.141   2.330  1.7775  0.0124  0.7882
 6233SOL    HW230336   4.580   0.110   2.469 -1.0201 -0.3144  0.1650
 6234SOL     OW30337   0.914   1.373   3.714 -0.5416  0.4589  0.4419
 6234SOL    HW130338   0.885   1.387   3.624 -2.0905 -1.5396  0.6175
 6234SOL    HW230339   0.856   1.298   3.728  1.6958 -0.8451  2.8057
 6235SOL     OW30340   1.987   0.495   3.519  0.2339 -0.1051 -0.2711
 6235SOL    HW130341   2.012   0.558   3.452  1.7237  0.4094  0.7702
 6235SOL    HW230342   1.896   0.477   3.496  1.1116 -0.9663 -3.0662
 6236SOL     OW30343   4.458   3.988   7.908  0.0039  0.6004 -0.1172
 6236SOL    HW130344   4.509   3.920   7.952  0.6591  0.8725 -0.4691
 6236SOL    HW230345   4.375   3.964   7.951 -0.2103  1.1871 -0.2152
 6237SOL     OW30346   1.685   1.508   3.674  0.2618  0.3852  0.5602
 6237SOL    HW130347   1.629   1.546   3.741 -1.3737 -2.4041  0.7687
 6237SOL    HW230348   1.745   1.582   3.672  0.9743 -0.2615 -1.6156
 6238SOL     OW30349   1.742   1.478  10.545 -0.0792  0.0457  0.6015
 6238SOL    HW130350   1.806   1.470  10.616 -0.0107  0.5874  0.6014
 6238SOL    HW230351   1.781   1.556  10.505 -1.7038  0.9476  0.7995
 6239SOL     OW30352   2.206   2.891   2.746  0.0743 -0.3515  0.1211
 6239SOL    HW130353   2.130   2.872   2.692  0.8295  0.8177 -1.3789
 6239SOL    HW230354   2.208   2.987   2.744  1.9318 -0.3414  1.7340
 6240SOL     OW30355   1.949   2.801  14.028  1.0728  0.5617 -0.1862
 6240SOL    HW130356   1.928   2.769  13.940  0.9796 -0.3311  0.1570
 6240SOL    HW230357   1.866   2.840  14.056  1.2101  1.3169 -0.8393
 6241SOL     OW30358   1.887   3.677   0.578  0.0707 -0.0436  0.2938
 6241SOL    HW130359   1.899   3.772   0.571  2.3498 -0.4298 -1.0675
 6241SOL    HW230360   1.808   3.672   0.524 -0.1926  3.5446  0.3472
 6242SOL     OW30361   4.025   1.317  10.495  0.0918 -0.0664 -0.1671
 6242SOL    HW130362   3.930   1.324  10.482  0.1098  2.2755  1.0204
 6242SOL    HW230363   4.032   1.350  10.584  2.1901 -0.5026 -0.1711
 6243SOL     OW30364   3.858   3.463   3.961 -0.4097  0.0724  0.2172
 6243SOL    HW130365   3.790   3.399   3.941 -1.2471  1.0395 -0.0355
 6243SOL    HW230366   3.942   3.423   3.937 -1.3879 -1.2632 -0.9494
 6244SOL     OW30367   3.837   1.446  17.212  0.6687  0.5080  0.6324
 6244SOL    HW130368   3.775   1.512  17.243 -0.9583 -1.0135  0.6631
 6244SOL    HW230369   3.882   1.497  17.146  2.1056 -1.3009  0.1947
 6245SOL     OW30370   3.594   1.234   6.250  0.0643 -0.1323  0.2429
 6245SOL    HW130371   3.628   1.319   6.278  0.8489 -0.0613 -0.9485
 6245SOL    HW230372   3.678   1.197   6.223 -0.2360 -0.8104  0.2331
 6246SOL     OW30373   2.167   0.165   2.680  0.1229  0.0928 -0.4207
 6246SOL    HW130374   2.125   0.195   2.761  2.2556 -0.4002  0.8665
 6246SOL    HW230375   2.093   0.127   2.633  0.2648  0.3981 -0.8919
 6247SOL     OW30376   0.250   1.165   4.948 -0.3007 -0.2825  0.2512
 6247SOL    HW130377   0.280   1.236   4.891  0.1345  0.6789  1.6708
 6247SOL    HW230378   0.300   1.188   5.026  1.3638  1.6312 -1.3392
 6248SOL     OW30379   1.192   2.082   7.762 -0.1206 -0.1719  0.1730
 6248SOL    HW130380   1.192   2.177   7.751  1.3601 -0.4270 -2.0860
 6248SOL    HW230381   1.277   2.052   7.730  0.2327  0.1024  0.8540
 6249SOL     OW30382   2.682   2.399   3.763 -0.1686  0.4968  0.4155
 6249SOL    HW130383   2.768   2.418   3.725  0.0202 -0.8962  0.1259
 6249SOL    HW230384   2.675   2.307   3.791  0.8822  1.0012  2.3450
 6250SOL     OW30385   1.131   4.088   5.027  0.4294  0.1100 -0.0673
 6250SOL    HW130386   1.071   4.116   4.958  0.4965 -0.3201 -0.2947
 6250SOL    HW230387   1.143   3.999   4.994 -0.9391 -0.2284  0.3748
 6251SOL     OW30388   1.857   4.517   8.516 -0.2622  0.6455  0.0555
 6251SOL    HW130389   1.893   4.429   8.529 -0.4845  0.6343  0.6029
 6251SOL    HW230390   1.770   4.497   8.482  0.5392 -2.5663 -0.0709
 6252SOL     OW30391   0.254   4.446   4.230  0.3525 -0.1227  0.1904
 6252SOL    HW130392   0.190   4.448   4.158 -0.2629 -2.0423  0.6691
 6252SOL    HW230393   0.255   4.536   4.261 -0.9607 -0.1249  0.2554
 6253SOL     OW30394   2.702   3.711   3.291  0.0067 -0.2076 -0.1722
 6253SOL    HW130395   2.761   3.647   3.251  0.1470 -0.3248  0.2236
 6253SOL    HW230396   2.753   3.726   3.370 -0.6823  1.8179 -0.1222
 6254SOL     OW30397   2.350   1.553   8.372 -0.0101  0.0846 -0.3383
 6254SOL    HW130398   2.265   1.555   8.329  0.4063  0.0416 -1.1540
 6254SOL    HW230399   2.354   1.624   8.437 -1.1898 -0.8309  0.7133
 6255SOL     OW30400   2.675   3.349   1.682  0.0272 -0.0667 -0.2382
 6255SOL    HW130401   2.625   3.345   1.600 -0.1417 -0.5105 -0.1172
 6255SOL    HW230402   2.718   3.264   1.685  0.9226  0.4529  1.4340
 6256SOL     OW30403   4.330   1.401  13.017 -0.0134  0.4430 -0.2544
 6256SOL    HW130404   4.404   1.432  13.070  0.3060  0.7177 -0.8650
 6256SOL    HW230405   4.323   1.307  13.031  1.4538  0.6698  2.0111
 6257SOL     OW30406   0.433   3.601   5.078 -0.3224 -0.3768 -0.0610
 6257SOL    HW130407   0.445   3.510   5.050 -1.9915 -0.3675 -0.7832
 6257SOL    HW230408   0.503   3.650   5.036 -0.3809  0.7486  1.1536
 6258SOL     OW30409   0.596   0.514  13.298  0.3296 -0.1801  0.5154
 6258SOL    HW130410   0.646   0.589  13.265 -0.8259  1.1690  1.8120
 6258SOL    HW230411   0.671   0.456  13.314 -0.4203 -1.7111 -1.5094
 6259SOL     OW30412   3.337   3.249   7.988  0.1487  0.0479 -0.1040
 6259SOL    HW130413   3.383   3.219   8.067 -1.2501  0.1688  0.7461
 6259SOL    HW230414   3.310   3.335   8.021 -2.6285 -0.4830 -1.0497
 6260SOL     OW30415   2.744   0.599  15.763 -0.2018 -0.1748  0.5622
 6260SOL    HW130416   2.755   0.535  15.833 -1.8168  1.1424  2.0100
 6260SOL    HW230417   2.819   0.575  15.708 -0.3403  1.8950 -0.5422
 6261SOL     OW30418   0.676   3.747   0.546 -1.0734 -0.1864 -0.6287
 6261SOL    HW130419   0.654   3.835   0.517 -0.7087  0.9168  2.4144
 6261SOL    HW230420   0.680   3.701   0.462 -0.5479  0.2379 -0.8389
 6262SOL     OW30421   0.932   3.814  11.188 -0.0268 -0.0185  0.0701
 6262SOL    HW130422   0.837   3.814  11.179  0.2929  2.0029 -3.2410
 6262SOL    HW230423   0.960   3.786  11.101  1.3578 -0.5744  0.6812
 6263SOL     OW30424   2.761   2.262   6.819 -0.4529  0.0125  0.4305
 6263SOL    HW130425   2.846   2.293   6.788 -0.0467  2.3941  3.8824
 6263SOL    HW230426   2.781   2.188   6.877  0.3301  0.4604  0.7346
 6264SOL     OW30427   0.052   2.876   8.197  0.1335  0.0942  0.2601
 6264SOL    HW130428   0.063   2.941   8.265 -0.6815 -0.5544  1.0086
 6264SOL    HW230429   0.051   2.801   8.256  0.8296 -0.4574 -0.4255
 6265SOL     OW30430   1.159   4.403   9.521  0.3808 -0.5549  0.5246
 6265SOL    HW130431   1.247   4.440   9.530  0.3168 -0.2818  0.0252
 6265SOL    HW230432   1.180   4.309   9.516  0.7330 -0.4954  0.8463
 6266SOL     OW30433   3.000   3.614  10.400  0.0810  0.4240 -0.0726
 6266SOL    HW130434   2.912   3.584  10.375  0.6762 -1.8682  0.6462
 6266SOL    HW230435   3.050   3.537  10.376 -0.2347 -0.3899  1.9257
 6267SOL     OW30436   4.375   2.691   5.679 -0.1857  0.3977 -0.3682
 6267SOL    HW130437   4.320   2.669   5.754  0.0569 -1.9536 -0.8592
 6267SOL    HW230438   4.312   2.704   5.608 -1.5012 -2.6898  0.2200
 6268SOL     OW30439   3.698   0.602   6.879 -0.0258  0.2483  0.5492
 6268SOL    HW130440   3.756   0.601   6.955  0.0136  0.4368  0.5211
 6268SOL    HW230441   3.686   0.508   6.868 -1.7483  0.3314  1.6936
 6269SOL     OW30442   4.203   3.967   2.553  0.6091  0.7614  0.0357
 6269SOL    HW130443   4.206   3.879   2.516 -0.2981  1.3598 -1.4439
 6269SOL    HW230444   4.136   3.962   2.621  0.8394  2.2227  0.3733
 6270SOL     OW30445   2.128   0.239  13.114 -0.4725  0.3377 -0.1268
 6270SOL    HW130446   2.158   0.255  13.024 -0.8108  1.3550 -0.0641
 6270SOL    HW230447   2.207   0.192  13.142 -0.2312  0.3246 -0.8424
 6271SOL     OW30448   0.870   3.889  12.914  0.4748 -0.0779  0.5093
 6271SOL    HW130449   0.790   3.925  12.875 -1.0361 -0.6131  3.1244
 6271SOL    HW230450   0.836   3.850  12.994 -2.3161 -2.4960 -1.8599
 6272SOL     OW30451   2.912   3.209   8.106 -0.2582 -0.2015 -0.0624
 6272SOL    HW130452   2.955   3.285   8.146 -1.1298  0.4819 -0.4061
 6272SOL    HW230453   2.869   3.186   8.188 -0.0543 -1.1332 -0.2203
 6273SOL     OW30454   2.746   3.120   1.028  0.3445  0.0385 -0.1250
 6273SOL    HW130455   2.770   3.119   1.120  3.2017 -1.2369 -0.8592
 6273SOL    HW230456   2.771   3.208   1.000 -3.1016  0.6089 -1.3982
 6274SOL     OW30457   3.173   2.836   4.286 -0.1101  0.2706  0.7795
 6274SOL    HW130458   3.118   2.759   4.298  0.1156 -0.0748 -0.3498
 6274SOL    HW230459   3.101   2.896   4.263 -0.0909 -0.2351 -0.6431
 6275SOL     OW30460   3.692   2.672   8.527  0.3271 -0.0279 -0.5616
 6275SOL    HW130461   3.611   2.685   8.478 -0.2059 -3.2216 -0.5220
 6275SOL    HW230462   3.724   2.593   8.483  2.0573  0.2568  0.1746
 6276SOL     OW30463   2.487   2.096   3.250 -0.1959 -0.3960  0.3497
 6276SOL    HW130464   2.555   2.162   3.256 -1.5985  1.0559  0.3695
 6276SOL    HW230465   2.455   2.100   3.340 -1.6887 -1.8104 -0.1193
 6277SOL     OW30466   3.036   1.863  14.029 -0.1436  0.0548  0.2079
 6277SOL    HW130467   3.095   1.816  13.970  0.6561 -1.1313  1.9616
 6277SOL    HW230468   2.952   1.830  13.998  0.0017 -1.7155  1.7424
 6278SOL     OW30469   1.907   3.588   6.212  0.6220 -0.2436 -0.4279
 6278SOL    HW130470   1.825   3.585   6.163  1.1503 -0.0721 -1.3146
 6278SOL    HW230471   1.968   3.634   6.156  2.9314 -0.4307  1.9240
 6279SOL     OW30472   3.396   0.057   1.695 -0.2805  0.8242 -0.1977
 6279SOL    HW130473   3.349   0.127   1.741 -0.5422 -0.1854  1.0914
 6279SOL    HW230474   3.412   0.098   1.611  1.8379 -0.1281 -0.2457
 6280SOL     OW30475   2.308   3.965  14.128 -0.5700 -0.3001 -0.0945
 6280SOL    HW130476   2.383   4.025  14.124  1.7415 -3.2899 -1.8933
 6280SOL    HW230477   2.286   3.960  14.221  2.1521  1.9377  0.6995
 6281SOL     OW30478   0.138   0.689   5.681 -0.8504 -0.5801  1.0463
 6281SOL    HW130479   0.044   0.671   5.669 -1.3823  2.8157  0.0206
 6281SOL    HW230480   0.131   0.750   5.754  0.6228  0.3321  0.4333
 6282SOL     OW30481   3.370   3.080   5.000 -0.0307  0.1745  0.4767
 6282SOL    HW130482   3.326   3.162   5.020  1.3631  0.8429  0.8114
 6282SOL    HW230483   3.306   3.032   4.947 -0.0181  1.0706 -0.3517
 6283SOL     OW30484   2.684   2.658  11.978 -0.0792 -0.2260 -0.4414
 6283SOL    HW130485   2.679   2.586  11.914  0.8485  0.7746 -1.6396
 6283SOL    HW230486   2.601   2.652  12.025 -0.2159  0.8899 -0.5558
 6284SOL     OW30487   4.271   4.507   6.376 -0.3159  0.6662  0.6738
 6284SOL    HW130488   4.237   4.464   6.454 -1.9829  0.1579 -0.3439
 6284SOL    HW230489   4.215   4.467   6.309  2.1994  1.8336 -2.1229
 6285SOL     OW30490   3.205   0.971   4.237 -0.0926 -0.3350  0.0469
 6285SOL    HW130491   3.205   0.876   4.225  0.6493 -0.6156  2.2924
 6285SOL    HW230492   3.135   0.991   4.176 -1.0860  0.0890  1.3483
 6286SOL     OW30493   4.165   3.813   9.634  0.3721  0.4154  0.4999
 6286SOL    HW130494   4.155   3.907   9.618 -1.1628  0.4973  1.8591
 6286SOL    HW230495   4.200   3.816   9.723  0.3826 -0.0489  0.5136
 6287SOL     OW30496   2.552   4.041   8.270  0.1702  0.3239 -0.2523
 6287SOL    HW130497   2.512   4.053   8.183 -1.9938 -1.0407  0.5571
 6287SOL    HW230498   2.487   3.982   8.308  2.5818 -1.6124  0.8382
 6288SOL     OW30499   1.477   4.017   7.742 -0.4692 -0.5384 -0.2703
 6288SOL    HW130500   1.401   4.024   7.800 -1.0403 -0.4983 -1.0241
 6288SOL    HW230501   1.474   3.927   7.708  2.7837 -0.9827  0.6384
 6289SOL     OW30502   1.536   2.564   2.083  0.5033 -0.3574  0.4538
 6289SOL    HW130503   1.525   2.615   2.163  0.5092  0.1520  0.1311
 6289SOL    HW230504   1.521   2.629   2.014 -0.3948 -1.7706 -0.6705
 6290SOL     OW30505   2.538   0.553   7.528  0.0911  0.4783 -0.1702
 6290SOL    HW130506   2.557   0.475   7.581 -0.9797  0.4377  0.1523
 6290SOL    HW230507   2.579   0.534   7.444 -1.3775 -0.3715 -0.6911
 6291SOL     OW30508   4.186   1.765   3.754  0.0881  0.5983 -0.2580
 6291SOL    HW130509   4.168   1.813   3.835  0.2400  0.4002 -0.1073
 6291SOL    HW230510   4.272   1.803   3.739  1.1254  0.1050  4.6642
 6292SOL     OW30511   3.179   3.729   6.128  0.1498  0.7564 -0.6091
 6292SOL    HW130512   3.158   3.822   6.117  2.2280  1.0325 -2.3471
 6292SOL    HW230513   3.091   3.699   6.147  1.2419 -0.7724  2.1067
 6293SOL     OW30514   3.504   2.836   4.580 -0.2260  0.3053 -0.3737
 6293SOL    HW130515   3.451   2.841   4.501 -1.7189  3.0162  0.7892
 6293SOL    HW230516   3.582   2.789   4.549  0.8614  0.6332  1.8595
 6294SOL     OW30517   0.991   2.057   9.178  0.0523  0.2220  0.0207
 6294SOL    HW130518   1.064   2.085   9.233 -0.2077 -0.0663  0.5205
 6294SOL    HW230519   0.919   2.072   9.240  0.6855  0.1084  0.7947
 6295SOL     OW30520   4.538   2.686   1.813  0.2100  0.2540  0.0104
 6295SOL    HW130521   4.464   2.672   1.872 -0.3644 -0.5838 -0.9033
 6295SOL    HW230522   4.593   2.609   1.823 -0.3535  0.0649  1.5641
 6296SOL     OW30523   1.429   2.967   4.817  0.0301 -0.7479 -0.2953
 6296SOL    HW130524   1.411   2.904   4.747 -2.1583  1.9485 -2.1744
 6296SOL    HW230525   1.343   2.994   4.847 -0.0624 -0.2904 -0.9675
 6297SOL     OW30526   1.103   0.638   3.278  0.3865 -0.0951  0.5757
 6297SOL    HW130527   1.083   0.552   3.316  3.0684 -0.6470  0.7553
 6297SOL    HW230528   1.019   0.682   3.265 -0.0256 -0.3505  2.3954
 6298SOL     OW30529   1.856   2.232   7.085 -0.5332  0.2154 -0.4492
 6298SOL    HW130530   1.783   2.186   7.126  0.2621 -0.6872 -0.0285
 6298SOL    HW230531   1.836   2.323   7.106  1.4943  0.2087  1.5628
 6299SOL     OW30532   1.730   2.310   3.791  0.5353  0.7816 -0.0279
 6299SOL    HW130533   1.775   2.391   3.815  0.9318  0.1717  1.3068
 6299SOL    HW230534   1.749   2.245   3.859  0.9101 -0.5356 -1.3903
 6300SOL     OW30535   0.807   0.156   4.663 -0.0222  0.0889 -0.2045
 6300SOL    HW130536   0.770   0.132   4.577  0.4581  1.2719 -0.7456
 6300SOL    HW230537   0.763   0.240   4.675 -1.0500 -0.7114  1.6713
 6301SOL     OW30538   3.898   3.709   4.883 -0.2063  0.8147 -0.0273
 6301SOL    HW130539   3.901   3.740   4.973  1.4143 -1.0485  0.5736
 6301SOL    HW230540   3.948   3.774   4.833  0.9556 -0.9031 -1.1365
 6302SOL     OW30541   0.128   3.085  12.876 -0.1437 -0.3445 -0.7286
 6302SOL    HW130542   0.160   3.032  12.803  2.8669  0.4935  0.0007
 6302SOL    HW230543   0.187   3.050  12.942  0.9852  2.0168 -0.4637
 6303SOL     OW30544   0.438   3.319   7.671 -0.0543 -0.0160 -0.3484
 6303SOL    HW130545   0.431   3.336   7.577  0.2333 -0.4849 -0.4551
 6303SOL    HW230546   0.474   3.230   7.674 -1.2486 -0.5598 -1.6436
 6304SOL     OW30547   1.297   3.570  10.923 -0.1119  0.2807  0.1546
 6304SOL    HW130548   1.342   3.494  10.960 -0.7927 -0.3565 -0.3413
 6304SOL    HW230549   1.259   3.522  10.850 -1.4428 -0.8605  1.6195
 6305SOL     OW30550   4.018   3.845   4.226  0.1283  0.1433  1.0896
 6305SOL    HW130551   4.075   3.777   4.189 -0.5947  0.7101 -1.1015
 6305SOL    HW230552   4.004   3.814   4.315  0.8524  2.6620  2.0655
 6306SOL     OW30553   2.703   0.360   2.973 -0.1951  0.8605  0.0611
 6306SOL    HW130554   2.665   0.310   3.045  1.1464 -2.0821 -1.2721
 6306SOL    HW230555   2.681   0.451   2.993 -2.2623  0.2106  0.7547
 6307SOL     OW30556   2.681   3.585   5.197 -0.2523  0.3170 -0.0932
 6307SOL    HW130557   2.669   3.586   5.102 -2.5618 -0.8892  0.1910
 6307SOL    HW230558   2.677   3.680   5.210 -0.0111  0.2958  0.1358
 6308SOL     OW30559   2.654   2.465   7.175  0.5176  0.2041 -0.0711
 6308SOL    HW130560   2.599   2.441   7.249  1.3091 -0.5639  0.2584
 6308SOL    HW230561   2.591   2.499   7.112 -0.1647  0.9501  1.0035
 6309SOL     OW30562   2.136   3.288   4.732 -0.4320 -0.4771  0.0212
 6309SOL    HW130563   2.160   3.197   4.716  0.0613 -0.5627  1.2095
 6309SOL    HW230564   2.079   3.286   4.809 -2.3401  0.2694 -1.3935
 6310SOL     OW30565   4.082   0.029  16.864 -0.0806 -0.3478 -0.5621
 6310SOL    HW130566   4.168   0.004  16.831  0.5385  0.5165  0.3973
 6310SOL    HW230567   4.106   0.115  16.898  1.7750 -0.3606 -1.8905
 6311SOL     OW30568   4.617   3.531  10.509 -0.6522  0.1259 -0.1629
 6311SOL    HW130569   4.594   3.473  10.437 -0.6341  0.5047 -0.4734
 6311SOL    HW230570   4.529   3.541  10.546  0.1926  1.3767  1.5271
 6312SOL     OW30571   0.224   2.384   1.448 -0.1595 -1.1679 -0.4736
 6312SOL    HW130572   0.302   2.328   1.437  0.1923 -0.6673 -0.5436
 6312SOL    HW230573   0.258   2.473   1.445 -0.0451 -1.0456  4.2299
 6313SOL     OW30574   3.148   0.923   8.351 -0.1074  0.3664 -0.3838
 6313SOL    HW130575   3.212   0.951   8.417 -0.6343  0.0725  0.2590
 6313SOL    HW230576   3.215   0.879   8.298 -1.3397  0.4351 -1.9889
 6314SOL     OW30577   0.522   4.407   8.993  0.2611  0.1423  0.0521
 6314SOL    HW130578   0.510   4.492   8.950  2.4559 -0.5092 -1.8982
 6314SOL    HW230579   0.617   4.395   8.992  0.2701  0.1630  0.8030
 6315SOL     OW30580   1.661   3.566   1.534 -0.6854  0.0536 -0.2673
 6315SOL    HW130581   1.714   3.643   1.556  1.8917 -1.8952  0.2256
 6315SOL    HW230582   1.636   3.526   1.618  1.5988 -0.0952  0.3314
 6316SOL     OW30583   2.485   1.099   3.367 -0.5596 -0.5096 -0.3882
 6316SOL    HW130584   2.461   1.188   3.340 -1.7052 -1.2073 -1.6552
 6316SOL    HW230585   2.396   1.068   3.382 -0.2795 -1.1595 -0.0445
 6317SOL     OW30586   3.457   0.089   3.803 -0.1276 -0.3639  0.5027
 6317SOL    HW130587   3.479   4.733   3.823  0.3240 -0.5444 -0.7954
 6317SOL    HW230588   3.378   0.080   3.749 -1.0994  1.1351  1.6615
 6318SOL     OW30589   0.508   0.244   8.605 -0.4385  0.2721  0.4230
 6318SOL    HW130590   0.415   0.225   8.609  0.0155 -2.1464 -0.8360
 6318SOL    HW230591   0.517   0.307   8.677 -3.0684  0.9501  0.1338
 6319SOL     OW30592   0.600   0.826   9.528  0.2828  0.3056 -0.1864
 6319SOL    HW130593   0.600   0.837   9.623  0.7102 -0.5792 -0.0885
 6319SOL    HW230594   0.673   0.884   9.503  1.5286 -0.8371  0.8378
 6320SOL     OW30595   4.206   0.740   5.512  0.7161 -0.5899 -0.1426
 6320SOL    HW130596   4.245   0.729   5.598  2.6138  1.3750 -0.7383
 6320SOL    HW230597   4.114   0.762   5.525  0.8393 -2.0353  3.1130
 6321SOL     OW30598   4.434   4.338   8.635  0.4414  0.0209  0.4376
 6321SOL    HW130599   4.515   4.292   8.656  1.9596  1.4551 -2.3932
 6321SOL    HW230600   4.427   4.293   8.551 -0.7517 -2.0823  1.6408
 6322SOL     OW30601   2.704   0.303   8.142  0.3148  0.1753 -0.5926
 6322SOL    HW130602   2.608   0.297   8.133 -0.0372  1.3360  2.5279
 6322SOL    HW230603   2.728   0.394   8.155  0.3740 -0.1481  1.4971
 6323SOL     OW30604   4.186   1.036   3.126  0.2329  0.1767 -0.3459
 6323SOL    HW130605   4.171   1.125   3.094  0.3959  0.9795  1.8257
 6323SOL    HW230606   4.184   1.052   3.220  1.8151 -2.3890  0.1415
 6324SOL     OW30607   1.917   1.732  16.784  0.3866 -0.1093 -0.4383
 6324SOL    HW130608   1.877   1.819  16.780 -0.3785 -0.4022  0.8021
 6324SOL    HW230609   1.905   1.713  16.877  0.0651 -0.4058 -0.5417
 6325SOL     OW30610   2.595   4.681   1.736  0.3010 -0.2174 -0.4621
 6325SOL    HW130611   2.555   4.720   1.814  3.2362  1.3090  0.3038
 6325SOL    HW230612   2.595   0.024   1.681  0.3394  0.4667  0.4989
 6326SOL     OW30613   2.032   0.681   2.705 -0.1043 -0.2685 -0.1297
 6326SOL    HW130614   2.064   0.618   2.640  0.1680 -0.6375  0.3651
 6326SOL    HW230615   2.091   0.667   2.779 -0.0941  0.5055  0.0041
 6327SOL     OW30616   4.577   2.113   2.775 -0.2007  0.4205 -0.1982
 6327SOL    HW130617   4.545   2.172   2.707 -0.3849 -1.5365 -1.8244
 6327SOL    HW230618   4.667   2.107   2.742 -0.4007  3.4593 -1.2246
 6328SOL     OW30619   0.539   3.699   2.690 -0.1673  0.1071  0.6004
 6328SOL    HW130620   0.458   3.657   2.659  0.0408  0.0633  0.1137
 6328SOL    HW230621   0.542   3.696   2.785  0.6643 -0.8145  0.5402
 6329SOL     OW30622   0.977   4.658  11.206  0.3237  0.3328  0.3109
 6329SOL    HW130623   0.930   4.727  11.158 -3.5726 -1.7992  0.9937
 6329SOL    HW230624   1.049   4.710  11.242  0.2347  0.0005  0.9774
 6330SOL     OW30625   3.132   3.082   7.049  0.1254  0.1571  0.7181
 6330SOL    HW130626   3.037   3.097   7.053 -0.2928 -1.6919 -1.3862
 6330SOL    HW230627   3.138   3.025   7.126  1.4367 -0.5536  0.0899
 6331SOL     OW30628   1.436   0.459  14.584  0.3283 -0.0024 -0.2901
 6331SOL    HW130629   1.358   0.441  14.531  0.0542 -0.0866  0.1432
 6331SOL    HW230630   1.426   0.553  14.601  0.2043  0.0769 -0.7898
 6332SOL     OW30631   2.814   4.552   6.422 -0.1248  0.0588 -0.0584
 6332SOL    HW130632   2.878   4.499   6.469  0.5312 -0.0229 -1.0395
 6332SOL    HW230633   2.756   4.482   6.393 -0.8195  0.4446  0.3978
 6333SOL     OW30634   2.775   1.390  17.558  0.3045  0.7986 -0.3479
 6333SOL    HW130635   2.754   1.448  17.484 -0.9121  0.5462 -0.2004
 6333SOL    HW230636   2.856   1.367  17.512  1.1589 -0.8620  2.0271
 6334SOL     OW30637   3.385   4.156  17.005 -0.0998 -0.5815  0.3496
 6334SOL    HW130638   3.339   4.076  17.031 -0.1240 -0.0932  1.8179
 6334SOL    HW230639   3.468   4.115  16.981  0.6168 -0.0481  1.9767
 6335SOL     OW30640   3.209   4.694  17.498  0.3603  0.2252  0.3665
 6335SOL    HW130641   3.234   4.657  17.582  0.4732  1.1262  0.7284
 6335SOL    HW230642   3.294   4.691  17.453  0.6346 -1.5197  1.0385
 6336SOL     OW30643   1.384   0.226   3.159  0.4107 -0.6881 -0.0491
 6336SOL    HW130644   1.382   0.310   3.205 -0.3678 -0.9946  0.4913
 6336SOL    HW230645   1.460   0.191   3.205 -0.1362  0.9759  2.1334
 6337SOL     OW30646   1.551   3.583   7.312  0.2412  0.7429 -0.0466
 6337SOL    HW130647   1.595   3.658   7.271  0.4358  0.5715 -0.1492
 6337SOL    HW230648   1.626   3.545   7.357  0.7828 -1.2840 -2.6371
 6338SOL     OW30649   3.384   0.083   4.433  0.7068  0.3701 -0.2924
 6338SOL    HW130650   3.349   0.076   4.522 -1.1458  0.2336 -1.0291
 6338SOL    HW230651   3.475   0.064   4.452  0.4948  0.4242  0.7517
 6339SOL     OW30652   3.334   4.027   3.719  0.0730 -0.0505 -0.0311
 6339SOL    HW130653   3.373   4.020   3.806  2.6409 -1.2774 -1.3041
 6339SOL    HW230654   3.392   3.987   3.655  0.1848 -0.0687  0.0812
 6340SOL     OW30655   0.749   0.408   7.584 -0.1493  0.3486  0.0092
 6340SOL    HW130656   0.693   0.343   7.627 -0.0482  0.8239  0.8695
 6340SOL    HW230657   0.793   0.347   7.525 -0.2890  1.4637 -1.2270
 6341SOL     OW30658   4.214   0.785   6.130  0.0176  0.3394 -0.1128
 6341SOL    HW130659   4.130   0.741   6.136  0.5165 -0.7084 -0.7554
 6341SOL    HW230660   4.263   0.736   6.196  1.3386 -1.0386 -2.1044
 6342SOL     OW30661   3.159   4.188   4.059 -0.0803  0.6442 -0.7027
 6342SOL    HW130662   3.222   4.123   4.089  1.1293  0.8669 -2.7543
 6342SOL    HW230663   3.215   4.266   4.063 -0.7097  1.0069  0.8386
 6343SOL     OW30664   0.540   0.017  13.098  0.2054  0.6599 -0.1365
 6343SOL    HW130665   0.625   0.009  13.142  1.2357  0.2186 -2.1779
 6343SOL    HW230666   0.478   0.035  13.168  1.3536 -0.4577  1.1657
 6344SOL     OW30667   0.303   0.603   8.053 -0.0715 -0.4443  0.2262
 6344SOL    HW130668   0.325   0.696   8.054  1.8564 -0.9201  2.3595
 6344SOL    HW230669   0.292   0.590   8.147  1.2685 -2.8910  0.0635
 6345SOL     OW30670   1.290   3.133   9.537 -0.0016  0.1356  0.0951
 6345SOL    HW130671   1.308   3.063   9.475  1.2655  0.6197 -0.0898
 6345SOL    HW230672   1.236   3.186   9.479  0.0963  0.6299  0.4439
 6346SOL     OW30673   0.695   2.013   0.472 -0.2343  0.2460 -0.5842
 6346SOL    HW130674   0.642   1.979   0.544 -1.2270  0.3831 -1.2564
 6346SOL    HW230675   0.627   2.026   0.406 -0.5981  2.3878  0.2000
 6347SOL     OW30676   1.208   0.175   6.294  0.0029 -0.5378 -0.4904
 6347SOL    HW130677   1.258   0.228   6.232 -2.2555  1.8564 -0.2490
 6347SOL    HW230678   1.117   0.198   6.274  0.6586  1.3848 -1.2029
 6348SOL     OW30679   3.698   1.285   5.430 -0.0106  0.4576 -0.1157
 6348SOL    HW130680   3.714   1.352   5.363 -1.3505 -0.9721 -1.8754
 6348SOL    HW230681   3.616   1.312   5.472  1.4210  1.8580  1.7571
 6349SOL     OW30682   0.038   1.795   1.876  0.0274 -0.0505  0.0435
 6349SOL    HW130683   0.049   1.862   1.808 -1.9012 -0.2591 -0.4779
 6349SOL    HW230684   0.065   1.847   1.951  0.3619 -2.4324  1.5697
 6350SOL     OW30685   1.355   2.410   5.888 -0.7865 -0.3987 -0.3401
 6350SOL    HW130686   1.385   2.472   5.821 -0.6362  0.1362  0.2261
 6350SOL    HW230687   1.356   2.320   5.856 -0.4441 -0.2377 -0.7804
 6351SOL     OW30688   0.712   4.145   2.513 -0.6390  0.4251 -0.0932
 6351SOL    HW130689   0.785   4.085   2.526 -1.2741 -0.1185  1.0101
 6351SOL    HW230690   0.639   4.085   2.526 -0.4422 -0.2695 -2.2983
 6352SOL     OW30691   3.863   3.012   7.393 -0.0087 -0.2707 -0.0062
 6352SOL    HW130692   3.776   3.022   7.431 -0.4318  0.3934 -1.1450
 6352SOL    HW230693   3.913   2.953   7.450 -0.6786  0.3317  1.2055
 6353SOL     OW30694   3.022   3.330   7.527  0.0186 -0.4919  0.2172
 6353SOL    HW130695   2.949   3.276   7.556  0.5624 -1.4563 -0.2356
 6353SOL    HW230696   3.027   3.313   7.433 -0.3029 -2.3430  0.5344
 6354SOL     OW30697   3.521   3.098   4.687  0.3513 -0.0060  0.0607
 6354SOL    HW130698   3.538   3.005   4.673  1.0560  0.1803 -0.3213
 6354SOL    HW230699   3.427   3.110   4.692  0.5327  1.1864  0.5930
 6355SOL     OW30700   3.039   4.531   0.316 -0.2221  0.6007  0.3170
 6355SOL    HW130701   3.124   4.573   0.303 -0.0323  0.5291  1.3537
 6355SOL    HW230702   2.989   4.602   0.276 -0.0695  1.1613  1.1398
 6356SOL     OW30703   0.149   4.625  15.950 -0.3835  0.0135 -0.0959
 6356SOL    HW130704   0.240   4.633  15.920 -0.5057 -1.1683 -0.7998
 6356SOL    HW230705   0.136   4.537  15.914  2.1344 -1.2886  2.1538
 6357SOL     OW30706   0.009   0.953   5.354  0.3744 -0.0025 -0.3094
 6357SOL    HW130707   4.714   1.039   5.324 -1.3267 -0.7992 -0.9337
 6357SOL    HW230708   0.052   0.978   5.435  0.6050  0.2077 -0.4955
 6358SOL     OW30709   4.278   4.637   3.377 -0.1495  0.0106  0.0241
 6358SOL    HW130710   4.219   4.562   3.373 -1.9254  1.3614  1.1570
 6358SOL    HW230711   4.238   4.692   3.309 -0.7304 -1.2456 -0.6448
 6359SOL     OW30712   3.855   0.364   7.557 -0.4051  0.1951  0.0793
 6359SOL    HW130713   3.812   0.281   7.575 -1.9639  0.8782 -0.5368
 6359SOL    HW230714   3.905   0.350   7.477 -0.1308  0.9900  0.1045
 6360SOL     OW30715   0.338   0.416  11.499  0.3219  0.3034  0.0932
 6360SOL    HW130716   0.395   0.457  11.433 -0.3707  0.8257 -0.1813
 6360SOL    HW230717   0.268   0.480  11.488  1.0749  1.1067 -0.0799
 6361SOL     OW30718   0.724   3.535  10.943 -0.4314  0.0609  0.0875
 6361SOL    HW130719   0.683   3.459  10.984 -2.3204  0.7891 -0.4465
 6361SOL    HW230720   0.660   3.603  10.963 -0.9686 -0.6811  0.9103
 6362SOL     OW30721   3.504   2.814  13.049  0.9052  0.0642 -0.3496
 6362SOL    HW130722   3.457   2.821  12.967 -1.9994 -1.1815  1.2130
 6362SOL    HW230723   3.577   2.761  13.017  0.6435 -1.4534  1.5747
 6363SOL     OW30724   3.332   0.846   3.497  0.2508  0.0379  0.2147
 6363SOL    HW130725   3.269   0.851   3.425  2.2493 -0.6549 -1.5903
 6363SOL    HW230726   3.318   0.926   3.548  3.4811  0.9674 -0.3121
 6364SOL     OW30727   4.156   3.727   3.888 -0.2834  0.2113  0.3066
 6364SOL    HW130728   4.097   3.792   3.850 -0.8237 -0.9997 -0.9050
 6364SOL    HW230729   4.156   3.660   3.820 -1.0050 -2.5309  3.0285
 6365SOL     OW30730   1.890   4.613  10.565  0.0938 -0.4455 -0.8996
 6365SOL    HW130731   1.805   4.598  10.606 -0.3225  1.5705 -1.0370
 6365SOL    HW230732   1.919   4.697  10.600 -2.5673 -0.0657  0.4189
 6366SOL     OW30733   4.345   4.318  16.413  0.3521  0.1809  0.4883
 6366SOL    HW130734   4.438   4.333  16.429  0.4437 -0.4320  0.5403
 6366SOL    HW230735   4.335   4.284  16.325 -0.5715 -3.1624  1.8807
 6367SOL     OW30736   3.333   3.533   5.303 -0.4123 -0.1853  0.2484
 6367SOL    HW130737   3.417   3.547   5.347 -0.8824  3.2160  0.0838
 6367SOL    HW230738   3.349   3.461   5.242  1.8859 -0.1124  0.7646
 6368SOL     OW30739   1.937   2.210   5.243  0.3095 -0.2992  0.0232
 6368SOL    HW130740   2.027   2.203   5.274  0.2446 -1.2918 -0.0169
 6368SOL    HW230741   1.929   2.305   5.238  1.2025 -0.2352 -0.0761
 6369SOL     OW30742   0.770   3.823  15.354 -0.1967  0.4592 -0.0389
 6369SOL    HW130743   0.716   3.790  15.426  1.5806 -1.5037  0.3730
 6369SOL    HW230744   0.699   3.814  15.290 -0.3521  0.2803  0.1567
 6370SOL     OW30745   3.617   2.390   7.181  0.1160 -0.9779  0.5084
 6370SOL    HW130746   3.542   2.398   7.122  0.9579 -2.9715 -0.8630
 6370SOL    HW230747   3.679   2.378   7.109  0.0694 -1.9980  0.6324
 6371SOL     OW30748   0.592   4.329   3.665  0.3314 -0.5101 -0.3924
 6371SOL    HW130749   0.554   4.244   3.641  0.3453 -0.7124  0.2857
 6371SOL    HW230750   0.505   4.369   3.673  0.0267 -1.2077 -0.0962
 6372SOL     OW30751   2.094   1.015   4.926 -0.4738  0.2362 -0.1537
 6372SOL    HW130752   2.149   1.082   4.967 -1.0835  0.6310  0.0196
 6372SOL    HW230753   2.040   1.000   5.004 -0.1659  0.6465  0.1405
 6373SOL     OW30754   3.263   3.342   7.657  0.0072  0.0201  0.2905
 6373SOL    HW130755   3.190   3.304   7.608  0.5299  0.4078 -0.7816
 6373SOL    HW230756   3.269   3.292   7.739 -0.7892  1.4155  1.1994
 6374SOL     OW30757   2.206   0.722   6.847  0.2713 -0.0797  0.3277
 6374SOL    HW130758   2.130   0.749   6.796  0.8814  1.7333  0.3827
 6374SOL    HW230759   2.239   0.812   6.849 -0.9364  0.4342 -2.6176
 6375SOL     OW30760   4.382   2.938   8.308 -0.3505  0.4784 -0.0021
 6375SOL    HW130761   4.447   3.008   8.319  0.1072 -0.0610  0.7161
 6375SOL    HW230762   4.357   2.913   8.397 -0.2109  0.3586  0.0036
 6376SOL     OW30763   3.660   1.142   3.622 -0.1132  0.2025  0.6518
 6376SOL    HW130764   3.660   1.064   3.678  3.5494 -1.0839 -1.1478
 6376SOL    HW230765   3.571   1.154   3.589  0.2056 -0.0091 -0.2837
 6377SOL     OW30766   0.230   0.547   8.732 -0.4760  0.7470  0.4340
 6377SOL    HW130767   0.233   0.635   8.770  2.2410  0.3604  1.1474
 6377SOL    HW230768   0.159   0.551   8.668 -0.9788  1.1489  1.0230
 6378SOL     OW30769   0.289   1.949  13.785  0.0668 -0.2102 -0.1329
 6378SOL    HW130770   0.258   2.016  13.724 -0.7900  0.7359  1.3732
 6378SOL    HW230771   0.360   1.995  13.829 -0.3603 -0.8750  1.2441
 6379SOL     OW30772   3.283   4.494   0.826 -0.1053  0.5719 -0.3984
 6379SOL    HW130773   3.233   4.495   0.744  1.4012  1.3122 -1.2957
 6379SOL    HW230774   3.244   4.420   0.874  3.3376 -0.2185  1.1441
 6380SOL     OW30775   0.436   4.042  16.713  0.0168 -0.4294  0.4036
 6380SOL    HW130776   0.393   4.119  16.752 -0.6296  0.1489 -1.4185
 6380SOL    HW230777   0.512   4.085  16.673 -0.8059  0.5636 -0.1129
 6381SOL     OW30778   0.652   1.300   5.057  0.4611  0.2158  0.3562
 6381SOL    HW130779   0.576   1.270   5.107 -0.1492 -1.1984 -1.4540
 6381SOL    HW230780   0.654   1.244   4.980 -0.2252 -0.4428  0.8143
 6382SOL     OW30781   3.081   4.142   5.209  0.0199  0.0320 -0.1016
 6382SOL    HW130782   3.126   4.079   5.266  0.7142  0.9242  0.3320
 6382SOL    HW230783   3.003   4.162   5.261 -0.3782  1.8273 -1.3874
 6383SOL     OW30784   2.480   3.010   0.964  0.1007 -0.6278 -0.3534
 6383SOL    HW130785   2.554   3.061   0.997 -2.6955  3.2718 -0.1054
 6383SOL    HW230786   2.515   2.981   0.880  0.1010 -1.3046 -0.1204
 6384SOL     OW30787   2.091   4.419   0.634  0.2820  0.2178 -0.2657
 6384SOL    HW130788   2.048   4.478   0.697  0.7390  0.8577 -0.5482
 6384SOL    HW230789   2.021   4.410   0.570 -0.0587  1.5098 -0.0724
 6385SOL     OW30790   0.751   4.305   5.415  0.0507  0.1252 -0.0869
 6385SOL    HW130791   0.775   4.221   5.453  0.7910  1.3287  2.1062
 6385SOL    HW230792   0.793   4.287   5.331  0.2625 -0.0769  0.0653
 6386SOL     OW30793   0.260   1.339   2.891  0.0690 -0.0225 -0.5379
 6386SOL    HW130794   0.299   1.264   2.935 -0.0356 -0.8718 -1.8721
 6386SOL    HW230795   0.336   1.374   2.842  0.8108  1.3701  1.6192
 6387SOL     OW30796   0.712   3.137   7.105 -0.3169  0.6253  0.7929
 6387SOL    HW130797   0.667   3.100   7.029  1.7189  2.0367 -1.0884
 6387SOL    HW230798   0.721   3.230   7.086 -2.4785  0.8059  0.6497
 6388SOL     OW30799   4.362   3.639   7.669  0.4379  0.1996  0.5355
 6388SOL    HW130800   4.281   3.630   7.718 -0.1330  0.4703 -0.3539
 6388SOL    HW230801   4.337   3.691   7.593  1.2692  3.2684  2.3929
 6389SOL     OW30802   0.806   2.069  10.316  0.3677  0.0346  0.4193
 6389SOL    HW130803   0.741   2.002  10.298  2.8414 -2.2039 -0.0878
 6389SOL    HW230804   0.847   2.070  10.229 -0.8125  1.1297 -0.1336
 6390SOL     OW30805   3.139   0.788   7.322  0.1710 -0.3614  0.0444
 6390SOL    HW130806   3.099   0.844   7.256  2.6497  0.4987 -0.7243
 6390SOL    HW230807   3.068   0.774   7.385  0.2631  3.0463  0.8742
 6391SOL     OW30808   3.876   0.736  13.201  0.0032 -0.4292 -0.1338
 6391SOL    HW130809   3.817   0.663  13.179  1.1511 -0.8979 -1.6338
 6391SOL    HW230810   3.944   0.695  13.254  0.4770 -0.8440 -1.0509
 6392SOL     OW30811   4.647   4.671  17.655 -0.0601  0.2474  0.1584
 6392SOL    HW130812   4.626   4.641   0.007 -3.2421 -0.6257 -0.8942
 6392SOL    HW230813   4.560   4.711  17.645 -0.1039  0.1004 -0.0407
 6393SOL     OW30814   1.902   0.289   5.408  0.0287 -0.2553  0.5107
 6393SOL    HW130815   1.824   0.338   5.383  0.4738 -1.4004 -3.1239
 6393SOL    HW230816   1.934   0.260   5.323  2.8881  2.7158  0.5288
 6394SOL     OW30817   3.757   4.261   8.103  0.3657  0.8294 -0.2144
 6394SOL    HW130818   3.844   4.297   8.120  1.4101 -1.0278 -1.5183
 6394SOL    HW230819   3.790   4.192   8.045  0.0837  0.7131 -0.2379
 6395SOL     OW30820   0.769   0.703   1.485  0.3449  0.0986 -0.2466
 6395SOL    HW130821   0.676   0.685   1.469  0.3707  0.4922 -0.8317
 6395SOL    HW230822   0.793   0.783   1.439 -1.4068  1.0634  0.5261
 6396SOL     OW30823   0.589   2.298   6.673 -0.2987  0.3241  0.2475
 6396SOL    HW130824   0.563   2.390   6.664  0.1729  0.3696 -0.6778
 6396SOL    HW230825   0.549   2.272   6.756 -0.0187  2.3078  1.0184
 6397SOL     OW30826   0.788   4.281   5.118 -0.4308 -0.2773 -0.3895
 6397SOL    HW130827   0.772   4.188   5.101  1.0413 -0.4732 -0.6532
 6397SOL    HW230828   0.706   4.326   5.098 -0.3241 -0.1858 -0.6189
 6398SOL     OW30829   2.473   4.588   2.774 -0.9392  0.3845  0.3004
 6398SOL    HW130830   2.464   4.556   2.864 -0.1490 -0.4488  0.0715
 6398SOL    HW230831   2.534   4.524   2.739 -1.9362 -0.2547 -0.2808
 6399SOL     OW30832   0.681   1.556   4.449 -0.3871 -0.7102  0.4044
 6399SOL    HW130833   0.702   1.593   4.535 -3.7424 -0.6087  1.2060
 6399SOL    HW230834   0.714   1.626   4.393 -1.1113 -0.7896 -0.1274
 6400SOL     OW30835   0.681   3.167   5.645 -0.1182  0.4407  0.1779
 6400SOL    HW130836   0.758   3.119   5.614 -1.9191 -1.0232 -2.0207
 6400SOL    HW230837   0.612   3.129   5.592  1.6536  0.7809 -2.4098
 6401SOL     OW30838   1.096   4.231   6.299  0.2346  0.0170 -0.4086
 6401SOL    HW130839   1.076   4.322   6.280  1.6271  0.9614  2.5885
 6401SOL    HW230840   1.144   4.235   6.382  0.9761  0.7530 -0.8730
 6402SOL     OW30841   3.184   4.039   5.875 -0.1360 -0.0012 -0.4514
 6402SOL    HW130842   3.275   4.068   5.874 -0.1127 -0.0579  0.8679
 6402SOL    HW230843   3.153   4.037   5.965 -2.4126 -0.5369 -1.2465
 6403SOL     OW30844   0.210   1.548   7.673  0.5248  0.7091 -0.0244
 6403SOL    HW130845   0.135   1.584   7.721 -0.3093 -1.2330  0.1266
 6403SOL    HW230846   0.160   1.497   7.609 -0.8878 -0.3284  1.9211
 6404SOL     OW30847   2.268   2.851   3.381 -0.1012  0.6848 -0.1948
 6404SOL    HW130848   2.346   2.804   3.350  0.0989  0.3105  0.8743
 6404SOL    HW230849   2.307   2.872   3.466  0.6001 -1.9604  0.1439
 6405SOL     OW30850   0.838   3.728   6.035 -0.1076 -0.2948 -0.0812
 6405SOL    HW130851   0.930   3.704   6.022 -0.0931 -0.0065 -0.5347
 6405SOL    HW230852   0.835   3.818   6.003 -0.3510 -0.7925 -1.4658
 6406SOL     OW30853   4.576   0.550   0.349 -0.1061  0.7598 -0.2192
 6406SOL    HW130854   4.640   0.564   0.418  1.5460 -0.1854 -1.5499
 6406SOL    HW230855   4.627   0.576   0.272 -2.2618  1.1993 -1.5168
 6407SOL     OW30856   1.221   4.069   6.124  0.0890  0.2060  0.7505
 6407SOL    HW130857   1.193   4.137   6.184 -2.3320 -1.4573  1.5183
 6407SOL    HW230858   1.199   3.987   6.169 -0.3428 -0.2035 -0.1814
 6408SOL     OW30859   2.983   4.164  15.863 -0.1863  0.0312  0.3347
 6408SOL    HW130860   2.947   4.252  15.861  2.2017  1.0210  2.2326
 6408SOL    HW230861   3.050   4.168  15.794 -0.5869 -1.2847 -0.1411
 6409SOL     OW30862   2.264   4.383   8.492  0.4182 -0.1449 -0.1505
 6409SOL    HW130863   2.337   4.389   8.430 -0.0934  0.0898 -0.7357
 6409SOL    HW230864   2.235   4.294   8.470  0.1379  0.3528 -1.8248
 6410SOL     OW30865   4.352   2.881   3.833 -0.2569  0.1797  0.0841
 6410SOL    HW130866   4.278   2.839   3.790  0.6047 -1.5636  0.3009
 6410SOL    HW230867   4.410   2.909   3.762  1.9454 -1.9185  1.0208
 6411SOL     OW30868   1.587   1.409  15.978  0.3375 -0.1541  0.1828
 6411SOL    HW130869   1.551   1.346  15.917 -0.6712 -0.7638  1.4231
 6411SOL    HW230870   1.651   1.357  16.028  0.6518 -0.9392 -1.0426
 6412SOL     OW30871   0.237   3.043   0.283 -0.6291 -0.4904  0.6966
 6412SOL    HW130872   0.183   3.122   0.286  0.5510  0.4457 -2.7979
 6412SOL    HW230873   0.310   3.068   0.340  0.0288  0.1493 -0.4396
 6413SOL     OW30874   2.692   2.727   9.768 -0.5464 -0.2511  0.1157
 6413SOL    HW130875   2.731   2.708   9.683 -0.7147 -2.1185  0.4547
 6413SOL    HW230876   2.612   2.774   9.742 -0.8892 -1.7635 -1.5474
 6414SOL     OW30877   3.599   3.690   7.915  0.9179  0.1687 -0.2572
 6414SOL    HW130878   3.562   3.705   7.828  2.3925 -0.3431 -0.9765
 6414SOL    HW230879   3.613   3.595   7.913 -1.1822 -0.0917 -2.8145
 6415SOL     OW30880   0.210   1.263   6.363 -0.3688 -0.4270 -0.1986
 6415SOL    HW130881   0.198   1.358   6.358  1.4347 -0.2046 -0.2907
 6415SOL    HW230882   0.277   1.255   6.431 -0.6220  0.2464  0.1406
 6416SOL     OW30883   0.338   2.668   4.878  0.0431 -0.2066  0.3076
 6416SOL    HW130884   0.275   2.629   4.938  2.9694 -2.7105  1.7045
 6416SOL    HW230885   0.417   2.626   4.911  1.1916  0.1924 -1.9085
 6417SOL     OW30886   3.475   2.107   4.629 -0.1570 -0.1867  1.2344
 6417SOL    HW130887   3.418   2.085   4.702 -1.5200  3.1553  1.1554
 6417SOL    HW230888   3.564   2.086   4.660  1.1696 -0.7404 -2.9598
 6418SOL     OW30889   1.247   3.834   4.072  0.7194  0.3828 -0.2423
 6418SOL    HW130890   1.266   3.928   4.076  1.9612  0.0903  1.0584
 6418SOL    HW230891   1.319   3.806   4.016 -0.2205 -2.8214  0.1181
 6419SOL     OW30892   0.827   3.088   2.739 -0.2748  0.4911  0.2651
 6419SOL    HW130893   0.764   3.121   2.802  0.5368  0.8162  0.9033
 6419SOL    HW230894   0.845   3.001   2.775  1.8256  0.9799  0.4370
 6420SOL     OW30895   3.940   2.210   9.936 -0.3773  0.1187 -0.0468
 6420SOL    HW130896   3.902   2.146   9.996  1.3186 -0.9259 -0.0852
 6420SOL    HW230897   3.868   2.203   9.873  1.2525  1.4309 -2.0532
 6421SOL     OW30898   2.280   3.820   4.840  0.4937 -0.2918  0.4475
 6421SOL    HW130899   2.296   3.748   4.779  0.8941  0.3576 -0.2188
 6421SOL    HW230900   2.342   3.882   4.801 -0.9202  0.9573  0.2006
 6422SOL     OW30901   4.484   1.248   8.076  0.2347 -0.0378 -0.1993
 6422SOL    HW130902   4.509   1.340   8.087 -3.4136  1.2576 -2.6873
 6422SOL    HW230903   4.428   1.238   8.152  1.0312  3.3369  0.8315
 6423SOL     OW30904   4.567   2.157   1.410  0.2147  0.2730  0.2320
 6423SOL    HW130905   4.474   2.143   1.389 -0.1369 -0.9937  2.6971
 6423SOL    HW230906   4.610   2.174   1.326 -0.3206 -0.9141 -0.2816
 6424SOL     OW30907   1.015   3.907   2.026  0.2259  0.4528  0.6394
 6424SOL    HW130908   1.012   3.854   1.946 -1.2614  1.2654  0.1645
 6424SOL    HW230909   1.030   3.992   1.984  0.1589  0.2804  0.2707
 6425SOL     OW30910   3.324   3.618   3.747 -0.3597 -0.2718  0.1034
 6425SOL    HW130911   3.381   3.695   3.735 -2.4999  0.8910 -2.6463
 6425SOL    HW230912   3.371   3.571   3.815 -0.5807  1.3618  1.3913
 6426SOL     OW30913   4.271   2.921   3.388 -0.0607  0.3750 -0.0095
 6426SOL    HW130914   4.185   2.962   3.375  0.6639  1.5610 -0.9435
 6426SOL    HW230915   4.302   2.920   3.298 -1.3185  1.6200 -0.4641
 6427SOL     OW30916   2.045   3.688   7.974  0.4676  0.2680 -0.5124
 6427SOL    HW130917   1.973   3.721   7.921  1.8825  1.3934 -1.7492
 6427SOL    HW230918   2.029   3.593   7.973  0.5648  0.2426  1.2655
 6428SOL     OW30919   2.893   1.070   1.364 -0.3988  0.5545  0.4472
 6428SOL    HW130920   2.979   1.075   1.322 -0.7084  0.0168 -0.2726
 6428SOL    HW230921   2.850   1.012   1.300  0.5211 -0.2451  0.5433
 6429SOL     OW30922   2.667   1.993   4.605 -0.0412 -0.9581 -0.7548
 6429SOL    HW130923   2.672   2.024   4.695  0.2016 -1.5888 -0.5514
 6429SOL    HW230924   2.577   2.019   4.584 -0.3104 -1.2746 -0.0082
 6430SOL     OW30925   0.718   2.663   5.967 -0.4254  0.0672  0.2141
 6430SOL    HW130926   0.746   2.572   5.955 -0.6019  0.1622 -0.8630
 6430SOL    HW230927   0.633   2.662   5.923  1.2867 -0.2931 -3.0894
 6431SOL     OW30928   1.302   1.894   3.451  0.3884 -0.7152 -0.3460
 6431SOL    HW130929   1.309   1.917   3.358 -0.1372  3.0851  0.5637
 6431SOL    HW230930   1.210   1.913   3.469  0.2413  1.5579 -3.4305
 6432SOL     OW30931   4.379   1.262  12.651 -0.0783  0.1950 -0.2807
 6432SOL    HW130932   4.318   1.306  12.710 -0.7745 -1.0148 -0.0948
 6432SOL    HW230933   4.445   1.230  12.712 -0.8400 -2.0293 -0.6184
 6433SOL     OW30934   3.285   3.621  14.749  0.4782 -0.1392  0.1345
 6433SOL    HW130935   3.351   3.596  14.814 -0.2595  0.7917  1.2277
 6433SOL    HW230936   3.230   3.687  14.790 -1.5125 -1.3219 -0.6204
 6434SOL     OW30937   1.046   0.876   3.733 -0.6805  0.4351 -0.7531
 6434SOL    HW130938   0.957   0.889   3.764  0.2235 -2.3925  3.0230
 6434SOL    HW230939   1.083   0.965   3.731 -0.4467  0.3104 -1.8313
 6435SOL     OW30940   2.553   1.786   9.196  0.1396 -0.0916 -0.1101
 6435SOL    HW130941   2.541   1.696   9.226 -0.4266 -0.4680 -1.4597
 6435SOL    HW230942   2.467   1.800   9.156  0.3500  0.6974 -0.2863
 6436SOL     OW30943   2.237   0.935   2.507 -0.0507 -0.1898  0.2186
 6436SOL    HW130944   2.323   0.892   2.501 -0.0777 -0.7218  3.8868
 6436SOL    HW230945   2.253   0.996   2.579 -1.2564 -0.2824  0.5646
 6437SOL     OW30946   2.820   3.453   3.333 -0.1022  0.0457 -0.1529
 6437SOL    HW130947   2.792   3.400   3.258  0.2336 -1.4760  0.8066
 6437SOL    HW230948   2.895   3.500   3.297 -0.4487  1.7819  1.3741
 6438SOL     OW30949   3.960   3.144   4.071  0.2212  0.1672  0.2914
 6438SOL    HW130950   3.896   3.196   4.120 -1.4962 -1.7996  0.1120
 6438SOL    HW230951   3.976   3.067   4.125  2.5968  1.1110  0.9450
 6439SOL     OW30952   1.912   1.960   4.364 -0.1945  0.4749  0.4036
 6439SOL    HW130953   1.922   1.945   4.458  1.0945  0.7423  0.3152
 6439SOL    HW230954   1.859   1.882   4.348  2.1258 -0.9254 -0.6323
 6440SOL     OW30955   2.456   4.365   3.600 -0.7591  0.4171 -0.0394
 6440SOL    HW130956   2.462   4.412   3.683 -0.6498  0.7019 -0.2112
 6440SOL    HW230957   2.478   4.436   3.540  4.3754  0.9189  2.4307
 6441SOL     OW30958   3.314   1.518   3.103  0.1989  0.1667 -0.3541
 6441SOL    HW130959   3.405   1.539   3.125  0.4632 -0.6153 -0.6867
 6441SOL    HW230960   3.284   1.468   3.178  0.4344 -0.0616 -0.4127
 6442SOL     OW30961   3.008   1.299   2.534 -0.5490  0.3009 -0.2424
 6442SOL    HW130962   3.021   1.356   2.458  1.2016  0.5010  0.2060
 6442SOL    HW230963   3.051   1.349   2.603 -1.4392  3.1130 -1.7274
 6443SOL     OW30964   0.448   2.381  13.698  0.1100 -0.6410 -0.1644
 6443SOL    HW130965   0.416   2.389  13.608 -2.4682  0.0825  0.8132
 6443SOL    HW230966   0.431   2.288  13.713  0.3278 -0.7830 -0.8149
 6444SOL     OW30967   0.358   2.481   0.393  0.0713  0.3531 -0.0178
 6444SOL    HW130968   0.370   2.484   0.299  0.3654  2.7990  0.1117
 6444SOL    HW230969   0.440   2.441   0.422 -0.5206 -0.3012  0.7657
 6445SOL     OW30970   2.481   2.014  11.921  0.4624  0.1065 -0.3463
 6445SOL    HW130971   2.529   1.931  11.930  0.9712  0.4618  0.1774
 6445SOL    HW230972   2.393   1.991  11.950  1.0492  1.9147  2.7464
 6446SOL     OW30973   3.509   2.488   4.635 -0.0317  0.1085  0.1892
 6446SOL    HW130974   3.554   2.425   4.692 -2.1316  0.0214  1.7508
 6446SOL    HW230975   3.571   2.483   4.562  0.5710  1.7320  0.5892
 6447SOL     OW30976   0.987   4.503   2.879  0.2758 -0.2529  0.0740
 6447SOL    HW130977   1.051   4.435   2.902  0.7533  0.3923  0.6431
 6447SOL    HW230978   0.971   4.491   2.785 -1.1388  0.1954  0.2704
 6448SOL     OW30979   4.417   3.554  12.668  0.5680  0.0828  0.4019
 6448SOL    HW130980   4.415   3.482  12.605  0.2902  1.2204 -0.9102
 6448SOL    HW230981   4.491   3.521  12.719  0.9357 -0.8144 -0.7117
 6449SOL     OW30982   0.593   4.024   4.135 -0.8861 -0.3424  0.3873
 6449SOL    HW130983   0.643   4.015   4.054  0.7572 -3.5402  1.7677
 6449SOL    HW230984   0.508   4.039   4.094 -0.7541 -1.9798 -0.4911
 6450SOL     OW30985   1.039   1.579   3.393  0.1405 -0.4403 -0.2913
 6450SOL    HW130986   0.948   1.569   3.365  0.0015 -0.2383  0.0883
 6450SOL    HW230987   1.079   1.599   3.308  0.1971 -2.8747 -0.8412
 6451SOL     OW30988   3.083   3.142   8.865  0.0678 -0.3394  0.2429
 6451SOL    HW130989   3.044   3.057   8.887  1.9082 -1.5536 -1.2209
 6451SOL    HW230990   3.178   3.137   8.854  0.0812 -0.3893  0.3801
 6452SOL     OW30991   0.473   3.741   9.690 -0.4406  0.5269 -0.2166
 6452SOL    HW130992   0.409   3.670   9.681  1.4620 -1.2541  0.5061
 6452SOL    HW230993   0.548   3.697   9.649  0.1511  2.7208 -1.4648
 6453SOL     OW30994   2.416   3.032   7.973  0.1007 -0.2578  0.0046
 6453SOL    HW130995   2.457   3.057   8.056  1.1198  2.4193 -1.2864
 6453SOL    HW230996   2.377   2.945   7.980  1.1523 -0.8094 -1.0736
 6454SOL     OW30997   2.561   0.069  10.830 -0.2245 -0.1263  0.3966
 6454SOL    HW130998   2.643   0.043  10.788  0.6309  0.8774  1.4638
 6454SOL    HW230999   2.588   0.107  10.914  0.5712 -1.7283  0.8513
 6455SOL     OW31000   4.528   3.296   8.720 -0.5354  0.5602 -0.0508
 6455SOL    HW131001   4.486   3.263   8.640 -0.4769 -0.4135  0.3241
 6455SOL    HW231002   4.456   3.349   8.752 -0.9755 -2.0721  3.3704
 6456SOL     OW31003   2.191   4.183   6.411 -0.2229  0.5547  0.1842
 6456SOL    HW131004   2.102   4.213   6.432 -0.6268 -1.2776  1.0878
 6456SOL    HW231005   2.160   4.116   6.351  1.9154  0.4479 -0.8019
 6457SOL     OW31006   2.810   0.412   9.117 -0.1968 -0.2230 -0.2308
 6457SOL    HW131007   2.833   0.497   9.080 -2.4635  0.7772  0.6665
 6457SOL    HW231008   2.881   0.349   9.101 -1.0169 -1.1553 -0.1701
 6458SOL     OW31009   2.738   1.031  13.665  0.8945  0.5684 -0.0755
 6458SOL    HW131010   2.695   0.947  13.677 -0.8593  1.1794 -2.0198
 6458SOL    HW231011   2.727   1.044  13.570 -2.0427 -1.8119 -0.0609
 6459SOL     OW31012   1.105   3.431   4.455  0.6842 -0.3410  0.6119
 6459SOL    HW131013   1.142   3.495   4.394 -0.4264  2.6852  3.0917
 6459SOL    HW231014   1.011   3.441   4.438  0.8852 -0.2576 -0.4468
 6460SOL     OW31015   3.549   4.715   8.256 -0.1811  0.8945  0.0387
 6460SOL    HW131016   3.612   4.689   8.324  0.8468 -0.4176 -1.4106
 6460SOL    HW231017   3.597   0.055   8.218 -0.7238  1.2586  0.0663
 6461SOL     OW31018   2.748   0.749   7.370 -0.1592  0.6274 -0.6668
 6461SOL    HW131019   2.787   0.671   7.332  2.4685  0.5068  2.2607
 6461SOL    HW231020   2.752   0.810   7.296 -0.3478  2.0091  0.4450
 6462SOL     OW31021   0.461   3.753  16.346 -0.7012 -0.0944 -0.3876
 6462SOL    HW131022   0.386   3.740  16.288 -0.4075 -2.7174 -0.1759
 6462SOL    HW231023   0.464   3.681  16.408  1.4526 -0.2588 -0.6646
 6463SOL     OW31024   3.931   1.148  12.400  0.0977 -0.2480 -0.0380
 6463SOL    HW131025   3.884   1.091  12.461 -1.3263  0.8315 -0.1141
 6463SOL    HW231026   3.995   1.182  12.461 -0.5811  0.3017  0.3702
 6464SOL     OW31027   0.733   3.657   9.099 -0.1859  0.0045  0.4696
 6464SOL    HW131028   0.737   3.677   9.006 -0.4483  2.0206  0.8825
 6464SOL    HW231029   0.691   3.730   9.144 -1.2850  1.2772 -2.6320
 6465SOL     OW31030   3.666   2.835  16.834 -0.1910 -0.0267  0.2339
 6465SOL    HW131031   3.613   2.755  16.828 -1.1259  0.7171 -1.7396
 6465SOL    HW231032   3.611   2.892  16.889  1.7905  1.9161  0.2081
 6466SOL     OW31033   1.767   0.673   9.230 -0.1841 -0.0927  0.1944
 6466SOL    HW131034   1.685   0.682   9.181 -0.1720 -1.0069  0.0003
 6466SOL    HW231035   1.738   0.651   9.319 -0.6484  2.2455  0.6129
 6467SOL     OW31036   1.591   1.899  17.571  0.2500 -0.3261 -0.0481
 6467SOL    HW131037   1.660   1.854  17.621  0.2878  0.7494  0.8788
 6467SOL    HW231038   1.622   1.896  17.481  1.2099 -0.9472  0.3013
 6468SOL     OW31039   1.000   0.787   5.936  0.5459  0.3300  0.1904
 6468SOL    HW131040   0.947   0.856   5.975 -3.4653 -1.5109 -1.9935
 6468SOL    HW231041   1.085   0.831   5.936  0.5588  0.3063 -0.4206
 6469SOL     OW31042   2.535   1.280  17.407  0.4371  0.2403 -0.5923
 6469SOL    HW131043   2.491   1.272  17.322 -0.4983  1.0423 -0.1885
 6469SOL    HW231044   2.584   1.362  17.410  2.7039 -1.1349  0.3081
 6470SOL     OW31045   1.195   4.655  10.077 -0.4872  0.0414  0.0967
 6470SOL    HW131046   1.230   4.670  10.164  1.1924  0.7843 -0.7124
 6470SOL    HW231047   1.272   4.649  10.020  0.4181  4.0110  0.9215
 6471SOL     OW31048   2.374   3.718   5.605 -0.0744  0.3899 -0.1902
 6471SOL    HW131049   2.426   3.798   5.605  0.5803 -0.0433  1.0481
 6471SOL    HW231050   2.427   3.650   5.562  2.6781  1.7736  1.0265
 6472SOL     OW31051   2.719   0.281  13.931  0.0065  0.4754 -0.1489
 6472SOL    HW131052   2.671   0.199  13.945 -1.5107  1.0381 -2.0736
 6472SOL    HW231053   2.801   0.260  13.976 -1.3039 -0.4530  1.8323
 6473SOL     OW31054   3.604   2.689   6.681 -0.1084  0.0595  0.7909
 6473SOL    HW131055   3.521   2.697   6.634  0.3082  2.2507  0.4596
 6473SOL    HW231056   3.590   2.673   6.774  0.8283  1.8390  1.2152
 6474SOL     OW31057   4.383   2.900  11.647  0.2112 -0.0207 -0.4899
 6474SOL    HW131058   4.360   2.888  11.555 -4.5207 -0.2742  0.7613
 6474SOL    HW231059   4.394   2.995  11.649  0.4138 -0.0804  1.1176
 6475SOL     OW31060   3.394   1.966   8.004 -0.6877  0.0424  0.3269
 6475SOL    HW131061   3.394   2.030   7.933 -3.2872  2.5374  2.5758
 6475SOL    HW231062   3.313   1.916   7.994 -1.2417  1.1566 -0.8400
 6476SOL     OW31063   4.669   0.464  16.603 -0.6385 -0.0921 -0.1461
 6476SOL    HW131064   4.705   0.375  16.604 -0.4540 -0.0114  1.0957
 6476SOL    HW231065   4.723   0.512  16.666  0.4187  0.0850 -1.2054
 6477SOL     OW31066   0.974   4.574   5.794  0.4352 -0.7783 -0.3822
 6477SOL    HW131067   1.040   4.643   5.801 -0.3331  0.0026 -0.7807
 6477SOL    HW231068   1.023   4.494   5.813  1.3402  0.3247  1.8452
 6478SOL     OW31069   3.024   0.684   3.464 -0.6287  0.7543  0.0194
 6478SOL    HW131070   2.999   0.776   3.468  0.7576  1.0396  2.5505
 6478SOL    HW231071   3.023   0.657   3.556 -2.5993 -0.0599 -0.2441
 6479SOL     OW31072   1.326   4.342   4.500 -0.1259 -0.2044  0.5423
 6479SOL    HW131073   1.256   4.343   4.435 -0.1115  0.2160  0.5308
 6479SOL    HW231074   1.367   4.256   4.491  0.8654  0.3161  0.0396
 6480SOL     OW31075   0.386   0.211   1.470 -0.0539  0.3917  0.1826
 6480SOL    HW131076   0.409   0.178   1.383 -2.2476  0.2951 -0.3440
 6480SOL    HW231077   0.400   0.306   1.463 -0.8940  0.4808 -0.2340
 6481SOL     OW31078   0.296   4.326   3.822 -0.2989  0.1166  0.3431
 6481SOL    HW131079   0.328   4.294   3.906 -0.5673  0.5957  0.6264
 6481SOL    HW231080   0.250   4.247   3.796 -0.9701  0.5666  0.1693
 6482SOL     OW31081   2.846   4.538  14.110 -0.2921 -0.0730 -0.9538
 6482SOL    HW131082   2.863   4.593  14.187 -1.5920 -2.3963  0.9746
 6482SOL    HW231083   2.935   4.508  14.087  0.4581 -0.3847  2.4165
 6483SOL     OW31084   2.553   2.926   1.638 -0.1110  0.0699 -0.3624
 6483SOL    HW131085   2.481   2.946   1.699  1.0003 -0.3357  1.0967
 6483SOL    HW231086   2.542   2.831   1.636 -2.9304  0.4270 -1.1867
 6484SOL     OW31087   0.692   0.701   4.890  0.3722 -0.4113 -0.1105
 6484SOL    HW131088   0.769   0.734   4.937 -0.8889  1.1986  0.8325
 6484SOL    HW231089   0.693   0.744   4.805 -0.4126 -0.9113 -0.3783
 6485SOL     OW31090   0.363   1.286  14.242  0.1832 -0.0235 -0.4303
 6485SOL    HW131091   0.315   1.224  14.187 -1.7333  1.5769 -0.5537
 6485SOL    HW231092   0.377   1.228  14.317 -0.9684  2.4344  1.6737
 6486SOL     OW31093   0.897   1.665   9.321 -0.0802 -0.1697 -0.0867
 6486SOL    HW131094   0.970   1.623   9.275 -0.5571 -0.7871 -0.2899
 6486SOL    HW231095   0.906   1.636   9.411  0.2053 -1.3468 -0.4923
 6487SOL     OW31096   4.578   4.515   9.080  0.0867  0.0696 -0.2541
 6487SOL    HW131097   4.494   4.520   9.125  1.3057  2.3363  1.8153
 6487SOL    HW231098   4.536   4.523   8.994 -1.0235  2.3456  0.4891
 6488SOL     OW31099   2.603   2.376   5.421 -0.1236 -0.1255  0.7439
 6488SOL    HW131100   2.629   2.308   5.484 -1.8250 -0.8621  0.6476
 6488SOL    HW231101   2.585   2.317   5.348 -1.8760  0.9446  0.3234
 6489SOL     OW31102   2.201   3.152   3.829 -0.7471 -0.1939  0.4065
 6489SOL    HW131103   2.151   3.219   3.782 -2.4552 -0.6118  1.5933
 6489SOL    HW231104   2.211   3.082   3.764 -0.4058 -1.5552  1.9059
 6490SOL     OW31105   0.956   4.346   8.364 -0.6881  0.3973 -0.3038
 6490SOL    HW131106   0.950   4.368   8.271  0.1100  0.4346 -0.3464
 6490SOL    HW231107   0.882   4.398   8.394 -0.9632 -0.1802  0.0215
 6491SOL     OW31108   0.933   3.477  10.243  0.1093  0.2948  0.4628
 6491SOL    HW131109   1.006   3.490  10.182  1.1672 -0.3329  1.6040
 6491SOL    HW231110   0.926   3.572  10.251 -2.1509  0.3294 -1.9055
 6492SOL     OW31111   2.902   1.228   9.329  0.4859 -0.7080  0.1340
 6492SOL    HW131112   2.898   1.176   9.410 -1.8687 -0.3910  0.2232
 6492SOL    HW231113   2.846   1.302   9.353  2.8972  1.0279  0.3250
 6493SOL     OW31114   0.211   0.247   8.604  0.7595 -0.0662 -0.5171
 6493SOL    HW131115   0.187   0.326   8.555  0.6529  0.1365 -0.1453
 6493SOL    HW231116   0.150   0.262   8.676 -0.0748 -1.0158 -1.0262
 6494SOL     OW31117   0.594   0.051   5.940 -0.0175 -0.3291 -0.0660
 6494SOL    HW131118   0.531   0.102   5.890 -1.7394  0.6681  3.1183
 6494SOL    HW231119   0.638   0.005   5.869  0.2430  0.6880 -0.5512
 6495SOL     OW31120   2.881   0.683   9.025 -0.2170  0.1301  0.1793
 6495SOL    HW131121   2.874   0.736   8.946 -0.4335 -1.6231 -0.9944
 6495SOL    HW231122   2.974   0.676   9.042 -0.4044  0.4667  1.3479
 6496SOL     OW31123   3.907   1.806   2.116 -0.2668 -0.0720  0.2664
 6496SOL    HW131124   3.906   1.792   2.022  2.3080  1.1843  0.0467
 6496SOL    HW231125   3.841   1.875   2.114  0.5859  0.7599  0.3302
 6497SOL     OW31126   2.449   2.120   5.016  0.7955  0.9177 -0.4121
 6497SOL    HW131127   2.354   2.131   5.017  0.6836 -0.0394 -0.1558
 6497SOL    HW231128   2.458   2.054   5.085 -0.0265  0.9113 -0.3132
 6498SOL     OW31129   0.563   1.690   0.806  0.3308 -0.2265 -0.1515
 6498SOL    HW131130   0.617   1.682   0.884 -1.2067 -2.1976  0.6885
 6498SOL    HW231131   0.496   1.625   0.824 -0.5078  0.2442 -1.5284
 6499SOL     OW31132   2.628   3.256   3.392 -0.8081 -0.6680  0.2422
 6499SOL    HW131133   2.678   3.335   3.409 -0.7478 -0.3494 -1.4113
 6499SOL    HW231134   2.694   3.188   3.409  0.7805  0.7697 -0.2087
 6500SOL     OW31135   1.741   3.618   3.257  0.0806  0.5686 -0.1300
 6500SOL    HW131136   1.791   3.639   3.336 -0.0566  1.2468 -0.2203
 6500SOL    HW231137   1.815   3.595   3.201 -0.0594  1.3410 -0.6285
 6501SOL     OW31138   3.713   1.001   4.168 -0.0455 -0.5021 -0.3462
 6501SOL    HW131139   3.626   1.036   4.147  0.1650  0.6919  0.7822
 6501SOL    HW231140   3.695   0.910   4.192  0.7862 -0.2215  1.3738
 6502SOL     OW31141   3.706   4.451   6.713  0.2947  0.1960 -0.1295
 6502SOL    HW131142   3.776   4.435   6.649 -0.9246 -0.2176 -1.3506
 6502SOL    HW231143   3.762   4.477   6.786 -1.5906  0.1209  1.3471
 6503SOL     OW31144   0.305   0.911   3.157 -0.3563  0.3666  0.0115
 6503SOL    HW131145   0.295   0.946   3.069 -0.6190 -1.8832 -0.8469
 6503SOL    HW231146   0.324   0.820   3.134  1.7503  0.3106  1.8885
 6504SOL     OW31147   0.247   0.983   2.903 -0.3448 -0.1683 -0.9058
 6504SOL    HW131148   0.256   0.937   2.820 -0.0200  0.9445 -1.4806
 6504SOL    HW231149   0.157   0.967   2.932 -0.8093  2.3951 -0.9771
 6505SOL     OW31150   3.548   2.596  16.424 -0.0312 -0.6530 -0.3200
 6505SOL    HW131151   3.539   2.543  16.345  0.1130 -1.1622  0.0012
 6505SOL    HW231152   3.601   2.669  16.393 -0.0694 -0.2728  0.4999
 6506SOL     OW31153   3.109   0.703  15.189  0.4883 -0.0600  0.6089
 6506SOL    HW131154   3.093   0.708  15.095 -3.0411 -1.3113  1.1520
 6506SOL    HW231155   3.057   0.779  15.217 -1.6347 -0.6425 -1.7479
 6507SOL     OW31156   0.866   3.064   6.648  0.3606  0.0653 -0.3442
 6507SOL    HW131157   0.896   3.027   6.731  1.4444  0.8364 -0.3836
 6507SOL    HW231158   0.787   3.013   6.632  0.7148 -0.4241 -0.5355
 6508SOL     OW31159   2.797   0.202  15.433 -0.1100  0.0519  0.0715
 6508SOL    HW131160   2.731   0.133  15.439 -0.3968  0.3708  0.6941
 6508SOL    HW231161   2.871   0.161  15.389  1.0684 -0.5555  2.5932
 6509SOL     OW31162   1.227   2.991   1.743 -0.0971  0.0203 -0.3333
 6509SOL    HW131163   1.161   2.982   1.674  1.7456  0.0429 -2.1054
 6509SOL    HW231164   1.212   3.080   1.775  1.4268 -0.4653  1.7267
 6510SOL     OW31165   4.404   3.441   5.621  0.6323  0.3284 -0.2326
 6510SOL    HW131166   4.485   3.474   5.581 -0.3097  1.5982 -1.1122
 6510SOL    HW231167   4.417   3.347   5.628  0.6564  0.2701 -1.0073
 6511SOL     OW31168   4.069   1.570   3.492  0.2992  0.6456  0.5278
 6511SOL    HW131169   4.148   1.556   3.543 -0.6914  0.5563  2.0507
 6511SOL    HW231170   4.009   1.507   3.532  0.1682  0.9953  0.8790
 6512SOL     OW31171   2.614   1.551  13.451  0.6114  0.5546 -0.2686
 6512SOL    HW131172   2.669   1.489  13.404  0.2162 -1.5957  2.1072
 6512SOL    HW231173   2.676   1.620  13.474  0.4626  0.6256 -0.0793
 6513SOL     OW31174   2.156   1.411  16.244  0.2676 -0.1761 -0.1161
 6513SOL    HW131175   2.224   1.362  16.290  0.7192  0.5290 -0.0246
 6513SOL    HW231176   2.093   1.385  16.311  0.1164 -2.4914 -1.1725
 6514SOL     OW31177   3.482   4.067   3.952  0.1659 -0.3987  0.2438
 6514SOL    HW131178   3.511   4.135   4.013  1.3367 -1.8970  1.3639
 6514SOL    HW231179   3.440   4.002   4.008  2.5130 -0.5670  1.8095
 6515SOL     OW31180   3.600   1.830   2.910 -0.4750 -0.1069 -0.3760
 6515SOL    HW131181   3.670   1.781   2.865 -0.7889  1.3173 -2.4009
 6515SOL    HW231182   3.608   1.916   2.870 -1.0530 -0.5978 -1.5506
 6516SOL     OW31183   2.379   3.863   8.373 -0.2064 -0.3995 -0.1136
 6516SOL    HW131184   2.299   3.840   8.325 -1.0835  1.8209  0.2653
 6516SOL    HW231185   2.351   3.843   8.463 -0.9980 -1.5828 -0.6154
 6517SOL     OW31186   3.191   4.182  15.001  0.6382  0.1051  0.1272
 6517SOL    HW131187   3.274   4.213  15.035  0.4177  1.0193 -0.1731
 6517SOL    HW231188   3.188   4.095  15.040  0.9325 -0.9099 -2.1072
 6518SOL     OW31189   4.431   0.434   5.590  0.1809  0.3515  0.3614
 6518SOL    HW131190   4.449   0.430   5.684  0.1430 -0.8517  0.3115
 6518SOL    HW231191   4.342   0.400   5.591  0.4786 -0.3458  2.9433
 6519SOL     OW31192   3.263   1.968   2.830  0.0920  0.1926 -0.4919
 6519SOL    HW131193   3.233   2.018   2.754 -1.1092  0.0799 -0.1049
 6519SOL    HW231194   3.345   2.012   2.849  0.3681 -1.5044  2.1731
 6520SOL     OW31195   4.658   0.928  10.040  0.3079 -0.1008 -0.0295
 6520SOL    HW131196   4.625   0.900   9.954  0.2693  0.4346 -0.1876
 6520SOL    HW231197   4.578   0.970  10.071  0.6563  0.2355  0.4162
 6521SOL     OW31198   2.105   2.582  10.738 -0.2387 -0.0211 -0.3735
 6521SOL    HW131199   2.031   2.640  10.720 -0.7250 -0.8582 -1.1054
 6521SOL    HW231200   2.069   2.533  10.812 -1.0299 -1.0148 -1.4086
 6522SOL     OW31201   0.679   4.002   4.584 -1.0172  0.2472  0.2282
 6522SOL    HW131202   0.637   4.030   4.503  0.5967 -1.9089 -1.3386
 6522SOL    HW231203   0.744   4.069   4.606  0.2609 -0.6214 -0.9587
 6523SOL     OW31204   2.506   2.458   4.021  0.1851 -0.1881 -0.2961
 6523SOL    HW131205   2.567   2.389   3.993 -1.0469 -1.1578 -0.5582
 6523SOL    HW231206   2.424   2.428   3.983  0.1960  0.2919 -0.6950
 6524SOL     OW31207   0.078   3.629   8.388  0.0594  0.4887 -0.0708
 6524SOL    HW131208   4.717   3.625   8.395  0.0232 -0.1894 -0.9944
 6524SOL    HW231209   0.086   3.716   8.427  0.3446  0.3651  0.1481
 6525SOL     OW31210   2.780   3.756   6.075  0.2717  0.2250 -0.5961
 6525SOL    HW131211   2.690   3.725   6.082  0.1491  0.1686 -2.3862
 6525SOL    HW231212   2.754   3.841   6.038 -0.6562 -0.1041 -0.7130
 6526SOL     OW31213   3.175   3.672   4.322  0.3324  0.6815  0.0606
 6526SOL    HW131214   3.136   3.587   4.303  0.3443  0.1861  2.1999
 6526SOL    HW231215   3.253   3.633   4.363  0.1021  0.6610  0.4757
 6527SOL     OW31216   4.266   0.295   4.485 -0.7437 -0.0580 -0.4292
 6527SOL    HW131217   4.327   0.277   4.556 -2.5534 -1.8924  0.6754
 6527SOL    HW231218   4.234   0.383   4.505 -1.7431 -0.5574  0.1863
 6528SOL     OW31219   4.719   3.160   2.535  0.3551 -0.2651 -0.0079
 6528SOL    HW131220   4.642   3.198   2.576  1.1327  0.6326  0.6256
 6528SOL    HW231221   4.684   3.135   2.449 -1.2717 -0.6512  0.7725
 6529SOL     OW31222   2.174   2.055   2.953  0.3095 -0.1395  0.4642
 6529SOL    HW131223   2.211   2.141   2.936  0.7739 -0.3500  0.3998
 6529SOL    HW231224   2.131   2.047   2.867 -0.4138  2.4420  0.6012
 6530SOL     OW31225   0.985   2.620   3.555  0.1176 -0.0161  0.7955
 6530SOL    HW131226   1.048   2.674   3.603 -0.0974  0.7025  0.2672
 6530SOL    HW231227   0.952   2.555   3.616 -1.7378 -0.0632 -0.2554
 6531SOL     OW31228   3.287   4.447   4.088  0.1681  0.2234  0.0454
 6531SOL    HW131229   3.360   4.493   4.046  1.4888 -0.7137  1.3102
 6531SOL    HW231230   3.284   4.478   4.179 -0.9554 -2.2554  0.8479
 6532SOL     OW31231   0.808   1.370   8.941  0.6807  0.0786  0.5056
 6532SOL    HW131232   0.872   1.305   8.911 -0.4877  0.4438 -2.8428
 6532SOL    HW231233   0.785   1.396   8.852  0.1563 -0.2959  0.5297
 6533SOL     OW31234   2.911   0.052   5.556 -0.1289 -0.0242 -0.1066
 6533SOL    HW131235   2.934   4.725   5.626  0.6808  1.7556  1.1689
 6533SOL    HW231236   2.817   0.065   5.566 -0.4181 -2.7141  0.8209
 6534SOL     OW31237   1.027   4.309   4.402 -0.1909  0.3179  0.2388
 6534SOL    HW131238   0.939   4.279   4.380  0.8635 -2.9036  0.3999
 6534SOL    HW231239   1.079   4.229   4.388 -0.5948  0.1574 -0.3423
 6535SOL     OW31240   1.701   1.736   6.652  0.0099  0.2461 -0.1625
 6535SOL    HW131241   1.667   1.810   6.702  0.3304  0.3541 -0.1014
 6535SOL    HW231242   1.793   1.755   6.631 -0.6753  1.5454 -2.0458
 6536SOL     OW31243   3.679   4.551  12.393  0.1107 -0.0323  0.1898
 6536SOL    HW131244   3.629   4.610  12.450 -0.1203 -1.8848  1.9025
 6536SOL    HW231245   3.767   4.559  12.429  0.5982 -1.1627 -0.7646
 6537SOL     OW31246   3.261   0.182   2.237 -0.2518  0.5206 -0.2819
 6537SOL    HW131247   3.291   0.239   2.308 -0.5614 -0.2830  0.4865
 6537SOL    HW231248   3.193   0.131   2.281 -1.0015  0.9155 -0.9788
 6538SOL     OW31249   3.270   3.500  11.767  0.4496 -0.0204 -0.3407
 6538SOL    HW131250   3.260   3.584  11.811  0.1339 -1.9140  3.2230
 6538SOL    HW231251   3.216   3.516  11.689 -0.3624 -2.1373 -0.2264
 6539SOL     OW31252   4.445   0.344   4.672 -0.0471 -0.1290 -0.4073
 6539SOL    HW131253   4.508   0.276   4.698  1.0662  1.7922  1.8981
 6539SOL    HW231254   4.426   0.369   4.762 -0.0625 -2.4206  0.2299
 6540SOL     OW31255   0.461   1.753   7.517 -0.1705  0.3793  0.2250
 6540SOL    HW131256   0.457   1.722   7.607 -0.5170 -0.8467 -0.2134
 6540SOL    HW231257   0.493   1.675   7.473 -1.1077  1.7491 -2.8987
 6541SOL     OW31258   1.799   0.705  10.982  0.1254  0.1200  0.4485
 6541SOL    HW131259   1.764   0.616  10.977  2.4447 -0.7352 -0.3304
 6541SOL    HW231260   1.841   0.709  10.896 -0.5013  0.0437  0.1356
 6542SOL     OW31261   1.026   4.068   5.782 -0.1357 -0.1679  0.4502
 6542SOL    HW131262   0.980   3.986   5.804 -1.1934  0.5466  0.9069
 6542SOL    HW231263   1.058   4.053   5.693 -0.3273  0.5211  0.2671
 6543SOL     OW31264   3.274   4.499  15.335 -0.2317 -0.7089 -0.0910
 6543SOL    HW131265   3.313   4.418  15.305  2.0316 -0.0504  1.0807
 6543SOL    HW231266   3.313   4.520  15.420 -0.9627 -1.7077  0.5038
 6544SOL     OW31267   2.872   1.118   7.348 -0.0156 -0.5151  0.1628
 6544SOL    HW131268   2.875   1.203   7.305 -0.8258  0.5416  2.1990
 6544SOL    HW231269   2.915   1.066   7.280 -2.7986 -1.8026 -0.6144
 6545SOL     OW31270   3.599   1.205   2.820 -0.5661  0.0937  0.3881
 6545SOL    HW131271   3.519   1.181   2.773  0.2917 -0.5357 -0.7563
 6545SOL    HW231272   3.562   1.193   2.907 -0.8669  0.0695  0.2579
 6546SOL     OW31273   0.502   0.449   8.431 -0.5579  0.0453  0.0401
 6546SOL    HW131274   0.541   0.368   8.461 -1.3233 -0.3250  0.0340
 6546SOL    HW231275   0.424   0.454   8.486 -0.4547 -1.5724  0.3319
 6547SOL     OW31276   2.019   0.799   6.136 -0.4751  0.3341 -0.3781
 6547SOL    HW131277   2.030   0.846   6.218  0.1587 -1.1493  0.3857
 6547SOL    HW231278   2.088   0.832   6.078  1.3253 -1.9833  0.4266
 6548SOL     OW31279   4.055   0.403  13.106 -0.1292  0.4704 -0.2453
 6548SOL    HW131280   4.134   0.381  13.156  0.8868  0.9004 -1.6571
 6548SOL    HW231281   4.005   0.431  13.183  2.2734 -1.4884  2.0556
 6549SOL     OW31282   2.085   2.498  16.016  0.3674  0.0083  0.7632
 6549SOL    HW131283   2.125   2.583  16.035  1.4784 -0.5657  1.0325
 6549SOL    HW231284   2.125   2.477  15.932 -2.0751 -0.0322 -0.3689
 6550SOL     OW31285   0.966   0.025  15.140 -0.3693  0.3423 -0.2643
 6550SOL    HW131286   0.930   0.013  15.053 -2.4504 -0.3015  0.6895
 6550SOL    HW231287   1.043   0.078  15.118 -0.0879 -0.4085 -1.0988
 6551SOL     OW31288   2.487   4.642   5.088  0.5593 -0.1005  0.2555
 6551SOL    HW131289   2.569   4.668   5.129 -0.0471  0.2833  1.2064
 6551SOL    HW231290   2.460   4.567   5.140  1.0566 -0.5032 -0.0573
 6552SOL     OW31291   2.143   3.498  17.107 -0.5863  0.2790  0.1082
 6552SOL    HW131292   2.186   3.549  17.039  1.3393 -0.6766  0.5960
 6552SOL    HW231293   2.179   3.546  17.181 -0.4986  1.8094 -0.9278
 6553SOL     OW31294   0.436   4.466   1.874  0.4106 -0.1666 -0.0245
 6553SOL    HW131295   0.344   4.487   1.894 -0.2580 -1.8582 -1.3586
 6553SOL    HW231296   0.428   4.376   1.843 -0.5734  0.5318 -1.7633
 6554SOL     OW31297   0.328   3.658   6.261 -0.5448 -0.3966 -0.2634
 6554SOL    HW131298   0.301   3.575   6.221  0.3849  0.0142 -1.7264
 6554SOL    HW231299   0.336   3.711   6.182  4.0045  0.5699  0.8445
 6555SOL     OW31300   4.470   4.661   1.977  0.3303  0.2929  0.0678
 6555SOL    HW131301   4.439   4.633   1.891 -0.3035  0.5930  0.2017
 6555SOL    HW231302   4.477   4.582   2.031 -0.9864  0.1015 -0.0405
 6556SOL     OW31303   0.811   3.957   7.926 -0.2551 -0.0277  0.1554
 6556SOL    HW131304   0.729   3.962   7.975  1.0156  0.8502  2.1891
 6556SOL    HW231305   0.790   3.922   7.840 -0.7366 -0.9494  0.6460
 6557SOL     OW31306   0.885   3.049   2.384 -0.0297 -0.0245 -0.1251
 6557SOL    HW131307   0.825   3.095   2.442  0.1370  0.1836 -0.1180
 6557SOL    HW231308   0.840   3.069   2.303  0.5946  1.5528 -0.0745
 6558SOL     OW31309   3.269   0.018   1.998 -0.1268  0.2152  0.5156
 6558SOL    HW131310   3.222   0.077   1.939  0.3637 -0.0702 -0.1532
 6558SOL    HW231311   3.298   0.073   2.071  0.0454  1.2621 -0.3421
 6559SOL     OW31312   1.545   2.628  12.740  0.0401 -0.0582  0.1198
 6559SOL    HW131313   1.590   2.574  12.676  1.1467 -1.6554  2.2381
 6559SOL    HW231314   1.610   2.698  12.751 -0.3522  0.6357 -1.9551
 6560SOL     OW31315   4.711   1.518   6.641 -0.2918 -0.2467  0.3205
 6560SOL    HW131316   0.004   1.609   6.629  3.9643 -1.5663  0.0442
 6560SOL    HW231317   4.667   1.525   6.725 -0.3309  1.7316  0.1462
 6561SOL     OW31318   1.179   0.113   0.006  1.0401 -0.3619  0.1312
 6561SOL    HW131319   1.250   0.174  17.722  1.0951 -1.3193 -2.4663
 6561SOL    HW231320   1.123   0.166   0.062  2.4206  2.4051 -1.0937
 6562SOL     OW31321   2.265   1.173  11.291  0.0087 -0.5986  0.3026
 6562SOL    HW131322   2.208   1.104  11.323  0.3949 -1.8872 -1.7500
 6562SOL    HW231323   2.209   1.245  11.319  0.7943  0.4764 -0.8574
 6563SOL     OW31324   0.386   3.850   7.664  0.0864  0.4980 -0.4097
 6563SOL    HW131325   0.307   3.874   7.712 -1.2117  0.5420 -2.5596
 6563SOL    HW231326   0.371   3.756   7.652 -0.8872  0.6852 -0.6526
 6564SOL     OW31327   3.777   4.546  16.307 -0.0245  0.2867  0.1094
 6564SOL    HW131328   3.710   4.478  16.318 -0.5983  1.3142  3.0210
 6564SOL    HW231329   3.730   4.591  16.236  2.1603  1.3332 -0.6858
 6565SOL     OW31330   2.879   0.063   1.707 -0.4265  0.6736  0.4210
 6565SOL    HW131331   2.884   0.030   1.796 -1.1530 -1.3674 -0.2974
 6565SOL    HW231332   2.860   0.154   1.730 -0.1717  1.4549 -2.3929
 6566SOL     OW31333   3.671   1.882   5.160 -0.2077  0.1529  0.3875
 6566SOL    HW131334   3.636   1.923   5.239  0.3724 -1.3045  1.3934
 6566SOL    HW231335   3.635   1.794   5.170 -0.3087  0.0216 -1.0834
 6567SOL     OW31336   0.183   2.180  15.905 -0.3318  0.0953  0.2112
 6567SOL    HW131337   0.119   2.232  15.856 -0.8089 -0.2482  0.4749
 6567SOL    HW231338   0.149   2.091  15.908  0.0241 -0.0543 -0.1200
 6568SOL     OW31339   3.403   4.527  15.598 -0.1636 -0.4744 -0.3966
 6568SOL    HW131340   3.359   4.489  15.675  0.8504 -0.5968  0.1203
 6568SOL    HW231341   3.486   4.480  15.594  0.3759  0.3661  0.6581
 6569SOL     OW31342   4.300   2.517  15.638  0.2847 -0.1686 -0.1305
 6569SOL    HW131343   4.251   2.553  15.711  0.1040  0.2051 -0.4356
 6569SOL    HW231344   4.288   2.592  15.579 -0.9979 -1.1793 -1.1280
 6570SOL     OW31345   1.933   0.266   8.093  0.3596 -0.8093 -0.5675
 6570SOL    HW131346   2.028   0.277   8.082  0.7013 -2.8520  0.3342
 6570SOL    HW231347   1.901   0.196   8.036  2.0695 -1.4034 -0.8152
 6571SOL     OW31348   2.979   3.732   6.863 -0.3894 -0.3093  0.0509
 6571SOL    HW131349   2.979   3.670   6.790  2.1432  3.5225 -3.2677
 6571SOL    HW231350   3.060   3.703   6.905  0.3502 -0.8111 -1.6946
 6572SOL     OW31351   3.213   3.750  13.884  0.0762 -0.3569  0.1663
 6572SOL    HW131352   3.225   3.666  13.839  2.1381 -0.1118  0.2558
 6572SOL    HW231353   3.302   3.784  13.872  0.8285 -2.6021 -0.5315
 6573SOL     OW31354   1.244   4.602   6.985 -0.8130 -0.4105 -0.3723
 6573SOL    HW131355   1.300   4.666   7.029  1.3121 -2.3904 -0.1892
 6573SOL    HW231356   1.158   4.640   7.003  0.1783  1.5529  0.2201
 6574SOL     OW31357   1.854   0.517   5.961 -0.5048 -0.5589 -0.1842
 6574SOL    HW131358   1.949   0.516   5.958 -0.4402 -1.7429  2.2354
 6574SOL    HW231359   1.833   0.425   5.974 -1.0236 -0.6185 -1.3767
 6575SOL     OW31360   2.500   1.993   2.540  0.1240  0.1236 -0.0554
 6575SOL    HW131361   2.546   2.069   2.574 -1.9167  1.5955 -0.5839
 6575SOL    HW231362   2.504   2.016   2.447 -1.8307 -2.5281 -0.8151
 6576SOL     OW31363   0.750   3.014   3.775 -0.3227 -0.5686  0.1341
 6576SOL    HW131364   0.661   3.005   3.810 -0.9815  1.2122 -1.0633
 6576SOL    HW231365   0.798   2.969   3.845  1.4651 -1.4593 -1.6851
 6577SOL     OW31366   1.046   1.846  10.322  0.4296  0.4364 -0.4359
 6577SOL    HW131367   1.085   1.821  10.238  2.4067  1.3409  0.2332
 6577SOL    HW231368   1.109   1.804  10.379 -0.2210 -0.4085 -0.3372
 6578SOL     OW31369   0.861   0.316   4.315 -0.0503  0.6091 -0.1695
 6578SOL    HW131370   0.895   0.403   4.336 -1.0933  1.7970 -3.4734
 6578SOL    HW231371   0.772   0.321   4.350 -0.3437 -1.6616 -0.5528
 6579SOL     OW31372   0.882   3.476   4.353  0.1977  0.5163  0.2907
 6579SOL    HW131373   0.806   3.419   4.354  0.7783 -0.3022 -1.5225
 6579SOL    HW231374   0.837   3.561   4.351 -0.0705  0.3606 -0.4630
 6580SOL     OW31375   3.596   3.449   7.375  0.1598  0.2042  0.4013
 6580SOL    HW131376   3.628   3.509   7.308 -0.6038  0.6080  0.4044
 6580SOL    HW231377   3.679   3.402   7.388 -0.7366 -1.0654  1.6105
 6581SOL     OW31378   3.885   4.587   7.699  0.3170 -0.1297  0.3986
 6581SOL    HW131379   3.827   4.517   7.729  0.9978 -0.8308  0.1070
 6581SOL    HW231380   3.953   4.540   7.650 -0.6089  0.4018 -1.3997
 6582SOL     OW31381   3.002   3.370   7.214  0.5758  0.6518  0.3736
 6582SOL    HW131382   3.082   3.317   7.224 -0.0955 -0.6065 -0.8786
 6582SOL    HW231383   2.945   3.308   7.169  1.3027  2.2897 -2.8309
 6583SOL     OW31384   4.073   1.276  16.049 -0.0077 -0.2807 -0.3437
 6583SOL    HW131385   4.115   1.359  16.069  0.0795 -0.3872 -0.0832
 6583SOL    HW231386   3.994   1.302  16.096  0.3862 -1.2717  0.8558
 6584SOL     OW31387   0.202   3.798   7.947  0.4475  0.2676 -0.6115
 6584SOL    HW131388   0.177   3.853   7.873  0.9320 -0.0477 -1.0054
 6584SOL    HW231389   0.267   3.858   7.984 -1.3978  0.4652  2.3651
 6585SOL     OW31390   2.313   4.711   0.284  0.1357  0.0852 -0.8227
 6585SOL    HW131391   2.348   4.724   0.372 -0.0104 -2.7932 -0.3642
 6585SOL    HW231392   2.298   4.618   0.300  1.0164  0.3432  1.5385
 6586SOL     OW31393   1.556   4.490   4.562 -0.0983  0.0925  0.0866
 6586SOL    HW131394   1.570   4.556   4.494  1.2688 -0.4469 -0.1636
 6586SOL    HW231395   1.472   4.447   4.545 -0.2849  1.3663 -2.1191
 6587SOL     OW31396   3.141   3.182   1.419  0.5287 -0.4761  0.3947
 6587SOL    HW131397   3.221   3.131   1.413  2.5037  2.7680 -1.0764
 6587SOL    HW231398   3.073   3.118   1.441  0.0298 -0.5245 -1.2963
 6588SOL     OW31399   2.030   3.925  12.717 -0.8323 -0.1859  0.1392
 6588SOL    HW131400   1.998   3.854  12.773  2.8425 -0.8595  1.3611
 6588SOL    HW231401   2.123   3.922  12.739 -0.4165  2.1867 -1.3378
 6589SOL     OW31402   0.036   0.267   1.834 -0.4976  0.5692 -0.3102
 6589SOL    HW131403   0.035   0.237   1.925 -0.5394  0.2611 -0.4122
 6589SOL    HW231404   0.122   0.305   1.816 -0.0582 -0.5649 -0.5991
 6590SOL     OW31405   4.002   0.887   7.844 -0.3722 -0.2744 -0.4492
 6590SOL    HW131406   3.935   0.830   7.804 -2.0082 -0.3861  2.4260
 6590SOL    HW231407   4.008   0.939   7.764  0.4706  0.0028 -0.1960
 6591SOL     OW31408   4.206   2.955   4.923  0.1928 -0.3816 -0.4570
 6591SOL    HW131409   4.136   3.010   4.889  1.2669  1.3217  0.0969
 6591SOL    HW231410   4.159   2.871   4.923 -0.0296 -0.2574 -1.4240
 6592SOL     OW31411   1.212   0.851  17.655 -0.1869 -0.0899 -0.1955
 6592SOL    HW131412   1.277   0.798  17.699  0.7803 -0.8781 -2.6044
 6592SOL    HW231413   1.258   0.935  17.649 -1.1579  0.5666  1.3450
 6593SOL     OW31414   0.159   3.378   5.685  0.6922 -0.3005 -0.1241
 6593SOL    HW131415   0.170   3.372   5.590 -0.7923  1.6480 -0.3938
 6593SOL    HW231416   0.249   3.379   5.717  1.5356  2.1879 -2.6433
 6594SOL     OW31417   2.543   0.278   9.043 -0.5966  0.6547  0.0524
 6594SOL    HW131418   2.633   0.296   9.071 -0.6398  0.9950 -0.0305
 6594SOL    HW231419   2.550   0.285   8.948 -0.0804 -0.7816 -0.0121
 6595SOL     OW31420   0.634   2.462  14.992  0.0106  0.3195  0.1398
 6595SOL    HW131421   0.709   2.454  15.052 -0.6205  2.1777  1.1661
 6595SOL    HW231422   0.654   2.551  14.963 -0.9113  0.3208 -0.4820
 6596SOL     OW31423   0.348   1.419   8.506 -0.0634 -0.1630  0.2737
 6596SOL    HW131424   0.361   1.334   8.463  0.7240  0.5352 -0.8429
 6596SOL    HW231425   0.396   1.409   8.589  2.0600 -1.1250 -1.0750
 6597SOL     OW31426   0.783   0.470   8.316  0.5685 -0.1604  0.3526
 6597SOL    HW131427   0.811   0.398   8.374 -0.9023  0.1668  1.4810
 6597SOL    HW231428   0.814   0.551   8.357  0.2653  0.7968 -1.3321
 6598SOL     OW31429   3.961   3.472  11.718 -0.2036 -0.2584 -0.5907
 6598SOL    HW131430   3.970   3.434  11.631 -0.8619  2.1988 -1.7229
 6598SOL    HW231431   3.882   3.429  11.754 -0.3402 -0.2434 -0.8724
 6599SOL     OW31432   2.778   0.236   7.579 -0.2135  0.2606  0.2696
 6599SOL    HW131433   2.833   0.247   7.502 -1.8297 -0.1586 -0.9345
 6599SOL    HW231434   2.830   0.192   7.647 -0.8928 -0.5596  0.2484
 6600SOL     OW31435   1.975   1.668  12.253  0.2335  0.3913 -0.0152
 6600SOL    HW131436   1.911   1.619  12.201  0.1590  0.4903 -0.0168
 6600SOL    HW231437   1.912   1.726  12.297 -0.1960  1.0228 -1.4808
 6601SOL     OW31438   1.277   0.927   7.549 -0.0996  0.5389  0.3831
 6601SOL    HW131439   1.237   0.878   7.621  1.4832  0.9529  1.5538
 6601SOL    HW231440   1.355   0.953   7.598  1.7343  0.0732 -2.3165
 6602SOL     OW31441   2.717   2.457   4.965 -0.8989  0.0074 -1.0025
 6602SOL    HW131442   2.699   2.378   4.914 -1.6838 -1.3548  1.3932
 6602SOL    HW231443   2.758   2.498   4.889 -1.2516 -1.1743 -1.8274
 6603SOL     OW31444   2.010   1.659   9.177 -0.3692  0.2714  0.6200
 6603SOL    HW131445   2.001   1.598   9.250 -0.7607 -1.4935 -0.8776
 6603SOL    HW231446   2.088   1.624   9.133 -0.1888 -0.0661  1.2079
 6604SOL     OW31447   1.058   4.330   5.852 -0.1067 -0.2441  0.3314
 6604SOL    HW131448   1.053   4.240   5.821  0.1682 -0.0904 -0.1539
 6604SOL    HW231449   1.013   4.318   5.935 -1.5486 -0.0375 -0.4273
 6605SOL     OW31450   0.788   3.165   1.497  0.1632 -0.8797 -1.1108
 6605SOL    HW131451   0.718   3.103   1.518 -0.8400  1.0256  1.1621
 6605SOL    HW231452   0.776   3.184   1.404  0.5381  0.9648 -0.7691
 6606SOL     OW31453   3.639   2.934   1.607 -0.3770 -0.1090 -0.1741
 6606SOL    HW131454   3.647   2.848   1.648  1.2101 -0.8557 -2.0763
 6606SOL    HW231455   3.642   2.897   1.519  3.1109  0.0625 -0.1357
 6607SOL     OW31456   2.915   3.583   2.279 -0.3041  0.3943  0.7474
 6607SOL    HW131457   2.886   3.635   2.204  2.8346 -1.0493 -1.5038
 6607SOL    HW231458   2.842   3.595   2.339 -2.3094  1.8758 -1.9471
 6608SOL     OW31459   2.056   2.527   2.651 -0.0444 -0.5752  0.1029
 6608SOL    HW131460   2.029   2.489   2.567 -3.4076  1.2244  0.3773
 6608SOL    HW231461   1.975   2.560   2.689  0.6720  0.7025  0.5148
 6609SOL     OW31462   0.967   1.804  11.671 -0.0393  0.3871 -0.1281
 6609SOL    HW131463   1.025   1.831  11.599  0.0718 -0.7618 -0.4773
 6609SOL    HW231464   0.972   1.874  11.735 -0.5331 -1.4315  1.8814
 6610SOL     OW31465   3.096   2.626   4.072 -0.1171 -0.7329 -0.2970
 6610SOL    HW131466   3.149   2.568   4.127 -2.0269 -3.5238 -1.4287
 6610SOL    HW231467   3.009   2.587   4.074 -0.6641  0.5507  2.0474
 6611SOL     OW31468   1.138   2.445  14.248 -0.3251  0.6648  0.1963
 6611SOL    HW131469   1.119   2.535  14.219  0.2724 -0.3158 -3.2518
 6611SOL    HW231470   1.106   2.436  14.338  2.8888  1.6728  1.4187
 6612SOL     OW31471   2.023   0.476   5.563 -0.1804  0.0050 -0.1222
 6612SOL    HW131472   1.972   0.417   5.507  0.2593 -1.3928  0.9274
 6612SOL    HW231473   2.057   0.406   5.619 -0.2025 -0.4780 -0.7091
 6613SOL     OW31474   0.097   2.567   2.450  0.1268  0.1236 -0.3339
 6613SOL    HW131475   0.114   2.473   2.443 -0.5975 -0.2221  2.6766
 6613SOL    HW231476   0.143   2.594   2.371  0.6887 -1.5801 -0.6032
 6614SOL     OW31477   1.418   1.294   9.300  0.2719 -0.9849  0.2672
 6614SOL    HW131478   1.496   1.342   9.272  0.2336 -0.9644  0.1956
 6614SOL    HW231479   1.457   1.209   9.320 -0.1761 -1.5186 -1.1433
 6615SOL     OW31480   4.041   0.139   2.890 -0.3276  0.2587 -0.1522
 6615SOL    HW131481   4.083   0.075   2.832 -0.3192  0.5640 -0.4842
 6615SOL    HW231482   3.952   0.107   2.873  0.6066 -1.5073 -1.8388
 6616SOL     OW31483   1.307   0.479   3.554 -0.2507  0.8314  0.3665
 6616SOL    HW131484   1.331   0.386   3.551 -0.9088  0.6767 -0.0098
 6616SOL    HW231485   1.259   0.487   3.636 -0.8726 -0.9008  0.1744
 6617SOL     OW31486   2.034   1.088   2.307 -0.1747  0.1738  0.5545
 6617SOL    HW131487   2.105   1.024   2.316 -0.7505 -0.8419 -2.1538
 6617SOL    HW231488   2.078   1.167   2.339  1.8284 -0.5429 -0.4279
 6618SOL     OW31489   3.481   3.708   7.666 -0.1306 -0.1131  0.1752
 6618SOL    HW131490   3.463   3.798   7.640 -1.7575 -0.7930 -1.0673
 6618SOL    HW231491   3.446   3.652   7.597 -0.4819  0.9132 -0.4830
 6619SOL     OW31492   4.616   2.021   0.904 -0.4706  0.0100 -0.5361
 6619SOL    HW131493   4.559   2.064   0.968 -0.8174  1.2797 -1.7226
 6619SOL    HW231494   4.707   2.025   0.934 -0.6547 -0.8038  0.1586
 6620SOL     OW31495   1.888   3.726   8.675 -0.5235  0.2103 -0.0255
 6620SOL    HW131496   1.894   3.814   8.711  0.7236  0.0247  0.2024
 6620SOL    HW231497   1.793   3.714   8.674 -0.5306  0.4121 -1.7397
 6621SOL     OW31498   1.803   0.388   6.932 -0.6371  0.0120 -0.3646
 6621SOL    HW131499   1.720   0.425   6.902 -0.2398  1.3780  0.2248
 6621SOL    HW231500   1.862   0.403   6.858  1.2617  2.0218  1.5872
 6622SOL     OW31501   0.546   2.565   1.295  0.3722  0.4745  0.1006
 6622SOL    HW131502   0.602   2.488   1.279  0.7609  1.0393 -1.3002
 6622SOL    HW231503   0.500   2.530   1.371 -2.6725  2.6781 -0.7482
 6623SOL     OW31504   0.344   3.184   5.942  0.2627 -0.0275 -0.1074
 6623SOL    HW131505   0.272   3.123   5.929 -0.5495  1.0069 -0.4440
 6623SOL    HW231506   0.394   3.145   6.014 -1.6727 -0.9569  0.7353
 6624SOL     OW31507   1.778   1.215   9.782  0.0876 -0.5399 -0.0712
 6624SOL    HW131508   1.726   1.296   9.784 -1.1187 -1.3364  0.7643
 6624SOL    HW231509   1.855   1.246   9.829 -0.4711  1.3606 -0.3852
 6625SOL     OW31510   4.157   0.041   2.352  0.5499 -0.8976 -0.2159
 6625SOL    HW131511   4.108   4.694   2.365  0.1558 -0.4241  1.2581
 6625SOL    HW231512   4.127   0.083   2.271 -1.1840 -0.7903  0.4692
 6626SOL     OW31513   3.068   3.322  10.645 -0.1801 -0.8959  0.2388
 6626SOL    HW131514   3.104   3.408  10.627  0.2115 -1.3887 -1.3366
 6626SOL    HW231515   3.101   3.305  10.733 -0.2494  1.9977  0.8009
 6627SOL     OW31516   3.323   4.708   9.483  0.3427  0.1776 -0.3894
 6627SOL    HW131517   3.277   0.026   9.417  0.7273  0.0883 -0.7288
 6627SOL    HW231518   3.407   0.016   9.465  1.2162 -0.3586  2.4886
 6628SOL     OW31519   0.163   3.968   7.751 -0.0842 -0.0845  0.1763
 6628SOL    HW131520   0.102   3.955   7.678 -0.8087 -2.3779  1.2040
 6628SOL    HW231521   0.178   4.063   7.749 -2.5509  0.2606 -2.1059
 6629SOL     OW31522   0.395   2.132   5.431  0.3885 -0.2072  0.8045
 6629SOL    HW131523   0.308   2.171   5.422 -0.0118 -1.4094 -0.4768
 6629SOL    HW231524   0.447   2.187   5.491  1.7156  1.2158 -1.6705
 6630SOL     OW31525   0.590   0.331  11.393  0.3532 -0.0008 -0.4384
 6630SOL    HW131526   0.532   0.343  11.318 -0.3230 -2.0557 -0.2496
 6630SOL    HW231527   0.525   0.292  11.452  0.9205 -0.7615 -0.3229
 6631SOL     OW31528   4.093   2.209   9.084  0.4125  0.2634 -0.0451
 6631SOL    HW131529   4.116   2.271   9.014 -0.4448 -1.4534 -1.8458
 6631SOL    HW231530   4.067   2.135   9.029 -0.6803  1.8117 -1.5959
 6632SOL     OW31531   0.345   3.756   1.287 -0.2345 -0.4114 -0.2602
 6632SOL    HW131532   0.330   3.676   1.337 -3.2410 -0.4208 -1.1401
 6632SOL    HW231533   0.256   3.756   1.252 -0.3276 -1.4776 -0.0250
 6633SOL     OW31534   0.305   3.908   3.980 -0.7823 -0.2148  0.3585
 6633SOL    HW131535   0.400   3.897   3.973 -0.3957  2.3186  1.4484
 6633SOL    HW231536   0.280   3.972   3.913 -0.9382 -0.7167 -0.0605
 6634SOL     OW31537   2.264   1.095   3.887  0.2930  0.1303  0.0663
 6634SOL    HW131538   2.252   1.183   3.923 -1.4954  0.5359 -1.4948
 6634SOL    HW231539   2.263   1.117   3.794  0.5514  0.3986  0.1280
 6635SOL     OW31540   1.957   0.523   5.099  0.8031  0.0505 -1.0500
 6635SOL    HW131541   1.915   0.437   5.092  3.3939 -1.2462 -0.8584
 6635SOL    HW231542   2.010   0.510   5.021  2.1723 -1.8971  0.2014
 6636SOL     OW31543   2.217   0.797   2.183  0.3381 -0.4571  0.0616
 6636SOL    HW131544   2.273   0.839   2.117  1.0778 -1.3511  0.1229
 6636SOL    HW231545   2.232   0.845   2.265  0.5584  1.0193 -0.8561
 6637SOL     OW31546   0.898   1.511  12.602  0.2266  0.3615 -0.9284
 6637SOL    HW131547   0.842   1.461  12.542 -0.7188 -2.1427  2.0632
 6637SOL    HW231548   0.950   1.446  12.648 -2.7138 -1.7086 -0.4973
 6638SOL     OW31549   1.643   1.199   4.647 -0.1386 -0.0165 -0.1540
 6638SOL    HW131550   1.680   1.219   4.561 -0.1175 -1.0921 -0.4066
 6638SOL    HW231551   1.612   1.109   4.632 -3.9323  0.8252  2.8646
 6639SOL     OW31552   2.293   0.703   5.484  0.1992  0.6623  0.1952
 6639SOL    HW131553   2.279   0.652   5.404 -0.9054  2.0216 -0.4719
 6639SOL    HW231554   2.212   0.692   5.534  1.0387  0.0008  1.4122
 6640SOL     OW31555   1.052   3.604   7.104 -0.1596 -0.0055 -0.3359
 6640SOL    HW131556   1.113   3.556   7.161  0.1961  2.0453  1.0113
 6640SOL    HW231557   0.980   3.625   7.163 -0.9142  2.3546 -2.0893
 6641SOL     OW31558   1.468   0.069  13.951 -0.0732 -0.1276 -0.2594
 6641SOL    HW131559   1.487   0.108  14.036  2.6380 -2.6780  0.2994
 6641SOL    HW231560   1.377   0.038  13.955  0.5439 -1.7923  0.9748
 6642SOL     OW31561   2.345   0.764   5.104  0.1258 -0.6688 -0.0625
 6642SOL    HW131562   2.355   0.830   5.036 -1.1036  0.1438  0.5500
 6642SOL    HW231563   2.360   0.686   5.049  0.3980 -0.1209 -0.7637
 6643SOL     OW31564   1.446   1.395   6.480 -0.0278  0.1951  0.0302
 6643SOL    HW131565   1.421   1.440   6.399  2.8120  0.9217 -0.4642
 6643SOL    HW231566   1.382   1.326   6.495  0.5454 -0.5354 -0.9109
 6644SOL     OW31567   2.742   0.330  16.408 -0.1253  0.4561 -0.2224
 6644SOL    HW131568   2.701   0.331  16.494 -0.2908 -1.7384 -0.2719
 6644SOL    HW231569   2.747   0.424  16.392 -1.3805  0.3661 -1.1283
 6645SOL     OW31570   4.052   3.420   9.059  0.5978 -0.2999  0.1465
 6645SOL    HW131571   3.969   3.428   9.107  1.1685  0.4671  0.9992
 6645SOL    HW231572   4.119   3.413   9.127  1.4123 -1.2538 -0.7550
 6646SOL     OW31573   2.291   3.686   2.680  0.4730  0.1671  0.6090
 6646SOL    HW131574   2.260   3.741   2.751  2.8053  0.6764  1.2235
 6646SOL    HW231575   2.235   3.609   2.691 -0.5468  0.7609 -0.4293
 6647SOL     OW31576   2.470   4.031   5.542  0.6965  0.4341 -0.3773
 6647SOL    HW131577   2.489   4.080   5.622  3.8112 -1.1023 -0.1785
 6647SOL    HW231578   2.556   3.994   5.524  0.1488 -0.9245 -0.2586
 6648SOL     OW31579   4.288   3.038   3.063  0.6127 -0.4117  0.4667
 6648SOL    HW131580   4.198   3.051   3.033  0.3637 -2.6591  0.2325
 6648SOL    HW231581   4.303   2.949   3.031  1.0107  0.3827 -1.5522
 6649SOL     OW31582   4.530   4.613   5.722  0.3634 -0.6032 -0.4265
 6649SOL    HW131583   4.572   4.582   5.802  0.6554 -2.3669 -1.2710
 6649SOL    HW231584   4.595   4.568   5.668  0.5847 -1.3989  0.5029
 6650SOL     OW31585   3.039   3.128  16.574 -0.2706 -0.4626 -0.8485
 6650SOL    HW131586   2.982   3.055  16.547 -0.5657  0.4407 -2.6797
 6650SOL    HW231587   2.969   3.192  16.585  0.9073  0.8288 -0.8670
 6651SOL     OW31588   1.318   0.902   9.743 -0.2846  0.4961 -0.4433
 6651SOL    HW131589   1.233   0.859   9.734 -0.2718  0.4031 -0.1221
 6651SOL    HW231590   1.360   0.873   9.663  1.9878  2.9116 -0.1358
 6652SOL     OW31591   0.109   1.711  15.762 -0.3465 -0.7989  0.0620
 6652SOL    HW131592   0.079   1.746  15.677  1.0065  1.3242  0.4527
 6652SOL    HW231593   0.124   1.792  15.811 -1.6026  1.1544 -2.7636
 6653SOL     OW31594   0.761   3.169  10.158  0.3422  0.2034  0.1789
 6653SOL    HW131595   0.789   3.260  10.168 -0.3729  0.4093  0.2540
 6653SOL    HW231596   0.717   3.140  10.238 -0.9136  0.4081 -0.4449
 6654SOL     OW31597   1.606   2.988   3.244 -0.2677  0.2429  0.1177
 6654SOL    HW131598   1.523   3.007   3.200 -0.3236 -0.0906  0.0760
 6654SOL    HW231599   1.589   2.936   3.323 -0.9410  0.5585  0.1831
 6655SOL     OW31600   2.452   1.592  12.182  1.0161 -0.3953  0.6527
 6655SOL    HW131601   2.406   1.675  12.194 -0.2195 -1.1152  0.8373
 6655SOL    HW231602   2.472   1.561  12.271 -0.1775  0.1588  1.1147
 6656SOL     OW31603   1.977   0.895   3.219  0.4875  0.2701  0.2739
 6656SOL    HW131604   1.921   0.924   3.147 -0.4065 -0.6542  0.5872
 6656SOL    HW231605   2.063   0.909   3.181  0.3133  1.1233  0.1910
 6657SOL     OW31606   2.946   2.415   3.637  0.0005  0.1407 -0.0253
 6657SOL    HW131607   3.005   2.387   3.567 -1.9287 -1.6495 -0.9336
 6657SOL    HW231608   3.003   2.398   3.712 -1.8796  0.7301  1.5270
 6658SOL     OW31609   0.424   1.215   7.518  0.2095 -0.1195 -0.2852
 6658SOL    HW131610   0.442   1.152   7.448  2.1130  0.1351 -0.0407
 6658SOL    HW231611   0.385   1.149   7.575 -0.1210 -1.3447 -1.9419
 6659SOL     OW31612   2.733   3.341   2.363 -0.1928  0.0597 -0.2072
 6659SOL    HW131613   2.808   3.399   2.346  1.8303 -2.4551  0.0798
 6659SOL    HW231614   2.695   3.356   2.276  0.1973 -0.8865 -0.5381
 6660SOL     OW31615   0.260   4.219   5.884 -0.0033 -0.5032  0.0355
 6660SOL    HW131616   0.284   4.308   5.909  4.4197 -2.0864  1.3052
 6660SOL    HW231617   0.171   4.230   5.851  0.0012  0.1732  0.2487
 6661SOL     OW31618   3.725   3.622   6.136 -0.2208 -0.3721 -0.4520
 6661SOL    HW131619   3.732   3.564   6.060 -0.9832 -1.1073  0.0402
 6661SOL    HW231620   3.669   3.570   6.193 -1.2484  1.0687 -0.1393
 6662SOL     OW31621   3.208   3.974  15.404  0.4539  0.1480  0.7077
 6662SOL    HW131622   3.205   4.067  15.425  0.7628  0.7146 -1.6786
 6662SOL    HW231623   3.266   3.937  15.470  1.5064  2.3823  1.0421
 6663SOL     OW31624   1.408   3.475  15.532  0.9596  0.2842 -0.0028
 6663SOL    HW131625   1.375   3.564  15.517 -1.9179 -0.5844  1.1693
 6663SOL    HW231626   1.331   3.429  15.566  0.9920  1.1291  1.2352
 6664SOL     OW31627   2.459   3.140   6.218  0.2173  0.2815 -0.0608
 6664SOL    HW131628   2.518   3.091   6.161 -0.0117  0.9843 -0.8969
 6664SOL    HW231629   2.386   3.079   6.209  0.3900 -0.1590  1.5351
 6665SOL     OW31630   0.780   4.730  13.776 -0.4773 -0.3143  0.1103
 6665SOL    HW131631   0.828   4.659  13.818  1.0934  0.1918 -0.8453
 6665SOL    HW231632   0.736   0.037  13.851  1.2999  1.3116  0.2455
 6666SOL     OW31633   0.748   3.681   3.997  0.5570 -0.3957 -0.3066
 6666SOL    HW131634   0.844   3.682   3.992  0.5860 -0.7092  0.1009
 6666SOL    HW231635   0.737   3.604   3.941 -2.1415  0.6489 -1.1731
 6667SOL     OW31636   1.146   3.758   9.779  0.7214 -0.9678 -0.2323
 6667SOL    HW131637   1.098   3.840   9.765  0.9525 -0.4887  1.7201
 6667SOL    HW231638   1.212   3.779   9.845 -1.5043 -1.3827  2.1359
 6668SOL     OW31639   0.736   2.918  13.392  0.0591 -0.2239  0.4460
 6668SOL    HW131640   0.810   2.979  13.387  1.2724 -1.6804  0.6753
 6668SOL    HW231641   0.679   2.957  13.326 -0.4110 -0.6123  0.6268
 6669SOL     OW31642   3.024   2.677   5.635  0.0508 -0.5252  0.2702
 6669SOL    HW131643   3.099   2.725   5.601 -0.2724 -0.3815 -0.2334
 6669SOL    HW231644   2.966   2.732   5.581  0.9577  1.6571  1.5304
 6670SOL     OW31645   4.190   2.668   6.937  0.1570  0.1714 -0.1944
 6670SOL    HW131646   4.136   2.594   6.911 -0.7444  1.1278 -1.0042
 6670SOL    HW231647   4.250   2.622   6.996  1.3313  1.1339 -0.6212
 6671SOL     OW31648   1.103   0.304   9.288  0.2664 -0.1660 -0.3067
 6671SOL    HW131649   1.161   0.379   9.277  0.2021 -0.0029  0.4220
 6671SOL    HW231650   1.019   0.344   9.313  0.6873 -0.0852  0.9825
 6672SOL     OW31651   1.206   1.904   3.819 -0.0157 -0.4997  0.2383
 6672SOL    HW131652   1.239   1.988   3.787 -2.6578  0.2951 -0.4126
 6672SOL    HW231653   1.271   1.840   3.792 -0.1119 -0.4059 -0.2123
 6673SOL     OW31654   2.098   4.271   4.556  0.1577 -0.0047 -0.4830
 6673SOL    HW131655   2.036   4.336   4.589 -0.1463 -0.4733 -0.1379
 6673SOL    HW231656   2.035   4.212   4.514 -0.6637  0.7244 -0.2935
 6674SOL     OW31657   0.682   1.870   2.143  0.2739  0.3233  0.2496
 6674SOL    HW131658   0.663   1.957   2.107  1.2319 -0.3064 -1.7759
 6674SOL    HW231659   0.599   1.844   2.183 -0.4538  2.0713 -0.1097
 6675SOL     OW31660   1.370   0.687   8.231  0.0167 -0.0711  0.2613
 6675SOL    HW131661   1.459   0.719   8.241  0.0107  0.1057 -0.2747
 6675SOL    HW231662   1.341   0.661   8.319  0.7415 -0.5435  0.3621
 6676SOL     OW31663   4.165   4.559  17.128 -0.0162 -0.0493 -0.4437
 6676SOL    HW131664   4.131   4.506  17.200  1.4761 -1.2939 -0.6591
 6676SOL    HW231665   4.126   4.643  17.154  2.2719  1.0437 -0.5130
 6677SOL     OW31666   0.947   4.539  10.860  0.0309  0.2189 -0.0056
 6677SOL    HW131667   0.983   4.621  10.828 -2.1331  1.8916  1.8657
 6677SOL    HW231668   1.032   4.495  10.865  0.7705  2.1009  3.5972
 6678SOL     OW31669   0.141   1.215  12.096  0.5655 -0.5188 -0.4075
 6678SOL    HW131670   0.147   1.153  12.168  0.6573  0.1434  0.1474
 6678SOL    HW231671   0.058   1.261  12.112  1.3685  0.3441  1.2240
 6679SOL     OW31672   3.166   4.481   2.713  0.3120  0.1769  0.1147
 6679SOL    HW131673   3.220   4.554   2.744 -2.4357  2.4381 -0.4701
 6679SOL    HW231674   3.198   4.470   2.624 -0.1157  0.3675 -0.0631
 6680SOL     OW31675   4.260   2.693  16.900 -0.2123 -0.0458 -0.2399
 6680SOL    HW131676   4.311   2.699  16.819 -1.1301 -0.1254 -0.8160
 6680SOL    HW231677   4.190   2.757  16.890  1.2915  1.4218 -1.3581
 6681SOL     OW31678   4.135   0.189  14.194 -0.3534  0.1127  0.0507
 6681SOL    HW131679   4.057   0.135  14.187 -0.2109 -0.0159 -0.5239
 6681SOL    HW231680   4.193   0.155  14.126 -2.0353 -1.2437 -0.6950
 6682SOL     OW31681   1.810   4.558   3.014  0.4115 -0.0653  0.9617
 6682SOL    HW131682   1.790   4.594   3.100 -0.6016  1.1571  0.2260
 6682SOL    HW231683   1.816   4.464   3.030  0.6071 -0.1235  0.5560
 6683SOL     OW31684   0.160   2.082   8.227 -0.6040 -0.2959  0.0914
 6683SOL    HW131685   0.084   2.104   8.173  1.6703  1.2142 -2.4798
 6683SOL    HW231686   0.215   2.160   8.224 -0.6854 -0.1842  1.9666
 6684SOL     OW31687   3.965   0.603  12.344 -0.0795  0.6315 -0.4180
 6684SOL    HW131688   3.992   0.523  12.299 -1.8589 -0.2819  0.1298
 6684SOL    HW231689   3.902   0.572  12.409 -0.2748  0.1302 -0.8476
 6685SOL     OW31690   2.895   4.703   1.956  0.3257  0.0677 -0.1468
 6685SOL    HW131691   2.899   4.613   1.988 -2.4464 -0.7092 -1.8846
 6685SOL    HW231692   2.853   0.016   2.028 -0.7095 -2.4451  0.8959
 6686SOL     OW31693   2.180   2.927   6.792  0.3900 -0.2265  0.3926
 6686SOL    HW131694   2.215   2.877   6.866 -0.8625  1.1788  1.9159
 6686SOL    HW231695   2.136   3.005   6.824 -0.3061  0.6362 -2.7171
 6687SOL     OW31696   3.583   0.443  12.573  0.2820  0.4909  0.4429
 6687SOL    HW131697   3.558   0.388  12.499  2.4317 -0.2360  0.2353
 6687SOL    HW231698   3.544   0.399  12.649  2.0977 -1.4519  0.2496
 6688SOL     OW31699   2.080   1.277  14.578  0.2661  0.4103  0.2589
 6688SOL    HW131700   2.022   1.257  14.504  0.6902 -1.2416  0.3716
 6688SOL    HW231701   2.015   1.285  14.649 -0.5019  2.1160 -0.6297
 6689SOL     OW31702   3.851   1.984  17.075  0.4525  0.4643 -0.4133
 6689SOL    HW131703   3.944   2.008  17.077  0.5244  0.2710 -1.2619
 6689SOL    HW231704   3.832   1.974  16.982  0.1011 -1.9468 -0.0864
 6690SOL     OW31705   0.075   4.442   4.530 -0.1234 -0.3170  0.5528
 6690SOL    HW131706   0.032   4.528   4.525  0.1334 -0.3357 -2.1804
 6690SOL    HW231707   0.167   4.465   4.536 -0.4249  1.5446 -1.6586
 6691SOL     OW31708   2.522   0.450   2.619 -0.1664  0.2508  0.0554
 6691SOL    HW131709   2.539   0.479   2.530  1.1513  0.4874  0.3845
 6691SOL    HW231710   2.484   0.365   2.596 -0.0042 -0.2704  1.6919
 6692SOL     OW31711   4.529   2.258  11.003 -0.3025 -0.2953 -0.1220
 6692SOL    HW131712   4.566   2.189  11.058  0.1587 -0.9689 -1.2740
 6692SOL    HW231713   4.606   2.300  10.966  0.7233 -1.9391  0.1196
 6693SOL     OW31714   1.297   3.257   5.857  0.6189  0.5904  0.0846
 6693SOL    HW131715   1.342   3.194   5.914 -0.3246 -1.0990 -1.0909
 6693SOL    HW231716   1.219   3.280   5.907  0.4185 -0.0649  0.0714
 6694SOL     OW31717   4.520   0.478   2.474  0.3466  0.3795  0.3790
 6694SOL    HW131718   4.534   0.560   2.426 -2.6454  2.0355  2.3651
 6694SOL    HW231719   4.448   0.505   2.530  0.2714 -2.0325  1.4219
 6695SOL     OW31720   0.510   2.271   3.650 -0.3372 -0.0925 -0.6445
 6695SOL    HW131721   0.492   2.354   3.607  0.3639  0.1947 -0.3912
 6695SOL    HW231722   0.499   2.289   3.743  0.2720 -1.0526 -0.3826
 6696SOL     OW31723   3.875   4.711   5.358  0.3251  0.0054 -0.5166
 6696SOL    HW131724   3.797   0.018   5.395  1.1219  1.4585 -0.4924
 6696SOL    HW231725   3.903   4.663   5.437 -0.0665 -0.1074 -0.4478
 6697SOL     OW31726   4.038   0.683  14.718 -0.2310 -0.3192  0.2071
 6697SOL    HW131727   4.119   0.734  14.723 -0.4590  0.3743 -3.3589
 6697SOL    HW231728   3.974   0.750  14.693  0.1618 -0.2986 -0.7205
 6698SOL     OW31729   1.791   2.258  12.373  0.1040 -0.3461 -0.4174
 6698SOL    HW131730   1.800   2.197  12.446  1.6918  0.6372  0.2048
 6698SOL    HW231731   1.860   2.322  12.390 -1.6373  0.7713  2.5945
 6699SOL     OW31732   2.367   1.392   6.507  0.0507  0.0001  0.0396
 6699SOL    HW131733   2.384   1.404   6.413  1.6117  1.9978  0.5776
 6699SOL    HW231734   2.449   1.429   6.538  0.4519 -0.6138 -0.2859
 6700SOL     OW31735   3.329   3.085   4.006 -0.3134 -0.7165  0.3857
 6700SOL    HW131736   3.339   3.163   4.061 -1.3293 -1.6938  1.9754
 6700SOL    HW231737   3.234   3.074   4.010 -0.4563  0.2689 -0.2993
 6701SOL     OW31738   4.021   2.863   6.790  0.1147 -0.5613 -0.5603
 6701SOL    HW131739   4.033   2.957   6.809  1.3725 -0.8803  0.2356
 6701SOL    HW231740   4.098   2.822   6.829 -0.3411 -2.2925 -1.5062
 6702SOL     OW31741   3.919   0.198   1.911  0.1323 -0.2470 -0.3443
 6702SOL    HW131742   3.909   0.211   2.005  0.6102 -1.7549 -0.0931
 6702SOL    HW231743   4.008   0.163   1.914  0.6129  1.1144  1.6567
 6703SOL     OW31744   4.497   4.527   3.864  0.3124 -0.1157 -0.5120
 6703SOL    HW131745   4.554   4.452   3.884 -1.1064 -0.7392  1.2305
 6703SOL    HW231746   4.457   4.548   3.949 -0.0076 -1.4494 -0.3425
 6704SOL     OW31747   4.342   1.166  10.564  0.1757  0.1380  0.0236
 6704SOL    HW131748   4.300   1.242  10.603  0.0888 -0.8332  1.8361
 6704SOL    HW231749   4.392   1.216  10.500 -2.1461  0.9040 -1.1877
 6705SOL     OW31750   0.489   1.961   1.333  0.0583  0.3127 -0.1144
 6705SOL    HW131751   0.402   1.990   1.305 -1.0944 -1.3779  1.7390
 6705SOL    HW231752   0.532   1.958   1.247  0.3068  0.8113 -0.0067
 6706SOL     OW31753   1.318   2.792   3.791 -0.2774  0.1985 -0.1714
 6706SOL    HW131754   1.243   2.830   3.837 -1.3714 -2.5164  0.2840
 6706SOL    HW231755   1.325   2.855   3.719  0.9134 -0.5703 -0.7401
 6707SOL     OW31756   2.445   0.930   5.475  0.4368 -0.3432  0.3120
 6707SOL    HW131757   2.420   0.839   5.461 -0.9053 -0.1085  1.2087
 6707SOL    HW231758   2.407   0.960   5.393  1.1506  0.5866  0.3216
 6708SOL     OW31759   2.887   1.592  12.874 -0.4518 -0.4158 -0.2850
 6708SOL    HW131760   2.832   1.645  12.817 -1.6157 -0.5226  0.7322
 6708SOL    HW231761   2.874   1.609  12.968 -0.8462  2.4278 -0.8605
 6709SOL     OW31762   0.155   1.933   1.668  0.1125 -0.1649 -0.3798
 6709SOL    HW131763   0.162   1.879   1.589  1.8273  0.4498 -0.6597
 6709SOL    HW231764   0.130   2.016   1.627  0.9073  0.8018  1.1018
 6710SOL     OW31765   3.544   4.511  11.393  0.1425 -0.1758  0.2720
 6710SOL    HW131766   3.557   4.601  11.364 -0.0186 -0.2995 -0.1991
 6710SOL    HW231767   3.600   4.469  11.327 -0.0906 -0.5510  0.3142
 6711SOL     OW31768   2.527   2.060  11.200  0.0137 -0.7422 -0.0623
 6711SOL    HW131769   2.468   2.110  11.143  0.2558 -0.1524  0.2033
 6711SOL    HW231770   2.607   2.107  11.177 -0.7708  1.9276  2.5718
 6712SOL     OW31771   3.720   3.344   5.980 -0.4654  0.7280 -0.5168
 6712SOL    HW131772   3.800   3.323   5.930 -1.0045 -2.5347 -0.0493
 6712SOL    HW231773   3.713   3.279   6.050  1.3107  0.6859 -0.3717
 6713SOL     OW31774   3.498   2.227   8.623 -0.6656  0.2817 -0.0338
 6713SOL    HW131775   3.506   2.146   8.674 -0.9298  0.6259  0.5533
 6713SOL    HW231776   3.567   2.285   8.656 -0.0883  0.6273 -1.8481
 6714SOL     OW31777   1.928   4.496   3.494  0.2230 -0.5367 -0.1545
 6714SOL    HW131778   1.878   4.456   3.566 -0.6029  0.9316  0.0961
 6714SOL    HW231779   2.018   4.478   3.521  0.5678 -0.5246 -1.2928
 6715SOL     OW31780   3.775   0.859   8.198 -0.0149 -0.2359 -0.3027
 6715SOL    HW131781   3.750   0.772   8.169  1.5378 -0.5690 -0.6727
 6715SOL    HW231782   3.831   0.840   8.274  0.0792 -2.4807 -0.9243
 6716SOL     OW31783   0.155   1.415   7.971 -0.1852  0.7264 -0.2838
 6716SOL    HW131784   0.086   1.408   8.037  1.5058 -1.5959  1.2410
 6716SOL    HW231785   0.121   1.474   7.904  1.0752  0.6722 -0.9770
 6717SOL     OW31786   1.932   1.485  15.819  0.5034 -0.1129  0.6434
 6717SOL    HW131787   1.955   1.454  15.906 -0.4721 -1.3552  0.4525
 6717SOL    HW231788   1.911   1.403  15.775  1.2132 -0.0669  0.2125
 6718SOL     OW31789   0.204   4.488   5.964  0.6203 -0.2548 -0.0288
 6718SOL    HW131790   0.169   4.576   5.978 -0.3256 -0.1403 -3.1215
 6718SOL    HW231791   0.267   4.517   5.898 -0.0914  0.7305 -0.2799
 6719SOL     OW31792   0.923   4.531   7.874  0.1189 -0.6766 -0.9940
 6719SOL    HW131793   0.891   4.465   7.812 -1.0655 -0.6613 -0.4087
 6719SOL    HW231794   0.843   4.583   7.881 -0.6089 -1.8490 -0.4926
 6720SOL     OW31795   3.827   1.141   8.583 -0.0245 -0.1913 -0.3192
 6720SOL    HW131796   3.919   1.114   8.581  0.0464  0.1027 -1.1744
 6720SOL    HW231797   3.782   1.075   8.635 -0.5899 -0.7162 -1.4891
 6721SOL     OW31798   3.100   0.293   7.156 -0.1910 -0.2584  0.4065
 6721SOL    HW131799   3.077   0.380   7.189 -1.6348  0.4716 -2.4797
 6721SOL    HW231800   3.194   0.307   7.160 -0.5704  2.3789 -0.0279
 6722SOL     OW31801   4.099   4.449   7.553  0.1616 -0.1378 -0.1396
 6722SOL    HW131802   4.181   4.484   7.589  0.4008  1.8240 -2.5811
 6722SOL    HW231803   4.122   4.357   7.546 -0.4472 -0.3846  1.1729
 6723SOL     OW31804   1.550   0.593   2.728  0.0837  0.2778 -0.5773
 6723SOL    HW131805   1.502   0.559   2.803  2.2740 -2.0236 -0.1903
 6723SOL    HW231806   1.608   0.519   2.708 -0.9381 -0.0871 -2.2178
 6724SOL     OW31807   0.076   1.160  15.405  0.2981 -0.2381  0.0869
 6724SOL    HW131808   0.040   1.120  15.326 -0.9006 -1.1451  1.1140
 6724SOL    HW231809   0.037   1.114  15.479 -1.5584 -1.2158 -1.5168
 6725SOL     OW31810   4.493   2.963   9.219 -0.0858 -0.3560  0.1623
 6725SOL    HW131811   4.477   3.045   9.173 -1.0203 -1.8494 -2.1388
 6725SOL    HW231812   4.476   2.909   9.142  1.1120  0.8384 -0.9421
 6726SOL     OW31813   2.444   1.443  13.820 -0.8591 -0.1354  0.0486
 6726SOL    HW131814   2.523   1.389  13.814 -1.8285 -1.8904  3.2011
 6726SOL    HW231815   2.381   1.414  13.754 -0.6701 -0.7893  0.1593
 6727SOL     OW31816   2.731   0.697   5.759  0.0304 -0.3294 -0.1937
 6727SOL    HW131817   2.671   0.661   5.694  2.0290 -1.0202 -1.6263
 6727SOL    HW231818   2.803   0.635   5.752 -0.5652 -0.7820 -2.3716
 6728SOL     OW31819   3.948   0.788   3.538 -0.4926 -0.5916  0.3616
 6728SOL    HW131820   3.974   0.840   3.462  3.2288  0.9852  2.7686
 6728SOL    HW231821   3.853   0.793   3.522 -0.4497  1.0806  0.6654
 6729SOL     OW31822   1.231   1.538   7.699  0.6185  0.3496  0.2215
 6729SOL    HW131823   1.277   1.459   7.727 -0.8835 -0.1753  1.2068
 6729SOL    HW231824   1.201   1.580   7.779 -0.9387  0.3738 -0.3706
 6730SOL     OW31825   4.362   2.202  11.436  0.3474  0.2586  0.6159
 6730SOL    HW131826   4.420   2.263  11.389 -1.0489 -1.4189 -3.2263
 6730SOL    HW231827   4.419   2.155  11.497  1.0958  0.5771  0.1616
 6731SOL     OW31828   2.144   3.344   5.904  0.4654  0.3137 -0.1679
 6731SOL    HW131829   2.200   3.330   5.981  0.3938  0.4738 -0.0871
 6731SOL    HW231830   2.089   3.267   5.897  0.3840  0.3100  0.5156
 6732SOL     OW31831   0.413   2.387   4.967  0.3648  0.2605  0.4351
 6732SOL    HW131832   0.421   2.432   5.051  1.6756  1.2577 -0.2171
 6732SOL    HW231833   0.499   2.397   4.927  0.4643  1.6322  0.9983
 6733SOL     OW31834   1.256   4.480   6.569 -0.5725 -0.3536 -0.2342
 6733SOL    HW131835   1.268   4.528   6.486  2.0486  0.1036  0.3976
 6733SOL    HW231836   1.211   4.542   6.626 -0.4137  1.5434 -2.1697
 6734SOL     OW31837   2.132   4.038   2.097  0.1111  0.3392 -0.1671
 6734SOL    HW131838   2.045   4.065   2.126  0.1440 -0.0560  0.2895
 6734SOL    HW231839   2.116   4.015   2.005 -0.0698 -0.7963  0.1501
 6735SOL     OW31840   4.365   2.272   4.744 -0.1109  0.3829 -0.4752
 6735SOL    HW131841   4.280   2.255   4.702 -0.4812  0.2562  0.3191
 6735SOL    HW231842   4.345   2.332   4.817  0.8350  1.8561 -1.4340
 6736SOL     OW31843   2.429   1.001   9.821  0.3756  0.1283  0.3199
 6736SOL    HW131844   2.370   1.011   9.895  0.9468  1.3676  0.6029
 6736SOL    HW231845   2.440   0.906   9.820 -0.0260  0.0819  0.4032
 6737SOL     OW31846   3.544   4.455   2.298 -0.0300  0.4929  0.2327
 6737SOL    HW131847   3.510   4.369   2.273 -0.9668  1.3455 -1.3912
 6737SOL    HW231848   3.537   4.494   2.211  2.2998 -2.1349 -1.1283
 6738SOL     OW31849   0.763   0.711   6.198  0.5466 -0.4661  0.2444
 6738SOL    HW131850   0.834   0.775   6.204  0.5906 -0.6633  1.8584
 6738SOL    HW231851   0.690   0.758   6.237  0.9338 -0.7661  1.3394
 6739SOL     OW31852   4.092   1.797   8.470 -0.2935  0.8723  0.8107
 6739SOL    HW131853   4.002   1.796   8.503  0.2879 -1.1147  2.3078
 6739SOL    HW231854   4.103   1.892   8.482 -1.1739  1.1536 -0.5476
 6740SOL     OW31855   0.065   1.807  17.285  0.5820 -0.7525 -0.3466
 6740SOL    HW131856   0.038   1.877  17.226  0.3790 -0.2312  0.3540
 6740SOL    HW231857   0.035   1.729  17.240 -2.3817  0.0180  0.3040
 6741SOL     OW31858   1.253   4.269   7.930  0.3300  0.5426 -0.4099
 6741SOL    HW131859   1.277   4.360   7.908 -0.1567  0.9576  0.7869
 6741SOL    HW231860   1.195   4.253   7.855  0.7739 -0.1782 -0.6022
 6742SOL     OW31861   3.772   1.370  11.466 -0.4608  0.3990 -0.0315
 6742SOL    HW131862   3.719   1.425  11.525 -0.9043 -2.2104  1.9897
 6742SOL    HW231863   3.830   1.323  11.526  0.1916 -0.9106 -1.6969
 6743SOL     OW31864   1.538   2.308   1.502 -0.7938  0.3876  0.7195
 6743SOL    HW131865   1.480   2.381   1.480 -0.3338  0.4918 -0.1638
 6743SOL    HW231866   1.577   2.342   1.582  0.8279 -1.0906  0.5616
 6744SOL     OW31867   1.446   4.385  11.473  0.2827 -0.1284 -0.1364
 6744SOL    HW131868   1.462   4.311  11.531 -1.1183  0.5467  1.0986
 6744SOL    HW231869   1.354   4.364  11.456  0.8792 -0.5678 -2.8412
 6745SOL     OW31870   2.244   4.335   2.231  0.3074 -0.3788 -0.2264
 6745SOL    HW131871   2.191   4.290   2.297 -0.2014  1.9535  0.9218
 6745SOL    HW231872   2.316   4.368   2.284  0.8805 -0.8803 -0.6933
 6746SOL     OW31873   3.839   1.559  13.410  0.0752  0.8353 -0.2749
 6746SOL    HW131874   3.918   1.542  13.359  0.0042  0.0112 -0.1112
 6746SOL    HW231875   3.834   1.494  13.480 -2.8295  1.1063 -0.2184
 6747SOL     OW31876   1.399   2.629   6.887  0.1283 -0.2196  0.1054
 6747SOL    HW131877   1.436   2.556   6.838 -1.5180 -1.7551  1.1543
 6747SOL    HW231878   1.324   2.582   6.924  1.6714 -2.1202  0.7596
 6748SOL     OW31879   0.016   3.736   6.882  0.5123  0.0209 -0.3387
 6748SOL    HW131880   0.033   3.690   6.800 -0.2623  1.1421 -1.1308
 6748SOL    HW231881   0.010   3.825   6.845  0.7757  0.2466  0.1573
 6749SOL     OW31882   2.242   2.314   7.759  0.1010 -0.1173  0.7891
 6749SOL    HW131883   2.290   2.364   7.825  0.2018  1.1559 -0.2660
 6749SOL    HW231884   2.305   2.320   7.687 -0.6405 -0.8232  0.0827
 6750SOL     OW31885   0.420   4.634   8.367  0.0834  0.2297  0.2225
 6750SOL    HW131886   0.383   4.570   8.306  0.1087  0.6430 -0.2281
 6750SOL    HW231887   0.452   4.581   8.440  1.4053 -2.5675 -2.3865
 6751SOL     OW31888   1.781   2.441   3.166 -0.3608 -0.2450  0.3950
 6751SOL    HW131889   1.723   2.501   3.119 -0.4187  0.1241  0.9409
 6751SOL    HW231890   1.809   2.393   3.088  2.3179  2.3373 -0.2697
 6752SOL     OW31891   3.971   4.536   5.625  0.0523 -0.0774  0.4648
 6752SOL    HW131892   3.988   4.504   5.713  0.2288 -1.5965 -0.1181
 6752SOL    HW231893   4.011   4.471   5.567 -3.4563 -0.2992 -1.6998
 6753SOL     OW31894   3.847   2.509   6.654 -0.0432  0.3194 -0.0784
 6753SOL    HW131895   3.767   2.463   6.676 -0.5257  1.2628  0.1529
 6753SOL    HW231896   3.812   2.598   6.662 -1.2297 -0.1120 -0.5977
 6754SOL     OW31897   4.613   3.957   8.209 -0.1454  0.2256  0.2034
 6754SOL    HW131898   4.631   3.905   8.287 -0.8771  0.3672  0.4635
 6754SOL    HW231899   4.522   3.982   8.227 -1.1522 -3.0291 -0.3351
 6755SOL     OW31900   4.355   1.484   3.027 -0.1612  0.0849 -0.4689
 6755SOL    HW131901   4.437   1.452   2.991 -0.3987 -0.8838 -0.1433
 6755SOL    HW231902   4.343   1.562   2.973  1.4613  1.3757  1.0449
 6756SOL     OW31903   3.987   0.750   9.004  0.0791 -0.1539  0.2726
 6756SOL    HW131904   3.915   0.686   8.995 -1.6419  1.6964  0.8871
 6756SOL    HW231905   3.993   0.741   9.099 -0.0564  0.0568  0.3003
 6757SOL     OW31906   1.535   0.429   9.223 -0.0665 -0.4829  0.1508
 6757SOL    HW131907   1.576   0.437   9.137 -0.8020 -1.0473 -0.2381
 6757SOL    HW231908   1.510   0.337   9.230  0.4599 -0.3644  3.7153
 6758SOL     OW31909   1.380   2.838   2.682  0.1536 -0.2718 -0.0299
 6758SOL    HW131910   1.393   2.765   2.621 -0.9208  0.1470 -0.7737
 6758SOL    HW231911   1.290   2.818   2.709  0.7976 -0.8090  1.6700
 6759SOL     OW31912   2.397   2.863   2.539  0.4701 -0.2548  0.3058
 6759SOL    HW131913   2.367   2.937   2.487  1.1741 -0.4854 -0.4285
 6759SOL    HW231914   2.366   2.886   2.627 -2.4949 -1.0692 -0.5095
 6760SOL     OW31915   0.632   3.772   7.199  0.7423  0.3500  0.0388
 6760SOL    HW131916   0.555   3.772   7.257 -0.6143 -0.6512 -1.7520
 6760SOL    HW231917   0.694   3.728   7.257 -0.4875 -0.4370  0.7833
 6761SOL     OW31918   2.055   1.525   8.258  0.1631  0.3436  0.4473
 6761SOL    HW131919   1.991   1.456   8.237  0.3028  0.4012 -0.1582
 6761SOL    HW231920   1.992   1.593   8.286  0.6175  0.8980  0.1139
 6762SOL     OW31921   1.675   0.112   4.004 -0.0534 -0.3188  0.1587
 6762SOL    HW131922   1.598   0.072   4.044 -1.4297  2.4889  0.3609
 6762SOL    HW231923   1.640   0.196   3.974 -1.2508 -1.0682 -0.5308
 6763SOL     OW31924   4.077   1.968   1.453  0.9674 -0.3263 -0.0072
 6763SOL    HW131925   4.155   1.946   1.505  1.6036 -0.9396 -1.2283
 6763SOL    HW231926   4.020   2.017   1.512 -0.9543 -0.1305 -2.0411
 6764SOL     OW31927   2.459   2.458   7.971 -0.1692 -0.2597  0.6278
 6764SOL    HW131928   2.512   2.380   7.955 -2.6246 -2.2007  2.1125
 6764SOL    HW231929   2.438   2.434   8.062  1.7636  0.7173  1.3497
 6765SOL     OW31930   0.292   1.838   0.997 -0.4152 -0.2434  0.0462
 6765SOL    HW131931   0.287   1.809   0.906  0.9650 -1.6054  0.4054
 6765SOL    HW231932   0.384   1.866   0.995 -0.8585  1.2510  1.5686
 6766SOL     OW31933   4.604   0.235   8.538 -0.1254  0.7497  0.1986
 6766SOL    HW131934   4.546   0.305   8.568 -0.1960  0.4382  0.8033
 6766SOL    HW231935   4.621   0.248   8.445 -0.6424 -2.1816 -0.3042
 6767SOL     OW31936   2.786   2.681   8.316 -0.4384  0.7174  0.0058
 6767SOL    HW131937   2.853   2.745   8.294  1.7628 -0.8056  2.2872
 6767SOL    HW231938   2.703   2.715   8.282 -1.0464 -0.7487  0.0458
 6768SOL     OW31939   1.148   3.833   4.848 -0.2138  0.4113  0.4476
 6768SOL    HW131940   1.145   3.835   4.753 -0.7732  0.8712  0.4808
 6768SOL    HW231941   1.059   3.804   4.865  0.0804 -0.5891  0.2757
 6769SOL     OW31942   1.738   1.413   6.415  0.3899  0.0262  0.1599
 6769SOL    HW131943   1.672   1.482   6.405 -1.5365 -2.0253 -1.0443
 6769SOL    HW231944   1.722   1.392   6.507 -2.0533  0.7807 -0.0855
 6770SOL     OW31945   1.688   2.399   8.212  0.0837  0.1629  0.1526
 6770SOL    HW131946   1.625   2.422   8.281  0.1776  1.0890 -0.0757
 6770SOL    HW231947   1.661   2.459   8.144 -2.2652 -0.7531  0.2860
 6771SOL     OW31948   3.935   4.388   5.922  0.2118  0.2093 -0.0324
 6771SOL    HW131949   3.916   4.346   6.007 -0.6510 -0.7318 -0.6818
 6771SOL    HW231950   4.013   4.336   5.902 -1.0614 -2.7417  2.5139
 6772SOL     OW31951   0.388   0.349  13.244  0.7823  0.1697  0.0448
 6772SOL    HW131952   0.473   0.392  13.259  0.5624  0.7532 -0.3883
 6772SOL    HW231953   0.394   0.316  13.154 -1.5057 -0.2055  0.0425
 6773SOL     OW31954   2.006   4.005  12.441  0.1505  0.2112 -0.3063
 6773SOL    HW131955   2.098   3.997  12.415  0.9030  1.0170  2.1234
 6773SOL    HW231956   2.017   3.976  12.531  0.0862  1.7163  0.1825
 6774SOL     OW31957   3.716   2.168   6.364  0.1447  0.4198  0.2368
 6774SOL    HW131958   3.660   2.210   6.429 -0.0424 -1.5161  1.3254
 6774SOL    HW231959   3.802   2.207   6.379  0.4875 -0.2818  0.1182
 6775SOL     OW31960   2.844   2.618   4.749 -0.0392  0.8968  0.0156
 6775SOL    HW131961   2.814   2.617   4.658 -2.2375  0.1898  0.7706
 6775SOL    HW231962   2.861   2.712   4.755  0.9560  0.7204  0.1064
 6776SOL     OW31963   4.120   2.197  14.863 -0.9169  0.2262 -0.8284
 6776SOL    HW131964   4.108   2.188  14.768 -1.1852 -1.1736 -0.6570
 6776SOL    HW231965   4.076   2.281  14.867 -0.2838  0.5315 -0.2509
 6777SOL     OW31966   2.106   2.342   2.980 -0.1026  0.0695 -0.0643
 6777SOL    HW131967   2.119   2.335   3.075  0.4277  1.1039 -0.0603
 6777SOL    HW231968   2.169   2.412   2.961  0.1204 -0.3504 -0.8854
 6778SOL     OW31969   2.866   3.802  11.997  0.7393 -0.7487  0.8502
 6778SOL    HW131970   2.949   3.822  11.952 -0.0134 -3.1227 -1.5445
 6778SOL    HW231971   2.833   3.750  11.923  1.4122 -0.1188  0.1024
 6779SOL     OW31972   2.243   2.279   8.443 -0.2540 -0.2485  0.1785
 6779SOL    HW131973   2.174   2.304   8.381  0.9344  1.4059 -0.4732
 6779SOL    HW231974   2.214   2.332   8.517 -0.6719  2.0426 -1.6125
 6780SOL     OW31975   2.346   2.557   9.380  0.0193  0.2639  0.1150
 6780SOL    HW131976   2.433   2.591   9.402  1.0782 -3.1867  1.4503
 6780SOL    HW231977   2.334   2.588   9.291  2.6406 -1.7659 -0.9674
 6781SOL     OW31978   2.909   0.741   8.404 -0.1758  0.7033 -0.4579
 6781SOL    HW131979   2.999   0.770   8.417  0.9198 -1.4597 -3.1719
 6781SOL    HW231980   2.891   0.698   8.487 -1.3778 -0.3710 -1.2703
 6782SOL     OW31981   1.928   3.660   6.477  0.3344 -0.1165  0.0819
 6782SOL    HW131982   1.841   3.670   6.516  1.1606  1.7208  1.4522
 6782SOL    HW231983   1.912   3.663   6.383  2.1383 -1.9179 -0.2768
 6783SOL     OW31984   4.698   1.520   1.501 -0.3685 -0.7749  0.1242
 6783SOL    HW131985   4.618   1.509   1.449  0.2824 -0.5975 -0.9052
 6783SOL    HW231986   4.662   1.564   1.577  0.6964 -1.2952  0.9306
 6784SOL     OW31987   3.487   2.909  15.261 -0.3191 -0.3404 -0.4674
 6784SOL    HW131988   3.416   2.916  15.198  0.5967 -0.6239 -1.5145
 6784SOL    HW231989   3.462   2.827  15.306  0.4502  0.7265  1.9353
 6785SOL     OW31990   3.024   2.426  17.583  0.3354 -0.4100  1.1753
 6785SOL    HW131991   3.113   2.400  17.558 -1.0926 -3.0335 -1.2006
 6785SOL    HW231992   2.980   2.433  17.498  1.1580 -0.0777  0.7698
 6786SOL     OW31993   2.935   4.649   3.043  0.4880  0.2382 -0.1329
 6786SOL    HW131994   2.962   4.559   3.061 -0.5631  0.0453  0.5056
 6786SOL    HW231995   2.973   4.689   3.122  0.1208 -2.2665  1.3222
 6787SOL     OW31996   2.044   4.393   7.324 -0.0891  0.2988 -0.1487
 6787SOL    HW131997   2.027   4.343   7.404 -0.6802  0.5821 -0.1007
 6787SOL    HW231998   2.120   4.442   7.356  0.1785 -0.8257  0.9849
 6788SOL     OW31999   4.379   0.788   2.893 -0.0278 -0.4605 -0.0860
 6788SOL    HW132000   4.377   0.751   2.805 -1.9231  0.9148 -0.6281
 6788SOL    HW232001   4.450   0.740   2.936  1.2199  2.1654  0.7951
 6789SOL     OW32002   1.889   2.340   6.361  0.4561 -0.0155  0.1329
 6789SOL    HW132003   1.812   2.325   6.417 -1.6853 -0.0151 -2.8145
 6789SOL    HW232004   1.912   2.258   6.316 -0.8619  0.6341 -1.7380
 6790SOL     OW32005   4.460   0.853   8.126 -0.0980 -0.4866  0.1168
 6790SOL    HW132006   4.488   0.793   8.195  2.1443 -1.5262 -1.6705
 6790SOL    HW232007   4.541   0.900   8.105  0.0479 -0.6980  0.1959
 6791SOL     OW32008   1.124   3.189   7.651  0.5012 -0.2930 -0.3230
 6791SOL    HW132009   1.149   3.257   7.714 -1.3054 -1.1213  1.2794
 6791SOL    HW232010   1.049   3.147   7.693 -0.5111  1.9003  0.0850
 6792SOL     OW32011   4.324   3.982  14.128  0.1759 -0.3895 -0.7840
 6792SOL    HW132012   4.361   4.052  14.076  0.8350 -0.6294 -0.6444
 6792SOL    HW232013   4.243   4.025  14.155  0.8853  0.4762 -0.0234
 6793SOL     OW32014   3.079   1.333   6.125 -0.1336  0.2130  0.7352
 6793SOL    HW132015   3.166   1.300   6.148 -0.3088 -1.6374 -1.1557
 6793SOL    HW232016   3.074   1.301   6.034 -0.3019  4.0890 -0.6160
 6794SOL     OW32017   2.182   0.891  15.369 -0.1319  0.5538 -0.2022
 6794SOL    HW132018   2.180   0.982  15.397  1.1510  0.3400  0.5770
 6794SOL    HW232019   2.263   0.851  15.401 -0.4754 -1.0259 -1.3296
 6795SOL     OW32020   1.279   1.135   6.832  0.4556 -0.0729 -0.0357
 6795SOL    HW132021   1.199   1.137   6.778  0.3469 -2.5593  0.0318
 6795SOL    HW232022   1.257   1.068   6.897 -1.1598  0.6981  0.2131
 6796SOL     OW32023   4.678   3.383   5.021  0.2623 -0.1490  0.4672
 6796SOL    HW132024   0.011   3.394   4.954  1.1629  0.6721  1.5065
 6796SOL    HW232025   4.709   3.422   5.103  0.4862 -0.0665  0.3426
 6797SOL     OW32026   0.720   2.705   2.388 -0.0857 -0.0154 -0.3040
 6797SOL    HW132027   0.758   2.652   2.318 -2.3770 -1.5653 -0.3918
 6797SOL    HW232028   0.764   2.663   2.462 -0.9049  1.8181  1.2195
 6798SOL     OW32029   1.139   1.691   1.942 -0.0543 -0.3375  0.3891
 6798SOL    HW132030   1.225   1.660   1.914  0.3620  0.2477  1.0099
 6798SOL    HW232031   1.126   1.609   1.990 -2.0440 -1.0962 -1.4328
 6799SOL     OW32032   2.345   0.685   9.619 -0.1940  0.3774 -0.1027
 6799SOL    HW132033   2.304   0.602   9.644 -1.6139  1.3850  0.8935
 6799SOL    HW232034   2.388   0.677   9.534 -1.0101  1.6354 -0.6287
 6800SOL     OW32035   0.811   0.886   9.869 -0.1760 -0.7200  0.1561
 6800SOL    HW132036   0.733   0.920   9.824 -0.9677 -1.5077  0.9227
 6800SOL    HW232037   0.760   0.828   9.926 -2.5142  2.1936  1.0219
 6801SOL     OW32038   1.779   3.203   3.786  0.4166 -0.2601  0.2629
 6801SOL    HW132039   1.815   3.148   3.856  1.1876  0.7453  0.6588
 6801SOL    HW232040   1.752   3.132   3.729 -1.3339  0.1372  0.6021
 6802SOL     OW32041   2.956   3.451   3.991 -0.0661 -0.2153  0.5520
 6802SOL    HW132042   2.982   3.542   3.978  1.5536 -0.8848 -1.0466
 6802SOL    HW232043   2.991   3.401   3.917 -0.8193 -0.7599  0.5671
 6803SOL     OW32044   1.242   0.467  11.230  0.3867  0.9003  0.1972
 6803SOL    HW132045   1.292   0.386  11.220 -1.1214  0.1813 -1.5488
 6803SOL    HW232046   1.158   0.445  11.190 -0.4626  0.9515  1.9666
 6804SOL     OW32047   2.149   3.758   5.095  0.4090 -0.0956  0.0710
 6804SOL    HW132048   2.180   3.783   5.008  1.3775  0.1809  0.5015
 6804SOL    HW232049   2.224   3.749   5.153  0.6288  2.8195  0.2583
 6805SOL     OW32050   1.229   0.855  11.723  0.2873  0.6497  0.3276
 6805SOL    HW132051   1.136   0.876  11.719 -0.3593 -2.5050 -1.3661
 6805SOL    HW232052   1.232   0.814  11.809  0.2754 -1.1841 -0.5507
 6806SOL     OW32053   3.347   4.123   8.502 -0.2023  0.1837  0.0011
 6806SOL    HW132054   3.421   4.182   8.521  0.3663 -0.6431  0.3468
 6806SOL    HW232055   3.328   4.104   8.594 -1.0398 -0.4565 -0.3051
 6807SOL     OW32056   3.658   0.607   8.105  0.6023  0.3130  0.6350
 6807SOL    HW132057   3.614   0.597   8.020 -0.8397  0.1039  1.3993
 6807SOL    HW232058   3.744   0.568   8.093  1.0275  1.1022  1.2068
 6808SOL     OW32059   0.492   3.172   1.231 -0.4754 -0.9061 -0.0665
 6808SOL    HW132060   0.431   3.191   1.159  0.9582 -0.9167 -1.2777
 6808SOL    HW232061   0.576   3.201   1.196  0.7795 -0.9338  2.9491
 6809SOL     OW32062   1.121   0.509   4.121  0.6618 -0.0990 -0.1081
 6809SOL    HW132063   1.111   0.585   4.064 -1.0228 -0.3179 -0.0919
 6809SOL    HW232064   1.042   0.507   4.174  2.0275 -0.9922  1.9281
 6810SOL     OW32065   4.201   0.606   5.252  0.9654  0.7552 -0.5369
 6810SOL    HW132066   4.290   0.576   5.267  0.7447  1.3652  1.9414
 6810SOL    HW232067   4.189   0.636   5.342 -4.9022 -1.2476 -0.6414
 6811SOL     OW32068   4.523   0.071  14.689 -0.4587  0.1166 -0.0941
 6811SOL    HW132069   4.554   0.088  14.600  2.7178  1.3805  1.2645
 6811SOL    HW232070   4.545   4.713  14.692 -0.6807  0.0553 -0.2795
 6812SOL     OW32071   0.313   0.179   5.971  0.2100 -1.3836 -0.3464
 6812SOL    HW132072   0.373   0.162   6.043  0.2955  0.5195  0.0251
 6812SOL    HW232073   0.366   0.150   5.897  0.1573  1.1082 -1.3735
 6813SOL     OW32074   2.774   2.790   5.447 -0.2093  0.1880 -0.3648
 6813SOL    HW132075   2.690   2.761   5.411 -0.8390  0.8327  0.5687
 6813SOL    HW232076   2.774   2.883   5.425  1.5831  0.5005  0.9565
 6814SOL     OW32077   3.072   4.416   3.028  0.0044 -0.1899 -0.1749
 6814SOL    HW132078   3.049   4.324   3.015  0.8446 -0.8589  3.0754
 6814SOL    HW232079   3.158   4.423   2.987 -0.1580 -0.3290 -0.5376
 6815SOL     OW32080   2.971   0.397   6.619  0.1060 -0.1288  0.2893
 6815SOL    HW132081   3.035   0.456   6.580  1.2650 -1.5495  0.0244
 6815SOL    HW232082   2.979   0.433   6.707  0.4149  0.5574 -0.0215
 6816SOL     OW32083   0.994   1.312  15.021  0.1770 -0.0154 -0.6812
 6816SOL    HW132084   1.007   1.217  15.019  0.0987  0.0005 -2.0920
 6816SOL    HW232085   1.058   1.345  14.957  1.5950  0.7098  1.1101
 6817SOL     OW32086   1.063   0.879   5.367 -0.0311  0.1007  0.5863
 6817SOL    HW132087   1.120   0.857   5.440 -0.4101 -0.6649  0.6420
 6817SOL    HW232088   1.124   0.946   5.333 -0.2684 -0.4148 -0.8577
 6818SOL     OW32089   2.932   4.318   8.963 -0.6383  0.4567 -0.6073
 6818SOL    HW132090   2.912   4.345   8.873  0.2043 -0.7131 -1.1567
 6818SOL    HW232091   3.027   4.328   8.961 -0.6218  0.4820  0.2430
 6819SOL     OW32092   0.025   2.376   6.137  0.8419 -0.3140  0.6140
 6819SOL    HW132093   0.065   2.448   6.087 -0.2210  1.4397  2.2752
 6819SOL    HW232094   0.084   2.371   6.212 -0.6972  2.9152  2.0658
 6820SOL     OW32095   1.190   2.369   1.637  0.3107  0.7559 -0.1652
 6820SOL    HW132096   1.099   2.383   1.614 -0.1857  0.0270  1.3680
 6820SOL    HW232097   1.217   2.456   1.608  0.4564  1.1716  1.2098
 6821SOL     OW32098   0.441   0.046   7.150  0.4981  0.2113 -0.2769
 6821SOL    HW132099   0.441   0.022   7.057  1.1470  2.3155 -0.8310
 6821SOL    HW232100   0.354   0.086   7.152  0.7126  0.7010 -0.6345
 6822SOL     OW32101   2.384   0.902  16.609 -0.4032 -0.1175 -0.3604
 6822SOL    HW132102   2.367   0.970  16.544 -1.3354 -0.9385 -0.9616
 6822SOL    HW232103   2.479   0.915  16.614  0.0043 -1.5181 -5.0013
 6823SOL     OW32104   2.034   1.443  11.032  0.3448  0.2429 -0.3071
 6823SOL    HW132105   2.051   1.524  11.079 -0.0288 -0.0152  0.2658
 6823SOL    HW232106   2.004   1.386  11.102 -0.7729  1.1024 -0.0901
 6824SOL     OW32107   2.333   0.704  12.026  0.2532 -0.2933 -0.3968
 6824SOL    HW132108   2.301   0.790  12.052  0.1507 -0.7827  1.0676
 6824SOL    HW232109   2.396   0.727  11.957 -0.2503  1.8571 -0.1397
 6825SOL     OW32110   0.620   4.691   2.355 -0.3999 -0.4871  0.2310
 6825SOL    HW132111   0.567   4.624   2.312 -0.2324 -1.6007  1.7606
 6825SOL    HW232112   0.573   0.039   2.346 -1.8492 -1.3735 -0.3078
 6826SOL     OW32113   2.672   4.343   8.635 -0.0610  0.1291  0.3563
 6826SOL    HW132114   2.746   4.285   8.648  0.2277 -0.3684 -3.5440
 6826SOL    HW232115   2.633   4.294   8.563  0.6800 -2.1169  1.4925
 6827SOL     OW32116   3.433   3.821  15.265  0.3379  0.1040 -0.2982
 6827SOL    HW132117   3.370   3.810  15.335  0.9925  0.0132  0.2709
 6827SOL    HW232118   3.521   3.807  15.299 -0.1799  0.9717  1.3755
 6828SOL     OW32119   0.861   0.720   3.291 -0.3995  0.2900  0.1554
 6828SOL    HW132120   0.838   0.739   3.200  2.2232 -1.7527 -0.9305
 6828SOL    HW232121   0.807   0.641   3.293  0.5038 -0.3296 -0.0653
 6829SOL     OW32122   4.199   3.234   2.631 -0.2613 -0.2630 -0.7696
 6829SOL    HW132123   4.182   3.325   2.657 -0.4146 -0.5435  0.1251
 6829SOL    HW232124   4.275   3.253   2.575 -0.9914  0.1310 -1.6236
 6830SOL     OW32125   0.449   2.754   6.388 -0.1268  0.1341 -0.9552
 6830SOL    HW132126   0.521   2.712   6.434 -1.1167 -1.7054 -1.0899
 6830SOL    HW232127   0.490   2.820   6.332  2.4395 -0.3160  0.3893
 6831SOL     OW32128   1.845   3.952   1.429 -0.0303 -0.0699 -0.0234
 6831SOL    HW132129   1.787   4.016   1.388  0.9924 -0.1695 -1.6090
 6831SOL    HW232130   1.927   4.000   1.417  0.3580 -1.0059 -1.0627
 6832SOL     OW32131   4.722   1.188  14.263  0.1400 -0.0465 -0.0676
 6832SOL    HW132132   4.719   1.244  14.185  0.4599 -0.0953 -0.1145
 6832SOL    HW232133   0.076   1.153  14.249 -0.6401 -0.8911 -2.9368
 6833SOL     OW32134   1.867   3.555  11.780  0.0193  0.0867 -0.3491
 6833SOL    HW132135   1.923   3.524  11.708 -0.9324 -1.2596 -0.5139
 6833SOL    HW232136   1.818   3.475  11.799  0.4019 -0.3070 -1.0025
 6834SOL     OW32137   0.440   1.031   3.508  0.0878 -0.1586 -0.1375
 6834SOL    HW132138   0.500   0.957   3.499 -1.8167 -1.7373  0.0905
 6834SOL    HW232139   0.416   1.045   3.599  0.2074 -1.2031  0.0588
 6835SOL     OW32140   3.719   2.232  16.738  0.0239 -0.1167 -0.0732
 6835SOL    HW132141   3.693   2.315  16.699  1.1477 -1.0354 -2.7736
 6835SOL    HW232142   3.683   2.166  16.679  1.1870 -0.4429 -0.4150
 6836SOL     OW32143   1.855   2.770   2.392  0.0796 -0.2832  0.2489
 6836SOL    HW132144   1.823   2.687   2.356 -2.2815  0.7123  0.0359
 6836SOL    HW232145   1.777   2.808   2.432 -0.5766 -0.3648 -0.9539
 6837SOL     OW32146   3.475   1.005   8.604  0.2476  0.2348 -0.1640
 6837SOL    HW132147   3.382   1.003   8.624  0.6617 -1.7099  1.6917
 6837SOL    HW232148   3.464   1.003   8.509  0.2963 -1.1155 -0.1520
 6838SOL     OW32149   0.872   2.362   2.660  0.7925 -0.2007  0.2489
 6838SOL    HW132150   0.888   2.446   2.704  0.9955 -0.4689  0.6818
 6838SOL    HW232151   0.778   2.342   2.665  0.9407 -1.2280 -1.3762
 6839SOL     OW32152   4.293   2.186  12.564  0.4609 -0.3374 -0.3070
 6839SOL    HW132153   4.348   2.122  12.609 -0.2381 -0.3468  0.5284
 6839SOL    HW232154   4.304   2.145  12.478  0.1794 -1.0129 -0.0180
 6840SOL     OW32155   3.564   2.598   4.171 -0.5523 -0.0089  0.4157
 6840SOL    HW132156   3.470   2.610   4.186 -0.5510  1.2006 -0.5529
 6840SOL    HW232157   3.590   2.689   4.156  0.8808 -0.3265  0.9563
 6841SOL     OW32158   2.139   0.778   4.824 -0.1230 -0.1270 -0.2090
 6841SOL    HW132159   2.143   0.861   4.871  0.9046 -0.3753  0.1294
 6841SOL    HW232160   2.198   0.787   4.749  0.0271 -1.3816 -0.2455
 6842SOL     OW32161   4.493   3.033   1.794  0.2876  0.5231  0.2189
 6842SOL    HW132162   4.442   2.975   1.851 -0.8777  0.0784 -1.2922
 6842SOL    HW232163   4.583   3.027   1.826 -0.0760  1.1377  1.3880
 6843SOL     OW32164   4.020   0.290   1.445 -0.0783 -0.0988  0.2109
 6843SOL    HW132165   4.103   0.245   1.464 -0.2969 -0.1607  1.0045
 6843SOL    HW232166   3.973   0.265   1.524 -1.0071  2.0314  0.3325
 6844SOL     OW32167   2.305   1.579   7.773 -0.2134 -0.5705  0.1406
 6844SOL    HW132168   2.362   1.514   7.730 -1.3600 -1.8544  0.5441
 6844SOL    HW232169   2.260   1.541   7.848 -1.5583 -1.7049 -1.2237
 6845SOL     OW32170   1.192   2.934   2.069 -0.0714  0.4181 -0.1732
 6845SOL    HW132171   1.171   3.013   2.120 -0.9026  0.3556 -0.4170
 6845SOL    HW232172   1.219   2.970   1.985  0.8999 -0.8844 -0.4093
 6846SOL     OW32173   2.045   3.064   7.594  0.0870  0.1707  0.2708
 6846SOL    HW132174   1.992   3.062   7.514 -0.8432  1.2867  0.8665
 6846SOL    HW232175   2.129   3.029   7.564 -0.1464  0.3357 -0.5466
 6847SOL     OW32176   2.540   4.064   3.670  0.5892 -0.0378 -0.1331
 6847SOL    HW132177   2.445   4.071   3.683  0.8345 -2.1424  2.7001
 6847SOL    HW232178   2.560   4.148   3.711  2.0882  0.4109 -1.7662
 6848SOL     OW32179   3.799   0.604   7.127 -0.6602 -0.1208 -0.9920
 6848SOL    HW132180   3.874   0.601   7.186 -2.9773  1.2033  2.0185
 6848SOL    HW232181   3.744   0.672   7.166  0.2860  0.1072 -0.0536
 6849SOL     OW32182   1.581   3.225   7.097  0.1068 -0.0296  0.2190
 6849SOL    HW132183   1.624   3.142   7.116  0.9141  0.4445  0.4913
 6849SOL    HW232184   1.654   3.266   7.050 -1.3942  0.3785 -1.7587
 6850SOL     OW32185   0.527   0.321   9.380  0.1404 -0.2351 -0.0813
 6850SOL    HW132186   0.527   0.403   9.428 -0.4292 -0.3151  0.0592
 6850SOL    HW232187   0.451   0.336   9.323  0.3110 -1.0050 -0.5233
 6851SOL     OW32188   2.304   4.238   3.423 -0.0502 -0.5062  0.1680
 6851SOL    HW132189   2.371   4.266   3.362 -2.1513 -0.1991 -1.9961
 6851SOL    HW232190   2.337   4.299   3.490  2.0086  0.8971 -2.1452
 6852SOL     OW32191   2.062   1.441   8.580  0.0871  0.3189  0.0862
 6852SOL    HW132192   2.101   1.435   8.668  1.1042  0.5920 -0.3425
 6852SOL    HW232193   2.130   1.414   8.518 -0.0267 -1.3019  0.6675
 6853SOL     OW32194   4.703   4.237   0.680 -0.3834  0.5031  0.1544
 6853SOL    HW132195   4.653   4.305   0.725 -0.3359  0.9253 -0.4282
 6853SOL    HW232196   4.723   4.172   0.747  0.1908  1.5843  1.0377
 6854SOL     OW32197   2.497   1.276   5.709 -0.1044 -0.1814 -0.2145
 6854SOL    HW132198   2.458   1.211   5.650 -1.5062 -0.4810  1.0573
 6854SOL    HW232199   2.571   1.307   5.657 -0.6994 -0.9310 -1.5059
 6855SOL     OW32200   0.780   3.924   2.932 -0.7475 -0.3621  0.2505
 6855SOL    HW132201   0.739   4.010   2.924 -1.2264 -0.5739  0.4203
 6855SOL    HW232202   0.730   3.851   2.896 -0.9547 -1.2953  2.4530
 6856SOL     OW32203   3.780   0.029   3.319  0.2372 -0.1283  0.2205
 6856SOL    HW132204   3.860   0.033   3.267 -0.0148 -1.1787 -0.2416
 6856SOL    HW232205   3.770   0.124   3.328 -0.2745 -0.1270 -0.3410
 6857SOL     OW32206   2.113   4.037   4.806 -0.2411  0.0520  0.5574
 6857SOL    HW132207   2.129   4.044   4.712  1.1033  1.3172  0.8665
 6857SOL    HW232208   2.162   3.959   4.833 -1.3272 -0.7859  0.0637
 6858SOL     OW32209   3.726   2.342   4.705 -0.3328 -0.6523 -0.0351
 6858SOL    HW132210   3.728   2.246   4.695 -1.1575 -0.6826  0.0283
 6858SOL    HW232211   3.692   2.351   4.794 -2.3504 -0.7484 -0.7780
 6859SOL     OW32212   2.133   3.942   5.947  0.1122 -0.0485 -0.6245
 6859SOL    HW132213   2.149   4.016   5.889  0.2075  0.0952 -0.4168
 6859SOL    HW232214   2.044   3.921   5.920  0.3121 -0.5588 -0.8969
 6860SOL     OW32215   1.825   0.212   1.552 -0.7037  0.1888  0.3719
 6860SOL    HW132216   1.820   0.152   1.626  0.3194 -1.4469 -0.8861
 6860SOL    HW232217   1.845   0.298   1.588 -0.1912 -0.0628  0.7037
 6861SOL     OW32218   0.251   1.413   7.403 -0.6879 -0.3682  0.0452
 6861SOL    HW132219   0.231   1.330   7.359 -0.3249  0.7461 -2.2072
 6861SOL    HW232220   0.327   1.384   7.454  0.7128  1.3986 -1.0037
 6862SOL     OW32221   4.719   4.449   3.665  0.1207  0.3133 -0.2127
 6862SOL    HW132222   4.718   4.354   3.655  1.3575  0.0980  1.7446
 6862SOL    HW232223   4.729   4.483   3.576 -2.9248  0.2523 -0.5709
 6863SOL     OW32224   3.868   0.082  10.165  0.7846  0.1175 -0.2124
 6863SOL    HW132225   3.856   0.036  10.083  2.7947 -1.2135  0.2316
 6863SOL    HW232226   3.821   0.162  10.144 -0.7650 -0.4301  1.1698
 6864SOL     OW32227   1.800   3.938  10.685 -0.6944 -0.3258  0.6113
 6864SOL    HW132228   1.761   3.861  10.724 -1.3734 -0.9806 -1.3694
 6864SOL    HW232229   1.733   3.945  10.616 -0.7996 -1.9943  0.5566
 6865SOL     OW32230   1.041   2.194   1.413  0.2881 -0.0018  0.1917
 6865SOL    HW132231   1.091   2.252   1.356  0.0974 -0.1376 -0.1068
 6865SOL    HW232232   1.107   2.157   1.473 -2.2461  0.2916  3.1350
 6866SOL     OW32233   3.505   1.699  16.285 -0.0061 -0.5141  0.0567
 6866SOL    HW132234   3.519   1.627  16.346 -0.8433  0.8800  1.8731
 6866SOL    HW232235   3.471   1.771  16.338  2.0667  0.0660  0.5896
 6867SOL     OW32236   2.807   0.790   6.169 -0.0802  0.5072  0.3125
 6867SOL    HW132237   2.814   0.839   6.087 -1.2570  0.3585  0.1231
 6867SOL    HW232238   2.738   0.729   6.143  0.0372 -0.4551  2.3266
 6868SOL     OW32239   1.237   0.580  16.513  0.3352  0.2252 -0.5957
 6868SOL    HW132240   1.227   0.552  16.421 -1.6311 -0.3268 -0.2261
 6868SOL    HW232241   1.156   0.630  16.522 -1.3529 -2.2869 -1.8268
 6869SOL     OW32242   0.474   2.250   1.445  0.6857  0.6451  0.0679
 6869SOL    HW132243   0.552   2.231   1.392 -0.5210  0.0822 -1.5256
 6869SOL    HW232244   0.458   2.167   1.490 -0.7233 -0.4670 -2.4549
 6870SOL     OW32245   0.354   0.353  16.821 -0.5724 -0.2121  0.1830
 6870SOL    HW132246   0.320   0.336  16.733  0.8234  0.1386 -0.4360
 6870SOL    HW232247   0.339   0.445  16.841 -0.3594 -0.1076 -0.1453
 6871SOL     OW32248   3.128   2.445   5.489 -0.4883  0.3800  0.0462
 6871SOL    HW132249   3.150   2.537   5.500  0.2043  0.4070 -1.5729
 6871SOL    HW232250   3.134   2.407   5.577 -2.2442 -0.3072 -0.1290
 6872SOL     OW32251   2.054   4.623  17.656 -0.2204  0.3352  0.0621
 6872SOL    HW132252   2.066   4.718  17.652  0.2248  0.3325  1.2954
 6872SOL    HW232253   1.959   4.623  17.647 -0.1137 -0.6027 -1.1052
 6873SOL     OW32254   1.278   3.500   6.907 -0.1179 -0.0213  0.2615
 6873SOL    HW132255   1.286   3.453   6.990 -0.1060 -0.2071  0.1551
 6873SOL    HW232256   1.299   3.592   6.925 -0.2712  0.2067 -0.7411
 6874SOL     OW32257   4.043   0.300   8.880 -0.0345  0.4676  0.1274
 6874SOL    HW132258   4.119   0.333   8.832  0.1842 -0.5270 -0.2049
 6874SOL    HW232259   3.986   0.376   8.868 -0.6943  0.1914  1.4229
 6875SOL     OW32260   1.939   3.751   5.265 -0.1502 -0.1488 -0.3445
 6875SOL    HW132261   2.013   3.744   5.205 -1.6487 -2.7594 -1.8816
 6875SOL    HW232262   1.984   3.751   5.349  1.1713  0.4448 -1.0611
 6876SOL     OW32263   0.159   1.691   2.431  0.6795 -0.7636  0.0330
 6876SOL    HW132264   0.141   1.643   2.512 -0.4411  0.7989  0.6980
 6876SOL    HW232265   0.206   1.768   2.462 -0.0451 -0.5415  0.5751
 6877SOL     OW32266   2.058   1.344   4.601 -0.1770 -0.0796 -0.2908
 6877SOL    HW132267   2.092   1.261   4.567  0.7818  0.0396  0.3785
 6877SOL    HW232268   2.076   1.326   4.693 -2.1036 -2.4964 -0.3818
 6878SOL     OW32269   0.911   0.435  11.913  0.9169 -0.1256 -0.2946
 6878SOL    HW132270   0.935   0.517  11.871 -1.4780  0.4526 -0.5437
 6878SOL    HW232271   0.920   0.380  11.835 -0.6667 -0.4476 -0.2583
 6879SOL     OW32272   2.518   0.272   4.876  0.3068 -0.0090 -0.1711
 6879SOL    HW132273   2.603   0.312   4.896  0.4070 -0.5020  0.3993
 6879SOL    HW232274   2.511   0.282   4.781  1.3754  0.3121 -0.2127
 6880SOL     OW32275   1.691   4.214   6.761 -0.4563 -0.2467  0.2956
 6880SOL    HW132276   1.764   4.195   6.820 -3.2191  0.1535  3.8127
 6880SOL    HW232277   1.696   4.309   6.745 -2.2659  0.1313  2.1155
 6881SOL     OW32278   2.222   3.944   7.077  0.6176  0.3275  0.3160
 6881SOL    HW132279   2.219   4.030   7.035  3.6392  0.5654  0.5779
 6881SOL    HW232280   2.309   3.934   7.118  0.7420  0.7114  0.1427
 6882SOL     OW32281   4.626   1.605  12.886 -0.1275  0.3233  0.3574
 6882SOL    HW132282   4.719   1.585  12.878  0.0073  0.0612  2.7458
 6882SOL    HW232283   4.596   1.526  12.931 -2.5016  0.4174 -1.0219
 6883SOL     OW32284   3.004   2.122  11.849 -0.2082 -0.0924  0.0904
 6883SOL    HW132285   3.041   2.042  11.811  0.5247 -0.9926  2.6513
 6883SOL    HW232286   3.080   2.170  11.882 -0.0796  0.3913 -0.8913
 6884SOL     OW32287   0.889   2.052   2.275 -0.5241 -0.1467  0.2946
 6884SOL    HW132288   0.893   1.994   2.198 -1.1900  0.1656  0.0242
 6884SOL    HW232289   0.926   2.130   2.234 -1.9097  0.7842  0.8203
 6885SOL     OW32290   0.368   0.210   7.645  0.3840 -0.0594 -0.3546
 6885SOL    HW132291   0.298   0.236   7.704  0.7179  0.8016 -0.3266
 6885SOL    HW232292   0.428   0.172   7.709 -0.2687 -0.3017  0.1084
 6886SOL     OW32293   2.602   4.683   5.940  0.0202 -0.4841 -0.8247
 6886SOL    HW132294   2.594   4.658   6.032  2.1167  3.1096  0.3220
 6886SOL    HW232295   2.578   0.041   5.939  0.8617 -0.2753 -1.3228
 6887SOL     OW32296   2.874   2.728   9.471 -0.5304  0.8502  0.4354
 6887SOL    HW132297   2.849   2.636   9.463 -0.9443  0.8443  1.7576
 6887SOL    HW232298   2.966   2.715   9.495 -0.8524  1.1592  1.8291
 6888SOL     OW32299   3.640   2.435   3.918  0.2019 -0.2883 -0.4205
 6888SOL    HW132300   3.649   2.460   4.010 -2.6882 -0.6731 -0.0579
 6888SOL    HW232301   3.591   2.512   3.891  0.7989 -0.0073 -0.7064
 6889SOL     OW32302   1.745   0.961   4.372 -0.6189 -0.2035 -0.1198
 6889SOL    HW132303   1.822   1.018   4.372 -0.8947  0.1700  0.1023
 6889SOL    HW232304   1.774   0.873   4.397 -1.2460  0.0849  1.6326
 6890SOL     OW32305   1.529   2.940   2.265 -0.3709  0.1559 -0.0425
 6890SOL    HW132306   1.479   2.858   2.270  2.8138 -1.7417  0.9962
 6890SOL    HW232307   1.559   2.940   2.356  0.4947  1.4855 -0.3293
 6891SOL     OW32308   4.537   3.451   2.766  0.1405  0.1704  0.2580
 6891SOL    HW132309   4.558   3.361   2.789  1.0220 -0.1033 -1.6664
 6891SOL    HW232310   4.442   3.456   2.776 -0.0523 -0.8145 -1.2340
 6892SOL     OW32311   2.046   4.612  16.225  1.3437 -0.1423  0.1157
 6892SOL    HW132312   2.105   4.657  16.286  1.0492 -0.1111  0.3831
 6892SOL    HW232313   2.043   4.529  16.273 -1.7055  0.0373  0.2574
 6893SOL     OW32314   0.258   3.249   2.494  0.1797 -0.0708  0.1413
 6893SOL    HW132315   0.283   3.301   2.570 -0.0522 -1.4540  1.1568
 6893SOL    HW232316   0.167   3.222   2.509 -0.1071  0.1230 -1.2373
 6894SOL     OW32317   3.343   4.603  11.651  0.1580 -0.4188  0.4351
 6894SOL    HW132318   3.272   4.567  11.597  0.4920  0.5459 -0.6621
 6894SOL    HW232319   3.326   4.566  11.738  2.9107 -1.4102  0.5426
 6895SOL     OW32320   3.243   4.045   7.891 -0.2287  0.1858 -0.7170
 6895SOL    HW132321   3.249   3.992   7.971 -1.3731  1.9422  0.5423
 6895SOL    HW232322   3.313   4.107   7.912  0.7102 -1.4348  0.9741
 6896SOL     OW32323   0.813   2.905   5.542 -0.0300 -0.3918 -0.0521
 6896SOL    HW132324   0.775   2.840   5.601 -0.8055 -0.0323 -0.1605
 6896SOL    HW232325   0.902   2.881   5.568 -0.3339  0.2265  1.5717
 6897SOL     OW32326   2.977   0.390   2.460  0.5196 -0.2516 -0.4942
 6897SOL    HW132327   3.039   0.351   2.521  0.6855  1.5219  0.4766
 6897SOL    HW232328   2.926   0.314   2.431  0.0266 -0.4446  0.8703
 6898SOL     OW32329   2.455   3.033   9.980 -0.5304  0.0156 -0.3972
 6898SOL    HW132330   2.471   3.083  10.060 -1.1388 -1.9155  0.9299
 6898SOL    HW232331   2.521   2.966   9.995 -0.4900  0.1925  0.2433
 6899SOL     OW32332   2.316   3.328   6.755  0.1698 -0.6186  0.0603
 6899SOL    HW132333   2.344   3.308   6.665 -0.6110  1.8856 -0.7466
 6899SOL    HW232334   2.246   3.386   6.723 -0.5798 -1.4723  0.1538
 6900SOL     OW32335   2.808   3.706   8.166 -0.6128  0.3711  0.4442
 6900SOL    HW132336   2.753   3.695   8.088  0.8098  0.3095 -0.5402
 6900SOL    HW232337   2.750   3.688   8.240 -2.0165 -1.9837 -1.2211
 6901SOL     OW32338   3.147   0.540   8.959 -0.2643  0.5409 -0.0091
 6901SOL    HW132339   3.109   0.479   9.022  2.0055 -1.3159 -0.4460
 6901SOL    HW232340   3.145   0.489   8.878  2.4787 -1.5758  1.2245
 6902SOL     OW32341   3.873   3.564   7.479 -0.0023  0.2720 -0.4200
 6902SOL    HW132342   3.849   3.472   7.467  0.4325  0.0349  0.5046
 6902SOL    HW232343   3.834   3.611   7.406 -0.6589  2.9661  1.6872
 6903SOL     OW32344   2.465   1.915   9.582 -0.4685 -0.4321  0.1774
 6903SOL    HW132345   2.448   1.832   9.537  1.2456 -1.1831  0.9453
 6903SOL    HW232346   2.400   1.976   9.547 -1.0147 -0.4976  1.0751
 6904SOL     OW32347   4.360   3.186   6.714  0.6621 -0.2755  0.1006
 6904SOL    HW132348   4.358   3.279   6.734  0.4088 -0.2516 -0.0389
 6904SOL    HW232349   4.357   3.148   6.802 -0.0568 -1.1637 -0.3034
 6905SOL     OW32350   3.359   0.316   7.875 -0.0213 -0.3364 -0.2202
 6905SOL    HW132351   3.407   0.233   7.869  0.2107 -0.2468  0.3775
 6905SOL    HW232352   3.297   0.290   7.943  0.3107 -0.0696  0.1833
 6906SOL     OW32353   0.331   1.206   0.682 -0.1407 -0.4985  0.3539
 6906SOL    HW132354   0.334   1.112   0.665  1.6532 -0.6128  1.3083
 6906SOL    HW232355   0.242   1.210   0.715 -0.0314  2.1966  0.3519
 6907SOL     OW32356   3.606   0.279   4.661 -0.5303  0.5305 -0.3010
 6907SOL    HW132357   3.634   0.187   4.657  2.1675  1.3488  0.3193
 6907SOL    HW232358   3.679   0.328   4.698  0.4200 -1.0911 -0.0093
 6908SOL     OW32359   3.793   1.956  13.707  0.6343 -0.0183 -0.0121
 6908SOL    HW132360   3.831   2.041  13.683  2.0540 -1.2393 -2.0426
 6908SOL    HW232361   3.789   1.899  13.630  2.0937  0.7004 -0.6285
 6909SOL     OW32362   2.371   0.100  14.599 -0.0701 -0.5438 -0.1063
 6909SOL    HW132363   2.316   0.177  14.612  0.2643 -0.2954 -0.1977
 6909SOL    HW232364   2.377   0.092  14.504 -0.6371  1.4791 -0.3121
 6910SOL     OW32365   4.113   2.283  12.346  0.3084  0.1448 -0.3941
 6910SOL    HW132366   4.199   2.276  12.387  1.0772 -0.3147 -2.0859
 6910SOL    HW232367   4.127   2.298  12.253 -1.3958 -1.2039 -0.8622
 6911SOL     OW32368   0.615   0.975   6.572  0.1771 -0.1912  0.5803
 6911SOL    HW132369   0.520   0.962   6.577 -0.0247  0.3418 -1.8062
 6911SOL    HW232370   0.626   1.031   6.496  0.9553 -0.5895  0.4047
 6912SOL     OW32371   2.929   3.975   4.687 -0.1592 -0.1731  0.7821
 6912SOL    HW132372   2.978   4.045   4.645 -0.6027  0.0927  0.7103
 6912SOL    HW232373   2.945   3.981   4.781  1.0012  2.5301  0.3936
 6913SOL     OW32374   2.953   0.896  15.279 -0.2997 -0.2828 -0.4598
 6913SOL    HW132375   2.943   0.991  15.275 -1.7933 -0.4721 -1.0138
 6913SOL    HW232376   2.967   0.878  15.372  0.4427  1.1684 -0.3005
 6914SOL     OW32377   0.993   1.367   7.895 -0.0501  0.0999  0.0579
 6914SOL    HW132378   1.049   1.353   7.971 -1.4621 -0.6725  0.9649
 6914SOL    HW232379   0.982   1.462   7.887 -0.3050  0.1609  1.0420
 6915SOL     OW32380   0.426   0.484   7.632 -0.0657  0.0971 -0.3633
 6915SOL    HW132381   0.422   0.390   7.648 -1.5721 -0.2675 -2.9405
 6915SOL    HW232382   0.465   0.523   7.710  0.8310 -0.5641 -0.4855
 6916SOL     OW32383   1.230   1.759   0.797  0.2175 -0.1645 -0.5535
 6916SOL    HW132384   1.273   1.724   0.719 -1.9468 -0.9680 -1.3923
 6916SOL    HW232385   1.299   1.751   0.863 -1.0614 -0.9547  0.6923
 6917SOL     OW32386   3.725   4.404   9.274 -0.1950 -0.1488  0.3994
 6917SOL    HW132387   3.770   4.415   9.190 -0.5781  1.8286  0.4753
 6917SOL    HW232388   3.773   4.326   9.304 -2.1005 -1.6462 -0.4142
 6918SOL     OW32389   2.353   3.133   7.242  0.3878  0.1083 -0.0949
 6918SOL    HW132390   2.311   3.146   7.158 -0.9078 -1.0761  0.3858
 6918SOL    HW232391   2.362   3.226   7.263 -0.0790 -0.2830  1.8268
 6919SOL     OW32392   4.076   3.521   9.489  0.3052  0.1448  0.5746
 6919SOL    HW132393   4.017   3.527   9.564 -1.1495 -3.1685 -0.3250
 6919SOL    HW232394   4.078   3.614   9.465 -1.5029  0.2671  0.9189
 6920SOL     OW32395   2.065   2.256   9.318 -0.0527  0.4360 -0.3933
 6920SOL    HW132396   2.032   2.295   9.236 -1.3835 -0.1300 -0.1263
 6920SOL    HW232397   1.987   2.215   9.355  2.2555 -1.8333  1.9543
 6921SOL     OW32398   4.011   3.856   8.233 -0.3952 -0.0327 -0.3378
 6921SOL    HW132399   4.093   3.854   8.185 -0.3697  1.0396 -0.3448
 6921SOL    HW232400   3.945   3.811   8.180  2.4241 -1.3943 -2.6510
 6922SOL     OW32401   0.774   3.497   0.601 -0.0331 -0.0698  0.4509
 6922SOL    HW132402   0.750   3.590   0.597  0.1639 -0.1168 -2.0667
 6922SOL    HW232403   0.865   3.505   0.630  0.1597 -4.1130  0.9061
 6923SOL     OW32404   4.568   1.426   3.877  0.2709  0.2682  0.2018
 6923SOL    HW132405   4.555   1.453   3.968 -0.8515  3.1284 -0.8321
 6923SOL    HW232406   4.613   1.503   3.845 -2.8042  1.5503 -1.0489
 6924SOL     OW32407   3.028   1.732   5.029  0.3763 -0.1823  0.5014
 6924SOL    HW132408   3.025   1.785   4.950 -0.1985 -1.0022 -0.0304
 6924SOL    HW232409   3.040   1.799   5.095 -0.3413 -0.4477  0.8992
 6925SOL     OW32410   1.826   1.403   4.010 -0.0186  0.2717  0.5047
 6925SOL    HW132411   1.867   1.373   3.929  0.4556  3.3376 -0.3894
 6925SOL    HW232412   1.740   1.361   4.012 -0.6986  1.5796 -1.1512
 6926SOL     OW32413   3.494   2.340   1.235  0.2298 -0.2829 -0.2425
 6926SOL    HW132414   3.400   2.357   1.235  1.0083  3.9625  0.2653
 6926SOL    HW232415   3.510   2.394   1.158  1.6318 -0.1454  0.1443
 6927SOL     OW32416   3.341   4.172   0.308  0.3418  0.1741 -0.2950
 6927SOL    HW132417   3.374   4.253   0.269 -0.4437  0.4356 -0.4238
 6927SOL    HW232418   3.255   4.206   0.332 -0.2303 -1.1921 -0.3964
 6928SOL     OW32419   1.988   1.361  16.037  0.1714  0.1174  0.2628
 6928SOL    HW132420   2.052   1.351  16.108  2.2882  3.0105 -1.2003
 6928SOL    HW232421   1.925   1.293  16.058  0.6033  0.2452  1.9825
 6929SOL     OW32422   3.970   2.079   7.087  0.6217 -0.2775 -0.3140
 6929SOL    HW132423   3.980   2.135   7.164 -1.5781 -0.2658 -0.0373
 6929SOL    HW232424   4.013   2.128   7.017 -1.0081  3.0671  1.0185
 6930SOL     OW32425   0.358   4.649  15.736  0.1843  1.0851 -0.5839
 6930SOL    HW132426   0.447   4.676  15.756  0.5626  1.3800 -2.6510
 6930SOL    HW232427   0.375   4.556  15.722 -1.7366  0.6510 -0.1078
 6931SOL     OW32428   3.702   2.381  12.995 -0.2874 -0.3989 -0.2533
 6931SOL    HW132429   3.762   2.369  12.921  0.1868 -2.9691  0.5600
 6931SOL    HW232430   3.627   2.335  12.959  0.2526 -0.7049 -0.9916
 6932SOL     OW32431   3.503   0.582  17.720 -0.1500  0.0625  0.0027
 6932SOL    HW132432   3.465   0.668  17.701 -1.3286 -0.0303  1.9528
 6932SOL    HW232433   3.572   0.612   0.042 -0.5149  0.4733  0.2192
 6933SOL     OW32434   0.381   1.819   8.465 -0.1951  0.2612  0.6896
 6933SOL    HW132435   0.433   1.814   8.546  0.0312  1.1156  0.6025
 6933SOL    HW232436   0.314   1.879   8.499  1.7534  2.6467  0.2947
 6934SOL     OW32437   4.489   3.915   6.945 -0.1690  0.3707 -0.2776
 6934SOL    HW132438   4.534   3.999   6.934  1.1024  0.0708  2.6959
 6934SOL    HW232439   4.558   3.857   6.913  0.2480 -0.0461  1.3785
 6935SOL     OW32440   4.732   1.891   9.946 -0.2387 -0.6126 -0.4205
 6935SOL    HW132441   0.007   1.871   9.853  0.0017 -1.5116 -0.1952
 6935SOL    HW232442   4.638   1.883   9.965 -0.3258  0.9780 -0.1702
 6936SOL     OW32443   2.309   0.017   2.208  0.4182  0.2574 -0.0742
 6936SOL    HW132444   2.227   0.062   2.186 -0.6038 -1.5013  0.1502
 6936SOL    HW232445   2.308   0.022   2.303 -1.3509  1.4689 -0.1432
 6937SOL     OW32446   2.206   3.960   9.027 -0.1287 -0.5560  0.3890
 6937SOL    HW132447   2.120   3.973   9.067 -0.2239 -1.8631  0.6203
 6937SOL    HW232448   2.241   4.049   9.034 -0.6056 -0.2620 -1.0894
 6938SOL     OW32449   3.194   1.569   4.761  0.3859 -0.2491 -0.0295
 6938SOL    HW132450   3.201   1.535   4.672  1.6880  0.3490 -0.1560
 6938SOL    HW232451   3.112   1.616   4.747  0.9955  0.6961 -0.4281
 6939SOL     OW32452   0.694   0.662   4.110  0.7823  0.0386  0.0927
 6939SOL    HW132453   0.747   0.658   4.031 -1.5159  0.4635 -1.4845
 6939SOL    HW232454   0.625   0.724   4.087 -0.4835 -0.7632  1.6810
 6940SOL     OW32455   1.536   1.698  14.699 -0.0911  0.6596  0.0102
 6940SOL    HW132456   1.594   1.761  14.656 -0.7206  0.3256 -1.3184
 6940SOL    HW232457   1.454   1.747  14.697  0.6484  1.8977 -0.2022
 6941SOL     OW32458   0.646   2.308   5.171  0.2790 -0.5372  1.1571
 6941SOL    HW132459   0.552   2.298   5.155  0.6652  0.9695 -1.8945
 6941SOL    HW232460   0.661   2.217   5.196 -4.1314 -1.3223  0.9504
 6942SOL     OW32461   0.554   1.177  10.786 -0.7118 -0.3712  0.2986
 6942SOL    HW132462   0.489   1.210  10.724  0.2355  1.5229  0.3034
 6942SOL    HW232463   0.526   1.212  10.870  1.8639  0.0668  0.9851
 6943SOL     OW32464   3.148   2.399   7.846  0.1718  0.1394 -0.5179
 6943SOL    HW132465   3.057   2.375   7.863 -0.2999  0.6568 -2.2941
 6943SOL    HW232466   3.195   2.375   7.926 -0.3712  0.0434 -0.2319
 6944SOL     OW32467   2.920   1.838   1.428  0.5709 -0.0694 -0.0291
 6944SOL    HW132468   2.842   1.783   1.436  1.1529 -0.9204 -0.0932
 6944SOL    HW232469   2.980   1.798   1.492  0.7699  0.1733 -0.0626
 6945SOL     OW32470   2.671   2.963  12.016  0.5801  0.2557  0.5520
 6945SOL    HW132471   2.680   2.963  12.111 -1.1952 -1.8384  0.7232
 6945SOL    HW232472   2.714   2.885  11.980  0.7411  0.1090  1.0650
 6946SOL     OW32473   3.552   2.269  11.956  0.1749 -0.1231  0.2141
 6946SOL    HW132474   3.505   2.348  11.929  2.0725  1.0938  0.4555
 6946SOL    HW232475   3.624   2.313  12.002  0.2919  0.2333 -0.3032
 6947SOL     OW32476   0.192   3.245  10.070  0.1151  0.2007 -0.3642
 6947SOL    HW132477   0.142   3.309  10.019 -1.1227  0.7799  1.6148
 6947SOL    HW232478   0.272   3.229  10.018  0.1738  0.2820 -0.2982
 6948SOL     OW32479   0.306   2.657  10.633  0.2665  0.2462  0.1175
 6948SOL    HW132480   0.249   2.596  10.680  1.0374 -1.9508 -1.7902
 6948SOL    HW232481   0.250   2.680  10.559  1.4157  0.8294 -0.5611
 6949SOL     OW32482   1.681   4.597  15.067 -0.1461  0.1184  0.0859
 6949SOL    HW132483   1.677   4.635  14.979  0.0930 -0.3756 -0.1363
 6949SOL    HW232484   1.721   4.669  15.115 -0.1758  0.0565  0.2025
 6950SOL     OW32485   3.749   3.313   2.203  0.2159  0.3049  0.0012
 6950SOL    HW132486   3.780   3.331   2.114  1.5145  1.7755  0.7535
 6950SOL    HW232487   3.659   3.344   2.192 -0.1069 -0.4078  0.6357
 6951SOL     OW32488   4.203   3.692   4.774 -0.3528  0.5252  0.1109
 6951SOL    HW132489   4.177   3.782   4.794 -0.0155  0.2978  1.5513
 6951SOL    HW232490   4.187   3.641   4.853  1.9161  1.1669  0.9790
 6952SOL     OW32491   4.260   2.550   5.950 -0.3034 -0.0571 -0.2764
 6952SOL    HW132492   4.323   2.503   6.006 -1.8126  1.1475  2.3921
 6952SOL    HW232493   4.206   2.590   6.018 -1.1187 -1.5400 -0.0414
 6953SOL     OW32494   2.495   3.094   5.923 -0.0972  0.3986 -0.1586
 6953SOL    HW132495   2.491   3.041   5.844 -1.5580  1.1701 -0.5954
 6953SOL    HW232496   2.432   3.163   5.903 -0.0915  0.5973  0.5202
 6954SOL     OW32497   1.712   4.170  16.465  0.8609 -0.1945 -1.0376
 6954SOL    HW132498   1.694   4.076  16.458 -0.8931 -0.1572  3.5046
 6954SOL    HW232499   1.722   4.201  16.374  2.4372 -2.6355 -1.6985
 6955SOL     OW32500   4.525   4.381   2.113  0.6492 -0.2036 -0.3851
 6955SOL    HW132501   4.435   4.362   2.140  1.4515  1.2461  3.3761
 6955SOL    HW232502   4.573   4.378   2.196 -1.2332 -0.3803  0.6994
 6956SOL     OW32503   3.843   1.979   6.832  0.5268  0.0550  0.7784
 6956SOL    HW132504   3.877   1.963   6.920 -0.2674  0.0729  1.0897
 6956SOL    HW232505   3.880   1.904   6.785  0.8597  0.4943  0.3422
 6957SOL     OW32506   4.077   1.782  10.976 -0.4728  0.0627  0.3795
 6957SOL    HW132507   4.026   1.703  10.960  0.1286 -0.9080  3.1622
 6957SOL    HW232508   4.166   1.749  10.985 -0.6810 -0.6566 -0.2538
 6958SOL     OW32509   2.592   3.393   6.243 -0.6690 -0.8142  0.4042
 6958SOL    HW132510   2.564   3.305   6.219 -1.6162 -1.3331  3.3682
 6958SOL    HW232511   2.677   3.389   6.199 -1.3637  2.9105 -1.2763
 6959SOL     OW32512   0.988   1.917   1.632  0.4370 -0.3336 -0.3623
 6959SOL    HW132513   0.907   1.952   1.597 -0.0699 -1.2856 -0.1458
 6959SOL    HW232514   1.005   1.969   1.710  0.0658 -1.1885  0.2894
 6960SOL     OW32515   1.044   1.820   0.089  0.2437 -0.2357 -0.6270
 6960SOL    HW132516   1.128   1.813   0.042  0.3515 -0.4148 -0.4060
 6960SOL    HW232517   0.981   1.852   0.024  0.2066  0.6013 -0.1807
 6961SOL     OW32518   1.099   1.551  14.011  0.9927 -0.2275  0.5735
 6961SOL    HW132519   1.123   1.609  13.939  0.8790  1.1054  1.6058
 6961SOL    HW232520   1.125   1.467  13.973  2.3010  1.4602 -2.2403
 6962SOL     OW32521   4.582   0.307   0.668 -0.1811  0.2186 -0.3514
 6962SOL    HW132522   4.514   0.373   0.678 -1.3728 -0.9943 -0.4739
 6962SOL    HW232523   4.640   0.353   0.609  0.7279 -1.9830 -1.1955
 6963SOL     OW32524   3.523   0.949  17.026  0.2488  0.1049  0.3713
 6963SOL    HW132525   3.611   0.966  17.059  0.1499  1.6624 -0.1552
 6963SOL    HW232526   3.533   0.976  16.935 -0.7878  3.0137  1.1184
 6964SOL     OW32527   2.194   4.694   6.412  0.6570 -0.1470 -0.0237
 6964SOL    HW132528   2.245   0.027   6.367  1.5801  0.7251  2.3046
 6964SOL    HW232529   2.214   4.624   6.350 -1.5509 -0.0696 -0.8121
 6965SOL     OW32530   0.865   1.565   3.913  0.1035 -0.4136 -0.1981
 6965SOL    HW132531   0.899   1.507   3.845 -0.0825 -1.6418  0.7604
 6965SOL    HW232532   0.896   1.651   3.883 -0.9477 -0.2793 -0.8743
 6966SOL     OW32533   0.359   2.048   3.924 -0.4692  0.2970 -0.4406
 6966SOL    HW132534   0.419   2.118   3.950 -1.0336  1.3897 -2.0999
 6966SOL    HW232535   0.381   1.964   3.965  0.1942  0.3743 -0.6314
 6967SOL     OW32536   2.551   0.697   2.793 -0.1522  0.7590  0.1433
 6967SOL    HW132537   2.566   0.617   2.742 -1.1453  0.0566  0.9633
 6967SOL    HW232538   2.627   0.706   2.851  0.0785  0.6133 -0.1342
 6968SOL     OW32539   4.425   1.451   5.619 -0.1073  0.0593 -0.1682
 6968SOL    HW132540   4.486   1.498   5.676 -1.7158  1.0552  0.7708
 6968SOL    HW232541   4.461   1.459   5.531  0.2131 -0.2322 -0.0614
 6969SOL     OW32542   0.963   1.833   8.546  0.3187  0.6114 -0.0761
 6969SOL    HW132543   0.972   1.854   8.639  1.6417 -0.5356  0.0498
 6969SOL    HW232544   0.871   1.812   8.532  0.5212  0.5478 -1.2727
 6970SOL     OW32545   3.090   4.700  13.975  0.1030 -0.1531  0.3983
 6970SOL    HW132546   3.020   0.013  14.021 -0.9220 -1.0356 -0.2471
 6970SOL    HW232547   3.134   0.036  13.929  0.0262  0.1568  0.7977
 6971SOL     OW32548   1.663   4.092   3.047  0.5426  0.3790  0.8890
 6971SOL    HW132549   1.714   4.024   3.004 -0.0000 -0.4731  1.5888
 6971SOL    HW232550   1.723   4.152   3.091  2.3970  0.0565 -1.2081
 6972SOL     OW32551   3.507   2.339   6.805 -0.4205  0.0289 -0.2170
 6972SOL    HW132552   3.419   2.347   6.842  0.4542  3.0678  1.1531
 6972SOL    HW232553   3.545   2.419   6.840 -1.7088 -0.0017  1.2427
 6973SOL     OW32554   2.980   1.320   6.754 -0.1737 -0.2323  0.6052
 6973SOL    HW132555   3.071   1.332   6.730 -1.0243  0.0579 -2.4579
 6973SOL    HW232556   2.928   1.287   6.680  0.1500 -0.9877  0.7150
 6974SOL     OW32557   1.694   4.440   0.026  0.5004 -0.0521  0.4652
 6974SOL    HW132558   1.610   4.425  17.721  1.8738 -0.0789 -2.2063
 6974SOL    HW232559   1.732   4.514  17.715 -0.0412  0.9993  1.6379
 6975SOL     OW32560   1.903   1.949  16.261  0.1881  0.8270 -0.1596
 6975SOL    HW132561   1.895   2.035  16.219 -0.4445  0.3487 -1.0157
 6975SOL    HW232562   1.928   1.890  16.190 -0.8606  3.4670 -2.7209
 6976SOL     OW32563   4.575   1.594   4.199  0.5184  0.4629  0.3767
 6976SOL    HW132564   4.665   1.582   4.229  0.4482 -1.4496 -0.2276
 6976SOL    HW232565   4.529   1.552   4.272 -0.4754  0.2295 -0.3910
 6977SOL     OW32566   1.427   1.632   1.517 -0.2197  1.1652  0.9482
 6977SOL    HW132567   1.357   1.698   1.522  0.6834  2.2793 -1.3819
 6977SOL    HW232568   1.397   1.594   1.435  1.1716  1.9118  0.1112
 6978SOL     OW32569   2.274   4.266   8.990  0.0866 -0.2689 -0.2585
 6978SOL    HW132570   2.341   4.270   9.059  1.4419  1.3009 -1.6726
 6978SOL    HW232571   2.233   4.349   9.016  0.9553  0.8933 -2.6555
 6979SOL     OW32572   1.590   4.288   7.827  0.5057 -0.0191  0.6243
 6979SOL    HW132573   1.539   4.235   7.766  0.2464  0.0841  0.7505
 6979SOL    HW232574   1.587   4.233   7.906 -1.1721 -0.1818  0.4591
 6980SOL     OW32575   2.917   0.665   3.192  0.6444 -0.4229  0.3940
 6980SOL    HW132576   2.864   0.598   3.235 -0.0976 -1.7276 -2.5459
 6980SOL    HW232577   2.993   0.681   3.248  0.7303  0.5727  0.0001
 6981SOL     OW32578   1.172   1.838   9.314  0.3938  0.2403 -0.1895
 6981SOL    HW132579   1.106   1.904   9.338 -0.1452 -0.7492  1.0267
 6981SOL    HW232580   1.141   1.807   9.229 -3.5085  1.1301  0.8979
 6982SOL     OW32581   3.920   2.863  14.582  0.1175 -0.0577  0.2530
 6982SOL    HW132582   3.861   2.788  14.579  0.1929 -0.1040 -0.0916
 6982SOL    HW232583   3.883   2.920  14.514  1.7376  0.1309 -0.4589
 6983SOL     OW32584   4.147   0.101   5.747 -0.0352 -0.2129 -0.1258
 6983SOL    HW132585   4.147   0.047   5.668 -1.2142  2.6760 -2.1102
 6983SOL    HW232586   4.058   0.102   5.783  1.4132 -1.1711  3.5119
 6984SOL     OW32587   0.411   1.157   6.850  0.0699 -0.3321  0.5665
 6984SOL    HW132588   0.381   1.168   6.940  0.3889 -1.4946  0.8220
 6984SOL    HW232589   0.487   1.215   6.847  0.4056 -0.8080  0.0299
 6985SOL     OW32590   0.839   4.679   4.017 -0.1205  0.3015 -0.0760
 6985SOL    HW132591   0.874   0.034   4.025 -1.5838  0.8542  0.1320
 6985SOL    HW232592   0.789   4.686   3.937 -0.2861 -1.4354 -0.1069
 6986SOL     OW32593   2.734   1.485   2.401 -0.0071 -0.0314 -0.4901
 6986SOL    HW132594   2.823   1.490   2.366 -0.3793 -0.0783 -1.4477
 6986SOL    HW232595   2.725   1.572   2.440  1.5963  0.7335 -1.7931
 6987SOL     OW32596   0.322   4.311   7.539 -0.5178 -0.2654  0.5514
 6987SOL    HW132597   0.256   4.285   7.475 -1.1134  3.2611 -0.2679
 6987SOL    HW232598   0.403   4.338   7.495 -0.1360 -1.9461  0.2396
 6988SOL     OW32599   0.887   4.288   6.073  0.4684  0.1771  0.2391
 6988SOL    HW132600   0.821   4.263   6.138  0.6400 -0.3434  0.2131
 6988SOL    HW232601   0.944   4.338   6.131  0.9440  1.3470 -1.2499
 6989SOL     OW32602   0.882   1.790  12.526 -0.0112 -0.1776  0.4913
 6989SOL    HW132603   0.950   1.798  12.593 -1.8775 -0.8116  2.4914
 6989SOL    HW232604   0.844   1.708  12.558 -2.2546  0.4162 -0.6544
 6990SOL     OW32605   4.113   1.225   8.114  0.5206  0.4684 -0.1328
 6990SOL    HW132606   4.158   1.142   8.103 -1.7777 -0.8324  0.3506
 6990SOL    HW232607   4.033   1.213   8.063  2.0501 -1.4024 -2.0853
 6991SOL     OW32608   2.733   0.104   6.250  0.0687  0.8723 -0.2675
 6991SOL    HW132609   2.774   0.162   6.315 -0.3005  0.8520 -0.0154
 6991SOL    HW232610   2.650   0.151   6.246  0.4162  1.6444  1.5892
 6992SOL     OW32611   2.943   0.493   7.815  0.0718 -0.3703  0.1523
 6992SOL    HW132612   2.952   0.567   7.875  2.0874 -0.4380 -0.0733
 6992SOL    HW232613   2.862   0.525   7.775  0.6379 -2.0714 -2.3463
 6993SOL     OW32614   1.890   1.907   4.637 -0.0569 -0.3218  0.2484
 6993SOL    HW132615   1.817   1.890   4.697  0.1670  0.7702  0.8225
 6993SOL    HW232616   1.947   1.831   4.648  2.3111  1.8865  3.0856
 6994SOL     OW32617   2.575   2.455   8.954 -0.5455  0.7303  0.3199
 6994SOL    HW132618   2.480   2.463   8.943 -0.4764 -0.4110 -1.1296
 6994SOL    HW232619   2.604   2.420   8.869  0.3398 -1.4503  1.5148
 6995SOL     OW32620   0.484   3.188   3.243 -0.2545  0.6282  0.3654
 6995SOL    HW132621   0.555   3.238   3.203 -1.1521  1.1324 -0.5953
 6995SOL    HW232622   0.449   3.260   3.296  0.1804  0.3991  0.9683
 6996SOL     OW32623   4.221   3.983   3.028 -0.4815  0.3807  0.0614
 6996SOL    HW132624   4.141   4.010   2.983  0.0853  1.1534 -0.4868
 6996SOL    HW232625   4.242   4.059   3.083  1.0277 -0.3613  0.5051
 6997SOL     OW32626   0.359   4.381   3.488 -0.1505 -0.3525 -0.2545
 6997SOL    HW132627   0.303   4.456   3.506 -2.2798 -2.3435  1.5315
 6997SOL    HW232628   0.305   4.320   3.438  0.9075 -1.0707 -0.5266
 6998SOL     OW32629   1.425   3.897   2.444  0.0521 -0.2606  0.4188
 6998SOL    HW132630   1.442   3.965   2.510  2.7893  0.1275 -0.6601
 6998SOL    HW232631   1.381   3.837   2.503  0.2938 -0.6156  0.2378
 6999SOL     OW32632   1.755   1.208  16.123 -0.0121 -0.6105 -0.1262
 6999SOL    HW132633   1.792   1.218  16.211  2.7299 -1.1361 -1.2158
 6999SOL    HW232634   1.675   1.157  16.131 -0.5725  0.1578 -0.8067
 7000SOL     OW32635   0.686   0.761   8.052  0.0032 -0.3434  0.2355
 7000SOL    HW132636   0.658   0.852   8.065  1.1507  0.2158 -1.1340
 7000SOL    HW232637   0.634   0.722   8.122 -2.7836  2.4471 -0.2421
 7001SOL     OW32638   0.360   2.299   9.380 -0.5358 -0.0846  0.1896
 7001SOL    HW132639   0.372   2.209   9.351  1.1269  0.6988 -1.5598
 7001SOL    HW232640   0.279   2.295   9.432  0.9578  1.9214  2.6515
 7002SOL     OW32641   2.259   2.368   6.287 -0.5565 -0.5084 -0.2101
 7002SOL    HW132642   2.345   2.410   6.291 -0.7428  0.0357 -2.2003
 7002SOL    HW232643   2.231   2.355   6.378  0.3097  0.6748  0.2197
 7003SOL     OW32644   0.692   1.485   8.687  0.1404 -0.9668 -0.0792
 7003SOL    HW132645   0.630   1.413   8.697 -1.2761  0.4756  1.5177
 7003SOL    HW232646   0.686   1.511   8.595 -0.8466  1.0658  0.5411
 7004SOL     OW32647   1.798   3.388   6.974 -0.2112 -0.0056  0.5722
 7004SOL    HW132648   1.886   3.420   6.953 -1.1188  2.3305  0.3570
 7004SOL    HW232649   1.744   3.466   6.961  1.6884  1.4622  1.4533
 7005SOL     OW32650   4.291   2.032   6.215 -0.0890  0.6032 -0.0578
 7005SOL    HW132651   4.195   2.024   6.216  0.0758 -1.1508  0.6033
 7005SOL    HW232652   4.307   2.126   6.211  3.9571 -0.0497  1.0305
 7006SOL     OW32653   2.502   3.144   8.198  0.1132 -0.2202 -0.2812
 7006SOL    HW132654   2.504   3.240   8.197 -3.7454 -0.1444  1.3046
 7006SOL    HW232655   2.503   3.123   8.291 -0.4848 -0.4864 -0.3386
 7007SOL     OW32656   2.366   2.494  17.383  0.2886  0.2397  0.0704
 7007SOL    HW132657   2.394   2.402  17.383  1.3371  0.5520  0.0261
 7007SOL    HW232658   2.321   2.498  17.467 -1.3103 -0.8595 -0.7330
 7008SOL     OW32659   4.498   3.948   6.288  0.3728 -0.1784  0.1508
 7008SOL    HW132660   4.429   3.890   6.321  0.9277 -1.0207 -0.1776
 7008SOL    HW232661   4.492   3.924   6.195  0.5810 -0.3483  0.1805
 7009SOL     OW32662   4.289   0.855   4.003  0.1243 -0.0040  0.1965
 7009SOL    HW132663   4.352   0.906   3.952  0.2297 -2.6383 -2.3076
 7009SOL    HW232664   4.212   0.893   3.960  0.2978  0.0164 -0.0957
 7010SOL     OW32665   0.428   2.252  15.973  0.4729  0.6349 -0.0749
 7010SOL    HW132666   0.462   2.171  16.011 -0.4330  0.2267 -0.1321
 7010SOL    HW232667   0.348   2.219  15.931 -0.2265  1.0194  0.9602
 7011SOL     OW32668   0.122   2.272  16.170 -0.1570 -0.0532  0.0397
 7011SOL    HW132669   0.139   2.219  16.092 -0.6579 -0.5268  0.2496
 7011SOL    HW232670   0.162   2.353  16.139  1.3213 -1.8040 -2.5476
 7012SOL     OW32671   4.561   3.512   3.866  0.3695 -0.0363 -0.6326
 7012SOL    HW132672   4.513   3.478   3.790  2.1497 -1.5893 -1.0560
 7012SOL    HW232673   4.608   3.438   3.902  0.4678  0.5301  0.3880
 7013SOL     OW32674   2.591   4.466  10.824  0.7364  0.2138  0.2094
 7013SOL    HW132675   2.516   4.524  10.839  0.5552 -0.1782  0.8353
 7013SOL    HW232676   2.578   4.469  10.729  0.4133  0.1205  0.2478
 7014SOL     OW32677   2.987   4.234  17.309 -0.1624  0.3028  0.3421
 7014SOL    HW132678   3.004   4.315  17.357  1.2664 -0.0032  0.3520
 7014SOL    HW232679   2.935   4.263  17.234 -0.9816  0.4365  0.9623
 7015SOL     OW32680   2.605   3.386   7.770 -0.4190 -0.4047 -0.6832
 7015SOL    HW132681   2.566   3.473   7.770 -0.2660 -0.3355  0.5488
 7015SOL    HW232682   2.643   3.384   7.858  0.9039  2.6007 -1.2138
 7016SOL     OW32683   1.510   3.315   2.529  0.0469  0.0857  0.0194
 7016SOL    HW132684   1.513   3.257   2.605 -0.2328 -2.0448 -1.5913
 7016SOL    HW232685   1.600   3.317   2.495  0.0660  1.2622  0.1168
 7017SOL     OW32686   0.312   3.074  16.842  0.2664 -0.7398 -0.4214
 7017SOL    HW132687   0.272   3.051  16.926 -0.9610  1.0120 -0.5536
 7017SOL    HW232688   0.404   3.058  16.864  0.1644  1.9435  1.9041
 7018SOL     OW32689   2.578   4.702   4.111 -0.2821 -0.0800  0.3257
 7018SOL    HW132690   2.554   4.654   4.031 -0.9182  0.7113  0.0397
 7018SOL    HW232691   2.603   4.628   4.165  0.1033 -0.1472  0.0590
 7019SOL     OW32692   3.902   1.736   6.678 -0.3710 -0.0495  0.0740
 7019SOL    HW132693   3.978   1.705   6.728 -1.0913 -2.2345 -0.1696
 7019SOL    HW232694   3.936   1.785   6.603 -0.2491  0.2423  0.3217
 7020SOL     OW32695   3.484   1.136   0.870 -0.0421  0.2357 -0.6882
 7020SOL    HW132696   3.528   1.175   0.794  1.0491  0.6193  0.1492
 7020SOL    HW232697   3.549   1.080   0.912  1.2564  1.2912 -1.3080
 7021SOL     OW32698   0.376   1.936   5.596 -0.2834  0.0297  0.1528
 7021SOL    HW132699   0.309   1.883   5.554 -1.0735  0.1740  1.2230
 7021SOL    HW232700   0.392   2.001   5.527 -0.5397 -1.0308 -0.8959
 7022SOL     OW32701   4.020   0.248   8.482  0.0921  0.0071 -0.4315
 7022SOL    HW132702   4.049   0.199   8.559 -0.5591  1.0675  0.4814
 7022SOL    HW232703   4.078   0.210   8.416  0.2234  0.1064 -0.3709
 7023SOL     OW32704   3.809   2.907   2.402  0.0873  0.1362  0.0910
 7023SOL    HW132705   3.873   2.977   2.412  0.9637 -0.7596  0.7195
 7023SOL    HW232706   3.824   2.865   2.317  1.7093  0.8841 -0.0071
 7024SOL     OW32707   2.529   1.725   6.548  0.1351  0.0931 -0.2505
 7024SOL    HW132708   2.522   1.716   6.453  1.1746 -1.8985 -0.1242
 7024SOL    HW232709   2.532   1.820   6.563 -1.1250  0.4632 -2.3495
 7025SOL     OW32710   0.994   2.775   1.451  0.3190  0.5367  0.2499
 7025SOL    HW132711   1.043   2.715   1.395  0.8641  0.9541  0.2831
 7025SOL    HW232712   0.911   2.773   1.403  1.1071 -1.3121 -1.0141
 7026SOL     OW32713   3.093   3.125  11.029 -0.3119 -0.3837 -0.5488
 7026SOL    HW132714   3.154   3.093  10.962  1.2788 -0.9172  1.1515
 7026SOL    HW232715   3.050   3.043  11.053  0.5666 -0.8119 -0.4309
 7027SOL     OW32716   2.919   2.433   7.155  0.0180  0.2214 -0.5671
 7027SOL    HW132717   2.933   2.461   7.245 -1.2585 -1.5897  0.1855
 7027SOL    HW232718   2.824   2.437   7.139 -0.0180  1.6306 -0.0142
 7028SOL     OW32719   3.054   3.429  13.969  0.3087 -0.5786  0.8179
 7028SOL    HW132720   3.132   3.467  13.928 -0.3486  0.1538  0.2348
 7028SOL    HW232721   3.025   3.378  13.893 -1.5733  0.5988  0.7436
 7029SOL     OW32722   4.124   3.299   7.959  0.0278 -0.2725 -0.4105
 7029SOL    HW132723   4.177   3.377   7.940  1.5116 -0.8805  1.2423
 7029SOL    HW232724   4.190   3.237   7.989 -0.1410 -0.6322 -0.7885
 7030SOL     OW32725   3.389   1.411  15.597 -0.1133 -0.3047 -0.4646
 7030SOL    HW132726   3.483   1.418  15.582 -0.2999 -0.1265 -1.5706
 7030SOL    HW232727   3.347   1.497  15.597 -1.2947 -0.8805  1.6715
 7031SOL     OW32728   3.756   1.795   9.377 -0.4382  0.2702  0.1286
 7031SOL    HW132729   3.736   1.768   9.287  1.9726 -0.3698 -0.2265
 7031SOL    HW232730   3.827   1.859   9.366  0.3381 -0.9877 -2.2641
 7032SOL     OW32731   1.737   4.680   6.097 -0.1112  0.0172 -0.0746
 7032SOL    HW132732   1.660   4.713   6.143  1.4093  3.5672 -0.1086
 7032SOL    HW232733   1.797   4.675   6.171  1.9038  1.6907 -1.6126
 7033SOL     OW32734   1.983   2.411   7.713 -0.1139 -0.2143  0.0379
 7033SOL    HW132735   2.076   2.390   7.709 -0.2031 -0.4497 -0.8116
 7033SOL    HW232736   1.966   2.395   7.806 -1.5783 -1.9070 -0.5185
 7034SOL     OW32737   3.271   0.405  16.107  0.2540  0.0131  0.3258
 7034SOL    HW132738   3.277   0.380  16.199 -0.1159  0.3284  0.4392
 7034SOL    HW232739   3.183   0.440  16.094  0.4354  1.2627  2.3169
 7035SOL     OW32740   2.813   1.500  11.418  0.3426 -0.1002 -0.1127
 7035SOL    HW132741   2.818   1.522  11.511 -2.4251 -2.4310  0.5943
 7035SOL    HW232742   2.787   1.408  11.416 -0.6022  0.2165 -1.8607
 7036SOL     OW32743   1.397   0.391   8.629 -0.4533  0.8658 -0.2148
 7036SOL    HW132744   1.412   0.322   8.565 -1.4358 -2.3444  3.0425
 7036SOL    HW232745   1.487   0.417   8.648 -1.1699  1.8602  1.8523
 7037SOL     OW32746   3.691   3.368  17.620  0.7450  0.0893 -0.3037
 7037SOL    HW132747   3.712   3.413  17.702  1.1264 -1.1606  0.2869
 7037SOL    HW232748   3.767   3.389  17.565  2.2948  0.8823  2.1525
 7038SOL     OW32749   3.765   1.853  11.877  0.1473  0.2569  0.1631
 7038SOL    HW132750   3.814   1.803  11.811  1.1976 -0.2158  1.2978
 7038SOL    HW232751   3.741   1.932  11.829 -0.6366 -0.0383  0.0639
 7039SOL     OW32752   2.367   0.715  10.590  0.0193  0.5168  0.8460
 7039SOL    HW132753   2.272   0.725  10.595 -0.0756  0.2547 -0.2654
 7039SOL    HW232754   2.393   0.806  10.587  0.0899  0.4720 -0.1435
 7040SOL     OW32755   2.725   3.232   6.872  0.6881  0.2713 -0.5979
 7040SOL    HW132756   2.722   3.313   6.924 -3.4053 -0.9697  1.1416
 7040SOL    HW232757   2.630   3.222   6.879  0.8487 -0.4696  0.5359
 7041SOL     OW32758   0.521   1.983   1.045 -0.7808 -0.0328  0.1776
 7041SOL    HW132759   0.600   1.930   1.028 -0.5177  0.0278  1.2230
 7041SOL    HW232760   0.560   2.069   1.060  1.8299 -1.0122 -0.8766
 7042SOL     OW32761   4.604   4.259  16.858 -0.5670  0.6437  0.0847
 7042SOL    HW132762   4.693   4.266  16.822  0.1292 -1.9506  1.2824
 7042SOL    HW232763   4.630   4.232  16.946 -1.8348  0.5251  0.4116
 7043SOL     OW32764   1.966   3.268  12.059  0.3403  0.2776  0.1980
 7043SOL    HW132765   2.017   3.191  12.035  0.0278  0.6240 -1.5839
 7043SOL    HW232766   1.887   3.250  12.007 -0.9413  1.0751  1.8702
 7044SOL     OW32767   4.521   0.693   1.756 -0.0865  0.8342  0.1896
 7044SOL    HW132768   4.509   0.624   1.690  2.0996 -1.9210  2.6906
 7044SOL    HW232769   4.475   0.762   1.708 -1.5461  1.3170  2.2697
 7045SOL     OW32770   2.413   1.986   4.264  0.2963  0.0631  0.7656
 7045SOL    HW132771   2.445   2.057   4.319  2.0256  0.8105 -1.2166
 7045SOL    HW232772   2.349   2.022   4.202 -0.8795  0.9593  2.5143
 7046SOL     OW32773   3.421   4.054   8.764 -0.2041  0.6820  0.4743
 7046SOL    HW132774   3.383   3.981   8.813 -0.7476  0.5478 -0.1398
 7046SOL    HW232775   3.445   4.101   8.843 -1.0924 -0.3637  1.3664
 7047SOL     OW32776   3.050   1.944   9.735  0.1669 -0.0177 -0.0734
 7047SOL    HW132777   2.991   1.973   9.666 -0.9223 -0.4571  0.6775
 7047SOL    HW232778   3.067   2.027   9.780  0.6462 -0.2225  0.1261
 7048SOL     OW32779   1.981   0.518   3.117  0.1316 -0.7253  0.0388
 7048SOL    HW132780   2.054   0.540   3.059  1.0004  1.0957  1.8016
 7048SOL    HW232781   2.001   0.559   3.202  0.3218 -1.1669  0.2038
 7049SOL     OW32782   2.735   3.545   6.468  0.0506 -0.4860  0.8780
 7049SOL    HW132783   2.651   3.575   6.502  0.4775  1.6953  0.0256
 7049SOL    HW232784   2.712   3.475   6.407  1.8623  0.4606 -0.8907
 7050SOL     OW32785   3.325   2.035   8.973  0.1477 -1.0580  0.2416
 7050SOL    HW132786   3.283   1.980   9.039  0.5146  0.4495  1.7247
 7050SOL    HW232787   3.280   2.118   8.990 -0.7465 -2.1087  3.0699
 7051SOL     OW32788   2.234   1.037   7.113 -0.1124  0.0402  0.3800
 7051SOL    HW132789   2.179   1.052   7.190 -1.7296  1.5813 -1.0970
 7051SOL    HW232790   2.298   0.971   7.141 -0.0286 -1.0133 -2.3083
 7052SOL     OW32791   1.655   1.565  16.515  0.4124 -0.1759 -0.5932
 7052SOL    HW132792   1.710   1.627  16.468  1.8719  0.4730  1.9264
 7052SOL    HW232793   1.627   1.511  16.441  0.2059 -0.2288 -0.4752
 7053SOL     OW32794   0.740   2.117   8.525  0.3441 -0.1120  0.4744
 7053SOL    HW132795   0.748   2.081   8.614 -3.5338 -0.3010  0.7606
 7053SOL    HW232796   0.717   2.207   8.547  0.7582  0.6065 -2.1253
 7054SOL     OW32797   3.309   1.768  14.786 -0.3041  0.5353  0.0612
 7054SOL    HW132798   3.367   1.784  14.860  0.5392 -1.1156 -0.2560
 7054SOL    HW232799   3.366   1.712  14.734 -1.3544 -0.0739 -0.4568
 7055SOL     OW32800   1.180   4.296   3.859  0.2204  0.1684  0.0444
 7055SOL    HW132801   1.153   4.380   3.895  2.5481  0.2519  1.5725
 7055SOL    HW232802   1.219   4.326   3.777 -1.4917  1.1687 -0.4091
 7056SOL     OW32803   3.100   2.824   7.708  0.0102 -0.6424 -0.5055
 7056SOL    HW132804   3.105   2.855   7.617 -0.8474  0.3045 -0.2253
 7056SOL    HW232805   3.140   2.738   7.701  0.6413 -0.5288  1.7127
 7057SOL     OW32806   3.261   3.018  15.105 -0.5662 -0.3457 -0.2539
 7057SOL    HW132807   3.226   2.996  15.019  2.8294 -2.4177 -1.1196
 7057SOL    HW232808   3.258   3.114  15.108  0.3489 -0.3855  1.9238
 7058SOL     OW32809   4.044   4.675   0.047  0.2288 -0.6173 -0.3382
 7058SOL    HW132810   4.083   4.590   0.068  2.5672  0.9218  1.5069
 7058SOL    HW232811   4.116   0.001   0.062  1.0775 -1.8822  0.7558
 7059SOL     OW32812   2.883   0.302  14.965  0.1889 -0.7731 -0.3567
 7059SOL    HW132813   2.864   0.308  15.059  0.5991  0.5883 -0.3659
 7059SOL    HW232814   2.800   0.320  14.920  0.1876  0.3945  0.1089
 7060SOL     OW32815   4.434   4.556   8.832  0.0867  0.1813  0.6082
 7060SOL    HW132816   4.424   4.495   8.759  0.2177  2.7064 -1.5266
 7060SOL    HW232817   4.464   4.633   8.784  1.5946 -0.4768  0.4950
 7061SOL     OW32818   1.766   0.472   7.414 -0.2003 -0.0372  0.3459
 7061SOL    HW132819   1.676   0.480   7.383  0.3353 -0.9591 -1.4398
 7061SOL    HW232820   1.769   0.546   7.474  0.3055 -0.8193  1.2845
 7062SOL     OW32821   4.266   0.854   7.361 -0.3740  0.5196  0.1022
 7062SOL    HW132822   4.179   0.858   7.402 -0.2511 -0.6703  0.4937
 7062SOL    HW232823   4.303   0.774   7.399  1.0541  0.7839 -0.7140
 7063SOL     OW32824   1.314   2.708   7.924  0.1706 -0.0009  0.2218
 7063SOL    HW132825   1.265   2.626   7.925  1.4022 -0.7169  0.8223
 7063SOL    HW232826   1.261   2.762   7.865  1.1026  0.8651  0.1908
 7064SOL     OW32827   2.633   4.080   6.233 -0.2311  0.0266  0.4957
 7064SOL    HW132828   2.551   4.058   6.190  0.5574  2.1111 -2.0970
 7064SOL    HW232829   2.697   4.093   6.163 -2.3028  1.2546 -1.1338
 7065SOL     OW32830   2.278   3.339   1.297 -0.8216  0.5849  0.0846
 7065SOL    HW132831   2.313   3.345   1.385 -2.0318 -3.4207  0.8263
 7065SOL    HW232832   2.359   3.319   1.249  1.1191  1.5921  2.9640
 7066SOL     OW32833   2.978   3.104  14.069  0.0198 -0.3543  0.0911
 7066SOL    HW132834   2.984   3.199  14.061 -0.1131 -0.3500  0.0420
 7066SOL    HW232835   2.951   3.084  13.980 -0.3155 -0.7490  0.2768
 7067SOL     OW32836   2.358   4.000  11.612  0.2560 -0.2655  0.5169
 7067SOL    HW132837   2.268   3.971  11.624 -0.0703 -0.5685 -2.7109
 7067SOL    HW232838   2.367   4.059  11.687 -0.0352 -0.5548  0.7790
 7068SOL     OW32839   4.345   4.089   0.543  0.0077 -0.6612 -0.1114
 7068SOL    HW132840   4.359   4.150   0.616  0.9178  0.5341 -1.2732
 7068SOL    HW232841   4.431   4.072   0.505 -0.6061 -1.5467 -1.0888
 7069SOL     OW32842   0.708   4.268   6.310 -0.1319  0.4470 -0.4537
 7069SOL    HW132843   0.658   4.348   6.300 -1.3638 -0.1461  0.9157
 7069SOL    HW232844   0.653   4.201   6.350  1.6582 -0.4727  0.4829
 7070SOL     OW32845   2.411   0.583   8.239  0.5443 -0.1118 -0.5099
 7070SOL    HW132846   2.343   0.612   8.178 -0.5006 -1.6120 -0.0595
 7070SOL    HW232847   2.489   0.615   8.195 -0.0426  0.0399 -1.4472
 7071SOL     OW32848   1.944   1.472   2.689 -0.0989  0.1470  0.2270
 7071SOL    HW132849   1.956   1.405   2.622 -1.5939  0.6548 -0.5314
 7071SOL    HW232850   1.991   1.429   2.761  0.0163 -0.1136 -0.0058
 7072SOL     OW32851   4.644   2.967   2.932 -0.1681  0.1135 -0.1242
 7072SOL    HW132852   4.664   2.937   3.021 -0.4350  2.3707  0.7039
 7072SOL    HW232853   4.729   2.965   2.889  1.7972  0.2871  3.7509
 7073SOL     OW32854   0.524   2.738   1.088 -0.0315 -0.0137  0.3479
 7073SOL    HW132855   0.534   2.683   1.166  0.4030 -0.3817  0.0325
 7073SOL    HW232856   0.433   2.714   1.068  0.1401 -0.3664 -0.0048
 7074SOL     OW32857   1.690   1.969   2.097  0.2298  0.5806  0.2203
 7074SOL    HW132858   1.673   1.879   2.068 -2.7234  0.8790  1.0520
 7074SOL    HW232859   1.714   1.952   2.188 -1.2806  0.2962  0.5600
 7075SOL     OW32860   1.646   4.659   3.500  0.1439  0.1444  0.4325
 7075SOL    HW132861   1.710   4.591   3.478  1.8207  1.3616  1.4896
 7075SOL    HW232862   1.678   4.674   3.590  1.4075 -1.1212  0.1862
 7076SOL     OW32863   2.954   3.578   5.955 -0.7043  0.4171 -0.3307
 7076SOL    HW132864   3.023   3.631   5.915 -1.0346 -0.4730 -2.1028
 7076SOL    HW232865   2.898   3.646   5.992 -0.0691  0.4618  0.5456
 7077SOL     OW32866   3.449   1.515  14.145 -0.0692 -0.0282  0.6697
 7077SOL    HW132867   3.416   1.427  14.161 -2.8801  1.1011  1.1199
 7077SOL    HW232868   3.373   1.556  14.102 -1.7249 -2.4059  1.3138
 7078SOL     OW32869   1.174   1.733   5.621  0.3427  0.1686 -0.3695
 7078SOL    HW132870   1.236   1.763   5.687  1.2173  0.1621 -1.2027
 7078SOL    HW232871   1.126   1.813   5.601 -0.8716 -0.7233 -1.0254
 7079SOL     OW32872   2.528   3.387   7.377  0.3616  0.3113 -0.0603
 7079SOL    HW132873   2.516   3.482   7.386  0.2795  0.1147  1.9945
 7079SOL    HW232874   2.623   3.381   7.365  0.2053  1.0922 -1.6633
 7080SOL     OW32875   0.624   1.455   3.923  0.4131  0.6111  0.7457
 7080SOL    HW132876   0.709   1.495   3.904  1.1309  0.6662  4.1265
 7080SOL    HW232877   0.619   1.486   4.013  2.5935  0.7681  0.8217
 7081SOL     OW32878   3.358   3.127   2.030 -0.0388  0.4807  0.1217
 7081SOL    HW132879   3.399   3.065   1.971 -0.8055  0.0531  0.0315
 7081SOL    HW232880   3.280   3.137   1.975 -0.0081  1.6689  0.2925
 7082SOL     OW32881   0.825   1.036   3.758  0.0041 -0.0724 -0.0528
 7082SOL    HW132882   0.831   1.063   3.667  0.1877 -0.2412 -0.0906
 7082SOL    HW232883   0.785   1.112   3.801  1.4758 -0.1107  1.3981
 7083SOL     OW32884   2.763   4.002   9.338 -0.6746 -0.6240  0.4738
 7083SOL    HW132885   2.814   4.076   9.370 -2.1228  0.1999  0.8969
 7083SOL    HW232886   2.773   4.008   9.243 -1.5533 -1.4290  0.3352
 7084SOL     OW32887   2.127   3.491   2.695 -0.1208  0.5309  0.2308
 7084SOL    HW132888   2.035   3.486   2.671  0.1239 -1.0876 -0.3026
 7084SOL    HW232889   2.132   3.457   2.785  1.2792 -2.7450 -1.1152
 7085SOL     OW32890   0.180   2.138   5.766  0.1009  0.2293  0.5312
 7085SOL    HW132891   0.125   2.136   5.687  0.4813 -1.4443  0.3073
 7085SOL    HW232892   0.202   2.045   5.770  2.1589  0.7316  0.9624
 7086SOL     OW32893   0.097   3.670  12.599  0.5299 -0.4277 -0.3115
 7086SOL    HW132894   0.030   3.722  12.554  0.2373 -0.4741  0.0666
 7086SOL    HW232895   0.180   3.680  12.553 -0.0433 -0.3314 -1.3303
 7087SOL     OW32896   3.467   4.074   3.195  0.4189  0.5501  0.5056
 7087SOL    HW132897   3.461   4.158   3.241  0.1521  1.0878 -0.5064
 7087SOL    HW232898   3.399   4.022   3.238 -1.3864 -0.2760 -3.3674
 7088SOL     OW32899   0.755   0.704  13.235  0.1091 -0.2588 -0.6333
 7088SOL    HW132900   0.793   0.792  13.240  0.1392 -0.3362  0.4424
 7088SOL    HW232901   0.833   0.649  13.232  0.3845  0.2093 -2.6146
 7089SOL     OW32902   4.663   1.704   3.957  0.2021  0.2039  0.0342
 7089SOL    HW132903   4.696   1.783   4.001 -1.3576  1.7825 -1.6626
 7089SOL    HW232904   4.612   1.663   4.027 -0.7361  3.1255  1.0771
 7090SOL     OW32905   3.797   2.972   9.713  0.5917 -0.0837 -0.2798
 7090SOL    HW132906   3.811   2.921   9.792 -1.3129 -2.0758 -1.2411
 7090SOL    HW232907   3.714   2.937   9.682  0.6485 -1.8231  1.5763
 7091SOL     OW32908   4.408   2.981   8.662 -0.3756 -0.1068 -0.0023
 7091SOL    HW132909   4.409   2.995   8.757  1.5977 -2.3669  0.2953
 7091SOL    HW232910   4.498   2.953   8.645  0.5191  3.0607 -0.3478
 7092SOL     OW32911   3.255   3.124  10.550 -0.0734 -0.0260  0.8935
 7092SOL    HW132912   3.196   3.187  10.509 -2.7515 -1.8661  1.9637
 7092SOL    HW232913   3.243   3.049  10.492  1.3487 -1.1486  2.0515
 7093SOL     OW32914   0.206   0.296  16.617 -0.2258 -0.1051 -0.0010
 7093SOL    HW132915   0.128   0.247  16.639  0.2024 -0.9966 -0.4818
 7093SOL    HW232916   0.223   0.275  16.526  0.7238  1.0055 -0.0793
 7094SOL     OW32917   3.511   0.237   2.012  0.0186 -0.6454 -0.8034
 7094SOL    HW132918   3.579   0.177   1.980  0.8036 -0.5532  0.6385
 7094SOL    HW232919   3.459   0.247   1.933 -0.4606  1.3803 -0.2122
 7095SOL     OW32920   3.113   3.965  17.696 -0.3278  0.1209 -0.2182
 7095SOL    HW132921   3.113   3.991  17.604  0.1260  0.7427 -0.0427
 7095SOL    HW232922   3.156   3.881  17.680 -1.7177 -0.7509  0.6489
 7096SOL     OW32923   0.717   3.844  15.826  0.0359 -0.2794  0.5271
 7096SOL    HW132924   0.736   3.938  15.822  1.1308 -0.6322 -2.3899
 7096SOL    HW232925   0.702   3.838  15.920  0.8454  0.6977  0.7134
 7097SOL     OW32926   2.775   3.120   4.722  0.2778 -0.0938  0.0882
 7097SOL    HW132927   2.793   3.211   4.744  0.2466 -0.0146 -0.2199
 7097SOL    HW232928   2.700   3.130   4.664  0.2070  0.0399  0.2011
 7098SOL     OW32929   1.436   0.806   8.686 -0.3558  0.1985  0.0539
 7098SOL    HW132930   1.496   0.746   8.730 -2.0034 -0.9816  0.6812
 7098SOL    HW232931   1.480   0.800   8.601  0.1190 -1.2505  0.4018
 7099SOL     OW32932   1.522   2.924   8.012 -0.1922  0.2885 -0.4743
 7099SOL    HW132933   1.478   3.005   7.988  1.5215  1.2340 -0.3458
 7099SOL    HW232934   1.472   2.859   7.961  0.2194  0.0885 -0.6191
 7100SOL     OW32935   4.345   2.391  13.172  0.1343  0.2904 -0.2936
 7100SOL    HW132936   4.362   2.444  13.250  1.3811  0.4575 -0.6769
 7100SOL    HW232937   4.280   2.447  13.129 -0.0983 -1.1614 -1.8498
 7101SOL     OW32938   3.247   0.697   7.706 -0.2432  0.0539  0.4918
 7101SOL    HW132939   3.319   0.756   7.686 -1.6999  1.5521 -0.2986
 7101SOL    HW232940   3.226   0.654   7.623 -2.4617  1.0998  0.4969
 7102SOL     OW32941   0.230   3.124   9.100  0.5564 -0.0875 -0.5470
 7102SOL    HW132942   0.231   3.197   9.160  2.0811 -0.5857  0.0253
 7102SOL    HW232943   0.322   3.119   9.075  0.4174 -0.4397 -1.0015
 7103SOL     OW32944   4.013   0.840   5.890  0.1579  0.4316  0.2278
 7103SOL    HW132945   3.994   0.851   5.983  1.7333 -0.2815  0.6312
 7103SOL    HW232946   3.967   0.760   5.866  0.4723  0.9336 -2.0716
 7104SOL     OW32947   3.275   0.170  15.415  0.1129 -0.3756  1.0771
 7104SOL    HW132948   3.251   0.254  15.453  1.3263 -0.3185  1.6998
 7104SOL    HW232949   3.206   0.168  15.348  1.4470 -1.5485 -0.2625
 7105SOL     OW32950   0.861   3.676   7.299 -0.1898 -0.6269  0.2575
 7105SOL    HW132951   0.938   3.730   7.320 -0.0004 -0.9368  0.3542
 7105SOL    HW232952   0.836   3.642   7.385  0.6126 -1.6196  0.0951
 7106SOL     OW32953   0.583   1.054   5.319 -0.0037 -0.6816 -0.1368
 7106SOL    HW132954   0.566   1.093   5.404 -0.5484 -1.2001 -0.0022
 7106SOL    HW232955   0.653   0.996   5.350  0.2111 -0.2169  0.2277
 7107SOL     OW32956   3.777   1.659   3.482  0.9044 -0.3313 -0.0998
 7107SOL    HW132957   3.850   1.697   3.531 -0.2845  2.2330 -0.3203
 7107SOL    HW232958   3.748   1.582   3.530  2.7302 -0.1155  1.3654
 7108SOL     OW32959   1.102   3.187   6.436 -0.5922  0.2847  0.2643
 7108SOL    HW132960   1.194   3.166   6.422 -1.1461 -0.8602 -1.6873
 7108SOL    HW232961   1.102   3.258   6.500  0.2030  1.6971 -1.3215
 7109SOL     OW32962   0.482   3.251   3.948  0.1262  0.4078  0.3617
 7109SOL    HW132963   0.404   3.254   3.892  0.8147 -2.6122 -0.7649
 7109SOL    HW232964   0.500   3.158   3.943 -0.1654  0.4679 -1.7958
 7110SOL     OW32965   3.475   1.016   3.834 -0.0481  0.2916  0.0487
 7110SOL    HW132966   3.474   1.053   3.923 -1.9307  0.5545 -0.0839
 7110SOL    HW232967   3.380   1.001   3.830 -0.3659  2.2195  0.1819
 7111SOL     OW32968   4.039   4.565  13.998  0.1191  0.1309  0.4790
 7111SOL    HW132969   3.987   4.584  13.920  2.9596 -0.5763 -1.5760
 7111SOL    HW232970   4.002   4.640  14.044 -1.0498  0.2544 -0.6782
 7112SOL     OW32971   0.287   2.580   3.672  0.0842 -0.2717  0.5007
 7112SOL    HW132972   0.290   2.594   3.577  0.6534  1.2938  0.7428
 7112SOL    HW232973   0.380   2.568   3.693  0.1182 -2.1452 -0.7385
 7113SOL     OW32974   0.197   3.515   4.148 -0.0596  0.0728  0.0078
 7113SOL    HW132975   0.158   3.530   4.234 -0.2491 -1.4670  0.1790
 7113SOL    HW232976   0.283   3.481   4.175  0.4460  0.8775 -0.5588
 7114SOL     OW32977   4.013   3.569   5.407 -0.7865 -0.3594 -0.5801
 7114SOL    HW132978   3.994   3.486   5.450 -0.3979 -0.7638 -1.1942
 7114SOL    HW232979   4.098   3.590   5.446 -3.0959 -0.1919  4.3641
 7115SOL     OW32980   4.389   2.324   7.503 -0.5930 -0.3372 -0.3264
 7115SOL    HW132981   4.377   2.309   7.596 -0.3141  0.2715 -0.1986
 7115SOL    HW232982   4.458   2.260   7.483 -0.9646 -1.8250  3.2683
 7116SOL     OW32983   1.909   4.243   8.454 -0.5300  0.2796 -0.0934
 7116SOL    HW132984   1.898   4.244   8.359 -0.0583  0.6999 -0.1488
 7116SOL    HW232985   2.002   4.222   8.454 -0.3833  0.9106  0.5402
 7117SOL     OW32986   2.601   4.230   3.042  0.0954  0.1037 -0.5503
 7117SOL    HW132987   2.609   4.308   2.987  0.4812 -1.2547 -2.4314
 7117SOL    HW232988   2.626   4.263   3.128  0.6368 -0.2720 -0.5648
 7118SOL     OW32989   0.442   3.557   8.582  0.4932  0.3520  0.3631
 7118SOL    HW132990   0.452   3.588   8.492 -0.8084 -0.9933 -0.2518
 7118SOL    HW232991   0.386   3.480   8.571  1.1634  0.1105 -1.2989
 7119SOL     OW32992   4.709   1.093   4.665 -0.2182  0.2290  0.4961
 7119SOL    HW132993   4.705   0.999   4.683 -1.0078  0.0786 -0.4792
 7119SOL    HW232994   0.070   1.096   4.671 -0.3454  1.8626  2.0888
 7120SOL     OW32995   2.963   2.367  15.428  0.0786  0.4957 -0.2798
 7120SOL    HW132996   3.035   2.351  15.490 -0.6317 -2.1342 -0.1334
 7120SOL    HW232997   3.014   2.399  15.354  0.4481  0.5929  0.0148
 7121SOL     OW32998   2.727   1.270   3.138  0.2177 -0.7915  0.2571
 7121SOL    HW132999   2.682   1.269   3.053  1.5905 -0.8302 -0.4763
 7121SOL    HW233000   2.661   1.302   3.200 -1.6114 -0.1885 -1.9980
 7122SOL     OW33001   3.199   0.700   4.232 -0.4405 -0.1848  0.0234
 7122SOL    HW133002   3.241   0.687   4.147  2.0508 -1.4181  1.4651
 7122SOL    HW233003   3.121   0.648   4.210  0.0860  0.1399 -2.6916
 7123SOL     OW33004   0.923   3.542   9.267 -0.7682 -0.0947  0.2403
 7123SOL    HW133005   0.964   3.629   9.264  0.7132 -0.7946 -0.1731
 7123SOL    HW233006   0.841   3.563   9.224 -1.7912  0.1195  2.3323
 7124SOL     OW33007   0.943   1.206  10.945 -0.2154 -0.0092  0.3867
 7124SOL    HW133008   0.967   1.228  11.035 -1.0372 -0.7533  0.7923
 7124SOL    HW233009   0.882   1.133  10.957 -1.3978  0.9916  0.3747
 7125SOL     OW33010   0.176   0.755  12.743  0.2817  0.3255  0.0876
 7125SOL    HW133011   0.086   0.722  12.745  0.5191 -0.2685  1.0535
 7125SOL    HW233012   0.166   0.840  12.785 -2.0817  0.2098 -0.2450
 7126SOL     OW33013   3.659   2.759   5.866  0.2031  0.5472 -0.5207
 7126SOL    HW133014   3.694   2.671   5.877 -2.4120 -0.2788  1.1118
 7126SOL    HW233015   3.679   2.781   5.957  1.6386  2.0643 -1.1977
 7127SOL     OW33016   3.975   3.214  10.983 -0.3171 -0.5045  0.1011
 7127SOL    HW133017   3.950   3.130  10.944  1.1138 -0.4885 -0.8485
 7127SOL    HW233018   3.965   3.272  10.908  0.3058  0.8995  1.1022
 7128SOL     OW33019   3.918   2.373  10.778 -0.4373  0.6049  1.1512
 7128SOL    HW133020   3.914   2.313  10.853 -1.4463  0.3725  0.9016
 7128SOL    HW233021   3.935   2.457  10.822 -1.5728  0.2655  2.2271
 7129SOL     OW33022   2.623   3.709   8.384 -0.8695  0.0769 -0.0589
 7129SOL    HW133023   2.544   3.762   8.370 -1.7889 -1.2672 -0.0430
 7129SOL    HW233024   2.682   3.767   8.431 -1.4302 -0.0257  0.7743
 7130SOL     OW33025   0.196   4.152   4.659  0.5214  0.6607 -0.7090
 7130SOL    HW133026   0.215   4.220   4.595 -1.7930  2.3177  0.3678
 7130SOL    HW233027   0.101   4.143   4.651  0.4993 -1.4027  1.8682
 7131SOL     OW33028   4.277   4.650   3.039 -0.0758  0.3430 -0.0042
 7131SOL    HW133029   4.287   0.002   2.999 -1.0845  0.1452 -0.6831
 7131SOL    HW233030   4.358   4.609   3.011 -0.6556 -0.8430  0.0444
 7132SOL     OW33031   4.459   3.297   7.696  0.3156 -0.4157 -0.0654
 7132SOL    HW133032   4.538   3.253   7.664  1.9425  1.1927  1.7591
 7132SOL    HW233033   4.497   3.382   7.719 -0.2781 -0.3198  0.5598
 7133SOL     OW33034   3.301   4.706   6.406  0.2191  0.1724  0.0700
 7133SOL    HW133035   3.322   0.039   6.470 -0.4611 -0.3005  0.7909
 7133SOL    HW233036   3.219   4.681   6.448 -0.2052  0.0128 -0.8571
 7134SOL     OW33037   0.183   3.987   6.053 -0.0261 -0.3018  0.4495
 7134SOL    HW133038   0.241   3.958   5.983 -1.5903 -1.2536 -0.4497
 7134SOL    HW233039   0.219   4.074   6.073 -0.7761  0.2763 -0.7388
 7135SOL     OW33040   3.156   0.289  15.892 -0.5227  0.4001  0.7075
 7135SOL    HW133041   3.169   0.216  15.952  0.7995 -1.5092 -1.9254
 7135SOL    HW233042   3.226   0.345  15.925 -0.1643 -0.3844  1.2535
 7136SOL     OW33043   2.598   3.885  14.149 -0.2640  0.2857 -0.3798
 7136SOL    HW133044   2.678   3.935  14.130 -0.2467 -0.0647 -1.2041
 7136SOL    HW233045   2.618   3.807  14.098 -1.4469 -0.6078  0.5463
 7137SOL     OW33046   1.226   4.697   5.243  0.1584  0.1386  0.3298
 7137SOL    HW133047   1.319   4.721   5.236  0.3693 -0.3715  1.3962
 7137SOL    HW233048   1.214   4.619   5.188 -1.0766 -0.1539  1.0234
 7138SOL     OW33049   2.748   2.191   8.306  0.0462  0.3220 -0.1185
 7138SOL    HW133050   2.752   2.154   8.395  0.4799  0.3718 -0.1174
 7138SOL    HW233051   2.693   2.123   8.267 -1.8546  1.6731  0.2220
 7139SOL     OW33052   3.964   1.567   7.459  0.3885 -0.4138 -0.0383
 7139SOL    HW133053   3.962   1.494   7.521  0.5455 -1.8772 -1.7691
 7139SOL    HW233054   3.968   1.648   7.510 -0.0369 -0.3464 -0.1086
 7140SOL     OW33055   1.273   4.503   2.771 -0.0640 -0.6307 -0.1223
 7140SOL    HW133056   1.331   4.535   2.841  0.2957 -3.7895  1.0181
 7140SOL    HW233057   1.198   4.469   2.818 -0.2230  1.2374  0.9812
 7141SOL     OW33058   1.887   3.369   9.583  0.2015 -0.9741  0.4138
 7141SOL    HW133059   1.812   3.358   9.641 -1.7252 -0.1926 -1.9776
 7141SOL    HW233060   1.942   3.409   9.651 -0.0458 -1.9753  1.2014
 7142SOL     OW33061   3.815   1.150  13.568  0.3287 -0.0041 -0.1370
 7142SOL    HW133062   3.770   1.224  13.610  0.5414  0.3888 -0.6000
 7142SOL    HW233063   3.905   1.170  13.593 -0.3181 -1.1520  3.2093
 7143SOL     OW33064   4.717   1.882  13.118  0.3416 -0.0617 -0.2008
 7143SOL    HW133065   0.054   1.818  13.116  0.1800 -0.2217 -0.9952
 7143SOL    HW233066   4.722   1.929  13.034 -0.1533  1.4338  0.6121
 7144SOL     OW33067   0.340   2.067  16.369 -0.6309 -0.3548 -0.4590
 7144SOL    HW133068   0.293   2.150  16.371 -0.0916  0.0182 -3.0710
 7144SOL    HW233069   0.274   2.001  16.347 -0.7986 -0.7233  1.1899
 7145SOL     OW33070   1.924   4.714   7.192 -0.8580 -0.0591  0.2041
 7145SOL    HW133071   2.007   0.027   7.198 -0.1878 -1.3535  0.9845
 7145SOL    HW233072   1.872   0.052   7.156  0.0076  0.0682 -0.8039
 7146SOL     OW33073   3.440   2.468   7.558 -0.0334 -0.2293 -0.0390
 7146SOL    HW133074   3.509   2.524   7.522  0.6037 -0.5670  0.6464
 7146SOL    HW233075   3.485   2.386   7.574  1.1390  0.8248  2.1922
 7147SOL     OW33076   1.301   4.587   4.013 -0.1387  0.0508  0.0835
 7147SOL    HW133077   1.240   4.555   4.080 -0.6887  1.4156  0.2417
 7147SOL    HW233078   1.239   4.596   3.941 -1.7268 -0.9942  1.3096
 7148SOL     OW33079   1.708   3.295   3.080  0.5521 -0.5397 -0.2273
 7148SOL    HW133080   1.655   3.225   3.042 -0.5433  1.6259 -2.6905
 7148SOL    HW233081   1.722   3.351   3.004  3.7890 -2.5847 -1.1376
 7149SOL     OW33082   4.288   3.777  13.954 -0.9992  0.4025 -0.2571
 7149SOL    HW133083   4.275   3.860  14.000  0.3125 -0.1416  1.0973
 7149SOL    HW233084   4.371   3.779  13.907 -0.3696  0.7107  0.8792
 7150SOL     OW33085   2.157   2.421   5.035  0.2126  0.1163 -0.6043
 7150SOL    HW133086   2.138   2.432   4.942  0.1306  0.5280 -0.5421
 7150SOL    HW233087   2.154   2.326   5.043  1.3142 -0.0194 -1.8859
 7151SOL     OW33088   0.784   2.980   5.064 -0.4673 -0.8339 -0.2255
 7151SOL    HW133089   0.784   2.988   5.159  0.2370 -1.3401 -0.1820
 7151SOL    HW233090   0.801   2.885   5.063 -2.4783 -1.1977  0.9285
 7152SOL     OW33091   0.493   0.979  11.250 -0.0072  0.6815  0.1709
 7152SOL    HW133092   0.449   0.906  11.293  0.3251  0.3157 -0.1065
 7152SOL    HW233093   0.478   1.048  11.315 -1.5816 -0.9055  1.4766
 7153SOL     OW33094   0.738   3.062   5.949 -0.3540  0.1992 -0.4497
 7153SOL    HW133095   0.805   2.997   5.929  0.6326  0.1119  3.0801
 7153SOL    HW233096   0.739   3.114   5.869  0.0850 -0.7991 -1.0845
 7154SOL     OW33097   4.075   0.552  10.925  0.3288 -0.2238 -0.4725
 7154SOL    HW133098   4.027   0.609  10.984 -0.7800 -0.9529 -0.6819
 7154SOL    HW233099   4.023   0.570  10.847  2.4245  1.7737 -1.4171
 7155SOL     OW33100   4.514   1.031   9.281 -0.2063  0.1551 -0.3747
 7155SOL    HW133101   4.569   1.101   9.314  1.4144 -1.2885 -0.0083
 7155SOL    HW233102   4.556   1.011   9.198  1.0997 -1.5837  0.6952
 7156SOL     OW33103   2.147   3.794   6.540  0.2291 -0.3753  0.2055
 7156SOL    HW133104   2.110   3.877   6.571 -1.6768 -0.8999 -0.6224
 7156SOL    HW233105   2.062   3.752   6.524  0.5040 -0.8875  0.0883
 7157SOL     OW33106   0.957   4.184   8.943  0.0352 -0.3142 -0.1768
 7157SOL    HW133107   0.995   4.263   8.982  1.2994 -1.1451  0.2545
 7157SOL    HW233108   0.954   4.210   8.851 -0.0691  0.3629  0.0103
 7158SOL     OW33109   3.748   0.635  15.837 -0.1514  0.1596 -0.2477
 7158SOL    HW133110   3.667   0.609  15.794  0.8077 -3.3479  0.0391
 7158SOL    HW233111   3.789   0.689  15.770 -0.1666  0.0763 -0.3230
 7159SOL     OW33112   3.836   2.806   2.123 -0.2377  0.4535 -0.6190
 7159SOL    HW133113   3.838   2.891   2.079 -1.5998  0.0482 -1.4888
 7159SOL    HW233114   3.872   2.743   2.061 -2.0000 -2.6663  1.5377
 7160SOL     OW33115   1.772   0.600  17.317 -0.4804 -0.3488 -0.4042
 7160SOL    HW133116   1.717   0.598  17.396  0.6174 -1.9991  0.3102
 7160SOL    HW233117   1.711   0.581  17.247 -0.8730  0.9665 -0.4283
 7161SOL     OW33118   0.492   4.253   0.790 -0.0359  0.5423 -0.3586
 7161SOL    HW133119   0.504   4.317   0.719  0.1686  2.5422  1.4720
 7161SOL    HW233120   0.459   4.176   0.744 -0.4520 -0.9045  2.3921
 7162SOL     OW33121   2.106   1.582   7.113 -0.3334 -0.2337 -0.8077
 7162SOL    HW133122   2.150   1.498   7.127 -2.8898 -1.2211  1.2731
 7162SOL    HW233123   2.055   1.554   7.037 -2.3536  0.0216  0.4546
 7163SOL     OW33124   0.188   4.344   5.121 -0.2442 -0.1142 -0.1557
 7163SOL    HW133125   0.239   4.319   5.045  0.1275 -0.7494  0.2975
 7163SOL    HW233126   0.248   4.306   5.185 -0.1598  0.1938 -0.0518
 7164SOL     OW33127   2.421   4.711   2.483  0.1761  0.0401  0.3848
 7164SOL    HW133128   2.506   4.689   2.445 -0.7440 -1.2477 -0.9261
 7164SOL    HW233129   2.414   4.672   2.570 -0.7235 -0.6545  0.0080
 7165SOL     OW33130   0.761   0.115  11.395 -0.3695  0.3502  0.1173
 7165SOL    HW133131   0.764   0.127  11.300  2.0917 -0.8417  0.0426
 7165SOL    HW233132   0.699   0.185  11.413  0.1755  0.1476  2.7283
 7166SOL     OW33133   1.559   3.838   5.485 -0.0076  0.6417  0.1395
 7166SOL    HW133134   1.559   3.796   5.571  2.2972 -1.7274 -1.0072
 7166SOL    HW233135   1.565   3.925   5.523 -1.6028  0.8185 -0.0299
 7167SOL     OW33136   1.481   1.490  11.823  0.0745  1.1357  0.2298
 7167SOL    HW133137   1.467   1.468  11.914  2.8037 -0.0184  0.3809
 7167SOL    HW233138   1.576   1.481  11.822 -0.2302 -1.7461 -2.2746
 7168SOL     OW33139   3.306   2.896   8.601  0.2949 -1.1357  0.7641
 7168SOL    HW133140   3.215   2.917   8.577  1.0105  1.6037  0.4813
 7168SOL    HW233141   3.327   2.971   8.657 -0.7179  0.4653 -1.0040
 7169SOL     OW33142   3.114   3.611   2.501  0.3955 -0.7564  0.3605
 7169SOL    HW133143   3.171   3.646   2.432 -0.1828 -1.5923 -0.5420
 7169SOL    HW233144   3.036   3.605   2.446  0.6559 -1.3764  0.0486
 7170SOL     OW33145   0.011   4.540   5.023  0.8677  0.1928  0.3236
 7170SOL    HW133146   0.053   4.600   4.961  0.4192  0.1675 -0.0049
 7170SOL    HW233147   0.071   4.481   5.069  1.6533  2.2269  1.8628
 7171SOL     OW33148   2.335   2.409   2.388 -0.6937 -0.5652  0.1711
 7171SOL    HW133149   2.306   2.499   2.405  2.0179  0.4881 -0.7908
 7171SOL    HW233150   2.294   2.396   2.302 -1.2046  2.5216 -0.0521
 7172SOL     OW33151   0.274   0.879   1.994  0.2498 -0.4143  0.0370
 7172SOL    HW133152   0.252   0.971   1.983 -1.9003 -1.0360 -0.8180
 7172SOL    HW233153   0.217   0.823   1.941 -0.7870 -1.1898  1.9776
 7173SOL     OW33154   4.327   2.204   6.482 -0.2914 -0.4541 -0.4613
 7173SOL    HW133155   4.420   2.224   6.496 -0.5483  1.5947 -1.8017
 7173SOL    HW233156   4.330   2.234   6.391  1.1122 -1.2327 -0.6815
 7174SOL     OW33157   0.204   3.653   4.576  0.2209  0.4153 -0.7183
 7174SOL    HW133158   0.294   3.622   4.593 -0.0864 -0.4928 -0.7387
 7174SOL    HW233159   0.205   3.740   4.615  0.5164  0.8116 -1.6329
 7175SOL     OW33160   3.852   3.623   1.835  0.1022  0.2557  0.5377
 7175SOL    HW133161   3.819   3.554   1.777 -2.1666 -0.9631  3.2653
 7175SOL    HW233162   3.833   3.590   1.922  1.4300 -1.3141  0.2155
 7176SOL     OW33163   0.058   3.638   6.641 -0.2573 -0.1632 -0.5513
 7176SOL    HW133164   0.143   3.659   6.603 -1.0592  1.2771 -1.6048
 7176SOL    HW233165   0.060   3.545   6.619  0.8712 -0.5990  1.4258
 7177SOL     OW33166   2.445   4.225  11.487  0.1945  0.3257 -0.0325
 7177SOL    HW133167   2.426   4.134  11.511  1.1610  0.8726  2.8108
 7177SOL    HW233168   2.359   4.256  11.459  0.7882  1.7072 -0.3191
 7178SOL     OW33169   0.439   3.961   0.504 -0.0342  0.8374  0.1937
 7178SOL    HW133170   0.371   4.000   0.560 -1.2422  0.1493 -0.8075
 7178SOL    HW233171   0.440   4.021   0.430 -0.0537  2.1944  1.2813
 7179SOL     OW33172   3.760   1.853  16.811  0.0967 -0.4668  0.4394
 7179SOL    HW133173   3.746   1.799  16.889 -3.3312 -1.2643 -0.7639
 7179SOL    HW233174   3.671   1.878  16.788  0.2252  0.3703  0.8186
 7180SOL     OW33175   2.465   1.029   4.230  0.7576 -0.4439 -0.1418
 7180SOL    HW133176   2.536   1.008   4.170  1.3683  1.6729 -0.1632
 7180SOL    HW233177   2.394   0.968   4.211 -0.0983  0.7139 -0.6996
 7181SOL     OW33178   4.018   4.343   8.110  0.0327  0.3302  0.2628
 7181SOL    HW133179   4.059   4.364   8.194  1.8972 -3.1484  0.2239
 7181SOL    HW233180   4.100   4.332   8.062 -0.9955  1.5938 -1.7707
 7182SOL     OW33181   2.647   1.740   2.453 -0.2993 -0.0022  0.5923
 7182SOL    HW133182   2.658   1.760   2.546  1.1247  1.2862  0.1414
 7182SOL    HW233183   2.562   1.776   2.430 -0.0794 -1.2496 -2.1785
 7183SOL     OW33184   3.268   3.557   2.930  0.3874 -0.8934 -0.0697
 7183SOL    HW133185   3.213   3.482   2.955 -0.7664 -0.6176 -1.7989
 7183SOL    HW233186   3.359   3.541   2.955  0.5287 -1.5318 -0.9676
 7184SOL     OW33187   4.148   3.478   5.787 -0.5099  0.2050 -0.1053
 7184SOL    HW133188   4.149   3.564   5.828  2.9301  0.4091 -0.6662
 7184SOL    HW233189   4.238   3.480   5.755 -0.4354  0.7413  0.1471
 7185SOL     OW33190   0.892   1.201   3.470  0.0681  0.5018  0.4864
 7185SOL    HW133191   0.912   1.113   3.439 -0.2842  0.4179  0.4983
 7185SOL    HW233192   0.850   1.237   3.392 -0.9649 -0.7714  0.4704
 7186SOL     OW33193   4.240   2.082   3.641 -0.0801  0.3083  0.3494
 7186SOL    HW133194   4.317   2.028   3.659  0.3633  0.7632 -0.1647
 7186SOL    HW233195   4.238   2.133   3.722  1.2445 -0.3532  0.7893
 7187SOL     OW33196   0.400   3.035  15.631 -0.1998 -0.4102  0.1807
 7187SOL    HW133197   0.345   3.112  15.645  0.9522  0.5170 -0.3982
 7187SOL    HW233198   0.435   3.020  15.719 -1.6481 -0.7826  0.6973
 7188SOL     OW33199   2.939   3.250   6.733 -0.2201 -0.3356 -0.3553
 7188SOL    HW133200   2.862   3.250   6.791  0.7548 -1.1803  0.9355
 7188SOL    HW233201   2.971   3.340   6.735 -1.6308  0.1615  0.1688
 7189SOL     OW33202   2.957   3.025   2.132 -0.5175 -0.1574 -1.4944
 7189SOL    HW133203   2.995   3.099   2.083  0.5135  1.6248  2.0219
 7189SOL    HW233204   2.882   3.010   2.074 -2.3920  0.2765  0.8416
 7190SOL     OW33205   4.447   1.601   6.176  0.3384 -0.0253  0.6404
 7190SOL    HW133206   4.365   1.631   6.215  0.0193 -0.7648  0.5411
 7190SOL    HW233207   4.507   1.606   6.250  0.8572 -0.1963  0.2322
 7191SOL     OW33208   4.487   2.421   3.704 -0.3357 -0.7327  0.7639
 7191SOL    HW133209   4.573   2.401   3.743  1.2571  1.1157 -1.7869
 7191SOL    HW233210   4.452   2.482   3.770  0.3266 -1.3309  1.6744
 7192SOL     OW33211   4.068   0.581   3.127  0.4640  0.4899  0.4062
 7192SOL    HW133212   4.066   0.521   3.053 -1.1330 -0.3690  1.1466
 7192SOL    HW233213   4.106   0.663   3.096 -0.8968 -0.0701 -2.7636
 7193SOL     OW33214   3.786   4.353   2.969  0.2276 -0.0339  0.0306
 7193SOL    HW133215   3.716   4.311   2.919  1.6988 -0.1841 -1.9241
 7193SOL    HW233216   3.809   4.424   2.910 -1.7631  0.4951 -0.1199
 7194SOL     OW33217   4.573   1.547   3.534  0.1650  0.2187  0.1162
 7194SOL    HW133218   4.574   1.621   3.595 -2.0698  1.7735 -1.7283
 7194SOL    HW233219   4.506   1.561   3.467 -1.0231 -1.3331  0.9603
 7195SOL     OW33220   0.277   4.547   7.861 -0.2903 -0.0152  0.2154
 7195SOL    HW133221   0.199   4.597   7.841 -0.1675  0.4860  0.9825
 7195SOL    HW233222   0.270   4.532   7.956 -0.0468  1.2733  0.4372
 7196SOL     OW33223   1.253   0.259   5.367 -0.6744 -0.7156  0.2067
 7196SOL    HW133224   1.339   0.270   5.327 -0.6016  0.6694  0.7565
 7196SOL    HW233225   1.255   0.336   5.424  1.8975 -0.6502  0.0228
 7197SOL     OW33226   4.346   3.507   4.476 -0.3186 -0.3970 -0.3676
 7197SOL    HW133227   4.378   3.437   4.533 -0.1740  0.0986  0.1610
 7197SOL    HW233228   4.363   3.581   4.535 -2.9906  0.9744 -1.3176
 7198SOL     OW33229   2.417   2.818   1.143 -0.0723 -0.0553  0.0132
 7198SOL    HW133230   2.434   2.848   1.053 -0.9966 -2.0848 -0.8278
 7198SOL    HW233231   2.354   2.885   1.168  0.7788  1.2599 -1.2898
 7199SOL     OW33232   1.469   2.260   2.291 -0.2683  0.1860 -0.1062
 7199SOL    HW133233   1.411   2.184   2.281 -0.7409  0.6472 -0.8095
 7199SOL    HW233234   1.515   2.242   2.209 -0.3472 -2.0531  0.3185
 7200SOL     OW33235   1.630   3.694  10.740 -0.1172 -0.2242  0.3154
 7200SOL    HW133236   1.554   3.737  10.779 -0.2566 -0.0779 -0.1223
 7200SOL    HW233237   1.609   3.602  10.753  0.7260 -0.3687  0.6755
 7201SOL     OW33238   4.254   0.019   6.134 -0.2693 -0.0317  0.3478
 7201SOL    HW133239   4.299   0.096   6.101  0.1674 -1.1054 -1.5414
 7201SOL    HW233240   4.312   4.688   6.096 -3.4553 -3.1560  0.8587
 7202SOL     OW33241   2.503   0.481   0.714  0.2557 -0.2144  0.0703
 7202SOL    HW133242   2.573   0.452   0.772  0.7316  2.1401  0.6586
 7202SOL    HW233243   2.508   0.411   0.649  0.6878 -0.3023  0.1995
 7203SOL     OW33244   0.033   1.825   0.110 -0.5370 -0.1099 -0.3411
 7203SOL    HW133245   4.706   1.753   0.118  1.6449 -1.7724  1.5676
 7203SOL    HW233246   0.063   1.806   0.021 -0.1384 -0.3051 -0.1660
 7204SOL     OW33247   3.052   3.936   0.815  0.4122 -0.4417 -0.1002
 7204SOL    HW133248   2.982   4.000   0.805  1.0768  0.3165  0.1034
 7204SOL    HW233249   3.040   3.887   0.734 -1.9628  0.0713 -0.0611
 7205SOL     OW33250   0.225   3.798   2.319  0.3528 -0.5831  0.4993
 7205SOL    HW133251   0.310   3.813   2.278 -0.1984 -0.3448 -0.5486
 7205SOL    HW233252   0.236   3.850   2.398  2.3874 -1.1487  0.6006
 7206SOL     OW33253   0.280   1.343   4.709 -0.2746  0.5627 -0.1954
 7206SOL    HW133254   0.301   1.405   4.640 -1.2658 -1.0351 -1.9302
 7206SOL    HW233255   0.319   1.259   4.686 -1.1964 -0.2507  1.1802
 7207SOL     OW33256   2.498   2.021  12.239 -0.4770 -0.3447 -0.6093
 7207SOL    HW133257   2.561   1.954  12.212  0.1983  1.0912 -2.6048
 7207SOL    HW233258   2.508   2.090  12.173 -0.9639 -1.0054 -1.3579
 7208SOL     OW33259   0.708   1.937   3.960  0.3715  0.2167  0.4935
 7208SOL    HW133260   0.675   1.966   3.874  2.6872 -0.9909 -0.7750
 7208SOL    HW233261   0.767   1.869   3.929 -0.2931 -0.7007  1.2546
 7209SOL     OW33262   4.630   4.554   3.181  0.0861  0.2339  0.1543
 7209SOL    HW133263   4.612   4.559   3.087 -2.0126 -2.8172  0.4004
 7209SOL    HW233264   4.593   4.637   3.211  1.0890  0.8197 -0.2490
 7210SOL     OW33265   3.679   4.038   8.638  0.0550  0.6475 -0.3255
 7210SOL    HW133266   3.727   4.121   8.628 -0.2022  0.8610  0.2241
 7210SOL    HW233267   3.602   4.066   8.688 -0.8984 -0.5097 -1.1306
 7211SOL     OW33268   3.209   3.124  15.887  0.1627  0.1827  0.3210
 7211SOL    HW133269   3.296   3.100  15.921 -0.3802 -0.4312  1.2582
 7211SOL    HW233270   3.157   3.102  15.964  0.6883  1.8280  1.1452
 7212SOL     OW33271   0.392   4.421   6.218 -0.0303  0.2826  0.9273
 7212SOL    HW133272   0.465   4.470   6.182 -1.0208 -0.2130 -1.7169
 7212SOL    HW233273   0.344   4.415   6.136  1.8682  1.2783 -0.2347
 7213SOL     OW33274   4.642   2.287  17.086 -0.3003 -0.4760 -0.4577
 7213SOL    HW133275   4.664   2.363  17.140 -0.8782 -1.4919  1.2355
 7213SOL    HW233276   4.624   2.322  16.999  1.1658 -1.0744 -0.9927
 7214SOL     OW33277   0.527   4.160   2.201  0.1850 -0.2648  0.1609
 7214SOL    HW133278   0.608   4.205   2.175 -0.7704  2.8023  2.4929
 7214SOL    HW233279   0.471   4.170   2.124  0.5085  0.8072  0.0590
 7215SOL     OW33280   3.111   2.716  11.947  0.0792  0.7602 -0.3720
 7215SOL    HW133281   3.192   2.743  11.991 -0.4073 -1.7080  2.0861
 7215SOL    HW233282   3.119   2.740  11.855  1.1595  1.6098 -0.0601
 7216SOL     OW33283   0.505   1.114   4.416  0.0538 -0.3619  0.3429
 7216SOL    HW133284   0.410   1.103   4.407  0.1662 -1.5604  0.6469
 7216SOL    HW233285   0.513   1.156   4.330  3.2549 -1.3850  0.1663
 7217SOL     OW33286   2.272   1.231   7.818  0.9315 -0.0036 -0.1828
 7217SOL    HW133287   2.357   1.191   7.800  2.2860  2.1286  1.5145
 7217SOL    HW233288   2.269   1.292   7.744 -1.1838  1.9384  1.5462
 7218SOL     OW33289   4.237   2.907   8.082  0.1078  0.1842 -0.0125
 7218SOL    HW133290   4.265   2.990   8.043  0.5166  0.0393 -0.0239
 7218SOL    HW233291   4.270   2.909   8.172  3.2478  1.6712 -1.2184
 7219SOL     OW33292   0.646   0.148   4.446  0.5895  0.8708 -0.6259
 7219SOL    HW133293   0.604   0.095   4.378 -1.5181  0.6796  0.8101
 7219SOL    HW233294   0.589   0.128   4.521  2.4675  0.9767  0.8194
 7220SOL     OW33295   3.088   2.391  11.933  0.4620 -0.2199 -0.4000
 7220SOL    HW133296   3.012   2.416  11.985  2.3198  2.1795  1.1499
 7220SOL    HW233297   3.159   2.446  11.965 -1.0413  1.2450  0.4067
 7221SOL     OW33298   0.948   4.523   0.774  0.4120  0.6781  0.0020
 7221SOL    HW133299   0.918   4.613   0.780  0.8210  0.6598  2.1064
 7221SOL    HW233300   0.907   4.493   0.854 -1.8060 -1.6471 -2.0026
 7222SOL     OW33301   0.319   2.195  17.546 -0.2419 -0.6462  0.3572
 7222SOL    HW133302   0.306   2.228  17.635 -2.5033 -1.5492  0.3675
 7222SOL    HW233303   0.237   2.153  17.519 -0.0035 -1.3810  0.7895
 7223SOL     OW33304   3.671   1.756   6.506  0.1424 -0.0312  0.5620
 7223SOL    HW133305   3.752   1.740   6.553  0.2224  1.7931  1.0427
 7223SOL    HW233306   3.639   1.838   6.543 -3.0601 -0.7271 -0.6851
 7224SOL     OW33307   2.802   4.584   1.600  0.8204  0.3339 -0.1077
 7224SOL    HW133308   2.714   4.600   1.636  1.3762  1.0748  0.9100
 7224SOL    HW233309   2.842   4.659   1.643  0.1649 -0.3909  1.7561
 7225SOL     OW33310   0.368   2.168   4.817 -0.1176 -0.3767 -0.6161
 7225SOL    HW133311   0.382   2.239   4.879 -1.4619 -2.2158  1.7763
 7225SOL    HW233312   0.323   2.100   4.868  2.2811  0.4494  2.5871
 7226SOL     OW33313   0.020   2.295  15.136 -0.7447  0.5767 -0.0057
 7226SOL    HW133314   4.699   2.287  15.058 -1.5059 -0.9827  0.6898
 7226SOL    HW233315   0.042   2.204  15.155 -1.7921  0.4016  0.3872
 7227SOL     OW33316   3.669   0.406   3.984 -0.3565 -0.0369  0.0690
 7227SOL    HW133317   3.596   0.353   4.017 -0.4868  0.7014  0.9976
 7227SOL    HW233318   3.688   0.444   4.070  0.1857 -1.8482  0.7482
 7228SOL     OW33319   1.923   3.935   0.602  0.4505  0.3437 -0.7483
 7228SOL    HW133320   1.946   3.995   0.672 -0.2886 -0.3122  0.0602
 7228SOL    HW233321   1.898   4.004   0.540 -1.2591 -0.5846 -1.1223
 7229SOL     OW33322   4.556   1.467  15.140  0.0190 -0.4297  0.0401
 7229SOL    HW133323   4.487   1.500  15.083  0.5844 -0.9396 -0.9344
 7229SOL    HW233324   4.611   1.545  15.148 -0.3725  0.0501 -1.9029
 7230SOL     OW33325   1.380   2.917  11.247 -0.5937  0.4754 -0.2214
 7230SOL    HW133326   1.406   3.008  11.261 -0.6143  0.3609  0.5793
 7230SOL    HW233327   1.373   2.918  11.152  0.0401  0.7205 -0.2670
 7231SOL     OW33328   1.632   0.471  11.022  0.0417 -0.7199  0.1981
 7231SOL    HW133329   1.624   0.486  11.116 -1.2020  0.2108 -0.0473
 7231SOL    HW233330   1.565   0.532  10.989 -1.1906 -1.0279  2.1222
 7232SOL     OW33331   0.473   3.658   4.734  0.3511  0.1545 -0.1106
 7232SOL    HW133332   0.469   3.728   4.668 -0.3374 -0.1108 -0.3620
 7232SOL    HW233333   0.498   3.714   4.807 -0.5544 -1.8297  1.7004
 7233SOL     OW33334   4.677   0.699   6.879  0.6053 -0.0959  0.3314
 7233SOL    HW133335   4.719   0.714   6.963 -1.8363 -0.1604  1.5793
 7233SOL    HW233336   0.017   0.658   6.837 -1.0031  0.1189 -2.7372
 7234SOL     OW33337   0.937   0.909   4.447 -0.3647  0.0349 -0.1697
 7234SOL    HW133338   0.880   0.984   4.462 -0.5155 -0.4373  1.6097
 7234SOL    HW233339   0.935   0.903   4.351  1.1269  0.8653 -0.2612
 7235SOL     OW33340   2.924   0.288  17.662 -0.4434 -0.2252 -0.0033
 7235SOL    HW133341   2.950   0.355  17.725 -0.4206 -1.8386  1.6955
 7235SOL    HW233342   2.829   0.295  17.662 -0.2739  1.8404  1.9669
 7236SOL     OW33343   2.340   0.126   6.227 -0.7157 -0.3004 -0.1565
 7236SOL    HW133344   2.387   0.207   6.207 -0.0961 -0.3353  1.1401
 7236SOL    HW233345   2.396   0.061   6.186 -1.1438 -0.6101 -0.2536
 7237SOL     OW33346   3.054   3.659   1.830  0.0685  0.6827 -0.4776
 7237SOL    HW133347   3.129   3.610   1.795  0.3757  0.2717  0.7464
 7237SOL    HW233348   2.985   3.593   1.822  0.5829  0.2803 -1.5584
 7238SOL     OW33349   3.057   1.875   3.360 -0.6210  0.9272 -0.6543
 7238SOL    HW133350   3.115   1.871   3.283  0.4782 -1.1492  0.2764
 7238SOL    HW233351   3.019   1.959   3.334 -2.1505  1.2545  2.7229
 7239SOL     OW33352   3.994   4.084  16.240  0.3376  0.5086 -0.3831
 7239SOL    HW133353   4.035   4.118  16.320 -1.0884  2.4073 -0.4551
 7239SOL    HW233354   3.899   4.080  16.255  0.3385  0.3794 -0.4129
 7240SOL     OW33355   4.044   2.246   4.253  1.1808 -0.4588 -0.0984
 7240SOL    HW133356   4.014   2.197   4.331  0.2220 -2.5954 -1.7907
 7240SOL    HW233357   4.071   2.171   4.200 -1.1114  0.8891 -3.1738
 7241SOL     OW33358   0.777   4.024   2.126  0.6005  0.3269 -0.5058
 7241SOL    HW133359   0.801   3.944   2.079 -0.5502 -0.7106  0.6931
 7241SOL    HW233360   0.812   4.010   2.213  0.2332 -2.0647 -0.7527
 7242SOL     OW33361   4.694   0.458  14.710  0.0829  0.2441 -0.2642
 7242SOL    HW133362   4.714   0.487  14.799 -0.1114 -0.3743 -0.0187
 7242SOL    HW233363   4.621   0.398  14.726 -0.4691  0.7367 -0.9190
 7243SOL     OW33364   0.003   0.997  12.657  0.3317  0.6226 -0.2378
 7243SOL    HW133365   4.698   0.986  12.743 -2.2484  1.3453 -1.3246
 7243SOL    HW233366   4.692   1.077  12.629  0.4629 -0.2315 -2.8909
 7244SOL     OW33367   4.109   4.731   6.432  0.3075 -0.7912  0.0404
 7244SOL    HW133368   4.049   4.721   6.358  0.3451 -0.9564  0.0322
 7244SOL    HW233369   4.187   4.686   6.401  1.1634 -0.5214  1.8366
 7245SOL     OW33370   3.325   4.492   2.479 -0.0664  0.3294 -0.1533
 7245SOL    HW133371   3.407   4.483   2.431 -0.3401 -0.9750 -0.3906
 7245SOL    HW233372   3.262   4.506   2.409 -0.9635  0.6870  0.7327
 7246SOL     OW33373   3.999   3.859  14.130  0.1239  0.3501  0.5035
 7246SOL    HW133374   3.909   3.868  14.160 -0.9661 -3.5796 -1.5894
 7246SOL    HW233375   4.055   3.903  14.195  1.8579  1.7519 -1.9489
 7247SOL     OW33376   1.073   1.844   2.398 -0.7639 -0.0415  0.4906
 7247SOL    HW133377   1.009   1.906   2.362  0.7109  1.6091  0.6877
 7247SOL    HW233378   1.054   1.764   2.349 -0.8746 -1.1010  2.2721
 7248SOL     OW33379   0.615   2.832   2.071 -0.1653 -0.0818 -0.2632
 7248SOL    HW133380   0.701   2.860   2.039 -0.8839  0.1008 -2.0362
 7248SOL    HW233381   0.633   2.748   2.114  0.6440  0.9564  1.4360
 7249SOL     OW33382   3.825   2.007   4.968 -0.0382 -0.3324  0.0432
 7249SOL    HW133383   3.905   1.963   4.997 -0.8705 -2.4010 -0.7609
 7249SOL    HW233384   3.763   1.976   5.034  0.9860  0.5441  1.3854
 7250SOL     OW33385   3.224   1.364   5.167  0.4245  0.4987 -0.5378
 7250SOL    HW133386   3.184   1.438   5.213  0.9964 -0.0895  0.8940
 7250SOL    HW233387   3.194   1.294   5.225 -0.7101  1.4750  0.0613
 7251SOL     OW33388   1.178   0.054   5.505  0.5350  0.2338  0.2049
 7251SOL    HW133389   1.203   0.135   5.461 -1.6982  0.0766 -1.3567
 7251SOL    HW233390   1.186   4.721   5.437  1.8427  0.5960 -0.0002
 7252SOL     OW33391   3.386   2.639   5.639  0.1022 -0.7059  0.0971
 7252SOL    HW133392   3.334   2.650   5.559 -1.0001 -0.8862  0.8012
 7252SOL    HW233393   3.419   2.727   5.655  1.7957 -1.0925 -1.1742
 7253SOL     OW33394   2.103   0.807   1.869 -0.2838  0.3260  0.5786
 7253SOL    HW133395   2.156   0.887   1.870 -0.4299  0.4315 -0.4617
 7253SOL    HW233396   2.027   0.827   1.923 -0.7079  2.5641 -0.8726
 7254SOL     OW33397   1.129   1.047   0.668  0.2780  0.2218  0.0418
 7254SOL    HW133398   1.095   1.003   0.590  2.3362  2.5998 -2.2317
 7254SOL    HW233399   1.220   1.017   0.658  1.2138  3.8882 -2.6095
 7255SOL     OW33400   2.633   3.702  13.940 -0.2718 -0.3460 -0.3169
 7255SOL    HW133401   2.634   3.710  13.845 -1.2894 -1.3032 -0.4101
 7255SOL    HW233402   2.681   3.621  13.954 -1.0987 -0.8293 -0.2907
 7256SOL     OW33403   0.715   3.649   0.289 -0.3419 -0.2238  0.1496
 7256SOL    HW133404   0.667   3.624   0.209 -3.4830  0.4656  1.8390
 7256SOL    HW233405   0.789   3.589   0.278  0.0140  0.0342  1.2230
 7257SOL     OW33406   3.645   1.775   7.512  0.1965 -0.7893 -0.0741
 7257SOL    HW133407   3.692   1.705   7.467 -0.3812 -0.5733 -1.0187
 7257SOL    HW233408   3.623   1.727   7.591  0.7940 -1.4513 -0.3077
 7258SOL     OW33409   0.861   0.467   6.369  0.4905 -0.0477 -0.1414
 7258SOL    HW133410   0.832   0.544   6.319 -0.8724  0.3780  1.2971
 7258SOL    HW233411   0.776   0.426   6.382 -0.6919  2.3583 -0.1797
 7259SOL     OW33412   1.211   3.069  14.985  0.2529  0.0557 -0.2956
 7259SOL    HW133413   1.294   3.022  14.993  1.2411  1.7444 -0.5636
 7259SOL    HW233414   1.160   3.013  15.043  0.3422 -0.4730 -0.7346
 7260SOL     OW33415   2.907   4.730  17.699 -0.5601 -0.0076 -0.2793
 7260SOL    HW133416   2.816   4.710  17.678 -0.8137 -0.0162  0.8097
 7260SOL    HW233417   2.917   0.084  17.665 -1.8504  0.4605  0.5431
 7261SOL     OW33418   1.394   1.518   1.278 -0.1578 -0.1862  0.3465
 7261SOL    HW133419   1.353   1.439   1.313 -1.1723 -0.3802 -1.2804
 7261SOL    HW233420   1.331   1.552   1.214 -1.9499  1.0110  2.7197
 7262SOL     OW33421   1.073   0.833   9.007  0.2896 -0.4122  0.1135
 7262SOL    HW133422   1.043   0.862   8.921 -2.9044 -1.8295  0.7759
 7262SOL    HW233423   0.991   0.841   9.055  0.1000 -0.2306 -0.2432
 7263SOL     OW33424   0.834   3.511   5.061  0.4507  0.2305  0.1141
 7263SOL    HW133425   0.782   3.455   5.119 -1.1105  0.9540 -0.6101
 7263SOL    HW233426   0.911   3.524   5.118  0.6149  0.0375 -0.0628
 7264SOL     OW33427   1.523   0.524   1.178 -0.2575 -0.8173 -0.5557
 7264SOL    HW133428   1.480   0.457   1.230  0.7241 -1.0828 -0.0982
 7264SOL    HW233429   1.608   0.519   1.221  0.2064  1.6792 -1.1639
 7265SOL     OW33430   2.220   1.842  12.911  0.3106 -0.5936 -0.2971
 7265SOL    HW133431   2.245   1.778  12.978  3.8065 -0.8623 -1.8790
 7265SOL    HW233432   2.309   1.871  12.890 -1.0980  1.0636 -4.0797
 7266SOL     OW33433   0.426   1.920   6.860  0.3715  0.3565  0.6876
 7266SOL    HW133434   0.497   1.882   6.807 -0.9694  2.2059 -2.3972
 7266SOL    HW233435   0.388   1.847   6.908  1.3329 -1.0996 -0.7522
 7267SOL     OW33436   1.571   0.758  12.442  0.4727 -0.3164 -0.2183
 7267SOL    HW133437   1.503   0.709  12.487  0.7030 -0.5528 -0.1269
 7267SOL    HW233438   1.528   0.783  12.360  2.4651  3.5119 -0.1020
 7268SOL     OW33439   1.093   2.938  10.814  0.0231 -0.0297 -0.7614
 7268SOL    HW133440   1.169   2.890  10.784  0.2979 -0.2378  0.2786
 7268SOL    HW233441   1.114   2.932  10.907 -0.5908  0.8921 -0.5577
 7269SOL     OW33442   1.547   1.989   3.129  0.0780  0.1813  0.7088
 7269SOL    HW133443   1.461   2.019   3.158 -0.0987 -0.1933  0.5787
 7269SOL    HW233444   1.533   1.897   3.152  0.5036  0.1853  0.9811
 7270SOL     OW33445   3.919   3.669   2.322  0.8061  0.3921 -0.1795
 7270SOL    HW133446   3.891   3.664   2.414 -0.3053  0.7789 -0.4948
 7270SOL    HW233447   3.988   3.735   2.328  2.6109 -1.6581  1.3327
 7271SOL     OW33448   4.401   4.112   9.442  0.5946  0.2771  0.5728
 7271SOL    HW133449   4.327   4.170   9.459 -1.7839 -1.7128 -3.0291
 7271SOL    HW233450   4.464   4.157   9.499  1.8572  0.9343 -1.3494
 7272SOL     OW33451   0.228   2.193  13.670  0.4259  0.1398 -0.2270
 7272SOL    HW133452   0.153   2.144  13.637  1.2804 -1.5494  0.3339
 7272SOL    HW233453   0.194   2.282  13.661  1.6516  0.2557 -3.7079
 7273SOL     OW33454   3.059   3.624   5.593  0.1674  1.0267 -0.5604
 7273SOL    HW133455   3.084   3.541   5.633 -0.3501  1.3514  0.4555
 7273SOL    HW233456   3.064   3.690   5.663  1.5099 -2.4471  2.6485
 7274SOL     OW33457   1.285   4.252   4.202  0.3022 -0.2443 -0.2633
 7274SOL    HW133458   1.341   4.201   4.143  0.3276 -1.0625  0.4681
 7274SOL    HW233459   1.221   4.184   4.223  1.1132 -0.5198  1.3199
 7275SOL     OW33460   1.874   0.257   5.085 -0.3073 -0.3742  0.4731
 7275SOL    HW133461   1.834   0.257   4.998  0.6428  0.2666  0.0431
 7275SOL    HW233462   1.914   0.171   5.077  0.2740 -0.0713  0.1523
 7276SOL     OW33463   0.920   0.671  11.768  0.4434 -0.1071  0.4700
 7276SOL    HW133464   0.964   0.709  11.843  1.5881  1.9869 -1.2921
 7276SOL    HW233465   0.928   0.738  11.700 -0.2154 -0.1349  0.3634
 7277SOL     OW33466   2.910   2.135   7.210  0.4201 -0.2416  0.3162
 7277SOL    HW133467   2.925   2.229   7.214 -1.4718 -0.0188  2.1858
 7277SOL    HW233468   2.816   2.127   7.194  0.2864 -0.1141  1.0572
 7278SOL     OW33469   0.127   1.508  16.014 -0.0741 -0.6027 -0.3632
 7278SOL    HW133470   0.203   1.518  15.957 -1.7285  3.8614 -1.7795
 7278SOL    HW233471   0.074   1.449  15.961  1.4493 -1.9142 -0.4165
 7279SOL     OW33472   0.106   0.348   5.869  0.5624  0.0031 -0.0294
 7279SOL    HW133473   0.012   0.331   5.868  0.7425 -0.9747 -0.3161
 7279SOL    HW233474   0.147   0.264   5.892  0.1345 -0.0782  0.4372
 7280SOL     OW33475   3.901   3.973   2.351  0.2252  0.0072 -0.1592
 7280SOL    HW133476   3.843   3.955   2.425  3.1062 -1.2079  1.8383
 7280SOL    HW233477   3.849   3.948   2.275  0.3304 -0.6979 -0.0046
 7281SOL     OW33478   2.622   2.154  10.159  0.3326  0.2393  0.0017
 7281SOL    HW133479   2.684   2.081  10.160 -2.5530 -2.1964 -0.0394
 7281SOL    HW233480   2.658   2.205  10.087  1.2769 -0.8113 -0.2796
 7282SOL     OW33481   0.568   2.029  17.486  0.3968 -0.3189  0.0676
 7282SOL    HW133482   0.491   2.079  17.512  1.1094  1.7431 -1.7085
 7282SOL    HW233483   0.536   1.945  17.454  0.1515  0.2288 -1.1364
 7283SOL     OW33484   3.468   3.418   6.820  0.2565  0.1743 -0.6425
 7283SOL    HW133485   3.516   3.422   6.903  0.4980 -0.3709 -0.7561
 7283SOL    HW233486   3.386   3.454   6.854  0.3767  0.7263 -0.9283
 7284SOL     OW33487   0.178   2.115   7.756  0.2322 -0.0128  0.1074
 7284SOL    HW133488   0.143   2.133   7.668  1.3261  1.3802 -0.0601
 7284SOL    HW233489   0.271   2.094   7.742  0.0930  0.9914 -2.3988
 7285SOL     OW33490   0.212   2.359   0.062  0.0422 -0.0742  0.4790
 7285SOL    HW133491   0.300   2.381   0.091 -0.8613  3.0433  0.8836
 7285SOL    HW233492   0.170   2.404   0.135  0.3940  2.2070 -0.7157
 7286SOL     OW33493   1.561   2.096   8.367  0.2853 -0.2268  0.4454
 7286SOL    HW133494   1.472   2.123   8.344  1.0490  0.6434 -1.4833
 7286SOL    HW233495   1.607   2.102   8.283 -2.6902  1.0913 -1.0926
 7287SOL     OW33496   4.136   1.991   7.502 -0.2039  0.1217 -0.1541
 7287SOL    HW133497   4.231   1.984   7.499 -0.3687 -2.4155  0.5634
 7287SOL    HW233498   4.131   2.085   7.523 -1.2697 -0.0467  0.3502
 7288SOL     OW33499   4.199   1.235   2.603  0.5146 -0.7738  0.3545
 7288SOL    HW133500   4.224   1.157   2.653  1.2581  1.3048  3.2248
 7288SOL    HW233501   4.128   1.198   2.552  1.1807 -1.1267 -0.3151
 7289SOL     OW33502   0.478   3.723   8.050  0.0908 -0.1623  0.3201
 7289SOL    HW133503   0.495   3.686   7.963 -0.0592 -0.3616  0.3755
 7289SOL    HW233504   0.393   3.686   8.072 -1.0310  1.0027 -1.9727
 7290SOL     OW33505   0.076   1.532   4.694 -0.3659 -0.3146  0.1835
 7290SOL    HW133506   0.141   1.465   4.711 -0.1819 -0.0195  0.6422
 7290SOL    HW233507   0.006   1.467   4.687 -0.0706 -0.4614 -1.3512
 7291SOL     OW33508   3.260   0.683   2.633  0.3539  0.8716 -0.6937
 7291SOL    HW133509   3.300   0.596   2.635  1.3419  1.3265 -0.9203
 7291SOL    HW233510   3.171   0.664   2.662  0.3871 -0.1255 -1.2444
 7292SOL     OW33511   3.965   4.733  11.037  0.1256  0.8885  0.1268
 7292SOL    HW133512   4.014   4.732  10.955  1.1712 -1.1674  0.7673
 7292SOL    HW233513   3.897   0.065  11.026  0.9925  2.0754  1.7661
 7293SOL     OW33514   3.572   2.113   8.187 -0.5166  0.3588 -0.3885
 7293SOL    HW133515   3.518   2.065   8.124 -1.0771 -0.4563  0.7037
 7293SOL    HW233516   3.661   2.087   8.163 -0.0036  2.0295 -0.3359
 7294SOL     OW33517   2.900   2.363   4.703 -0.2353 -1.0105 -0.4096
 7294SOL    HW133518   2.908   2.452   4.739  0.4762 -0.8940 -0.8672
 7294SOL    HW233519   2.806   2.358   4.684 -0.4517  0.6030  0.1635
 7295SOL     OW33520   4.212   2.742  10.653 -0.3626  0.0459 -0.3502
 7295SOL    HW133521   4.282   2.772  10.594  1.3336 -2.2289  0.4899
 7295SOL    HW233522   4.132   2.755  10.602 -0.6743  0.1913  0.1815
 7296SOL     OW33523   3.402   4.318  13.311  0.2298  0.0382  0.2101
 7296SOL    HW133524   3.320   4.364  13.292 -0.6664 -1.6208  0.0974
 7296SOL    HW233525   3.384   4.312  13.405  0.0474  0.0987  0.1789
 7297SOL     OW33526   1.559   0.228   7.216  0.2562  0.3488  0.0786
 7297SOL    HW133527   1.521   0.314   7.197  1.5935  0.8327 -0.4133
 7297SOL    HW233528   1.547   0.217   7.311 -1.2871 -1.2646 -0.3026
 7298SOL     OW33529   2.735   3.021   6.050 -0.1780  0.2213  0.1270
 7298SOL    HW133530   2.666   3.053   5.991  1.3785 -0.2096 -1.9476
 7298SOL    HW233531   2.810   3.021   5.990 -0.1489 -2.0425  0.1773
 7299SOL     OW33532   4.433   3.498   5.923 -0.9038 -0.0857  0.3344
 7299SOL    HW133533   4.493   3.467   5.856  1.1555  1.0201  1.6239
 7299SOL    HW233534   4.485   3.563   5.971 -0.0108  0.3655 -1.2567
 7300SOL     OW33535   1.244   2.595   6.476  0.2392  0.4696 -0.4562
 7300SOL    HW133536   1.215   2.685   6.489 -0.2452  0.6247 -2.5819
 7300SOL    HW233537   1.297   2.602   6.396  0.3015 -1.0536 -0.5481
 7301SOL     OW33538   4.563   3.385  10.263 -0.2428 -0.0978  0.3968
 7301SOL    HW133539   4.562   3.346  10.176 -1.9847 -1.2232  0.9378
 7301SOL    HW233540   4.472   3.408  10.281 -0.9319 -2.4794 -0.0762
 7302SOL     OW33541   3.597   0.582   2.340 -0.4652  0.3524 -0.7599
 7302SOL    HW133542   3.580   0.667   2.299 -0.1355  0.8966  0.2253
 7302SOL    HW233543   3.600   0.609   2.432  0.1640  0.5787 -0.8481
 7303SOL     OW33544   1.494   2.744   4.987  0.0785  0.1384 -0.0236
 7303SOL    HW133545   1.455   2.823   4.949 -3.0301 -0.8969  0.9784
 7303SOL    HW233546   1.528   2.772   5.073  1.1454 -0.7010 -0.1761
 7304SOL     OW33547   3.160   0.661  11.688  0.6474  0.8776 -0.3657
 7304SOL    HW133548   3.147   0.599  11.616 -0.9440 -1.1210  1.6330
 7304SOL    HW233549   3.245   0.631  11.721 -0.2169 -1.7248 -0.5508
 7305SOL     OW33550   0.763   1.277   5.868  0.1976 -0.1045 -0.7918
 7305SOL    HW133551   0.719   1.304   5.949  1.0411 -1.7023  0.2145
 7305SOL    HW233552   0.736   1.347   5.809  3.5804  0.7686 -1.2861
 7306SOL     OW33553   3.413   2.403   9.771 -0.5989  0.1463  0.1254
 7306SOL    HW133554   3.320   2.385   9.756 -0.5284  1.7260 -2.2379
 7306SOL    HW233555   3.448   2.330   9.719 -1.7030 -0.4909  0.2640
 7307SOL     OW33556   2.383   3.439   4.853  0.3025  0.1322  0.2216
 7307SOL    HW133557   2.369   3.516   4.797 -1.3778  1.1831  2.0612
 7307SOL    HW233558   2.309   3.382   4.831  0.6930 -0.8471  1.4904
 7308SOL     OW33559   2.879   0.030   8.799 -0.1525 -0.1607 -0.1564
 7308SOL    HW133560   2.952   4.721   8.756  0.8741  1.4109  0.0217
 7308SOL    HW233561   2.825   4.687   8.815  0.9317 -0.8788  0.0269
 7309SOL     OW33562   2.521   2.597  10.349 -0.3664  0.1856 -0.0091
 7309SOL    HW133563   2.471   2.640  10.280 -1.1286 -1.5428 -0.5218
 7309SOL    HW233564   2.561   2.677  10.383 -0.9269  1.2992 -1.9698
 7310SOL     OW33565   4.656   4.273   9.154 -0.0089 -0.5143 -0.1055
 7310SOL    HW133566   4.664   4.367   9.137  1.4657 -0.6748 -0.2942
 7310SOL    HW233567   4.662   4.256   9.248  0.0442  1.4832  0.2675
 7311SOL     OW33568   3.402   3.653  10.456 -0.2722  0.0127 -0.0308
 7311SOL    HW133569   3.378   3.671  10.546  0.5219 -0.1481  0.2143
 7311SOL    HW233570   3.405   3.557  10.458 -0.8011 -0.0441 -1.4874
 7312SOL     OW33571   4.603   2.476   4.862 -0.4468 -0.6618 -0.2394
 7312SOL    HW133572   4.571   2.391   4.830 -3.6316  0.2020  0.5887
 7312SOL    HW233573   4.690   2.463   4.898 -0.7152  0.3494  0.7754
 7313SOL     OW33574   0.409   3.354   2.760  0.7927 -0.4839 -0.5150
 7313SOL    HW133575   0.368   3.422   2.707  2.5952  0.6423 -0.4363
 7313SOL    HW233576   0.342   3.343   2.829  0.1245 -0.0505 -1.0984
 7314SOL     OW33577   0.412   3.191   1.923  0.7951 -0.0765  0.0707
 7314SOL    HW133578   0.319   3.172   1.908  0.1922  2.2077  0.8940
 7314SOL    HW233579   0.414   3.282   1.894 -0.5541  0.1958  0.8632
 7315SOL     OW33580   3.139   4.005   6.155 -0.0571  0.3323  0.2274
 7315SOL    HW133581   3.175   3.979   6.240 -0.4812  0.4415  0.4360
 7315SOL    HW233582   3.092   4.085   6.179 -1.7568 -0.2299 -1.2238
 7316SOL     OW33583   3.828   1.090   6.226 -0.8792 -0.0969  0.0278
 7316SOL    HW133584   3.908   1.124   6.185 -0.5148 -2.3321 -1.1625
 7316SOL    HW233585   3.863   1.030   6.292  1.0135  0.6522 -0.2880
 7317SOL     OW33586   3.221   3.386  15.868  0.8252 -0.0643  0.1765
 7317SOL    HW133587   3.197   3.294  15.854 -0.7889 -0.1255  3.3171
 7317SOL    HW233588   3.143   3.417  15.913 -0.1894  1.8300 -2.8424
 7318SOL     OW33589   0.707   4.634   5.745 -0.5755 -0.7522  0.0105
 7318SOL    HW133590   0.800   4.630   5.768 -0.5177 -0.0637 -0.1003
 7318SOL    HW233591   0.706   4.614   5.651  1.8319  2.7132 -0.7277
 7319SOL     OW33592   0.031   1.285   1.759  0.7111  0.0896  0.6918
 7319SOL    HW133593   0.002   1.217   1.821  1.8643 -2.6536 -1.7816
 7319SOL    HW233594   4.683   1.334   1.755  1.4972  1.6085  3.1340
 7320SOL     OW33595   2.027   1.917  16.522  0.0493  0.0916  0.2218
 7320SOL    HW133596   1.988   1.958  16.445 -0.4468  0.0520  0.4512
 7320SOL    HW233597   2.073   1.847  16.476  1.1501  2.7652 -2.7087
 7321SOL     OW33598   0.718   2.217   2.068 -0.2606  0.5562 -0.0002
 7321SOL    HW133599   0.797   2.269   2.081  2.0341 -2.8095 -0.5053
 7321SOL    HW233600   0.753   2.141   2.022 -0.9835 -0.8007  1.6883
 7322SOL     OW33601   3.043   4.347   7.376  0.3756  0.6240 -0.1833
 7322SOL    HW133602   2.987   4.332   7.452 -0.3102 -0.7857 -0.9738
 7322SOL    HW233603   2.988   4.365   7.299 -0.6461 -0.0188  0.4003
 7323SOL     OW33604   2.337   0.728   4.565 -0.4901  0.1624  0.5536
 7323SOL    HW133605   2.276   0.684   4.505  0.4923 -0.2443 -0.1420
 7323SOL    HW233606   2.353   0.816   4.531 -2.3362  0.0947 -0.4888
 7324SOL     OW33607   0.722   3.009   7.961 -0.0083  0.1006 -0.1041
 7324SOL    HW133608   0.752   3.008   8.052  0.7566  0.0618 -0.3640
 7324SOL    HW233609   0.630   2.988   7.979  0.8658 -2.3443  1.5883
 7325SOL     OW33610   2.694   1.081  15.766 -0.4994 -0.4152  0.2913
 7325SOL    HW133611   2.742   1.163  15.761 -0.7265 -0.3429 -0.7155
 7325SOL    HW233612   2.732   1.026  15.698  1.9060  0.4662  0.9133
 7326SOL     OW33613   1.210   3.505  10.367 -0.8637 -0.6138  0.3211
 7326SOL    HW133614   1.198   3.459  10.284 -0.0435 -1.2271  0.5423
 7326SOL    HW233615   1.130   3.558  10.371 -1.2968 -1.1845 -1.1035
 7327SOL     OW33616   1.847   0.480   1.847  0.7168  0.4618  0.4195
 7327SOL    HW133617   1.848   0.544   1.918 -0.3290  0.5788  0.3348
 7327SOL    HW233618   1.880   0.405   1.896  0.0016 -0.6920 -0.8473
 7328SOL     OW33619   0.672   0.282  12.329 -0.4656  0.3308 -0.8249
 7328SOL    HW133620   0.602   0.296  12.393 -1.8002 -1.4583 -1.9054
 7328SOL    HW233621   0.666   0.371  12.293 -1.3963  0.3279 -0.6807
 7329SOL     OW33622   0.002   1.615   8.448 -0.2661 -0.3080  0.2768
 7329SOL    HW133623   4.663   1.668   8.478  0.6574  0.7988  0.5667
 7329SOL    HW233624   0.053   1.591   8.525 -1.7087 -1.1384  0.9805
 7330SOL     OW33625   4.635   0.132   1.631  0.2141 -0.3886  0.2138
 7330SOL    HW133626   4.723   0.110   1.600  0.4116 -1.6435  1.6673
 7330SOL    HW233627   4.651   0.192   1.703  1.5595 -0.9112  0.3609
 7331SOL     OW33628   2.752   2.680  14.665  0.0427  0.0694  0.2463
 7331SOL    HW133629   2.804   2.757  14.642 -1.8520  0.5969 -2.2171
 7331SOL    HW233630   2.769   2.631  14.584 -0.8017  2.4258 -1.3238
 7332SOL     OW33631   1.296   1.601   4.176 -0.2468 -0.6997 -0.2695
 7332SOL    HW133632   1.295   1.509   4.151  2.6623 -0.1858 -2.2968
 7332SOL    HW233633   1.234   1.612   4.248  1.8767  1.8344  1.1998
 7333SOL     OW33634   0.371   2.879  15.408  0.4149 -0.2414 -0.1212
 7333SOL    HW133635   0.372   2.952  15.470  3.0009  1.3814 -2.0707
 7333SOL    HW233636   0.356   2.911  15.319 -1.7633  0.3941  0.4621
 7334SOL     OW33637   4.346   1.909   5.365 -0.1928 -1.0573  0.4272
 7334SOL    HW133638   4.289   1.970   5.410  0.1086 -0.9301  0.6384
 7334SOL    HW233639   4.426   1.896   5.417  0.1107  3.1263  1.0270
 7335SOL     OW33640   0.319   0.049   3.028 -0.0204  0.2435  0.0251
 7335SOL    HW133641   0.391   0.035   2.966  1.0882  0.6136  1.2207
 7335SOL    HW233642   0.244   0.067   2.971  1.2468  0.5315 -1.5621
 7336SOL     OW33643   4.347   3.954   4.495  0.0240  0.1065  0.5471
 7336SOL    HW133644   4.349   3.936   4.401 -0.2103 -2.2943  1.0151
 7336SOL    HW233645   4.255   3.982   4.496 -0.1030 -0.2938 -0.2274
 7337SOL     OW33646   0.551   0.284  11.992  0.1800 -0.4634  0.3121
 7337SOL    HW133647   0.560   0.305  11.899 -0.8870  1.8532  0.7275
 7337SOL    HW233648   0.506   0.200  11.984 -2.8637  1.1526  0.4064
 7338SOL     OW33649   1.484   0.528   4.896  0.6493 -0.5048 -0.3296
 7338SOL    HW133650   1.438   0.463   4.950  0.5954  0.7081  1.0763
 7338SOL    HW233651   1.563   0.478   4.879 -0.8051 -2.0808 -2.5107
 7339SOL     OW33652   0.427   4.360  14.155 -0.1345 -0.2147  0.5483
 7339SOL    HW133653   0.485   4.313  14.214  3.3323  2.8334 -0.4642
 7339SOL    HW233654   0.343   4.330  14.190 -0.4037 -1.6203 -1.2659
 7340SOL     OW33655   1.481   1.974   1.802 -0.0428  0.3689 -0.2229
 7340SOL    HW133656   1.477   2.068   1.785  0.8766  0.1202 -1.8056
 7340SOL    HW233657   1.537   1.974   1.880 -1.1153 -2.7421  0.5677
 7341SOL     OW33658   0.853   0.957   6.708  0.0069  0.7484  0.2971
 7341SOL    HW133659   0.785   0.940   6.774 -0.3409 -0.0113 -0.2645
 7341SOL    HW233660   0.797   0.964   6.631  0.3494 -1.4299 -0.1316
 7342SOL     OW33661   3.627   3.585   0.061  0.5919  0.4849 -0.0516
 7342SOL    HW133662   3.553   3.577   0.121  1.8816  1.7696  1.7042
 7342SOL    HW233663   3.585   3.645  17.736 -0.4086  2.0506  2.1384
 7343SOL     OW33664   2.788   4.667  11.964  0.6410 -0.3078 -0.1189
 7343SOL    HW133665   2.851   4.595  11.973 -0.1955 -1.0990 -0.6146
 7343SOL    HW233666   2.705   4.622  11.949  1.2377 -1.1431 -0.9415
 7344SOL     OW33667   1.457   1.993   4.057  1.0405  0.2503  0.1115
 7344SOL    HW133668   1.478   2.075   4.101 -0.4654 -0.5305  2.2845
 7344SOL    HW233669   1.379   2.019   4.008  2.7020 -0.6799 -3.0582
 7345SOL     OW33670   4.110   0.805  13.754  0.2425 -0.0150  0.5675
 7345SOL    HW133671   4.168   0.781  13.681 -0.6672  1.3759 -0.6238
 7345SOL    HW233672   4.047   0.734  13.763  0.1445  0.1568  1.2361
 7346SOL     OW33673   4.390   3.890   4.235  0.3773  0.8062 -0.2749
 7346SOL    HW133674   4.484   3.886   4.215  0.6364  0.3522  1.0277
 7346SOL    HW233675   4.355   3.803   4.213 -0.0018  0.9006 -0.0378
 7347SOL     OW33676   0.484   1.900  12.216 -0.3597 -0.1178  0.1514
 7347SOL    HW133677   0.400   1.886  12.260  1.6265 -0.2605  3.8964
 7347SOL    HW233678   0.448   1.926  12.131 -0.4319 -0.0317  0.2074
 7348SOL     OW33679   4.730   0.997   7.398 -0.0039  0.0728 -0.5700
 7348SOL    HW133680   0.042   0.943   7.462 -0.9718  1.5884  1.4090
 7348SOL    HW233681   4.639   1.005   7.427  0.1778 -1.1200  0.3170
 7349SOL     OW33682   3.317   3.754   1.735 -0.1154  0.2902 -0.3091
 7349SOL    HW133683   3.402   3.746   1.690  0.0659  0.0054  0.0842
 7349SOL    HW233684   3.291   3.662   1.741  1.6352 -0.2934 -1.6388
 7350SOL     OW33685   4.630   0.132   0.180  0.1427 -0.8877  0.1605
 7350SOL    HW133686   4.579   0.052   0.168 -0.8245 -0.6016  2.3702
 7350SOL    HW233687   4.573   0.191   0.230  1.0423 -0.1667  0.3494
 7351SOL     OW33688   3.469   3.218   9.652  0.4249  0.4450 -0.6215
 7351SOL    HW133689   3.391   3.274   9.649 -0.0927 -0.4219 -3.1426
 7351SOL    HW233690   3.532   3.281   9.686  1.6459 -2.4958  2.5248
 7352SOL     OW33691   3.768   0.782   7.720 -0.6518 -0.6189  0.7136
 7352SOL    HW133692   3.761   0.828   7.636  1.2845 -1.7838 -0.0862
 7352SOL    HW233693   3.746   0.692   7.699 -2.1390 -0.3298  1.0210
 7353SOL     OW33694   3.816   0.834   2.981 -0.1707 -0.1135  0.2282
 7353SOL    HW133695   3.813   0.928   2.994  1.2229 -0.2272  1.3887
 7353SOL    HW233696   3.907   0.836   2.952 -0.2458 -1.6604 -0.1498
 7354SOL     OW33697   3.200   0.382   2.064  0.1613 -0.3383  0.8689
 7354SOL    HW133698   3.246   0.454   2.107  0.0560 -0.9975  2.0824
 7354SOL    HW233699   3.209   0.314   2.130  2.0019 -1.0526 -0.1073
 7355SOL     OW33700   3.082   0.753   8.644  0.1513  0.8934  0.6691
 7355SOL    HW133701   3.029   0.675   8.661  2.6391 -0.5609  1.7781
 7355SOL    HW233702   3.140   0.730   8.572 -1.1233  1.3799 -0.5057
 7356SOL     OW33703   0.734   0.655   0.075 -0.3411 -0.4536  0.3595
 7356SOL    HW133704   0.786   0.583   0.040  0.6922  0.7443 -0.5725
 7356SOL    HW233705   0.800   0.692   0.134  0.0322  0.7536 -0.8295
 7357SOL     OW33706   3.287   0.942   4.491 -1.0026 -0.1309  0.4776
 7357SOL    HW133707   3.319   0.853   4.478  0.1898  0.4596 -0.6428
 7357SOL    HW233708   3.266   0.963   4.400 -1.2755  1.0235  0.8127
 7358SOL     OW33709   3.549   1.227   7.339  0.1584 -0.4793  0.3323
 7358SOL    HW133710   3.475   1.209   7.396  0.2735 -2.1941 -0.0605
 7358SOL    HW233711   3.547   1.159   7.272  1.7461  0.8230 -1.0472
 7359SOL     OW33712   4.260   0.840   9.838 -0.2586 -0.4942 -0.0912
 7359SOL    HW133713   4.286   0.783   9.911  3.0135  0.6780 -0.3625
 7359SOL    HW233714   4.342   0.878   9.807 -0.4907  0.0066 -0.1005
 7360SOL     OW33715   3.623   3.114   5.363  0.1812 -0.0124  0.0533
 7360SOL    HW133716   3.705   3.162   5.378  0.8998 -1.2927  0.1772
 7360SOL    HW233717   3.642   3.065   5.283 -0.0659  1.8168 -1.1512
 7361SOL     OW33718   3.616   1.957   2.587 -0.1690 -0.3770 -0.4419
 7361SOL    HW133719   3.640   1.900   2.514  0.0602 -0.0169 -0.6490
 7361SOL    HW233720   3.611   2.046   2.552 -0.6954 -0.0999  0.3233
 7362SOL     OW33721   0.786   1.359   7.333  0.2968  0.0586  0.2481
 7362SOL    HW133722   0.879   1.339   7.338  0.4296  0.1144 -1.9677
 7362SOL    HW233723   0.784   1.431   7.269 -1.8075  0.4218  0.7291
 7363SOL     OW33724   3.085   1.873  11.773 -0.2313 -0.5730 -0.6041
 7363SOL    HW133725   3.063   1.781  11.758  1.1638 -1.1564  0.9509
 7363SOL    HW233726   3.174   1.865  11.806 -0.5410 -1.2318  0.0970
 7364SOL     OW33727   0.481   3.019   0.976 -0.6533 -0.1916 -0.5071
 7364SOL    HW133728   0.544   2.989   0.910  1.3642 -0.0001  1.3113
 7364SOL    HW233729   0.540   2.995   1.048 -0.8894  0.7385 -0.0088
 7365SOL     OW33730   3.591   4.543  12.120  0.2771 -0.4680 -0.0018
 7365SOL    HW133731   3.632   4.528  12.205 -1.2356  0.5750  0.8816
 7365SOL    HW233732   3.666   4.594  12.088  2.0657 -2.0340  1.6729
 7366SOL     OW33733   0.735   2.374  17.173 -0.1002 -0.1408 -0.1748
 7366SOL    HW133734   0.676   2.420  17.113 -0.1742 -2.3834 -1.8086
 7366SOL    HW233735   0.808   2.434  17.158  0.1280 -0.3258  0.1958
 7367SOL     OW33736   0.046   2.349   8.741 -0.0865 -0.0605  0.2103
 7367SOL    HW133737   0.035   2.376   8.650  1.1248  2.2033  0.7475
 7367SOL    HW233738   0.081   2.425   8.787  1.1523  0.8864 -2.3004
 7368SOL     OW33739   2.912   3.585   7.591  0.4287  0.2169 -0.0431
 7368SOL    HW133740   2.967   3.507   7.593 -1.5794 -1.2221 -0.7425
 7368SOL    HW233741   2.839   3.534   7.555 -0.0193 -1.1171  2.7411
 7369SOL     OW33742   0.356   0.970   7.637 -0.9045  0.4188  0.1699
 7369SOL    HW133743   0.334   0.906   7.569 -1.3124 -1.2138  1.8531
 7369SOL    HW233744   0.318   0.946   7.721  1.8197  0.6582  1.4791
 7370SOL     OW33745   2.710   4.674   3.423 -0.0058  0.4317 -0.1671
 7370SOL    HW133746   2.777   4.630   3.476 -0.3646 -1.5232 -1.3544
 7370SOL    HW233747   2.761   4.693   3.344  2.1524 -0.4503  1.0128
 7371SOL     OW33748   3.512   0.792   2.161  0.2432 -0.4117 -0.0579
 7371SOL    HW133749   3.466   0.873   2.138  0.2970 -0.2650  0.3530
 7371SOL    HW233750   3.588   0.796   2.104 -0.2879  1.4341 -0.6513
 7372SOL     OW33751   3.041   1.748   5.446 -0.2250  0.0449 -0.4609
 7372SOL    HW133752   2.949   1.755   5.419 -0.4671  3.7159  1.3100
 7372SOL    HW233753   3.045   1.654   5.431 -0.7510  0.0623 -0.7102
 7373SOL     OW33754   2.119   4.408   7.943 -0.0923 -0.3382 -0.2646
 7373SOL    HW133755   2.049   4.384   7.882 -0.0037  0.5728 -0.7155
 7373SOL    HW233756   2.195   4.372   7.897  0.8114  1.9755 -0.5339
 7374SOL     OW33757   0.255   0.498   3.605  0.3967 -0.2624  0.8483
 7374SOL    HW133758   0.167   0.486   3.641  0.5789 -2.8166  0.4580
 7374SOL    HW233759   0.298   0.543   3.678 -1.3319  1.9519  0.4607
 7375SOL     OW33760   3.731   3.262   5.137 -0.0881  0.0713  0.6034
 7375SOL    HW133761   3.725   3.267   5.041 -1.3480 -1.6840  0.5936
 7375SOL    HW233762   3.791   3.334   5.155 -1.5378  1.6546 -0.9166
 7376SOL     OW33763   4.454   1.676  13.455  0.0903 -0.0634 -0.1461
 7376SOL    HW133764   4.455   1.734  13.379 -1.3190 -1.1257 -0.9925
 7376SOL    HW233765   4.366   1.640  13.443  0.5764 -1.0705 -0.7019
 7377SOL     OW33766   1.137   1.519   4.713  0.1864 -0.8131  0.0820
 7377SOL    HW133767   1.124   1.519   4.808 -1.7469  0.5042 -0.1826
 7377SOL    HW233768   1.095   1.434   4.699 -0.6279 -1.0245  3.6694
 7378SOL     OW33769   2.516   2.051   6.150  0.0454  0.0318  0.1136
 7378SOL    HW133770   2.534   1.999   6.228  0.2775  1.6146  1.1012
 7378SOL    HW233771   2.450   1.997   6.105  0.7729 -0.7510 -0.0263
 7379SOL     OW33772   4.618   2.068   3.861 -0.8189  0.1067  0.0905
 7379SOL    HW133773   4.576   2.130   3.922 -0.3332 -0.7350  1.2719
 7379SOL    HW233774   4.673   2.011   3.914 -1.3513  1.4435  2.1034
 7380SOL     OW33775   2.747   0.948   6.744  0.4637  0.6874  0.3772
 7380SOL    HW133776   2.681   0.887   6.712  0.5840 -0.7343  2.9200
 7380SOL    HW233777   2.697   1.005   6.802 -2.4400 -0.7500 -0.7451
 7381SOL     OW33778   2.430   2.968  14.399 -0.0186  0.6282  0.1529
 7381SOL    HW133779   2.429   2.951  14.493  2.3230  0.0527  0.0572
 7381SOL    HW233780   2.437   2.878  14.366  2.1723 -0.1369  2.7447
 7382SOL     OW33781   4.067   1.186   6.144  0.3961  0.2777  0.0430
 7382SOL    HW133782   4.114   1.213   6.223  1.7962  0.3717 -0.8184
 7382SOL    HW233783   4.137   1.135   6.103 -0.9511 -2.2220  0.8614
 7383SOL     OW33784   1.427   0.892   6.981  0.0550  0.4396  0.0944
 7383SOL    HW133785   1.521   0.908   6.987  0.3381 -1.2720  0.0799
 7383SOL    HW233786   1.421   0.858   6.892 -0.5833  0.9750 -0.0698
 7384SOL     OW33787   4.222   3.461   9.267  0.7053 -0.2439  0.2810
 7384SOL    HW133788   4.180   3.464   9.353 -0.3102  0.4430 -0.2497
 7384SOL    HW233789   4.307   3.435   9.303  0.5336 -2.8767 -1.2225
 7385SOL     OW33790   0.394   2.114   0.703  0.3975 -0.1997 -0.3559
 7385SOL    HW133791   0.467   2.056   0.724  0.8234  0.3531 -0.2958
 7385SOL    HW233792   0.393   2.156   0.789 -0.4535 -1.0025  0.0292
 7386SOL     OW33793   2.497   0.317   0.168  0.2163 -0.1690 -0.3547
 7386SOL    HW133794   2.416   0.281   0.205 -0.8949  0.1690 -2.4479
 7386SOL    HW233795   2.541   0.325   0.252  1.4763 -2.6203 -0.8007
 7387SOL     OW33796   0.867   0.911   8.410 -0.0694 -0.2226 -0.2080
 7387SOL    HW133797   0.819   0.967   8.471  1.0295  0.3101  0.1594
 7387SOL    HW233798   0.853   0.957   8.327 -0.3288 -4.2796 -2.4171
 7388SOL     OW33799   2.996   2.157   8.212  0.3632 -0.0529 -0.1220
 7388SOL    HW133800   2.904   2.182   8.218  0.8957  1.8064  0.1950
 7388SOL    HW233801   3.019   2.108   8.291  1.8960 -0.9033 -1.0979
 7389SOL     OW33802   1.939   4.428   5.490 -0.1728  0.2291  0.4982
 7389SOL    HW133803   1.931   4.381   5.407  1.8895 -0.1349  0.5042
 7389SOL    HW233804   1.911   4.517   5.470 -0.3019 -0.3088 -1.7195
 7390SOL     OW33805   3.952   0.937   6.432  0.2638  0.5667 -0.0841
 7390SOL    HW133806   3.960   1.003   6.501 -0.1582 -0.9363  1.3872
 7390SOL    HW233807   4.002   0.861   6.462  0.3039  1.2435  1.5535
 7391SOL     OW33808   4.234   2.107   9.928  0.1402  0.4005 -0.2444
 7391SOL    HW133809   4.245   2.161   9.850  0.1303  1.1548  0.2844
 7391SOL    HW233810   4.141   2.113   9.947  0.1703 -2.4998  0.8536
 7392SOL     OW33811   3.815   3.718   6.483  0.1140  0.3967  0.1997
 7392SOL    HW133812   3.825   3.625   6.503 -1.9847  0.4084  1.3298
 7392SOL    HW233813   3.733   3.736   6.528 -0.5325  0.8981 -1.1684
 7393SOL     OW33814   0.064   1.532   5.947  0.3283 -0.3935  0.8136
 7393SOL    HW133815   0.005   1.488   6.008  1.0883 -0.6915  1.3447
 7393SOL    HW233816   0.107   1.466   5.893  0.4459  0.4511 -0.1194
 7394SOL     OW33817   0.141   1.259  15.015 -0.2544  0.3079 -0.1681
 7394SOL    HW133818   0.101   1.218  15.092  0.6643 -1.1969 -0.4820
 7394SOL    HW233819   0.224   1.211  15.004 -0.1729  0.0028  1.8562
 7395SOL     OW33820   1.917   0.441  17.477 -0.0862 -0.0670 -0.4213
 7395SOL    HW133821   2.012   0.449  17.488 -0.3801 -0.3732  2.3328
 7395SOL    HW233822   1.901   0.511  17.413  1.0724  1.2776  0.7575
 7396SOL     OW33823   1.546   2.975  15.537  0.1534 -0.5104  0.0529
 7396SOL    HW133824   1.592   2.916  15.478 -1.3422 -2.2750  0.6817
 7396SOL    HW233825   1.579   3.061  15.509  2.1160 -1.6193 -1.0054
 7397SOL     OW33826   3.606   4.617  14.685  0.1605 -0.3832  0.0711
 7397SOL    HW133827   3.653   4.554  14.631  0.2828 -0.5782  0.4055
 7397SOL    HW233828   3.533   4.559  14.707  0.0117 -0.1826  0.1047
 7398SOL     OW33829   0.929   3.378   6.545  0.2180  0.4804 -0.2697
 7398SOL    HW133830   0.865   3.442   6.514 -1.3734 -0.7448  0.4879
 7398SOL    HW233831   0.952   3.426   6.625  0.6323 -0.5069  0.2004
 7399SOL     OW33832   2.032   3.935   3.934 -0.4819  0.1950  0.2131
 7399SOL    HW133833   2.019   3.864   3.871  1.1674 -0.6138  0.7650
 7399SOL    HW233834   2.126   3.944   3.919 -0.2519 -2.1853  0.1453
 7400SOL     OW33835   1.580   0.279   0.432  0.3288  0.0637 -0.3049
 7400SOL    HW133836   1.638   0.351   0.408 -0.1181  0.1471 -1.1162
 7400SOL    HW233837   1.630   0.226   0.494 -0.3805 -0.1830  0.0514
 7401SOL     OW33838   1.855   3.834   6.740 -0.1774 -0.7585  0.0621
 7401SOL    HW133839   1.899   3.917   6.756  0.0784 -1.3708  2.5488
 7401SOL    HW233840   1.808   3.850   6.658 -0.8574  0.6092  0.7218
 7402SOL     OW33841   3.603   3.730   5.241  0.2857 -0.0112  0.2261
 7402SOL    HW133842   3.590   3.823   5.219  1.1150  0.3001  1.0539
 7402SOL    HW233843   3.651   3.737   5.323  0.0628 -0.0194  0.3574
 7403SOL     OW33844   4.196   2.668   4.901 -0.2808  0.3835  0.3372
 7403SOL    HW133845   4.278   2.707   4.871 -2.0086  2.6982 -1.3268
 7403SOL    HW233846   4.215   2.574   4.904 -0.0800  0.4096 -0.0804
 7404SOL     OW33847   4.430   1.234   4.260 -0.4426 -0.3253 -0.2697
 7404SOL    HW133848   4.434   1.241   4.165 -1.0144 -1.6077 -0.3847
 7404SOL    HW233849   4.519   1.198   4.263  0.2695  1.4729 -0.1973
 7405SOL     OW33850   0.962   1.272   0.665  0.3308 -0.0567  0.5965
 7405SOL    HW133851   1.037   1.213   0.665  0.3348 -0.0428  1.4165
 7405SOL    HW233852   0.970   1.310   0.577 -0.9733  1.3248  1.0749
 7406SOL     OW33853   1.167   2.913   5.843 -0.3057  0.1709  0.0832
 7406SOL    HW133854   1.153   3.007   5.829  0.4040  0.0346 -1.6166
 7406SOL    HW233855   1.214   2.899   5.760 -1.1595  2.1326 -0.7251
 7407SOL     OW33856   3.457   1.581   9.575 -0.0102 -0.5691 -0.4482
 7407SOL    HW133857   3.369   1.598   9.541  0.3557  0.1687 -1.0116
 7407SOL    HW233858   3.487   1.668   9.598 -0.5578 -0.4578 -0.1522
 7408SOL     OW33859   0.326   1.408  12.044 -0.1260  0.5048  0.1853
 7408SOL    HW133860   0.279   1.338  12.089  1.6414 -1.7488 -1.5200
 7408SOL    HW233861   0.327   1.483  12.104 -0.1886  1.3647 -0.9046
 7409SOL     OW33862   4.073   0.986   9.637 -0.1059  0.2843 -0.6191
 7409SOL    HW133863   4.129   0.982   9.560 -0.9477  2.4826 -1.3521
 7409SOL    HW233864   4.140   0.964   9.702 -1.1477 -0.2844  0.2607
 7410SOL     OW33865   0.529   3.506  13.079 -0.0898 -0.1465 -0.0858
 7410SOL    HW133866   0.446   3.552  13.096  0.5705  1.4589 -1.2315
 7410SOL    HW233867   0.566   3.536  12.996 -2.6278  1.2752 -0.7096
 7411SOL     OW33868   3.849   3.780  17.425 -0.0634 -0.3914 -0.3857
 7411SOL    HW133869   3.916   3.774  17.357  0.4159 -2.1764  0.2402
 7411SOL    HW233870   3.893   3.843  17.483 -1.4757  1.0056 -0.8540
 7412SOL     OW33871   0.144   4.606   6.937  0.3174 -0.2019 -0.0087
 7412SOL    HW133872   0.068   4.665   6.942  1.0647  0.7461  0.0620
 7412SOL    HW233873   0.176   4.621   6.848 -0.9592 -0.6270 -0.5444
 7413SOL     OW33874   3.211   1.535   4.093  0.4454 -0.1251 -0.6443
 7413SOL    HW133875   3.288   1.491   4.057 -0.0559 -1.4658 -0.1083
 7413SOL    HW233876   3.240   1.620   4.125 -0.7912  1.1525 -2.9562
 7414SOL     OW33877   4.253   1.917   9.574 -0.3072  0.1955 -0.3043
 7414SOL    HW133878   4.222   1.856   9.507  1.2929 -0.6287 -0.2799
 7414SOL    HW233879   4.307   1.856   9.625 -1.0746 -1.1875 -1.1346
 7415SOL     OW33880   0.465   3.248  12.935  0.4093  0.0840  0.0178
 7415SOL    HW133881   0.497   3.334  12.961 -0.9770  0.5809  0.0948
 7415SOL    HW233882   0.540   3.206  12.893 -0.1303 -2.5695  1.6896
 7416SOL     OW33883   3.536   1.412   0.095 -0.5873 -0.2417  0.1162
 7416SOL    HW133884   3.543   1.464   0.175  1.5604 -1.7874  0.9552
 7416SOL    HW233885   3.443   1.417   0.076 -1.2329 -1.6906  2.8113
 7417SOL     OW33886   0.091   0.157   7.521 -0.1171 -0.2222  0.2272
 7417SOL    HW133887   0.073   0.211   7.443 -4.6415 -1.4256  0.4303
 7417SOL    HW233888   0.034   0.206   7.580  0.6366 -0.3998  1.0948
 7418SOL     OW33889   3.268   2.928   8.156  0.2650 -0.1215 -0.2294
 7418SOL    HW133890   3.201   2.930   8.087 -0.0630  0.0912  0.0953
 7418SOL    HW233891   3.317   2.852   8.124 -0.7333 -0.4491 -1.0093
 7419SOL     OW33892   1.425   2.793   4.594 -0.4287 -0.5161 -0.1493
 7419SOL    HW133893   1.365   2.828   4.528 -0.4836 -1.3276 -0.5326
 7419SOL    HW233894   1.465   2.729   4.535  0.7445  2.0390 -2.0997
 7420SOL     OW33895   2.518   0.831  15.177 -0.1088  0.0078  0.0528
 7420SOL    HW133896   2.484   0.834  15.267  1.6178 -2.2835  0.7896
 7420SOL    HW233897   2.439   0.844  15.125 -0.3167 -0.9066  0.1360
 7421SOL     OW33898   4.366   0.725   2.001  0.0788 -0.0610 -0.0127
 7421SOL    HW133899   4.414   0.689   1.927 -2.1229  0.1101 -1.5213
 7421SOL    HW233900   4.386   0.819   1.994  0.3079 -0.0733  0.4196
 7422SOL     OW33901   0.202   0.267   5.337 -0.2390  0.5690  0.5195
 7422SOL    HW133902   0.241   0.354   5.325 -0.7006  0.7360  0.2199
 7422SOL    HW233903   0.273   0.211   5.367 -0.0895  0.8633  0.7108
 7423SOL     OW33904   4.112   4.654   0.405 -0.1620  0.0355  0.0887
 7423SOL    HW133905   4.168   4.592   0.452  2.3521  0.1479 -2.7496
 7423SOL    HW233906   4.173   4.722   0.376 -1.0485  0.1098 -1.5649
 7424SOL     OW33907   1.008   3.863   3.969  0.5488 -0.0783  0.1687
 7424SOL    HW133908   1.102   3.856   3.988  0.6176 -0.7713 -0.4123
 7424SOL    HW233909   1.009   3.821   3.883 -1.2920  1.6814 -0.7102
 7425SOL     OW33910   4.226   3.615   0.383  0.4380 -0.0616 -0.2033
 7425SOL    HW133911   4.293   3.574   0.437  0.3009 -1.1502 -0.8525
 7425SOL    HW233912   4.227   3.704   0.419 -1.6344 -0.9124  1.9922
 7426SOL     OW33913   4.688   2.680   3.225 -0.7099 -0.3581 -0.1450
 7426SOL    HW133914   4.641   2.655   3.146 -1.2619  1.0527 -0.2637
 7426SOL    HW233915   4.719   2.768   3.204 -0.1595 -0.5514 -0.1633
 7427SOL     OW33916   4.271   2.564   1.185 -0.0095 -0.0270  0.5753
 7427SOL    HW133917   4.348   2.546   1.238  0.1696 -2.6322 -0.5555
 7427SOL    HW233918   4.208   2.605   1.245  0.9243  2.5137 -0.1966
 7428SOL     OW33919   2.392   2.740   7.394  0.6759  0.3064 -0.9378
 7428SOL    HW133920   2.366   2.808   7.457 -2.2416 -0.6499 -1.0835
 7428SOL    HW233921   2.486   2.755   7.391  0.9923 -1.2960  0.7144
 7429SOL     OW33922   2.913   4.216   6.809 -0.6340 -0.3003  0.9578
 7429SOL    HW133923   2.873   4.142   6.855 -1.7909  0.8322  1.7523
 7429SOL    HW233924   2.890   4.196   6.718  0.0172 -0.0825  0.7459
 7430SOL     OW33925   3.350   3.717  10.724  0.0180  0.8876  0.0425
 7430SOL    HW133926   3.361   3.644  10.786 -0.1976  1.1235  0.3606
 7430SOL    HW233927   3.267   3.759  10.746 -0.5153  0.0696 -0.3951
 7431SOL     OW33928   4.353   0.756  11.331  0.5997 -0.1342  0.1294
 7431SOL    HW133929   4.301   0.690  11.284 -0.5488  1.5076 -0.9071
 7431SOL    HW233930   4.330   0.728  11.420  1.0489 -0.0097  0.2850
 7432SOL     OW33931   4.241   2.721   4.528  0.5802 -0.0906 -0.1510
 7432SOL    HW133932   4.294   2.690   4.601  0.1823  0.0902  0.2193
 7432SOL    HW233933   4.181   2.653   4.495  0.7157 -0.6386  0.7039
 7433SOL     OW33934   2.499   4.274   2.441  0.4920  0.6598 -0.2809
 7433SOL    HW133935   2.468   4.206   2.382  2.4231 -1.5304  1.2626
 7433SOL    HW233936   2.575   4.299   2.388 -1.2504  0.5755 -2.8504
 7434SOL     OW33937   1.513   4.418   6.358  0.9738  0.0093 -0.3779
 7434SOL    HW133938   1.450   4.354   6.324  0.7951 -0.6062  1.1328
 7434SOL    HW233939   1.491   4.487   6.295  0.4334  1.6966  1.6370
 7435SOL     OW33940   1.064   4.026   5.520  0.2790 -0.1560  0.6834
 7435SOL    HW133941   1.035   4.087   5.452 -0.4196 -1.0456  0.1870
 7435SOL    HW233942   1.076   3.951   5.461  0.9218  0.9214 -0.5781
 7436SOL     OW33943   1.116   3.945   7.664  0.4589  0.4957  0.0713
 7436SOL    HW133944   1.161   3.882   7.721 -2.0518 -0.4533  1.0023
 7436SOL    HW233945   1.025   3.916   7.669  0.5499  0.1105 -0.5567
 7437SOL     OW33946   3.116   0.352  17.183  0.7860 -0.1687  0.0793
 7437SOL    HW133947   3.079   0.439  17.198  1.2590  0.2485 -1.2623
 7437SOL    HW233948   3.127   0.325  17.275 -0.9663  1.2593  0.7206
 7438SOL     OW33949   3.627   1.516   8.437  0.4077  0.2013 -0.7208
 7438SOL    HW133950   3.614   1.431   8.479  0.2533  1.0627  0.9807
 7438SOL    HW233951   3.715   1.500   8.403  0.5601  0.8124 -0.6052
 7439SOL     OW33952   1.284   0.613   5.308 -0.0814  0.5146 -0.1296
 7439SOL    HW133953   1.195   0.590   5.281  0.6475 -1.8214 -0.5633
 7439SOL    HW233954   1.325   0.644   5.227 -0.8252  1.6841 -0.0610
 7440SOL     OW33955   3.064   1.922   7.050 -0.0249 -0.4232  0.1667
 7440SOL    HW133956   3.047   1.833   7.020  2.1897 -0.6660 -0.3446
 7440SOL    HW233957   3.018   1.906   7.133 -1.6920  0.6717 -0.5428
 7441SOL     OW33958   2.878   3.597   1.553 -0.3183 -0.0069 -0.0095
 7441SOL    HW133959   2.818   3.606   1.627  0.7569 -1.8988  1.0941
 7441SOL    HW233960   2.937   3.525   1.575 -0.1159  0.2909  0.4350
 7442SOL     OW33961   3.157   3.894   8.448 -0.0038  0.5861  0.2635
 7442SOL    HW133962   3.216   3.965   8.423  0.2071 -0.6644 -2.8609
 7442SOL    HW233963   3.105   3.926   8.522  0.3285 -0.3263  0.8936
 7443SOL     OW33964   3.872   0.421  12.932  0.5444 -0.3581 -0.0325
 7443SOL    HW133965   3.807   0.441  12.999  1.3258  1.2148  0.2567
 7443SOL    HW233966   3.945   0.412  12.993  1.6256 -0.5026 -1.3304
 7444SOL     OW33967   1.734   2.953   8.528 -0.7045  0.5814 -0.7142
 7444SOL    HW133968   1.681   2.970   8.605  1.1857  1.1858  0.4498
 7444SOL    HW233969   1.743   2.858   8.525  1.6462  0.7638  0.4165
 7445SOL     OW33970   0.333   0.974   1.491  0.0293 -0.4531 -0.8293
 7445SOL    HW133971   0.387   1.014   1.422 -0.9917  0.6585 -0.9866
 7445SOL    HW233972   0.280   1.050   1.514  0.3230 -1.0010  1.5878
 7446SOL     OW33973   4.310   1.160   6.813  1.2221  0.0033  0.9548
 7446SOL    HW133974   4.371   1.099   6.854  2.0015  0.9171  1.1582
 7446SOL    HW233975   4.256   1.177   6.890 -1.1786  1.5249 -1.0420
 7447SOL     OW33976   0.696   0.683   7.606 -0.0601  0.0902  0.3512
 7447SOL    HW133977   0.726   0.596   7.582  2.2604  0.6622  1.1580
 7447SOL    HW233978   0.640   0.661   7.680  0.0498  0.8581  0.6673
 7448SOL     OW33979   4.573   3.734   2.126 -0.4027  0.3057  0.0258
 7448SOL    HW133980   4.558   3.763   2.036  0.7133  1.1042  0.0957
 7448SOL    HW233981   4.584   3.641   2.107 -1.4551  0.0608  0.6146
 7449SOL     OW33982   3.664   0.552   7.618 -0.6264  0.1087  0.0840
 7449SOL    HW133983   3.718   0.487   7.574 -2.8460 -0.5696 -1.6481
 7449SOL    HW233984   3.610   0.577   7.543 -2.7359  0.4182  1.6940
 7450SOL     OW33985   3.279   2.789   3.922 -0.0751 -0.8004 -0.2118
 7450SOL    HW133986   3.206   2.770   3.981  0.6460 -0.0676  0.9175
 7450SOL    HW233987   3.226   2.826   3.852 -0.3066  1.0217  0.9457
 7451SOL     OW33988   4.352   3.983   1.859 -0.2623 -0.4339  0.1359
 7451SOL    HW133989   4.395   4.069   1.854  0.0216 -0.6115 -0.4933
 7451SOL    HW233990   4.259   4.006   1.858 -0.3866 -0.9789 -0.5250
 7452SOL     OW33991   2.443   3.962  13.867 -0.1472 -0.3563 -0.5536
 7452SOL    HW133992   2.483   3.895  13.923 -0.0934  1.0844  1.1457
 7452SOL    HW233993   2.373   3.992  13.925 -0.0155 -1.0188 -0.0548
 7453SOL     OW33994   2.786   2.978  16.552  0.1655  0.0427 -0.1795
 7453SOL    HW133995   2.698   2.995  16.517 -0.3869  0.8470  1.6015
 7453SOL    HW233996   2.778   2.888  16.583 -2.2167 -0.7349 -2.9473
 7454SOL     OW33997   0.652   2.258   3.344  0.0392 -0.2208 -0.0437
 7454SOL    HW133998   0.725   2.316   3.365  0.8809 -0.9513 -0.9263
 7454SOL    HW233999   0.615   2.246   3.431 -1.3433  3.0195 -0.1923
 7455SOL     OW34000   0.625   0.965   7.500 -0.1918 -0.0361  0.1022
 7455SOL    HW134001   0.665   0.896   7.551 -2.3837  0.9024  3.0881
 7455SOL    HW234002   0.534   0.962   7.531 -0.4820 -1.8256 -0.9311
 7456SOL     OW34003   0.521   2.252   6.930 -0.3011  0.1772  0.2870
 7456SOL    HW134004   0.427   2.251   6.916 -0.2975  1.7000  0.1847
 7456SOL    HW234005   0.529   2.190   7.003  1.4545 -0.8786 -0.8045
 7457SOL     OW34006   3.668   0.994   8.773  0.3706 -0.5939  0.3331
 7457SOL    HW134007   3.705   0.919   8.727  0.9639 -1.1177  1.6616
 7457SOL    HW234008   3.583   1.005   8.730  0.3927  1.4651  0.8405
 7458SOL     OW34009   4.320   1.909   8.861 -0.0737 -0.0941  0.5144
 7458SOL    HW134010   4.376   1.852   8.808 -0.3496  1.7958 -1.8018
 7458SOL    HW234011   4.242   1.853   8.866  1.4323 -2.3351 -1.0809
 7459SOL     OW34012   1.688   0.216   8.833 -0.1130  0.2347  0.1984
 7459SOL    HW134013   1.634   0.142   8.806 -0.8594  0.6140  0.6291
 7459SOL    HW234014   1.762   0.182   8.783 -1.1243 -0.0714 -1.0886
 7460SOL     OW34015   3.203   0.235   8.115 -0.0261 -0.1995  0.1630
 7460SOL    HW134016   3.181   0.142   8.111 -0.7980  0.0172 -0.6974
 7460SOL    HW234017   3.120   0.283   8.107  0.0318 -0.3021 -1.0269
 7461SOL     OW34018   2.311   3.976   2.478  0.7050 -0.4040  1.2461
 7461SOL    HW134019   2.241   4.013   2.532  0.7935  1.4167  0.1149
 7461SOL    HW234020   2.283   3.885   2.472 -2.1118  0.6179 -1.1785
 7462SOL     OW34021   3.827   0.809   8.616 -0.0601  0.2271 -1.0036
 7462SOL    HW134022   3.872   0.811   8.531  0.2765 -0.8189 -0.8408
 7462SOL    HW234023   3.770   0.732   8.613 -1.8780  1.4866  1.1805
 7463SOL     OW34024   1.154   2.164   0.268 -0.0509 -0.4299 -0.2774
 7463SOL    HW134025   1.179   2.180   0.176  0.0535  0.6563 -0.0560
 7463SOL    HW234026   1.061   2.141   0.265  0.3130 -1.9271 -0.2199
 7464SOL     OW34027   0.362   4.159   2.439  0.4764  0.1620  0.2530
 7464SOL    HW134028   0.418   4.108   2.498  2.7095  1.5920 -0.5962
 7464SOL    HW234029   0.407   4.154   2.355 -1.1570  1.0659 -0.6641
 7465SOL     OW34030   0.577   2.818   9.161  0.6989 -0.4002 -0.0575
 7465SOL    HW134031   0.556   2.726   9.143 -0.1968  0.0976 -1.5185
 7465SOL    HW234032   0.672   2.814   9.170  0.5752  1.0189  1.9746
 7466SOL     OW34033   3.858   3.352  12.513 -0.1917 -0.5246  0.5371
 7466SOL    HW134034   3.927   3.286  12.519  2.0840  1.8258  0.1007
 7466SOL    HW234035   3.852   3.355  12.417  0.9484 -1.0552  0.4534
 7467SOL     OW34036   3.555   1.909  15.654  0.3286 -0.9315 -0.0496
 7467SOL    HW134037   3.526   1.867  15.573  2.9146 -2.1891 -0.3289
 7467SOL    HW234038   3.540   2.002  15.636  0.3001 -1.0713 -0.7456
 7468SOL     OW34039   4.233   2.350   1.009  0.2629 -0.9493  0.2857
 7468SOL    HW134040   4.252   2.434   1.051 -1.2922 -1.4171  1.9216
 7468SOL    HW234041   4.162   2.377   0.950  0.7807 -1.7392 -0.6869
 7469SOL     OW34042   2.029   4.543   0.327 -0.3416  0.4059  0.1526
 7469SOL    HW134043   2.120   4.540   0.296 -0.4948 -1.5182 -0.0865
 7469SOL    HW234044   1.990   4.501   0.251 -1.6671  0.8010  0.6182
 7470SOL     OW34045   0.538   2.508  13.923  0.8571 -0.4786 -0.6395
 7470SOL    HW134046   0.625   2.539  13.899 -1.5783  4.5713 -2.9472
 7470SOL    HW234047   0.503   2.493  13.835 -2.0660  1.7015  0.1437
 7471SOL     OW34048   0.379   2.323   4.182  0.2855  0.3263  0.8138
 7471SOL    HW134049   0.359   2.233   4.206 -1.3440  0.0326 -1.6242
 7471SOL    HW234050   0.450   2.340   4.244  0.2344 -2.2753  1.5495
 7472SOL     OW34051   0.784   1.038  11.089  0.6122  0.1312  0.1466
 7472SOL    HW134052   0.731   1.111  11.121 -1.1523 -0.8091 -0.5637
 7472SOL    HW234053   0.761   0.971  11.154 -1.9431  1.0249  0.1874
 7473SOL     OW34054   2.466   1.379   7.956 -0.0043  0.3525 -0.5581
 7473SOL    HW134055   2.372   1.385   7.975  0.2259 -0.2143  0.7003
 7473SOL    HW234056   2.478   1.338   7.870  0.5386  0.6064 -0.6063
 7474SOL     OW34057   1.405   1.509   3.072  0.1940  0.2416  0.2460
 7474SOL    HW134058   1.430   1.418   3.082 -1.0262 -0.1761 -0.4792
 7474SOL    HW234059   1.453   1.545   2.997 -0.9147 -0.1926 -0.6807
 7475SOL     OW34060   3.819   0.649   5.002 -0.0927  0.0157  0.4998
 7475SOL    HW134061   3.807   0.670   5.094 -1.1192 -1.0486  0.6010
 7475SOL    HW234062   3.776   0.724   4.960 -0.9366  0.2060  1.7186
 7476SOL     OW34063   1.506   4.479  11.805  0.2653  0.2769 -0.0731
 7476SOL    HW134064   1.568   4.548  11.778  1.0783  0.4303  2.1602
 7476SOL    HW234065   1.491   4.448  11.716 -0.5763  0.2853  0.0643
 7477SOL     OW34066   2.879   0.222   3.566  0.3309  0.3196  1.1070
 7477SOL    HW134067   2.945   0.285   3.596 -0.2049  1.6914 -0.6018
 7477SOL    HW234068   2.878   0.155   3.634  0.2066 -1.3514 -0.5458
 7478SOL     OW34069   1.703   0.769   4.911 -0.0717 -0.5218  0.4310
 7478SOL    HW134070   1.662   0.683   4.918 -1.8439  0.4036  1.3457
 7478SOL    HW234071   1.791   0.752   4.944  0.6315  0.9942 -0.6263
 7479SOL     OW34072   2.282   2.153   2.249  0.0948 -0.4375  0.3806
 7479SOL    HW134073   2.286   2.199   2.332 -1.8929 -1.7548  1.1919
 7479SOL    HW234074   2.366   2.108   2.258  1.0023  1.4319  1.4119
 7480SOL     OW34075   1.714   4.493  14.402 -0.0619  0.9395  0.1671
 7480SOL    HW134076   1.638   4.451  14.443 -0.7841  1.0299 -1.0804
 7480SOL    HW234077   1.706   4.458  14.313  2.5342  2.5134 -0.6741
 7481SOL     OW34078   4.442   2.224   9.197  0.8309 -0.1858  0.0809
 7481SOL    HW134079   4.495   2.223   9.117 -0.8946  2.5427 -1.0630
 7481SOL    HW234080   4.371   2.278   9.163  0.9782  0.0487  0.1463
 7482SOL     OW34081   0.702   1.955   8.316  0.3179 -0.9672 -0.1897
 7482SOL    HW134082   0.719   2.022   8.382  1.3958 -0.6383 -0.8076
 7482SOL    HW234083   0.710   1.879   8.374  1.8325 -1.6885 -1.3500
 7483SOL     OW34084   2.553   2.692   4.165 -0.1499  0.2818  0.2326
 7483SOL    HW134085   2.579   2.768   4.112 -0.7897  0.2901 -0.0637
 7483SOL    HW234086   2.543   2.627   4.095 -1.4781  2.2449 -1.3980
 7484SOL     OW34087   0.047   3.309   5.956 -0.6544  0.1522  0.2962
 7484SOL    HW134088   0.035   3.359   5.875  0.2225  1.5411  1.0308
 7484SOL    HW234089   0.021   3.220   5.932  1.5003 -0.7041  1.1060
 7485SOL     OW34090   2.489   3.285  12.688 -0.2056  0.5949  0.0646
 7485SOL    HW134091   2.559   3.305  12.750 -0.5087 -0.1135  0.6261
 7485SOL    HW234092   2.502   3.194  12.664 -0.0840  0.4678  0.6095
 7486SOL     OW34093   0.649   3.355   8.343 -0.5945  0.0707 -0.1568
 7486SOL    HW134094   0.620   3.304   8.418 -0.9561 -1.0582 -1.0714
 7486SOL    HW234095   0.731   3.307   8.327 -0.0928  1.3839 -1.5982
 7487SOL     OW34096   4.409   0.846  13.166  0.0351 -0.5148  0.4666
 7487SOL    HW134097   4.461   0.837  13.245 -0.9314 -0.0897  1.1448
 7487SOL    HW234098   4.418   0.756  13.135  0.6501 -0.0387 -0.7260
 7488SOL     OW34099   2.758   2.507  17.706 -0.2443  0.3106  0.0803
 7488SOL    HW134100   2.688   2.481  17.645  0.2146 -1.9106  0.5081
 7488SOL    HW234101   2.819   2.434  17.706 -1.8597 -1.0264  0.3634
 7489SOL     OW34102   0.642   3.585   6.271 -0.0783 -0.2199 -0.2267
 7489SOL    HW134103   0.660   3.585   6.178  3.5631 -1.4404  0.4872
 7489SOL    HW234104   0.547   3.583   6.286 -0.1588 -0.8482 -0.8841
 7490SOL     OW34105   2.908   3.549   6.676  0.5264 -0.3062 -0.2291
 7490SOL    HW134106   2.847   3.555   6.602  0.4200  0.4038 -0.0872
 7490SOL    HW234107   2.979   3.503   6.632  0.3719 -0.0882 -0.7094
 7491SOL     OW34108   1.342   0.874   0.946  0.4074  0.2793  0.3558
 7491SOL    HW134109   1.364   0.781   0.956 -1.0201  0.0315  1.1460
 7491SOL    HW234110   1.349   0.878   0.851 -0.8083 -0.5036  0.2327
 7492SOL     OW34111   0.876   3.776   6.298  0.0786 -0.4092  0.3449
 7492SOL    HW134112   0.880   3.757   6.205  1.3610  1.3096  0.0457
 7492SOL    HW234113   0.791   3.736   6.309  1.1033 -2.3176  1.2270
 7493SOL     OW34114   1.601   1.203   2.631  0.9759 -0.0757 -0.4249
 7493SOL    HW134115   1.555   1.119   2.633  1.3083 -0.2677 -0.8338
 7493SOL    HW234116   1.647   1.197   2.547  0.5302  1.0807 -0.7551
 7494SOL     OW34117   2.317   0.857   7.632 -0.5594 -0.1261  0.7645
 7494SOL    HW134118   2.391   0.850   7.571 -0.9171 -0.7367  0.3969
 7494SOL    HW234119   2.245   0.825   7.578 -0.1829  1.2514 -0.5531
 7495SOL     OW34120   3.327   0.088   8.403 -0.1805 -0.1634  0.1924
 7495SOL    HW134121   3.397   0.042   8.358 -1.2747  0.1418 -1.8324
 7495SOL    HW234122   3.244   0.043   8.386  0.3930 -0.7004 -1.1803
 7496SOL     OW34123   3.219   3.097   4.719  0.4295 -0.1720 -0.1820
 7496SOL    HW134124   3.198   3.156   4.791 -1.3736 -0.4509 -0.4826
 7496SOL    HW234125   3.247   3.014   4.758  2.3325  1.7951  2.6953
 7497SOL     OW34126   2.352   1.359   5.068 -0.1514  0.3048  0.2495
 7497SOL    HW134127   2.325   1.372   5.159  1.5078 -0.3981  0.8414
 7497SOL    HW234128   2.444   1.363   5.091  0.5872 -1.8634 -2.2802
 7498SOL     OW34129   2.183   1.249  13.951 -0.2880 -0.8116 -0.1482
 7498SOL    HW134130   2.187   1.338  13.918 -1.3132 -1.1328 -1.1466
 7498SOL    HW234131   2.229   1.249  14.034  0.0287  1.1599 -0.3250
 7499SOL     OW34132   2.596   2.011   1.666 -0.3445  0.1258 -0.2391
 7499SOL    HW134133   2.688   2.037   1.659 -0.2835  0.1254  0.5742
 7499SOL    HW234134   2.581   1.990   1.574  1.2638  2.3115 -0.9994
 7500SOL     OW34135   3.696   3.604  17.223  0.3709 -0.9570  0.2637
 7500SOL    HW134136   3.780   3.638  17.255 -0.4083  1.1914  0.0796
 7500SOL    HW234137   3.682   3.532  17.284  1.8055 -3.2257 -2.1027
 7501SOL     OW34138   3.696   3.942  15.019 -0.3521  0.1741  0.2692
 7501SOL    HW134139   3.608   3.975  14.998 -0.5197 -1.9856 -2.4549
 7501SOL    HW234140   3.697   3.970  15.110 -2.3108 -0.7824  0.5820
 7502SOL     OW34141   0.783   3.225  15.188 -0.2902 -0.0365 -0.5986
 7502SOL    HW134142   0.701   3.211  15.236  0.5092 -0.6233  0.6173
 7502SOL    HW234143   0.771   3.149  15.132 -0.1432 -1.7402  1.6790
 7503SOL     OW34144   2.663   4.674   8.351  0.0531  0.9155  0.1290
 7503SOL    HW134145   2.725   0.012   8.361  1.1985 -0.2990  1.8464
 7503SOL    HW234146   2.614   4.706   8.276  0.0706 -1.8810 -1.0698
 7504SOL     OW34147   3.411   2.288   6.185 -0.3768 -1.3849 -0.3591
 7504SOL    HW134148   3.369   2.373   6.200 -2.4704 -2.2582 -1.1974
 7504SOL    HW234149   3.387   2.254   6.272  1.2826  1.3589  1.1677
 7505SOL     OW34150   2.261   4.666   5.971  0.2290 -0.1878 -0.8025
 7505SOL    HW134151   2.255   4.583   5.924  0.5047 -0.8393  0.2934
 7505SOL    HW234152   2.279   4.725   5.898  0.3740  1.8015  0.8189
 7506SOL     OW34153   0.762   4.152   4.318  0.3815  0.6371  0.1388
 7506SOL    HW134154   0.707   4.085   4.278  0.1925  1.7073 -1.4120
 7506SOL    HW234155   0.780   4.208   4.242  0.9041 -0.1576 -0.3266
 7507SOL     OW34156   2.528   1.582   4.953 -0.2967 -0.1308 -0.6334
 7507SOL    HW134157   2.497   1.492   4.943  0.5139 -0.4432 -0.3300
 7507SOL    HW234158   2.578   1.598   4.873 -0.2734 -0.4120 -0.6746
 7508SOL     OW34159   1.748   2.272   8.462  0.1877  0.0779 -0.3416
 7508SOL    HW134160   1.693   2.193   8.463  0.3089  0.0196  3.4180
 7508SOL    HW234161   1.753   2.286   8.368 -3.0012  0.4952 -0.4543
 7509SOL     OW34162   3.860   1.128  11.885  0.3903 -0.3509 -0.0696
 7509SOL    HW134163   3.785   1.069  11.883  0.4888 -0.4422 -0.9669
 7509SOL    HW234164   3.882   1.121  11.978  0.6681 -0.2463 -0.1247
 7510SOL     OW34165   0.483   1.481   2.761 -0.5525  0.7127  0.0995
 7510SOL    HW134166   0.516   1.392   2.757 -0.2241  0.7978  0.8074
 7510SOL    HW234167   0.504   1.516   2.675 -1.1575  1.4080  0.2365
 7511SOL     OW34168   0.868   2.725  12.669 -0.2674  0.1694 -0.3835
 7511SOL    HW134169   0.906   2.748  12.584 -0.7672  1.5412 -0.2403
 7511SOL    HW234170   0.841   2.815  12.691  1.4231  0.5211  0.2584
 7512SOL     OW34171   0.295   3.996   6.395  0.1472  0.4228  0.2791
 7512SOL    HW134172   0.341   4.060   6.449  2.4254 -0.8745 -0.1002
 7512SOL    HW234173   0.303   4.038   6.309 -0.3901 -1.9305 -0.9038
 7513SOL     OW34174   4.361   2.582  13.357 -0.0144 -0.4194 -0.0749
 7513SOL    HW134175   4.372   2.651  13.423 -0.3139  1.1046 -1.6252
 7513SOL    HW234176   4.278   2.547  13.389  1.3405 -2.3819  1.2758
 7514SOL     OW34177   1.467   0.783   5.950  0.2540 -0.2591 -0.4584
 7514SOL    HW134178   1.485   0.762   5.858  0.0678 -2.0212 -0.0826
 7514SOL    HW234179   1.557   0.782   5.983  0.4527  1.7761 -0.9453
 7515SOL     OW34180   1.888   3.029   3.992 -0.4366  0.3048 -0.6289
 7515SOL    HW134181   1.945   2.953   3.978  1.7416  1.8073  0.1831
 7515SOL    HW234182   1.948   3.097   4.024 -0.6385 -0.0210  0.4178
 7516SOL     OW34183   2.386   3.881   5.850  0.1540  0.1296  0.0509
 7516SOL    HW134184   2.343   3.815   5.795  1.6210  0.1003 -1.0636
 7516SOL    HW234185   2.314   3.899   5.910  0.2395  1.2156 -0.1794
 7517SOL     OW34186   0.333   2.623   1.470 -0.0962  0.0175 -0.3087
 7517SOL    HW134187   0.299   2.703   1.512 -1.2981 -1.8019  2.1637
 7517SOL    HW234188   0.323   2.643   1.376  3.8785  1.0805 -0.4940
 7518SOL     OW34189   2.753   3.856   5.747  0.3197  0.5153  0.0029
 7518SOL    HW134190   2.711   3.777   5.778  0.1123  0.4503 -0.4401
 7518SOL    HW234191   2.725   3.866   5.656  0.4978  1.7748  0.0846
 7519SOL     OW34192   2.330   4.477   6.563 -0.0804  0.4248 -0.1661
 7519SOL    HW134193   2.303   4.561   6.525 -0.7735  0.7730  1.0934
 7519SOL    HW234194   2.424   4.492   6.567  0.1321 -1.1882  0.6044
 7520SOL     OW34195   1.717   0.588   4.114 -0.4239  0.1802 -0.5229
 7520SOL    HW134196   1.676   0.666   4.077  0.7841  1.3247  0.5678
 7520SOL    HW234197   1.765   0.560   4.036 -0.6837 -0.4962 -0.4358
 7521SOL     OW34198   1.711   0.105   0.575  0.0005 -0.4288 -0.1925
 7521SOL    HW134199   1.777   0.090   0.507 -1.8299  0.1339 -2.0822
 7521SOL    HW234200   1.744   0.051   0.647  2.2538 -1.0341 -1.6618
 7522SOL     OW34201   3.051   1.788  14.638  0.3341  0.0980 -0.6236
 7522SOL    HW134202   3.065   1.733  14.561 -0.7821 -0.9899 -0.0641
 7522SOL    HW234203   3.135   1.769  14.681 -0.9767 -0.2658  1.8142
 7523SOL     OW34204   1.013   1.377   9.301 -0.1530  0.4993 -0.2686
 7523SOL    HW134205   1.074   1.384   9.375 -2.2606  0.1411  1.4812
 7523SOL    HW234206   0.946   1.319   9.337 -0.1673  0.9877  0.4804
 7524SOL     OW34207   3.775   2.825   6.919 -0.4778 -0.1128 -0.2492
 7524SOL    HW134208   3.720   2.888   6.873 -1.5234 -2.3554 -2.0405
 7524SOL    HW234209   3.861   2.834   6.879  0.0895 -0.3840  0.9071
 7525SOL     OW34210   1.163   1.998   3.023 -0.1485  0.0038  0.0829
 7525SOL    HW134211   1.189   2.014   2.932 -0.8195  1.6270  0.1676
 7525SOL    HW234212   1.190   1.906   3.026 -1.0190 -0.2432  0.5918
 7526SOL     OW34213   4.288   0.920   2.455 -0.0193 -0.1062 -0.0680
 7526SOL    HW134214   4.249   0.988   2.510  1.5885  1.5921 -1.0013
 7526SOL    HW234215   4.358   0.981   2.432 -0.8300  1.5513  1.8134
 7527SOL     OW34216   0.380   4.144  17.160 -0.4690 -0.1751  0.1817
 7527SOL    HW134217   0.334   4.162  17.077  0.7384 -0.4676 -0.5506
 7527SOL    HW234218   0.343   4.217  17.209 -2.2148 -1.0931  0.2359
 7528SOL     OW34219   4.435   4.229   6.907 -0.1695 -0.3665 -0.4385
 7528SOL    HW134220   4.439   4.324   6.904  2.6742 -0.4438  0.6537
 7528SOL    HW234221   4.353   4.210   6.862 -0.3694  0.4114 -0.3884
 7529SOL     OW34222   0.945   2.217  12.810  0.5420  0.2522  0.0085
 7529SOL    HW134223   0.872   2.170  12.771 -1.7174  2.4051  1.6395
 7529SOL    HW234224   0.950   2.299  12.760  1.7600  0.7016  0.8698
 7530SOL     OW34225   4.135   1.063   5.410 -0.3124 -0.0866  0.1811
 7530SOL    HW134226   4.118   1.108   5.327 -0.4380  2.1770  1.4360
 7530SOL    HW234227   4.187   1.127   5.458  1.3978 -0.8789 -0.6306
 7531SOL     OW34228   0.705   1.040   8.930  0.3627  0.2000  0.2265
 7531SOL    HW134229   0.682   0.950   8.952  0.6716  0.1070  0.1779
 7531SOL    HW234230   0.745   1.069   9.012 -1.4129 -2.0648  1.8751
 7532SOL     OW34231   2.000   1.704   2.158  0.1300 -0.4555  0.2440
 7532SOL    HW134232   2.007   1.799   2.151  1.1998 -0.5696 -0.2279
 7532SOL    HW234233   1.921   1.690   2.107  0.5455 -1.1277 -0.2242
 7533SOL     OW34234   0.044   1.950  16.017  1.0641 -0.0047  0.0105
 7533SOL    HW134235   4.701   1.921  16.066  1.7034  0.8465  1.5435
 7533SOL    HW234236   0.106   1.878  16.032  0.8281 -0.4399 -1.0996
 7534SOL     OW34237   3.965   0.764   8.380  0.0018 -0.8255  0.3095
 7534SOL    HW134238   4.015   0.773   8.300  0.0240 -0.3789  0.3781
 7534SOL    HW234239   3.959   0.668   8.386  1.1786 -0.9089 -0.0052
 7535SOL     OW34240   1.178   4.150   3.477 -0.0354  0.1463 -0.2925
 7535SOL    HW134241   1.241   4.186   3.540 -0.0477 -1.5787  0.7084
 7535SOL    HW234242   1.106   4.212   3.471  0.5534  0.8238 -0.3830
 7536SOL     OW34243   3.831   2.658   7.908  0.3793 -0.1962 -0.2341
 7536SOL    HW134244   3.918   2.646   7.946  0.8008 -0.2170 -1.2073
 7536SOL    HW234245   3.851   2.659   7.814  3.1977 -0.2758  0.3435
 7537SOL     OW34246   0.588   2.593   3.701  0.0697  0.0848 -0.3374
 7537SOL    HW134247   0.595   2.632   3.789  2.7684  1.4308 -1.1619
 7537SOL    HW234248   0.629   2.662   3.649 -1.5476  0.2607 -1.3946
 7538SOL     OW34249   2.400   0.140   6.975 -0.4649 -0.0234 -0.2370
 7538SOL    HW134250   2.379   0.163   6.885  0.0489 -2.0461 -0.8825
 7538SOL    HW234251   2.401   0.044   6.968 -2.3259  0.1256 -2.5457
 7539SOL     OW34252   1.803   1.259   9.090  0.0022  0.6540  0.1188
 7539SOL    HW134253   1.757   1.182   9.059  3.1762 -1.3077  0.2863
 7539SOL    HW234254   1.855   1.225   9.162 -1.8652 -1.2263  0.5493
 7540SOL     OW34255   2.837   0.668   6.521 -0.7472  0.0271 -0.6375
 7540SOL    HW134256   2.850   0.656   6.615  0.4990 -1.3999 -0.9869
 7540SOL    HW234257   2.919   0.638   6.482  0.2514  0.6630  1.0068
 7541SOL     OW34258   1.613   0.166  16.217 -0.5937  0.1442  0.4067
 7541SOL    HW134259   1.612   0.262  16.210 -1.0737  0.2795  2.3814
 7541SOL    HW234260   1.627   0.153  16.310  0.1591  4.1136  0.8457
 7542SOL     OW34261   1.560   3.255   3.483 -0.7496  0.6048  0.1821
 7542SOL    HW134262   1.572   3.331   3.539 -0.3975  1.0753 -0.5439
 7542SOL    HW234263   1.572   3.300   3.400  0.0468  1.0294  0.5265
 7543SOL     OW34264   4.639   3.618  13.218  0.1370  0.3208  0.2499
 7543SOL    HW134265   4.571   3.619  13.150  0.5563 -0.2997 -0.1771
 7543SOL    HW234266   4.702   3.556  13.183  2.0277  1.6965  1.2311
 7544SOL     OW34267   3.137   0.039   5.115  0.1650 -0.6110  0.3378
 7544SOL    HW134268   3.179   4.709   5.058  2.2080 -0.4251  1.5915
 7544SOL    HW234269   3.211   0.097   5.135  0.8050 -0.9557 -1.0121
 7545SOL     OW34270   1.862   3.794   3.479 -0.2552 -0.1393  0.0397
 7545SOL    HW134271   1.802   3.869   3.480  0.3496  0.3406  0.1468
 7545SOL    HW234272   1.902   3.798   3.566  1.1370  0.9697 -0.6530
 7546SOL     OW34273   3.591   3.373   7.090  0.0544  0.3459 -0.6948
 7546SOL    HW134274   3.631   3.286   7.095 -1.1613 -0.2163 -0.8230
 7546SOL    HW234275   3.574   3.395   7.181 -0.2478  0.7888 -0.8619
 7547SOL     OW34276   1.585   0.672   5.282 -0.3358 -0.1209  0.5776
 7547SOL    HW134277   1.548   0.744   5.334  1.4015  2.7752 -2.2452
 7547SOL    HW234278   1.540   0.688   5.199 -1.0468  1.4783  1.2615
 7548SOL     OW34279   2.673   0.095   6.997 -0.7391  0.3491  0.6086
 7548SOL    HW134280   2.577   0.095   6.989 -0.7870 -0.5588  1.2164
 7548SOL    HW234281   2.678   0.040   7.075  1.6297 -3.6307 -2.3853
 7549SOL     OW34282   1.778   3.009   5.751  0.2918  0.2157 -0.2039
 7549SOL    HW134283   1.743   2.980   5.835  0.7840  1.4827  0.4396
 7549SOL    HW234284   1.870   2.990   5.769 -0.0778 -0.4223  1.0192
 7550SOL     OW34285   3.982   1.838   7.241 -0.0107 -0.4532 -0.2129
 7550SOL    HW134286   4.021   1.857   7.327 -1.6579 -0.0546  0.4490
 7550SOL    HW234287   3.975   1.922   7.195 -0.5267 -0.2352  0.2655
 7551SOL     OW34288   4.680   1.990  14.199 -0.0067 -0.5714  0.3195
 7551SOL    HW134289   4.728   2.045  14.260  0.6735  0.5538 -1.2279
 7551SOL    HW234290   0.006   1.957  14.132  2.5342  1.0291  1.8367
 7552SOL     OW34291   0.483   3.518  10.230  0.4503 -0.3673 -0.3528
 7552SOL    HW134292   0.402   3.526  10.280 -0.3741  0.6284 -1.8364
 7552SOL    HW234293   0.536   3.463  10.288 -0.6097  2.4322  3.2218
 7553SOL     OW34294   2.082   0.938   5.487 -0.0655 -0.1642 -0.5123
 7553SOL    HW134295   2.164   0.981   5.509 -0.4376 -1.0380  2.5893
 7553SOL    HW234296   2.076   0.872   5.556 -0.0368 -0.2423 -0.5837
 7554SOL     OW34297   2.732   4.496   4.947  0.1220  0.1921  0.0079
 7554SOL    HW134298   2.792   4.570   4.953 -0.3377  0.5126  0.6659
 7554SOL    HW234299   2.642   4.521   4.925  0.1739  1.0516  0.7752
 7555SOL     OW34300   1.425   1.341   6.929 -0.4367  0.2665 -0.5375
 7555SOL    HW134301   1.435   1.391   6.848  0.9497 -2.1207 -1.8381
 7555SOL    HW234302   1.354   1.284   6.899  0.3089 -0.2657 -1.2889
 7556SOL     OW34303   4.366   1.140  13.082  0.1041 -0.2783 -0.2607
 7556SOL    HW134304   4.403   1.125  13.169 -0.3424  0.3394  0.0352
 7556SOL    HW234305   4.360   1.049  13.054 -0.3198 -0.8517  1.7073
 7557SOL     OW34306   4.713   3.887   2.855  0.0719 -0.8422 -0.4144
 7557SOL    HW134307   4.683   3.803   2.890 -1.2411 -1.0891 -2.1081
 7557SOL    HW234308   4.639   3.947   2.850  0.2357 -0.8104 -2.4555
 7558SOL     OW34309   3.409   3.003   9.069  0.1744  0.1858 -0.4305
 7558SOL    HW134310   3.319   2.988   9.099 -0.9159  2.6485 -2.5745
 7558SOL    HW234311   3.470   2.999   9.143  0.8155 -0.6881 -0.9999
 7559SOL     OW34312   4.100   1.049   1.909 -1.0342  0.7062  0.0688
 7559SOL    HW134313   4.084   1.022   2.000 -0.6520 -1.7063 -0.5955
 7559SOL    HW234314   4.186   1.008   1.912 -0.3126  2.1115 -2.2729
 7560SOL     OW34315   2.907   0.187   6.452 -0.2705 -0.4323  0.6893
 7560SOL    HW134316   2.951   0.255   6.502 -0.0143  0.2360 -0.4545
 7560SOL    HW234317   2.818   0.190   6.489 -0.6234 -1.7920 -0.0518
 7561SOL     OW34318   1.541   3.877  10.541  0.1912 -0.3697 -0.2347
 7561SOL    HW134319   1.518   3.841  10.627  0.4785  0.6239  0.2693
 7561SOL    HW234320   1.469   3.840  10.491  0.3278 -0.9719  0.0191
 7562SOL     OW34321   1.469   0.481   7.178 -0.3144 -0.6284 -0.0332
 7562SOL    HW134322   1.498   0.511   7.093 -1.9080  1.4821  0.1737
 7562SOL    HW234323   1.462   0.567   7.220  1.7547 -0.5975  0.2578
 7563SOL     OW34324   1.441   0.260   8.376  0.1543 -0.5245 -0.4504
 7563SOL    HW134325   1.380   0.216   8.317 -0.4716 -0.6249  0.2658
 7563SOL    HW234326   1.503   0.285   8.307  0.4680 -0.7916 -0.2690
 7564SOL     OW34327   2.120   3.366   9.395  0.1706  0.2220  0.8565
 7564SOL    HW134328   2.055   3.399   9.457 -1.1656  0.7124 -0.8028
 7564SOL    HW234329   2.141   3.283   9.438  0.1418 -0.6106 -0.7384
 7565SOL     OW34330   0.031   2.350   3.362  0.2156  0.2022  0.4226
 7565SOL    HW134331   0.105   2.405   3.387  2.0197 -2.0765  0.0793
 7565SOL    HW234332   4.697   2.415   3.346  0.1764 -0.8743 -3.7138
 7566SOL     OW34333   1.498   1.288  11.498 -0.2660 -0.0010  0.0611
 7566SOL    HW134334   1.501   1.380  11.470  0.4822  0.3412  1.2539
 7566SOL    HW234335   1.440   1.296  11.574  0.7633  0.9200  0.7512
 7567SOL     OW34336   4.343   2.438   4.948 -0.0817  0.1238 -0.2954
 7567SOL    HW134337   4.371   2.418   5.037  1.5621 -1.9588 -1.2749
 7567SOL    HW234338   4.417   2.481   4.905 -0.2937  0.2150 -0.5690
 7568SOL     OW34339   1.932   3.557   5.816  0.1717  0.0351 -0.4274
 7568SOL    HW134340   2.008   3.504   5.838  0.5270  0.7937  0.1804
 7568SOL    HW234341   1.865   3.510   5.865  1.3686 -2.1237 -0.8805
 7569SOL     OW34342   0.128   3.549   7.845 -0.4376  0.1319  0.3973
 7569SOL    HW134343   0.153   3.625   7.897 -0.9022  0.6124 -0.0861
 7569SOL    HW234344   0.037   3.558   7.819 -0.4418  1.0861  0.7360
 7570SOL     OW34345   2.752   1.366   9.084  0.2845 -0.0664  0.5139
 7570SOL    HW134346   2.798   1.410   9.156  2.1990 -0.0978 -0.6968
 7570SOL    HW234347   2.697   1.304   9.133 -1.0708  0.7990  0.0808
 7571SOL     OW34348   0.728   2.153   7.276  0.3446 -0.7093 -0.0373
 7571SOL    HW134349   0.682   2.113   7.202  0.7350  0.6485 -1.0113
 7571SOL    HW234350   0.718   2.083   7.341 -1.1509 -0.0661  0.4346
 7572SOL     OW34351   2.558   3.161   8.471 -0.4653 -0.7487 -0.3967
 7572SOL    HW134352   2.509   3.240   8.493  0.1309 -0.1881 -1.0825
 7572SOL    HW234353   2.599   3.152   8.557 -1.0622  0.0059 -0.0319
 7573SOL     OW34354   0.444   2.411   3.269 -0.1567 -0.2345 -0.8234
 7573SOL    HW134355   0.480   2.459   3.194  0.9473  1.8538  1.0478
 7573SOL    HW234356   0.517   2.358   3.300  0.1479  0.4944 -0.2928
 7574SOL     OW34357   0.562   4.010   6.833  0.2390  0.2084 -0.5547
 7574SOL    HW134358   0.579   4.103   6.818  0.7125  0.5505  2.1248
 7574SOL    HW234359   0.611   3.968   6.762  0.5401  2.6511 -1.8027
 7575SOL     OW34360   2.188   3.645   1.124  0.2097 -0.1661 -0.6203
 7575SOL    HW134361   2.119   3.591   1.087 -0.5065  1.4419 -1.6310
 7575SOL    HW234362   2.137   3.677   1.199 -0.3184 -0.1552 -0.9916
 7576SOL     OW34363   3.034   1.137  11.135 -0.2185  0.8042 -0.1027
 7576SOL    HW134364   2.996   1.212  11.180 -0.2067  2.4104 -2.7221
 7576SOL    HW234365   3.061   1.185  11.056 -1.5044 -0.0036 -1.0249
 7577SOL     OW34366   1.908   4.096   3.211  0.0519  1.0311  0.3490
 7577SOL    HW134367   1.952   4.084   3.295 -0.3675  2.4351  0.7661
 7577SOL    HW234368   1.984   4.106   3.153 -1.2142  5.0109 -0.5915
 7578SOL     OW34369   4.606   2.228   8.366  0.0286 -0.0366  0.2951
 7578SOL    HW134370   4.672   2.160   8.352 -2.6811 -2.7298  0.5237
 7578SOL    HW234371   4.547   2.207   8.294 -0.5427 -1.5436  1.1908
 7579SOL     OW34372   2.373   1.923  13.574 -0.3018 -0.4980  0.0555
 7579SOL    HW134373   2.355   1.921  13.480  0.1074 -2.8341  0.0185
 7579SOL    HW234374   2.407   1.835  13.588  0.4348  0.0220  1.4815
 7580SOL     OW34375   2.313   3.545  17.521 -0.6284  0.5593  0.4945
 7580SOL    HW134376   2.288   3.577  17.435 -1.7257 -0.3623  0.4599
 7580SOL    HW234377   2.313   3.451  17.502  0.1878  0.5753  0.4493
 7581SOL     OW34378   3.977   3.996   8.734 -0.1773  0.1082  0.0179
 7581SOL    HW134379   3.904   3.991   8.672  0.1799  0.0500 -0.3924
 7581SOL    HW234380   3.999   3.904   8.750  2.3702  0.6872 -0.2128
 7582SOL     OW34381   2.355   3.286  17.525  0.5225  0.1407 -0.3381
 7582SOL    HW134382   2.332   3.251  17.611 -1.1721 -2.1732 -1.7458
 7582SOL    HW234383   2.445   3.255  17.518 -0.4140 -3.5475  3.7075
 7583SOL     OW34384   3.090   1.968   5.171 -0.0641  0.2773 -0.5193
 7583SOL    HW134385   3.125   2.050   5.136 -1.1797  0.8386 -0.3177
 7583SOL    HW234386   3.009   1.992   5.215  0.0912  2.6088 -1.4938
 7584SOL     OW34387   3.513   0.312  13.991 -0.5359  0.2289 -0.2339
 7584SOL    HW134388   3.494   0.292  13.900 -0.0874 -1.0363 -0.0609
 7584SOL    HW234389   3.602   0.282  14.008  0.6693  2.9130 -1.8809
 7585SOL     OW34390   1.708   0.924   2.607  0.1408  0.7509 -0.2035
 7585SOL    HW134391   1.734   0.890   2.692  1.3508 -2.4349 -1.8525
 7585SOL    HW234392   1.789   0.922   2.557  0.8580 -2.1167  1.1007
 7586SOL     OW34393   3.503   1.967  10.727  0.3658  0.3819  0.1996
 7586SOL    HW134394   3.456   1.996  10.806 -1.6397  0.7711 -1.1314
 7586SOL    HW234395   3.525   2.047  10.680  2.4577  0.3025  1.0623
 7587SOL     OW34396   4.470   3.625  15.951 -0.7901 -0.8737 -0.4044
 7587SOL    HW134397   4.433   3.712  15.939  1.4265 -0.0209 -1.0581
 7587SOL    HW234398   4.488   3.598  15.861  0.2576  0.4124 -0.5706
 7588SOL     OW34399   4.554   2.966   6.487  0.3228  0.7451 -0.0469
 7588SOL    HW134400   4.620   2.897   6.496  0.9378  1.6685  2.5891
 7588SOL    HW234401   4.466   2.929   6.493  0.5056  0.1286 -1.2660
 7589SOL     OW34402   4.587   4.713   6.897  0.5788 -0.1317 -0.1494
 7589SOL    HW134403   4.507   4.691   6.850  0.9411  1.1815 -1.3859
 7589SOL    HW234404   4.606   0.063   6.856 -2.1563  1.5114  2.0393
 7590SOL     OW34405   2.396   2.205   9.124  0.2239 -0.0211  0.5648
 7590SOL    HW134406   2.432   2.133   9.072  1.2461  0.2102  0.9467
 7590SOL    HW234407   2.391   2.278   9.062  1.3919 -1.1813 -0.8895
 7591SOL     OW34408   1.305   0.374  10.778  0.6436 -0.2963 -0.0285
 7591SOL    HW134409   1.227   0.423  10.805  1.8500  0.0253  2.8235
 7591SOL    HW234410   1.294   0.305  10.843  1.2679 -0.7718 -0.4203
 7592SOL     OW34411   3.252   3.652   7.810 -0.2962  0.2658  0.7725
 7592SOL    HW134412   3.233   3.574   7.757  1.2844  0.2185  0.2760
 7592SOL    HW234413   3.335   3.673   7.768  1.4247  0.1361  4.1860
 7593SOL     OW34414   0.039   4.127   2.665  0.0012 -0.1809  0.5556
 7593SOL    HW134415   0.077   4.047   2.630 -1.5118 -0.9414  0.6419
 7593SOL    HW234416   0.099   4.151   2.735 -0.8919  1.0549  0.8929
 7594SOL     OW34417   1.383   3.603   8.030 -0.6194  0.2431  0.3832
 7594SOL    HW134418   1.354   3.672   8.089  3.1798  2.6721 -0.5955
 7594SOL    HW234419   1.433   3.546   8.089 -1.5808 -1.4923 -0.5010
 7595SOL     OW34420   0.787   1.773   4.320 -0.2488 -0.2851  0.3823
 7595SOL    HW134421   0.724   1.808   4.256 -0.9336 -1.6362  0.3134
 7595SOL    HW234422   0.781   1.846   4.381 -0.1672  0.9972 -1.1336
 7596SOL     OW34423   0.667   2.788   6.199 -0.0842 -0.2940  0.3809
 7596SOL    HW134424   0.665   2.749   6.112  0.2790 -0.8444  0.6185
 7596SOL    HW234425   0.692   2.708   6.244  0.6741  0.7288  1.7720
 7597SOL     OW34426   4.341   3.122  16.971 -0.2564 -0.0499 -0.4716
 7597SOL    HW134427   4.318   3.097  16.882  1.5988 -0.2812 -0.8822
 7597SOL    HW234428   4.381   3.206  16.952 -1.1103  0.0994 -1.5659
 7598SOL     OW34429   2.807   1.649   6.560 -0.3819  0.5638 -0.6520
 7598SOL    HW134430   2.723   1.628   6.519 -0.8839 -0.1687  0.7626
 7598SOL    HW234431   2.814   1.577   6.622 -1.3496  1.0042 -0.0327
 7599SOL     OW34432   1.088   2.455   4.268  0.5425  0.1009  0.1620
 7599SOL    HW134433   1.093   2.365   4.237  0.3766  0.1644 -0.0518
 7599SOL    HW234434   1.174   2.485   4.238  0.6738 -0.8372 -0.4006
 7600SOL     OW34435   1.932   2.398  14.582 -0.4938  1.0998  0.1399
 7600SOL    HW134436   1.837   2.393  14.594 -0.5458 -0.7019 -1.0679
 7600SOL    HW234437   1.937   2.490  14.557 -3.9361  0.7402 -1.8824
 7601SOL     OW34438   4.012   1.936  16.703 -0.1705  0.2171  0.7692
 7601SOL    HW134439   3.993   2.024  16.738 -1.9227  0.6398 -1.2711
 7601SOL    HW234440   3.942   1.890  16.751  1.2154 -0.5628  2.0399
 7602SOL     OW34441   4.369   2.849   2.466 -0.0625 -0.0362  0.5252
 7602SOL    HW134442   4.408   2.838   2.553 -0.1407  0.9183  0.6804
 7602SOL    HW234443   4.431   2.805   2.408  0.9679 -0.9604  2.3047
 7603SOL     OW34444   3.625   4.722   6.549  0.2029 -0.2990  0.1284
 7603SOL    HW134445   3.615   4.640   6.500 -0.9822 -2.0821  3.3712
 7603SOL    HW234446   3.597   4.696   6.636  0.1138 -0.8894 -0.0759
 7604SOL     OW34447   4.206   2.118   5.496 -0.4454  0.0484  0.7476
 7604SOL    HW134448   4.113   2.113   5.474 -0.0027 -1.4553 -0.7490
 7604SOL    HW234449   4.200   2.148   5.587 -0.0061 -0.2372  0.8693
 7605SOL     OW34450   2.072   2.446   6.069  0.0916  0.4679  0.1025
 7605SOL    HW134451   2.002   2.505   6.096  2.1687  1.8877  2.2806
 7605SOL    HW234452   2.104   2.433   6.158  0.6566  0.1034 -0.1555
 7606SOL     OW34453   2.920   0.149   5.959  0.0250  0.7381  0.1787
 7606SOL    HW134454   2.909   0.063   5.917  1.0732  1.6907 -2.0595
 7606SOL    HW234455   3.005   0.182   5.930  0.4555 -0.9328 -0.4674
 7607SOL     OW34456   2.633   3.830   3.030  0.4069 -0.2402  0.0892
 7607SOL    HW134457   2.637   3.804   3.122  1.2515 -4.8404 -1.2632
 7607SOL    HW234458   2.544   3.806   3.005 -0.0778 -0.4878  2.0740
 7608SOL     OW34459   0.450   1.350   8.751 -0.7140  0.6341  0.1211
 7608SOL    HW134460   0.452   1.367   8.845  0.7297  2.7546 -0.3048
 7608SOL    HW234461   0.386   1.279   8.759  2.1184 -2.0663 -1.1463
 7609SOL     OW34462   3.295   0.446  12.157  0.0302 -0.5038  0.2120
 7609SOL    HW134463   3.327   0.453  12.067 -1.6696 -4.5760 -0.7014
 7609SOL    HW234464   3.237   0.371  12.145  0.3208 -0.7958  0.6535
 7610SOL     OW34465   0.751   4.090  12.542  0.7301  0.1830  0.5091
 7610SOL    HW134466   0.811   4.084  12.617  0.1691 -1.8990  0.7814
 7610SOL    HW234467   0.788   4.161  12.488 -0.0045  0.9061  0.9498
 7611SOL     OW34468   0.731   3.388   1.678 -0.2343  0.8991  0.2438
 7611SOL    HW134469   0.675   3.457   1.641 -1.1459 -0.5271 -1.0110
 7611SOL    HW234470   0.757   3.339   1.600 -1.5714  1.1840 -0.3800
 7612SOL     OW34471   1.455   3.752   6.873  0.0657  0.0072  0.0526
 7612SOL    HW134472   1.424   3.765   6.784 -0.1057 -0.7959 -0.0059
 7612SOL    HW234473   1.468   3.843   6.901 -0.8303 -0.2404  1.2733
 7613SOL     OW34474   1.586   0.188   2.902 -0.2818 -0.2789 -0.1987
 7613SOL    HW134475   1.594   0.130   2.977  1.9084 -1.4099 -1.2947
 7613SOL    HW234476   1.504   0.235   2.917  0.3319  0.8094 -0.2470
 7614SOL     OW34477   0.565   2.545  17.040 -0.4404 -0.6363  0.5435
 7614SOL    HW134478   0.532   2.600  16.968 -0.4326  1.0238  1.8172
 7614SOL    HW234479   0.482   2.500  17.054  0.4104 -1.6720  2.1745
 7615SOL     OW34480   0.953   0.917   4.846 -0.0311  0.1539 -0.0770
 7615SOL    HW134481   0.964   1.006   4.880  0.7366 -0.2851  0.8255
 7615SOL    HW234482   0.972   0.869   4.926 -0.1356 -0.3978 -0.3864
 7616SOL     OW34483   4.126   3.513   3.709 -0.3173  0.2588 -0.2123
 7616SOL    HW134484   4.088   3.503   3.621  1.2367  0.2679 -0.8797
 7616SOL    HW234485   4.105   3.432   3.756  2.2330 -0.3770 -0.1718
 7617SOL     OW34486   3.073   2.599   9.104  0.6393 -0.4577 -0.5196
 7617SOL    HW134487   2.995   2.636   9.145 -0.3086 -2.6325 -0.3294
 7617SOL    HW234488   3.035   2.538   9.040  0.2760 -0.6065 -0.1626
 7618SOL     OW34489   0.608   2.980   9.664  0.2047  1.2230  0.2456
 7618SOL    HW134490   0.551   2.929   9.721  1.2908 -0.3722 -0.1059
 7618SOL    HW234491   0.666   3.017   9.731  1.9379  0.6601 -0.9255
 7619SOL     OW34492   3.240   2.572   6.744 -0.2915 -0.5545  0.0416
 7619SOL    HW134493   3.177   2.519   6.696 -0.4983  0.4127 -0.7414
 7619SOL    HW234494   3.197   2.567   6.829 -0.3559  0.4081  0.0670
 7620SOL     OW34495   1.290   1.757   4.894  0.4657 -0.0515  0.5166
 7620SOL    HW134496   1.250   1.729   4.977 -2.5263 -1.6332 -1.4809
 7620SOL    HW234497   1.206   1.782   4.856  1.3150  0.4116 -1.0282
 7621SOL     OW34498   1.110   2.028   0.838  0.6758 -0.0352  0.4458
 7621SOL    HW134499   1.167   1.954   0.855  2.2570  1.0380 -0.1831
 7621SOL    HW234500   1.069   2.004   0.755 -1.5080  1.4261  1.0964
 7622SOL     OW34501   4.346   3.709   2.848 -0.6662 -0.3451 -0.2003
 7622SOL    HW134502   4.420   3.755   2.808  0.9711 -3.4781 -0.7485
 7622SOL    HW234503   4.366   3.719   2.942  0.2914 -1.0295 -0.3364
 7623SOL     OW34504   4.209   3.507   2.190  0.6920  0.2530  0.1206
 7623SOL    HW134505   4.154   3.449   2.243  1.4086  0.4686  1.0914
 7623SOL    HW234506   4.183   3.474   2.103  1.0859 -1.2568  0.5800
 7624SOL     OW34507   2.891   1.171   9.584  0.1186  0.7167  0.3087
 7624SOL    HW134508   2.934   1.108   9.642  2.4735  1.5121 -0.6099
 7624SOL    HW234509   2.875   1.247   9.640 -3.2104  0.5348 -0.3704
 7625SOL     OW34510   2.758   1.409  12.668  0.3785 -0.7484 -0.0448
 7625SOL    HW134511   2.808   1.452  12.599 -2.7481  0.6848 -1.4017
 7625SOL    HW234512   2.763   1.486  12.725 -0.4555 -0.1795 -0.7499
 7626SOL     OW34513   3.762   3.980  14.650  0.0807 -0.3096 -0.0408
 7626SOL    HW134514   3.701   3.955  14.582 -0.0314 -2.2489  0.7741
 7626SOL    HW234515   3.779   3.894  14.688 -1.8935 -0.4520  0.5272
 7627SOL     OW34516   3.858   2.091   7.598 -0.2266  0.0633 -0.2567
 7627SOL    HW134517   3.817   2.174   7.574 -0.6770 -0.0075  0.2725
 7627SOL    HW234518   3.948   2.123   7.596 -0.4485  0.7985  1.9686
 7628SOL     OW34519   0.835   2.543   3.977 -0.5141 -0.0585  0.5582
 7628SOL    HW134520   0.765   2.605   3.957 -1.7990 -1.3952  0.8718
 7628SOL    HW234521   0.794   2.490   4.046 -1.3563 -0.4129 -0.2058
 7629SOL     OW34522   0.438   2.844   3.544 -0.2191 -0.0758 -0.6268
 7629SOL    HW134523   0.504   2.775   3.532  0.8555  0.5131  1.8441
 7629SOL    HW234524   0.491   2.921   3.526 -3.2868  1.6735 -2.0045
 7630SOL     OW34525   3.253   2.304   8.954 -0.2168 -0.3769 -0.1358
 7630SOL    HW134526   3.235   2.276   8.864 -0.9889  2.2803 -0.8105
 7630SOL    HW234527   3.308   2.382   8.940  1.1486 -1.3066  0.0316
 7631SOL     OW34528   0.278   4.456   3.065 -0.2259 -0.1667 -0.3720
 7631SOL    HW134529   0.193   4.414   3.053 -1.1681  1.6128  0.0049
 7631SOL    HW234530   0.276   4.500   3.150  0.6399  1.9132 -1.4113
 7632SOL     OW34531   3.274   1.055   6.748  0.1369 -0.4201 -0.0419
 7632SOL    HW134532   3.206   1.004   6.792 -1.6345  0.0105 -2.2777
 7632SOL    HW234533   3.238   1.142   6.767  1.4392 -0.4592  2.5154
 7633SOL     OW34534   3.967   2.476   7.216  0.2188 -0.2442  0.0209
 7633SOL    HW134535   4.034   2.535   7.252 -0.5103  1.0440 -0.7242
 7633SOL    HW234536   3.914   2.535   7.163  0.7016 -0.3427 -0.5727
 7634SOL     OW34537   4.301   2.504   1.755  0.1218 -0.0175  0.2292
 7634SOL    HW134538   4.232   2.450   1.792 -0.6429 -0.0337 -1.1967
 7634SOL    HW234539   4.361   2.429   1.755  1.0778  0.7539 -1.1413
 7635SOL     OW34540   4.663   2.503   9.456 -0.2966 -0.0881  0.5862
 7635SOL    HW134541   4.579   2.466   9.483 -1.7002  1.6910 -1.2907
 7635SOL    HW234542   4.631   2.579   9.407  0.2769 -0.8548 -0.9806
 7636SOL     OW34543   3.226   4.390  17.017 -0.6879 -0.2996 -0.4304
 7636SOL    HW134544   3.224   4.303  16.977 -1.5964 -0.0194 -0.9861
 7636SOL    HW234545   3.180   4.370  17.098  3.2914 -0.4145  1.8129
 7637SOL     OW34546   2.056   1.601  15.367 -0.1948 -0.0476  0.2777
 7637SOL    HW134547   2.124   1.665  15.346  0.5979 -1.0879 -0.3452
 7637SOL    HW234548   2.057   1.537  15.296 -1.9851  1.0794 -0.7498
 7638SOL     OW34549   1.848   4.213   9.532  0.1222 -0.0044 -0.2797
 7638SOL    HW134550   1.791   4.220   9.609  0.9803  0.7852  0.2724
 7638SOL    HW234551   1.924   4.180   9.580 -1.2912 -2.4499  0.2862
 7639SOL     OW34552   1.877   0.125  12.722 -0.0149  0.3953 -0.2027
 7639SOL    HW134553   1.818   0.200  12.724 -0.3423  0.1882 -1.7966
 7639SOL    HW234554   1.832   0.061  12.666 -0.0503 -0.0989  0.3933
 7640SOL     OW34555   1.805   3.645   5.572  0.0850 -0.9253 -0.0109
 7640SOL    HW134556   1.713   3.655   5.597  0.8805  0.8963  2.1880
 7640SOL    HW234557   1.847   3.605   5.647  0.8443  0.2109  0.1670
 7641SOL     OW34558   1.005   0.368   7.767  0.1232  0.1340 -1.1458
 7641SOL    HW134559   1.025   0.300   7.702  0.8448 -1.7498  1.0567
 7641SOL    HW234560   0.921   0.334   7.800  0.6573  0.0659  0.1432
 7642SOL     OW34561   4.375   1.511   3.353 -0.1871 -0.7597 -0.1245
 7642SOL    HW134562   4.372   1.415   3.350  0.8077 -0.8208  1.1415
 7642SOL    HW234563   4.379   1.528   3.259  0.1143 -1.6510 -0.2779
 7643SOL     OW34564   3.540   2.586  12.603  0.0665  0.2791  0.6170
 7643SOL    HW134565   3.520   2.493  12.597 -2.0570  0.7212  0.7609
 7643SOL    HW234566   3.617   2.591  12.547  0.7744  0.1253  1.5648
 7644SOL     OW34567   4.168   4.339   6.178 -0.5911 -0.1964  0.0045
 7644SOL    HW134568   4.133   4.280   6.244 -0.4678  0.9635  1.1137
 7644SOL    HW234569   4.149   4.295   6.095  1.4376 -2.8584  0.9395
 7645SOL     OW34570   2.145   4.465   9.136 -0.4791 -0.1199 -0.6221
 7645SOL    HW134571   2.186   4.522   9.202  1.1346 -0.9540 -0.8932
 7645SOL    HW234572   2.056   4.499   9.132  0.9642  3.7611  0.1346
 7646SOL     OW34573   0.085   0.695   2.964 -0.2112 -0.4013 -0.5739
 7646SOL    HW134574   0.096   0.724   2.874 -0.4906  3.8959  0.7811
 7646SOL    HW234575   0.169   0.657   2.989  0.8935  2.5025  0.0813
 7647SOL     OW34576   1.604   4.454   8.445 -0.0704 -0.3589 -0.6701
 7647SOL    HW134577   1.611   4.362   8.419 -1.4386 -1.2010  1.9301
 7647SOL    HW234578   1.522   4.481   8.405  0.7496  0.9698 -1.4466
 7648SOL     OW34579   4.734   0.218   4.353 -0.1553 -0.7824 -0.1872
 7648SOL    HW134580   4.729   0.243   4.261  0.5841 -0.7949 -0.2310
 7648SOL    HW234581   4.640   0.197   4.359 -0.0502 -1.3917 -0.6348
 7649SOL     OW34582   4.268   4.407   1.977  0.5093 -0.0957 -0.3896
 7649SOL    HW134583   4.234   4.494   2.001  1.3483  0.5676 -1.5894
 7649SOL    HW234584   4.196   4.352   2.006 -1.3356  0.4252 -4.0026
 7650SOL     OW34585   4.553   0.800   5.472  0.7491  0.4037 -0.4851
 7650SOL    HW134586   4.609   0.870   5.439  1.8954 -1.4952 -2.5793
 7650SOL    HW234587   4.477   0.850   5.441  1.3822  2.7155  1.6843
 7651SOL     OW34588   1.130   1.260   9.029 -0.0891  0.3524  0.1819
 7651SOL    HW134589   1.066   1.253   9.100  1.3408  0.0127  1.4489
 7651SOL    HW234590   1.076   1.262   8.949 -1.6812 -1.2198  1.1983
 7652SOL     OW34591   2.572   3.130  13.795  0.0943 -0.1883 -0.2195
 7652SOL    HW134592   2.489   3.178  13.799  0.4177  0.4245 -0.7846
 7652SOL    HW234593   2.551   3.042  13.827 -0.5227  1.1784  3.1650
 7653SOL     OW34594   1.150   1.610   3.135 -0.4975  0.1454  0.6610
 7653SOL    HW134595   1.240   1.597   3.104 -0.5379 -1.8894  1.3531
 7653SOL    HW234596   1.121   1.642   3.049 -0.5042 -2.0494 -0.1514
 7654SOL     OW34597   0.614   0.276   6.910  0.4284  0.3552 -0.2121
 7654SOL    HW134598   0.584   0.315   6.992 -0.9496  0.4523 -0.7632
 7654SOL    HW234599   0.693   0.328   6.895  0.9194 -0.1956  0.4176
 7655SOL     OW34600   4.128   3.273  14.294 -0.0487 -0.0642  0.1325
 7655SOL    HW134601   4.185   3.309  14.226  0.5248 -1.2316  0.0074
 7655SOL    HW234602   4.052   3.331  14.289  1.4456  1.9272  0.2606
 7656SOL     OW34603   0.687   2.512  10.440  0.0815 -0.1187  0.3976
 7656SOL    HW134604   0.765   2.457  10.428 -0.3071 -0.7684  0.8586
 7656SOL    HW234605   0.698   2.519  10.535  1.1078  0.2881  0.2540
 7657SOL     OW34606   2.612   0.789  17.417 -0.5205  0.3751  0.0659
 7657SOL    HW134607   2.548   0.759  17.352  0.2950 -0.4614 -0.3590
 7657SOL    HW234608   2.574   0.871  17.448  2.2731  1.5073  0.5317
 7658SOL     OW34609   4.630   3.182  14.276  0.2669  0.5735 -0.4148
 7658SOL    HW134610   4.584   3.159  14.357 -0.7415  1.4930 -0.7262
 7658SOL    HW234611   4.597   3.272  14.272 -0.0056  0.5744  1.5795
 7659SOL     OW34612   1.150   1.020  14.133 -0.1265  0.2246  0.5723
 7659SOL    HW134613   1.093   1.080  14.085 -2.0329 -0.7863  1.5725
 7659SOL    HW234614   1.204   0.997  14.058  2.4890 -0.8434  2.7950
 7660SOL     OW34615   4.406   2.638   7.389  0.1091  0.0282  0.0903
 7660SOL    HW134616   4.411   2.543   7.396  0.2969 -0.0767 -1.5080
 7660SOL    HW234617   4.366   2.658   7.473  0.2826 -1.5378  0.5318
 7661SOL     OW34618   3.829   4.262   4.405 -0.2769 -0.7511 -0.0045
 7661SOL    HW134619   3.775   4.184   4.391 -0.0219 -0.7941 -0.7548
 7661SOL    HW234620   3.914   4.227   4.380 -0.2726  1.7045 -3.4003
 7662SOL     OW34621   4.498   1.778   2.320 -0.3486 -0.0443 -0.0062
 7662SOL    HW134622   4.428   1.717   2.345 -1.0297  2.2724  3.7045
 7662SOL    HW234623   4.533   1.799   2.406  0.8821  1.4786 -0.8843
 7663SOL     OW34624   2.447   2.368   9.543 -0.2959 -0.1024  0.4838
 7663SOL    HW134625   2.403   2.304   9.488 -1.6609  1.1659  0.1247
 7663SOL    HW234626   2.390   2.440   9.517  1.9812  1.1857 -0.9233
 7664SOL     OW34627   2.589   0.406  10.543  0.4087 -0.0837 -0.5415
 7664SOL    HW134628   2.676   0.422  10.578  0.2734 -0.2909 -0.1066
 7664SOL    HW234629   2.581   0.493  10.504 -0.7758 -0.5598 -1.3732
 7665SOL     OW34630   1.343   2.340   2.587 -0.5144 -0.2946 -0.2535
 7665SOL    HW134631   1.295   2.263   2.556 -0.5980 -1.0379  1.7186
 7665SOL    HW234632   1.428   2.319   2.548 -0.8333 -1.4646 -0.3427
 7666SOL     OW34633   4.138   1.651   5.087  0.2991 -0.6844 -0.5680
 7666SOL    HW134634   4.110   1.657   4.995  0.4092 -3.1375 -0.7618
 7666SOL    HW234635   4.064   1.690   5.133  1.8336  1.5087  0.0131
 7667SOL     OW34636   0.464   2.443   0.115  0.4469  0.3151  0.5365
 7667SOL    HW134637   0.470   2.437   0.019 -3.6534 -0.9227  0.3714
 7667SOL    HW234638   0.547   2.489   0.125  0.3867  0.0329  2.3223
 7668SOL     OW34639   0.252   3.241  16.414 -0.4163  0.5272 -0.0946
 7668SOL    HW134640   0.314   3.172  16.438 -0.9335 -0.1569 -0.7477
 7668SOL    HW234641   0.230   3.269  16.503  2.1995  3.0121 -0.2110
 7669SOL     OW34642   2.537   2.682  15.225  0.3908 -0.6887 -0.0475
 7669SOL    HW134643   2.467   2.741  15.198  0.8746 -0.0119  0.1555
 7669SOL    HW234644   2.574   2.726  15.302 -1.6160  0.3014  0.3355
 7670SOL     OW34645   2.336   1.161   7.370 -0.8362  0.3088 -0.0217
 7670SOL    HW134646   2.420   1.199   7.394 -0.8253 -0.2457  0.8239
 7670SOL    HW234647   2.363   1.069   7.359  0.1874  0.5142  0.8048
 7671SOL     OW34648   4.209   4.249   1.769 -0.1678  0.2179  0.0227
 7671SOL    HW134649   4.138   4.254   1.833 -0.7699 -0.9226 -0.5633
 7671SOL    HW234650   4.283   4.289   1.815 -1.9162  1.8592  1.3826
 7672SOL     OW34651   0.157   4.249   6.754 -0.1325 -0.3114  0.4629
 7672SOL    HW134652   0.146   4.337   6.717  0.5427 -0.3567  0.1575
 7672SOL    HW234653   0.150   4.265   6.849  3.2055 -1.6464  0.9655
 7673SOL     OW34654   3.346   1.154   7.539 -0.0892  0.1321  0.2376
 7673SOL    HW134655   3.420   1.192   7.587 -0.8202 -0.3802  1.7846
 7673SOL    HW234656   3.312   1.091   7.603 -0.3985 -0.5239 -0.5791
 7674SOL     OW34657   1.000   3.779   5.132 -0.1055  0.8549 -0.2184
 7674SOL    HW134658   0.978   3.741   5.048  0.3181 -3.1537  1.5075
 7674SOL    HW234659   1.094   3.760   5.134 -0.2288  0.2001 -0.9376
 7675SOL     OW34660   2.125   0.364  11.570  0.2910 -0.4564  0.1951
 7675SOL    HW134661   2.092   0.304  11.636  0.4229 -1.7781 -0.9381
 7675SOL    HW234662   2.124   0.445  11.621 -4.1803  0.4284 -1.3140
 7676SOL     OW34663   1.103   0.147   8.585  1.1259 -0.2091  0.4487
 7676SOL    HW134664   1.189   0.138   8.625  2.0949  0.0051 -1.5875
 7676SOL    HW234665   1.062   0.074   8.632  0.2619 -0.7568 -1.1543
 7677SOL     OW34666   2.878   0.140   7.823 -0.4556  0.4532  0.3775
 7677SOL    HW134667   2.822   0.074   7.864 -1.0127  1.8541  1.8801
 7677SOL    HW234668   2.904   0.198   7.894 -0.1886  0.9999 -0.1626
 7678SOL     OW34669   0.729   0.388   1.783  0.7806 -0.2250  0.0066
 7678SOL    HW134670   0.781   0.309   1.795 -2.4278 -2.2302  0.8229
 7678SOL    HW234671   0.781   0.439   1.721  1.4645  0.0512  0.8046
 7679SOL     OW34672   2.385   2.027   6.428  0.3981  0.3596 -0.2762
 7679SOL    HW134673   2.449   2.081   6.475 -0.0228 -1.1009  1.9850
 7679SOL    HW234674   2.351   2.080   6.356  0.2202 -2.2458 -2.0984
 7680SOL     OW34675   2.307   4.216   1.920  0.5044 -0.9821 -0.6412
 7680SOL    HW134676   2.264   4.193   2.003  1.2125  1.0586  0.3091
 7680SOL    HW234677   2.344   4.294   1.962 -0.3902  0.5117 -2.6464
 7681SOL     OW34678   4.717   2.356   3.849  0.0468 -0.5846 -0.1311
 7681SOL    HW134679   0.042   2.291   3.812  0.9176 -1.4132  2.7540
 7681SOL    HW234680   0.014   2.369   3.938  1.5094 -0.0481 -0.7238
 7682SOL     OW34681   4.129   0.236   4.825 -0.1475  0.0130  0.2898
 7682SOL    HW134682   4.128   0.330   4.808  1.6927  0.1142  0.7516
 7682SOL    HW234683   4.222   0.229   4.849 -0.2953 -0.7093  0.6426
 7683SOL     OW34684   3.687   2.866   4.138  0.0308 -0.1427 -0.3685
 7683SOL    HW134685   3.614   2.909   4.182  0.3248 -0.0275  0.0157
 7683SOL    HW234686   3.657   2.870   4.048  1.3358  3.1605 -0.6594
 7684SOL     OW34687   1.956   0.387   4.165  0.1766  0.6738 -0.5056
 7684SOL    HW134688   1.947   0.300   4.205 -0.8755 -0.5849 -3.5234
 7684SOL    HW234689   1.880   0.439   4.191  1.3537  1.7305  0.8379
 7685SOL     OW34690   1.114   4.353   6.970 -0.0999 -0.3563  0.0390
 7685SOL    HW134691   1.023   4.368   6.944  0.6395  0.4104 -2.1406
 7685SOL    HW234692   1.156   4.438   6.958  1.0367 -0.9191 -0.0574
 7686SOL     OW34693   1.091   2.568   3.930  0.7655 -0.5637  0.0484
 7686SOL    HW134694   1.084   2.658   3.899  0.7716  0.0740  1.8785
 7686SOL    HW234695   1.001   2.563   3.963  0.9409 -1.5283  0.3720
 7687SOL     OW34696   1.240   0.493   9.422  0.4741 -0.4512  0.0861
 7687SOL    HW134697   1.177   0.532   9.482 -0.3365  2.3247 -2.5437
 7687SOL    HW234698   1.318   0.545   9.438  1.6331 -2.3364  0.5986
 7688SOL     OW34699   3.803   1.156   7.063 -0.2297 -0.2947  0.7772
 7688SOL    HW134700   3.859   1.085   7.032  0.5423  1.9428 -3.0086
 7688SOL    HW234701   3.714   1.125   7.051 -0.6107  0.9884  0.2777
 7689SOL     OW34702   2.208   2.150   8.156  0.5608  0.2763 -0.1443
 7689SOL    HW134703   2.254   2.127   8.075  3.9110  0.6229  1.6600
 7689SOL    HW234704   2.211   2.245   8.148 -3.5174  0.3460 -0.7226
 7690SOL     OW34705   4.150   4.462  17.572  0.5864 -0.3912 -0.0825
 7690SOL    HW134706   4.091   4.420  17.510 -0.1557 -0.3913  0.6312
 7690SOL    HW234707   4.214   4.392  17.579 -1.2299 -2.1317 -0.9796
 7691SOL     OW34708   3.335   2.319   3.993  0.2787 -0.2443  0.0695
 7691SOL    HW134709   3.404   2.309   4.059 -2.6729  2.4236  3.5318
 7691SOL    HW234710   3.361   2.395   3.941  0.7217  1.0031  2.1350
 7692SOL     OW34711   0.332   2.039   0.306 -0.3747  0.2433  0.6702
 7692SOL    HW134712   0.398   2.101   0.275  0.7054 -0.3865  1.7165
 7692SOL    HW234713   0.258   2.065   0.251  0.2940 -1.3806 -0.9870
 7693SOL     OW34714   0.360   4.031   7.322  0.0918  0.3419 -0.2350
 7693SOL    HW134715   0.349   4.108   7.267 -1.3036  0.0769 -0.3249
 7693SOL    HW234716   0.316   3.968   7.264 -1.1939 -1.1147  2.3366
 7694SOL     OW34717   3.854   2.039   2.339 -0.4531  0.1365  0.0758
 7694SOL    HW134718   3.885   1.951   2.361  1.1963  1.0749  1.5375
 7694SOL    HW234719   3.768   2.020   2.302 -0.0242 -0.8566 -0.4206
 7695SOL     OW34720   0.349   0.615   3.055  0.0279  0.7719 -0.7944
 7695SOL    HW134721   0.338   0.539   3.113  0.7483  1.5975  0.4153
 7695SOL    HW234722   0.399   0.576   2.983  0.4616 -0.6570  0.2731
 7696SOL     OW34723   2.062   3.828  17.697  0.2451 -0.3566  0.1046
 7696SOL    HW134724   2.129   3.882  17.654 -0.7241  2.2133  1.8289
 7696SOL    HW234725   2.043   3.761  17.631 -4.2501 -0.1986  1.2350
 7697SOL     OW34726   2.864   0.562   8.152 -0.0809  0.0173  0.5558
 7697SOL    HW134727   2.871   0.623   8.078  1.6787 -0.3907  0.3920
 7697SOL    HW234728   2.897   0.616   8.224  0.0527  1.8698 -0.8885
 7698SOL     OW34729   1.914   1.864   5.821  0.7502 -0.3112  0.0538
 7698SOL    HW134730   1.859   1.818   5.757 -1.1255 -0.1730  1.5559
 7698SOL    HW234731   1.955   1.933   5.769 -0.8327 -0.2574 -1.1345
 7699SOL     OW34732   2.005   4.268   2.862 -0.0667 -0.0803  0.2867
 7699SOL    HW134733   2.050   4.351   2.874  1.7309 -1.1582  0.9496
 7699SOL    HW234734   2.057   4.206   2.914 -0.8518 -1.2853 -0.3542
 7700SOL     OW34735   4.650   1.353  11.218  0.0978 -0.1633  0.0405
 7700SOL    HW134736   4.687   1.384  11.301  0.9473  0.0060 -0.3996
 7700SOL    HW234737   4.660   1.432  11.165  0.6051 -0.7848 -0.7981
 7701SOL     OW34738   3.207   1.801   3.139 -0.6227 -0.1502 -0.4023
 7701SOL    HW134739   3.300   1.815   3.155 -0.7246 -0.2161  0.2409
 7701SOL    HW234740   3.208   1.727   3.079  0.8768  0.6189 -1.3214
 7702SOL     OW34741   2.847   3.549  13.434 -0.1651  0.1607 -0.5403
 7702SOL    HW134742   2.897   3.533  13.513 -2.5565  0.9379  1.1413
 7702SOL    HW234743   2.920   3.579  13.379  0.3011  0.6144  0.3339
 7703SOL     OW34744   4.411   1.505   8.740  0.0903  0.0122  0.2025
 7703SOL    HW134745   4.410   1.584   8.686 -0.5165  0.8996  1.4920
 7703SOL    HW234746   4.349   1.527   8.810 -0.5159 -0.3104 -0.2325
 7704SOL     OW34747   0.117   3.532  13.055 -0.1333  0.0676 -0.5508
 7704SOL    HW134748   0.076   3.566  12.975  1.5062  0.7922 -1.0768
 7704SOL    HW234749   0.104   3.438  13.049  1.1112 -0.1560  0.3526
 7705SOL     OW34750   0.154   1.532   6.373 -0.0831 -0.4774  0.1624
 7705SOL    HW134751   0.079   1.504   6.321 -0.6334 -0.9329  1.1834
 7705SOL    HW234752   0.112   1.539   6.460  0.6379 -0.8712  0.5386
 7706SOL     OW34753   3.079   4.494   1.780 -0.2808 -0.2931 -0.5279
 7706SOL    HW134754   3.113   4.410   1.749 -1.7912 -1.7874  1.8661
 7706SOL    HW234755   2.999   4.495   1.728  0.2185  3.6441 -1.2668
 7707SOL     OW34756   3.195   3.529  17.532  0.0590  0.5394  0.7292
 7707SOL    HW134757   3.119   3.574  17.495  1.0023  0.5455 -1.2079
 7707SOL    HW234758   3.173   3.442  17.500  2.5018 -0.3077  1.3347
 7708SOL     OW34759   4.175   1.981   4.276  0.2713 -0.2865 -0.2755
 7708SOL    HW134760   4.157   1.918   4.345 -0.8991  0.5742  0.2185
 7708SOL    HW234761   4.089   1.982   4.235 -0.4152  0.1886  1.1722
 7709SOL     OW34762   2.504   1.571   3.930  0.6935  0.0702  0.2838
 7709SOL    HW134763   2.479   1.638   3.994 -1.6113 -0.5615  0.0418
 7709SOL    HW234764   2.417   1.559   3.892  1.8816 -4.6806 -0.8438
 7710SOL     OW34765   3.948   2.216   2.642  0.4225 -0.1137  0.2651
 7710SOL    HW134766   3.987   2.200   2.728 -0.8684  0.8759  1.0285
 7710SOL    HW234767   4.019   2.269   2.606  0.4374 -1.0172 -1.0302
 7711SOL     OW34768   4.717   4.530   5.558 -0.6905 -0.3298 -0.2592
 7711SOL    HW134769   4.641   4.538   5.501  0.1564 -0.1794 -1.3607
 7711SOL    HW234770   0.034   4.606   5.529  1.5020 -0.8069  2.3388
 7712SOL     OW34771   4.528   2.485   1.252  0.0726 -0.3111 -0.1310
 7712SOL    HW134772   4.620   2.490   1.224  0.5107  1.5013  1.6401
 7712SOL    HW234773   4.543   2.458   1.342  0.1986 -0.0633 -0.0780
 7713SOL     OW34774   1.547   1.351  16.372  0.5280  0.0142  0.3153
 7713SOL    HW134775   1.589   1.265  16.362 -0.0982 -0.5644  2.6893
 7713SOL    HW234776   1.463   1.333  16.329 -0.7528  4.5052  0.8880
 7714SOL     OW34777   0.520   4.060   3.619  0.0769 -0.3143 -0.8208
 7714SOL    HW134778   0.570   3.994   3.668  1.3975  1.6979  0.5222
 7714SOL    HW234779   0.578   4.057   3.543  0.2982 -1.2276 -0.6142
 7715SOL     OW34780   2.287   0.491  16.886 -0.3062 -0.5518 -0.1328
 7715SOL    HW134781   2.218   0.551  16.860 -0.7753 -1.1790 -0.3161
 7715SOL    HW234782   2.245   0.415  16.846 -0.9332 -1.1087  1.5600
 7716SOL     OW34783   0.503   3.037   6.155 -0.0217  0.4155 -0.4250
 7716SOL    HW134784   0.445   2.969   6.120 -0.8217  0.0352  1.6629
 7716SOL    HW234785   0.579   3.026   6.098 -1.4412 -2.5682 -1.7775
 7717SOL     OW34786   0.435   1.619   2.146 -0.4164  0.3098 -0.4215
 7717SOL    HW134787   0.422   1.661   2.232 -0.4743 -0.0078 -0.2757
 7717SOL    HW234788   0.357   1.567   2.130  0.5498 -0.7819 -1.5602
 7718SOL     OW34789   1.822   0.189   4.814  0.4234  0.0595 -0.2219
 7718SOL    HW134790   1.800   0.096   4.813  1.2988 -0.1616  2.2252
 7718SOL    HW234791   1.916   0.175   4.817  0.4521  0.4630  0.8679
 7719SOL     OW34792   1.767   1.802   7.099 -0.0664 -0.3191 -0.0035
 7719SOL    HW134793   1.820   1.858   7.155 -0.8708 -0.2768  0.7293
 7719SOL    HW234794   1.747   1.727   7.155 -1.5549 -0.9039 -1.2990
 7720SOL     OW34795   2.354   3.128   2.685 -0.3446 -0.0490  0.0170
 7720SOL    HW134796   2.349   3.221   2.707 -0.0550 -0.2063  0.7355
 7720SOL    HW234797   2.323   3.140   2.595  2.5465 -1.8531 -1.2277
 7721SOL     OW34798   1.146   2.614   2.010 -0.0734 -0.0402 -0.0571
 7721SOL    HW134799   1.205   2.672   1.963 -2.0065  1.1384 -1.0388
 7721SOL    HW234800   1.071   2.633   1.953 -0.1848  0.2080  0.1685
 7722SOL     OW34801   2.955   4.446   7.141 -0.0205  0.1733 -0.1390
 7722SOL    HW134802   2.906   4.505   7.198 -0.8511 -0.2591 -0.4035
 7722SOL    HW234803   2.901   4.443   7.062 -2.0967 -0.3092  1.2957
 7723SOL     OW34804   2.443   4.599   7.043  0.1422 -0.2901 -0.3225
 7723SOL    HW134805   2.499   4.595   7.120  0.6557 -0.3746 -0.6981
 7723SOL    HW234806   2.478   4.529   6.988  1.3772  0.4277 -0.4319
 7724SOL     OW34807   4.152   0.523   4.808 -0.1011  0.0904 -0.2123
 7724SOL    HW134808   4.095   0.599   4.795 -0.7971 -0.5925 -1.0944
 7724SOL    HW234809   4.214   0.559   4.872 -0.1431 -0.4424  0.1267
 7725SOL     OW34810   4.536   4.256   9.718  0.4266  0.2314  0.1236
 7725SOL    HW134811   4.492   4.309   9.783  1.4028 -0.7281  1.5711
 7725SOL    HW234812   4.597   4.215   9.779 -0.3703  2.6166  2.4867
 7726SOL     OW34813   2.620   0.799  15.632  0.0574  0.0901  0.6726
 7726SOL    HW134814   2.707   0.840  15.635 -0.0997  0.5371 -0.9743
 7726SOL    HW234815   2.638   0.724  15.689 -4.5768  0.5867  2.7478
 7727SOL     OW34816   1.735   1.163   3.264 -0.2356  1.0343 -0.0626
 7727SOL    HW134817   1.668   1.095   3.262 -0.0105  0.8730 -2.6139
 7727SOL    HW234818   1.693   1.213   3.334 -0.7001 -0.6732  0.8805
 7728SOL     OW34819   1.586   2.747   8.245 -0.4270  0.4615  0.0800
 7728SOL    HW134820   1.566   2.814   8.179  0.9753  0.6671 -0.1351
 7728SOL    HW234821   1.573   2.665   8.198 -1.0360  1.2063 -1.0588
 7729SOL     OW34822   0.747   3.498  14.183 -0.1265  0.0771  0.1141
 7729SOL    HW134823   0.756   3.415  14.137 -1.5639  0.8674 -1.6003
 7729SOL    HW234824   0.656   3.494  14.211 -0.9894  0.8680 -2.6475
 7730SOL     OW34825   4.189   3.385   7.534  0.7554 -0.2118  0.3016
 7730SOL    HW134826   4.196   3.315   7.599 -0.0279 -1.4004 -0.8962
 7730SOL    HW234827   4.280   3.395   7.508  0.8824 -0.9198  0.4957
 7731SOL     OW34828   2.761   0.177   2.465  0.0170 -0.2805  0.5726
 7731SOL    HW134829   2.762   0.119   2.541 -1.3648  0.6450  1.2889
 7731SOL    HW234830   2.673   0.213   2.459  0.7077  1.4169  0.6687
 7732SOL     OW34831   3.829   4.651   2.273 -0.4649 -0.0844  0.1328
 7732SOL    HW134832   3.857   0.002   2.242 -2.0853 -0.0437 -1.2091
 7732SOL    HW234833   3.735   4.670   2.281 -1.0097 -2.0886 -1.2287
 7733SOL     OW34834   0.403   4.318   4.405  0.0659  0.2372  0.1246
 7733SOL    HW134835   0.475   4.364   4.362 -0.8162  0.2246 -1.3617
 7733SOL    HW234836   0.333   4.363   4.358 -0.0418  0.1160  0.1678
 7734SOL     OW34837   2.995   1.837   2.298  0.0658 -0.5411  0.1934
 7734SOL    HW134838   2.902   1.822   2.317 -0.3287  0.6639 -0.8171
 7734SOL    HW234839   3.023   1.887   2.374  1.4396 -1.1154  0.0581
 7735SOL     OW34840   0.752   1.771   2.621  0.2963  0.4932  0.2509
 7735SOL    HW134841   0.769   1.857   2.582  2.2335  0.7438  1.6351
 7735SOL    HW234842   0.825   1.751   2.680  0.2484  0.4183  0.2844
 7736SOL     OW34843   0.340   2.961   3.153  0.4376 -0.4599 -0.2228
 7736SOL    HW134844   0.378   3.043   3.183  1.0751 -1.3138  1.2923
 7736SOL    HW234845   0.353   2.963   3.058 -0.7909  0.1864 -0.3849
 7737SOL     OW34846   4.664   4.392   2.356  0.8405  0.0535  0.2147
 7737SOL    HW134847   4.648   4.425   2.444 -0.5312  2.4976 -0.9770
 7737SOL    HW234848   4.712   4.311   2.376  1.3269  0.2846 -0.0270
 7738SOL     OW34849   0.860   2.527   5.584  0.3114 -0.1718  0.8776
 7738SOL    HW134850   0.792   2.585   5.616 -0.9084 -1.1659  0.0727
 7738SOL    HW234851   0.850   2.546   5.491 -0.0935 -3.5071  0.2344
 7739SOL     OW34852   3.478   3.380  10.455  0.4677 -0.0579  0.2416
 7739SOL    HW134853   3.461   3.342  10.541  2.3136  1.3272  1.2113
 7739SOL    HW234854   3.450   3.307  10.400 -0.0360 -0.3928  0.9518
 7740SOL     OW34855   3.509   1.863  15.002  0.0870  0.0995 -0.3149
 7740SOL    HW134856   3.599   1.831  15.012  0.2896  1.2659  1.5809
 7740SOL    HW234857   3.525   1.957  14.998 -1.2213  0.3837  1.1774
 7741SOL     OW34858   2.539   3.605   5.824  0.4433 -0.3394  0.1254
 7741SOL    HW134859   2.555   3.622   5.917  0.4539 -3.2574  0.6652
 7741SOL    HW234860   2.444   3.613   5.820  0.5270 -0.2195 -1.4484
 7742SOL     OW34861   0.364   0.936   3.947 -1.1150  0.1192 -0.5103
 7742SOL    HW134862   0.367   1.030   3.962 -0.3864  0.6095 -3.7147
 7742SOL    HW234863   0.455   0.919   3.922 -0.5905  2.3678 -0.0514
 7743SOL     OW34864   1.004   3.250   7.011  0.2911 -0.2244  0.0542
 7743SOL    HW134865   1.012   3.167   7.059  1.7803  0.0601  0.2870
 7743SOL    HW234866   0.926   3.242   6.955  0.0317 -0.7646  0.4826
 7744SOL     OW34867   1.268   3.407   3.337  0.0235 -0.2025 -0.0842
 7744SOL    HW134868   1.353   3.440   3.306 -1.3045  1.6629 -1.6637
 7744SOL    HW234869   1.301   3.368   3.418  1.4691  1.3185  0.0689
 7745SOL     OW34870   0.670   0.720  13.538 -0.1753  0.4020  0.4620
 7745SOL    HW134871   0.729   0.794  13.554 -0.2565  0.4541  0.5193
 7745SOL    HW234872   0.672   0.708  13.443 -3.5888  1.4070  0.2774
 7746SOL     OW34873   2.444   1.375   3.601  0.0564  0.5125 -0.0445
 7746SOL    HW134874   2.453   1.467   3.629 -0.6199  0.1529  1.3392
 7746SOL    HW234875   2.457   1.380   3.506  0.0107  2.0161  0.0272
 7747SOL     OW34876   2.531   4.284   4.703  0.2655  0.0376 -0.7365
 7747SOL    HW134877   2.452   4.281   4.649 -0.1954 -1.2616 -0.0011
 7747SOL    HW234878   2.524   4.372   4.740 -0.0340  0.7570 -2.5101
 7748SOL     OW34879   2.824   2.796   1.777  0.0243 -0.2797 -0.4314
 7748SOL    HW134880   2.900   2.793   1.719  0.0256  0.0668 -0.4437
 7748SOL    HW234881   2.798   2.883   1.748 -0.4009  0.4220  2.0562
 7749SOL     OW34882   3.808   2.224  11.007  0.2413  0.2553  0.6489
 7749SOL    HW134883   3.843   2.165  11.074 -1.1669 -2.8916 -1.3562
 7749SOL    HW234884   3.799   2.310  11.048  3.1877  0.2310  1.3752
 7750SOL     OW34885   1.761   3.962  10.409 -0.6258 -0.5102  0.0483
 7750SOL    HW134886   1.684   3.930  10.457 -2.2057  0.2503 -1.9319
 7750SOL    HW234887   1.722   4.005  10.332  0.4536 -0.9674 -0.7535
 7751SOL     OW34888   3.717   3.649   2.113 -0.1122  0.2350  0.6436
 7751SOL    HW134889   3.635   3.624   2.155 -0.3288 -1.3262 -0.7042
 7751SOL    HW234890   3.780   3.643   2.185  1.1525 -3.0386 -0.7190
 7752SOL     OW34891   3.450   0.716   2.831 -0.1403  0.0551  0.2937
 7752SOL    HW134892   3.504   0.786   2.793  2.5604 -2.4144 -0.4185
 7752SOL    HW234893   3.372   0.710   2.776 -0.5599  0.9480  0.7893
 7753SOL     OW34894   1.217   1.454   7.381  0.4197  0.4129  0.0981
 7753SOL    HW134895   1.177   1.487   7.462 -0.0735 -1.3806  0.5869
 7753SOL    HW234896   1.243   1.367   7.411 -0.4251 -0.5099 -1.8720
 7754SOL     OW34897   0.641   4.244   7.982 -0.3744  0.5202  0.1090
 7754SOL    HW134898   0.608   4.154   7.985  0.9263  0.0733  1.3802
 7754SOL    HW234899   0.571   4.288   7.935  1.4982  1.2921 -1.9777
 7755SOL     OW34900   0.346   0.559   2.094 -0.2926 -0.5045  0.1090
 7755SOL    HW134901   0.305   0.538   2.010 -0.4241  0.6566 -0.1222
 7755SOL    HW234902   0.434   0.522   2.084 -0.1850 -0.5572  1.2904
 7756SOL     OW34903   4.163   4.360   3.486  0.6313  0.0113 -0.4185
 7756SOL    HW134904   4.116   4.316   3.556 -2.4500  0.7843 -1.9942
 7756SOL    HW234905   4.246   4.386   3.526  1.8963  2.2231 -4.4154
 7757SOL     OW34906   3.033   1.925   7.327 -0.0014 -0.5264 -0.2462
 7757SOL    HW134907   3.027   1.947   7.420 -1.4486  0.1373 -0.4829
 7757SOL    HW234908   3.000   2.005   7.285 -0.6963 -0.9225 -0.4456
 7758SOL     OW34909   1.157   3.481   7.569 -0.6053  0.0016 -0.1806
 7758SOL    HW134910   1.138   3.538   7.644 -0.3488 -0.0933 -0.0455
 7758SOL    HW234911   1.250   3.463   7.576  0.0597  3.1393 -0.7317
 7759SOL     OW34912   3.580   2.996  13.261  0.7057  0.1832  0.7724
 7759SOL    HW134913   3.543   2.951  13.185  0.0329  0.7912  0.7284
 7759SOL    HW234914   3.508   3.051  13.294 -0.7001 -1.1232 -0.0896
 7760SOL     OW34915   3.700   3.772   6.986 -0.1455 -0.1838 -0.4905
 7760SOL    HW134916   3.609   3.803   6.987 -0.3116 -0.6738 -0.1423
 7760SOL    HW234917   3.696   3.707   6.916 -0.0372  0.1927 -0.8452
 7761SOL     OW34918   2.314   2.312   4.270 -0.1509 -0.5984  0.3081
 7761SOL    HW134919   2.291   2.236   4.216 -0.8679 -0.4433  0.3990
 7761SOL    HW234920   2.279   2.380   4.213  0.3486 -0.5576  0.0525
 7762SOL     OW34921   4.497   3.789   8.720  0.0785  0.3278  0.1050
 7762SOL    HW134922   4.421   3.733   8.737  0.0603  0.2260 -0.3034
 7762SOL    HW234923   4.468   3.871   8.760 -0.6825  1.0493 -1.9263
 7763SOL     OW34924   4.576   4.269   5.396 -0.3306 -0.5144 -0.7295
 7763SOL    HW134925   4.583   4.343   5.336  0.1457  1.9147  2.3191
 7763SOL    HW234926   4.641   4.206   5.365  1.4703  1.3644 -0.8133
 7764SOL     OW34927   3.114   2.848   6.454  0.1892  0.1964  0.1680
 7764SOL    HW134928   3.046   2.829   6.389  1.6354  1.2205 -1.6269
 7764SOL    HW234929   3.066   2.897   6.521 -0.1972  1.0519 -0.7516
 7765SOL     OW34930   3.519   0.450   0.723  0.4397  0.4885 -0.1431
 7765SOL    HW134931   3.524   0.511   0.797  0.9033  0.8657 -0.4881
 7765SOL    HW234932   3.610   0.426   0.708  0.5169  1.2540 -0.9022
 7766SOL     OW34933   1.556   2.983   5.580 -0.7484 -0.2824 -0.0340
 7766SOL    HW134934   1.627   2.974   5.643 -0.3305 -0.2660 -0.4995
 7766SOL    HW234935   1.600   3.030   5.509 -0.1180  0.3788  0.7971
 7767SOL     OW34936   1.349   1.164  16.014  0.2312  0.0778 -0.7970
 7767SOL    HW134937   1.289   1.122  15.953  1.5991  0.0219 -2.1060
 7767SOL    HW234938   1.358   1.091  16.075 -0.3086  1.3253  0.7916
 7768SOL     OW34939   4.575   0.650   9.262 -0.7586 -0.5273  0.2810
 7768SOL    HW134940   4.662   0.657   9.303 -0.3937 -0.2306 -0.5452
 7768SOL    HW234941   4.525   0.613   9.334  1.0622 -1.4341  1.0845
 7769SOL     OW34942   4.516   0.769   1.157  0.2810  0.0665  0.4012
 7769SOL    HW134943   4.428   0.735   1.172  0.4620  0.3405  2.0312
 7769SOL    HW234944   4.509   0.857   1.193  2.0936  1.1407 -1.8054
 7770SOL     OW34945   1.521   2.559   8.045  0.4031  0.0442  0.8188
 7770SOL    HW134946   1.517   2.476   7.997  2.1356 -1.1441  2.7343
 7770SOL    HW234947   1.450   2.613   8.012  1.5443  0.9446 -0.1840
 7771SOL     OW34948   3.208   0.624   8.466  0.4124  0.7705 -0.0124
 7771SOL    HW134949   3.259   0.546   8.485  2.3843  1.5548 -2.0906
 7771SOL    HW234950   3.195   0.611   8.372 -2.0989 -2.5724  0.8084
 7772SOL     OW34951   1.867   0.377   2.517  0.1162  0.5844  0.1234
 7772SOL    HW134952   1.821   0.368   2.601 -1.8313 -0.8320 -1.1081
 7772SOL    HW234953   1.837   0.465   2.493 -2.1548 -0.0374  0.6257
 7773SOL     OW34954   0.186   3.123   3.471  0.4041  0.6245 -0.2389
 7773SOL    HW134955   0.236   3.181   3.528  0.8493  1.5789 -1.5988
 7773SOL    HW234956   0.254   3.073   3.425  0.1403 -0.6628  0.7576
 7774SOL     OW34957   4.048   4.710   9.332  0.2498 -1.4182  0.2261
 7774SOL    HW134958   4.026   0.040   9.265  0.3075 -1.6751 -0.0406
 7774SOL    HW234959   4.126   4.669   9.295  0.8128  0.5587 -0.7908
 7775SOL     OW34960   4.198   0.267  16.901 -0.7681 -0.5615 -0.1861
 7775SOL    HW134961   4.145   0.322  16.959  1.6327  0.6930  0.8235
 7775SOL    HW234962   4.212   0.322  16.824  3.8993 -2.5331 -0.7589
 7776SOL     OW34963   3.511   1.115   4.555 -0.0029  0.0972  0.2967
 7776SOL    HW134964   3.430   1.065   4.545  1.5668 -2.4968  0.6107
 7776SOL    HW234965   3.571   1.052   4.594 -1.5768 -2.0887 -0.8077
 7777SOL     OW34966   2.507   0.609   7.131 -0.2674 -0.1976  0.2823
 7777SOL    HW134967   2.595   0.573   7.119 -1.1110 -2.6483  1.4647
 7777SOL    HW234968   2.464   0.526   7.113 -0.0185 -0.4106  0.6649
 7778SOL     OW34969   2.235   0.727   6.454  0.1372 -0.3374 -0.4470
 7778SOL    HW134970   2.148   0.753   6.483 -0.5791  1.1859 -4.0206
 7778SOL    HW234971   2.252   0.808   6.406  2.9238 -0.1967  0.7593
 7779SOL     OW34972   3.529   0.555   3.288 -0.0979 -0.0902 -0.0826
 7779SOL    HW134973   3.438   0.560   3.261 -0.8611 -0.6255  2.3819
 7779SOL    HW234974   3.577   0.542   3.206  0.1274  1.0373 -0.1222
 7780SOL     OW34975   1.167   2.386   3.388 -0.0900 -0.7066  0.5215
 7780SOL    HW134976   1.077   2.356   3.403 -1.1064  2.1319  0.0569
 7780SOL    HW234977   1.203   2.409   3.473 -1.3160  2.6789  0.1088
 7781SOL     OW34978   2.023   3.576   3.408  0.3027  0.0522  0.0203
 7781SOL    HW134979   1.967   3.649   3.433  2.0283  1.3393  0.1351
 7781SOL    HW234980   1.965   3.506   3.440 -0.2352  0.3463 -0.3186
 7782SOL     OW34981   1.977   4.076   9.107 -0.3391 -0.1363 -0.1679
 7782SOL    HW134982   2.036   4.087   9.182 -1.1567 -1.3394  0.6421
 7782SOL    HW234983   1.891   4.111   9.128  0.4949  1.6936  0.1992
 7783SOL     OW34984   0.282   0.481   1.815 -0.0917  0.2393  0.5154
 7783SOL    HW134985   0.334   0.539   1.759 -0.0416 -1.2452 -0.9793
 7783SOL    HW234986   0.349   0.419   1.845  0.9444  1.1588  0.1154
 7784SOL     OW34987   1.660   4.688  11.770 -0.3012  0.8709  1.0036
 7784SOL    HW134988   1.647   0.038  11.812 -2.0496  1.9012 -1.6749
 7784SOL    HW234989   1.749   4.697  11.735 -0.3945 -1.0515  0.2722
 7785SOL     OW34990   2.813   1.404   7.837 -0.2092 -0.3384 -0.1985
 7785SOL    HW134991   2.720   1.387   7.852 -0.6029  0.2104 -2.0489
 7785SOL    HW234992   2.847   1.366   7.918  1.6669 -1.9962 -1.7502
 7786SOL     OW34993   3.490   4.527   8.054  0.3324 -0.0650  0.0682
 7786SOL    HW134994   3.492   4.616   8.088  0.4357 -0.8263  2.0553
 7786SOL    HW234995   3.462   4.547   7.965  2.7213 -1.3464 -0.9928
 7787SOL     OW34996   1.374   4.600   3.119 -0.3508  0.1741  0.3487
 7787SOL    HW134997   1.311   4.539   3.156 -0.5468  0.6282  0.7689
 7787SOL    HW234998   1.446   4.542   3.095 -2.7135 -2.2701 -0.7546
 7788SOL     OW34999   4.354   3.764   9.363 -0.2698  0.1311  0.2662
 7788SOL    HW135000   4.447   3.785   9.356 -0.1061 -0.6938 -0.0821
 7788SOL    HW235001   4.350   3.735   9.454  4.4008  2.4683  1.2219
 7789SOL     OW35002   4.282   0.138   7.104 -0.2405 -0.1003  0.3125
 7789SOL    HW135003   4.349   0.176   7.048 -1.7006 -0.2973 -1.5404
 7789SOL    HW235004   4.208   0.199   7.109  0.1232  0.3421  0.2931
 7790SOL     OW35005   0.696   2.326   8.265 -0.0093  0.4683  0.0230
 7790SOL    HW135006   0.666   2.350   8.353  0.2288 -0.7420  0.4355
 7790SOL    HW235007   0.790   2.340   8.279 -0.1270  2.0835 -0.8061
 7791SOL     OW35008   1.066   2.908  17.500  0.1851  0.4120  0.4852
 7791SOL    HW135009   1.117   2.856  17.438  1.5002 -1.0325  2.7557
 7791SOL    HW235010   1.048   2.850  17.575  0.8439 -0.0848  0.2533
 7792SOL     OW35011   2.690   2.641   1.464 -0.2563 -0.0431 -0.1970
 7792SOL    HW135012   2.708   2.727   1.425  2.9544 -0.3786  0.5019
 7792SOL    HW235013   2.628   2.653   1.535  0.0716 -0.2976  0.1307
 7793SOL     OW35014   0.030   0.372  11.766  0.2966 -0.4143 -0.4189
 7793SOL    HW135015   4.690   0.354  11.709  0.3421 -2.6244  0.2160
 7793SOL    HW235016   0.102   0.324  11.724  0.4434  0.5111 -1.2353
 7794SOL     OW35017   1.513   0.963   7.695 -0.4443 -0.5349  0.9283
 7794SOL    HW135018   1.543   0.983   7.784  1.5104  1.7323 -0.2274
 7794SOL    HW235019   1.543   0.872   7.692 -1.7326 -0.9490  0.8728
 7795SOL     OW35020   3.884   1.482   2.364  0.3203 -0.0407 -0.1772
 7795SOL    HW135021   3.888   1.457   2.457 -0.1452 -0.8513 -0.3779
 7795SOL    HW235022   3.791   1.478   2.341  0.6814  2.4081 -1.9976
 7796SOL     OW35023   1.626   3.288   4.910 -0.1600  0.5531  0.0005
 7796SOL    HW135024   1.713   3.308   4.945 -0.0061 -0.3804  0.1492
 7796SOL    HW235025   1.608   3.360   4.850  0.3858  0.0822 -0.7393
 7797SOL     OW35026   0.210   3.632   7.044  0.4736 -0.0171 -0.8197
 7797SOL    HW135027   0.126   3.661   7.006  0.3217 -0.2530 -0.6627
 7797SOL    HW235028   0.263   3.707   7.015 -2.9660  2.7485 -0.0639
 7798SOL     OW35029   1.313   1.337   5.811 -0.3981 -0.5409  0.1261
 7798SOL    HW135030   1.363   1.323   5.731  0.0863  3.0332 -0.1702
 7798SOL    HW235031   1.388   1.365   5.863 -0.2904 -1.3172  0.3996
 7799SOL     OW35032   2.951   1.300  15.484 -0.4340  0.7019  0.2660
 7799SOL    HW135033   2.942   1.391  15.458  0.5951  1.0194  1.0234
 7799SOL    HW235034   3.031   1.276  15.438 -1.9485  0.6062 -2.3102
 7800SOL     OW35035   3.162   1.806   6.199 -0.0421  0.4697 -0.0008
 7800SOL    HW135036   3.219   1.866   6.247  0.4558 -0.4402  0.5457
 7800SOL    HW235037   3.112   1.768   6.272 -1.7944  0.4938 -1.1917
 7801SOL     OW35038   2.151   3.790   3.216  1.0248 -0.2506  0.0747
 7801SOL    HW135039   2.157   3.885   3.215  0.5239 -0.2314 -1.0546
 7801SOL    HW235040   2.148   3.773   3.310 -0.2890 -0.2276  0.0369
 7802SOL     OW35041   3.225   0.220  13.982 -0.6827  0.3725  0.2467
 7802SOL    HW135042   3.318   0.243  13.973 -0.5348 -0.3427 -0.0285
 7802SOL    HW235043   3.187   0.302  13.950  0.2095  0.8936  0.5016
 7803SOL     OW35044   2.676   0.013   2.955  0.7449 -0.5375 -0.0792
 7803SOL    HW135045   2.613   4.696   3.005  0.0397  0.2481 -0.1584
 7803SOL    HW235046   2.757   4.699   2.971  0.7798  0.0852  1.6110
 7804SOL     OW35047   3.933   1.143   2.309 -0.1632 -0.0603 -0.2901
 7804SOL    HW135048   4.015   1.141   2.261 -0.4403  0.6700 -0.7939
 7804SOL    HW235049   3.889   1.223   2.281  0.6369  0.3728 -0.2876
 7805SOL     OW35050   4.613   2.129  17.708 -0.4388 -0.0128  0.0466
 7805SOL    HW135051   4.565   2.051  17.680  1.3945 -1.6177  1.3480
 7805SOL    HW235052   4.560   2.160   0.044  0.7094 -0.7009  1.1629
 7806SOL     OW35053   0.974   0.570   4.373 -0.4549  0.6761 -0.2982
 7806SOL    HW135054   1.052   0.578   4.428  0.2001 -1.3429 -0.9287
 7806SOL    HW235055   0.929   0.654   4.380 -0.8337  0.0994  4.2304
 7807SOL     OW35056   0.318   3.354   9.248  0.0464  0.2416  0.2951
 7807SOL    HW135057   0.413   3.345   9.237 -0.0319  0.3111 -0.4613
 7807SOL    HW235058   0.305   3.405   9.328 -1.6409  0.8687 -0.3758
 7808SOL     OW35059   4.259   3.345   5.014  0.1169 -0.1118 -0.1819
 7808SOL    HW135060   4.346   3.309   4.999 -0.2020 -0.8058 -0.3409
 7808SOL    HW235061   4.275   3.439   5.010 -0.0548 -0.0763 -0.0500
 7809SOL     OW35062   0.738   3.923   0.259 -0.3678 -0.1556 -0.8148
 7809SOL    HW135063   0.733   3.831   0.285  0.9827  0.6697  2.4585
 7809SOL    HW235064   0.797   3.959   0.326  0.0291  0.2277 -1.3703
 7810SOL     OW35065   2.613   1.672  16.506  0.1285 -0.3489 -0.0401
 7810SOL    HW135066   2.529   1.665  16.552 -0.4312  3.0016 -0.5645
 7810SOL    HW235067   2.680   1.655  16.573  0.7619 -0.8015 -0.7919
 7811SOL     OW35068   4.149   2.224   5.098  0.0723 -0.6574  0.0401
 7811SOL    HW135069   4.053   2.229   5.090  0.1424 -0.8647 -0.9437
 7811SOL    HW235070   4.177   2.314   5.117 -0.1447 -0.3087 -1.2746
 7812SOL     OW35071   0.421   4.591   2.184  0.2681 -0.3171 -0.4149
 7812SOL    HW135072   0.374   4.531   2.242 -0.5954 -1.2206 -2.0433
 7812SOL    HW235073   0.350   4.628   2.132  1.1466  0.5651 -1.0017
 7813SOL     OW35074   0.518   0.577   9.460 -0.8334  0.0747 -0.0907
 7813SOL    HW135075   0.451   0.612   9.520 -0.1972 -1.1331  1.3338
 7813SOL    HW235076   0.578   0.651   9.449  0.5949 -1.3193 -1.5361
 7814SOL     OW35077   4.485   3.242   4.915 -0.0950  0.1699 -0.2401
 7814SOL    HW135078   4.555   3.288   4.960 -0.1411  1.5463 -1.5893
 7814SOL    HW235079   4.536   3.176   4.868 -1.7800  0.3035 -2.2456
 7815SOL     OW35080   3.275   0.630   2.177  0.9614  0.0667 -0.5946
 7815SOL    HW135081   3.362   0.669   2.168 -0.3809  2.4422 -3.3118
 7815SOL    HW235082   3.239   0.667   2.257 -0.3923 -0.1250 -1.1283
 7816SOL     OW35083   0.341   0.935   8.055 -0.5040 -0.8359 -0.1062
 7816SOL    HW135084   0.437   0.939   8.051 -0.6886  1.5642 -2.4418
 7816SOL    HW235085   0.328   1.022   8.091 -0.5614 -1.2182  0.7783
 7817SOL     OW35086   2.178   1.206   9.636 -0.7710  0.1840  0.0251
 7817SOL    HW135087   2.187   1.114   9.611 -1.2536  1.0110 -3.1813
 7817SOL    HW235088   2.257   1.217   9.689 -0.5741  0.6837 -0.3682
 7818SOL     OW35089   3.321   2.793   6.880  0.1343 -0.0124 -0.2330
 7818SOL    HW135090   3.330   2.735   6.956  0.6828  0.7825  0.3091
 7818SOL    HW235091   3.301   2.730   6.810  2.1287 -2.2720  1.2171
 7819SOL     OW35092   3.353   4.524   1.735 -0.5193  0.7981 -0.2462
 7819SOL    HW135093   3.273   4.565   1.767  0.0621  1.9671 -0.2700
 7819SOL    HW235094   3.399   4.608   1.727  0.7065  0.0911 -0.6831
 7820SOL     OW35095   2.457   3.060  12.386 -0.2738  0.2854 -0.6985
 7820SOL    HW135096   2.414   3.089  12.306  0.9374 -0.1677 -1.5253
 7820SOL    HW235097   2.524   3.000  12.354 -0.3851  0.8929 -2.0677
 7821SOL     OW35098   4.065   2.149   6.002 -0.2566  1.1961  0.2546
 7821SOL    HW135099   4.007   2.085   6.044 -0.9263  1.4142 -0.3397
 7821SOL    HW235100   4.023   2.229   6.032 -0.0850  0.5206  2.2862
 7822SOL     OW35101   0.957   1.829   5.328 -0.4769 -0.0286 -0.2526
 7822SOL    HW135102   0.907   1.826   5.246  0.6084 -1.3335 -0.8703
 7822SOL    HW235103   0.944   1.919   5.358 -0.1576  0.1620 -0.6850
 7823SOL     OW35104   3.072   0.286   8.356 -0.0047 -0.2274 -0.1973
 7823SOL    HW135105   3.136   0.236   8.306 -1.4183 -1.4787 -0.7336
 7823SOL    HW235106   3.088   0.370   8.313 -1.8410  1.2413  1.9966
 7824SOL     OW35107   3.872   1.292  16.394  0.4304 -0.3124 -0.1825
 7824SOL    HW135108   3.923   1.217  16.365  1.7979 -0.4597  2.6324
 7824SOL    HW235109   3.853   1.325  16.306 -0.6371 -0.7463 -0.1203
 7825SOL     OW35110   0.580   0.256   8.932  0.0444  0.3668  0.5955
 7825SOL    HW135111   0.623   0.267   9.017 -1.3465 -2.0174  1.6026
 7825SOL    HW235112   0.567   0.350   8.915 -1.9901  0.1734  1.1389
 7826SOL     OW35113   1.104   2.645   8.838  0.3785  0.1497 -0.2752
 7826SOL    HW135114   1.073   2.654   8.928  3.6996 -0.8655  0.9474
 7826SOL    HW235115   1.186   2.600   8.854 -1.0363 -2.0499  0.7711
 7827SOL     OW35116   1.443   2.646   2.513 -0.1426 -0.5801 -0.2303
 7827SOL    HW135117   1.513   2.582   2.497 -0.4082 -0.5787 -1.3986
 7827SOL    HW235118   1.379   2.588   2.473 -1.6417 -0.0851  1.4674
 7828SOL     OW35119   4.261   3.078  16.704 -0.4936 -0.3082  0.7412
 7828SOL    HW135120   4.297   3.049  16.621 -0.2329  0.3250  0.6319
 7828SOL    HW235121   4.250   3.172  16.692 -0.9889 -0.6924 -1.7265
 7829SOL     OW35122   1.045   0.996   1.194  0.0462  0.2670 -0.2232
 7829SOL    HW135123   0.951   0.977   1.185  0.0785  0.4021 -0.8690
 7829SOL    HW235124   1.066   1.010   1.102  1.4381 -1.5909 -0.1668
 7830SOL     OW35125   1.573   1.070  16.330 -0.7555  0.4401 -0.4655
 7830SOL    HW135126   1.635   1.000  16.352 -2.3428 -2.1279 -4.3227
 7830SOL    HW235127   1.511   1.031  16.269  1.2446 -2.7808 -0.4346
 7831SOL     OW35128   2.170   0.517   2.525 -0.3633  0.5253 -0.0388
 7831SOL    HW135129   2.213   0.508   2.441 -1.6593 -0.2951 -0.6224
 7831SOL    HW235130   2.215   0.458   2.585 -1.8303  1.4299  1.9609
 7832SOL     OW35131   4.289   2.468   4.222  0.0058 -0.7158 -0.3360
 7832SOL    HW135132   4.201   2.433   4.213 -0.7297  1.0821 -0.1167
 7832SOL    HW235133   4.339   2.388   4.240  0.7959 -0.4679 -1.4478
 7833SOL     OW35134   1.426   3.153  15.234 -0.6975  0.4127  0.2312
 7833SOL    HW135135   1.481   3.221  15.273  1.2854  0.4055 -2.6018
 7833SOL    HW235136   1.476   3.129  15.156  1.4110 -0.0530  1.7207
 7834SOL     OW35137   2.637   3.429   7.053 -0.5625 -0.4316 -0.0390
 7834SOL    HW135138   2.548   3.461   7.066 -0.7572 -0.4067 -1.4433
 7834SOL    HW235139   2.692   3.466   7.123 -1.3383 -1.9466  1.3606
 7835SOL     OW35140   2.872   0.166   7.283 -0.0983 -0.0648 -0.1419
 7835SOL    HW135141   2.852   0.074   7.300 -0.3538 -0.0105 -0.1577
 7835SOL    HW235142   2.967   0.153   7.280  0.0478  0.7241  1.1037
 7836SOL     OW35143   0.887   4.348   8.091  0.5648  0.3791  0.4460
 7836SOL    HW135144   0.824   4.290   8.048  1.1035  0.8187 -0.9303
 7836SOL    HW235145   0.910   4.389   8.008  2.3058  0.8377  1.1500
 7837SOL     OW35146   2.247   4.479   9.902  0.0969  0.2405  0.6755
 7837SOL    HW135147   2.272   4.397   9.860 -1.2537 -0.7965  1.8927
 7837SOL    HW235148   2.336   4.511   9.920 -0.3310  1.1871  1.0887
 7838SOL     OW35149   1.691   0.366  17.600  0.0094  0.0771 -0.1875
 7838SOL    HW135150   1.779   0.392  17.571  0.5475 -1.8733 -0.2480
 7838SOL    HW235151   1.652   0.448  17.632  1.0033 -0.0709  1.4135
 7839SOL     OW35152   1.627   0.944   7.271  0.3257 -0.6968 -0.2197
 7839SOL    HW135153   1.698   0.891   7.235  0.7862  0.4171 -0.9563
 7839SOL    HW235154   1.615   1.001   7.195 -0.4841  0.1787  0.5499
 7840SOL     OW35155   1.175   4.597   2.241 -0.0812  0.0536 -0.2221
 7840SOL    HW135156   1.219   4.593   2.326 -0.6451  0.3919  0.0904
 7840SOL    HW235157   1.095   4.644   2.265 -0.2068 -1.2990  2.0330
 7841SOL     OW35158   2.366   1.399   9.966  0.6476  0.0118 -0.6217
 7841SOL    HW135159   2.396   1.387   9.875 -0.4813 -1.5457 -0.7876
 7841SOL    HW235160   2.454   1.397  10.005 -0.8647 -2.0855  2.6753
 7842SOL     OW35161   3.830   1.289   6.471 -0.1296 -0.1099  0.1784
 7842SOL    HW135162   3.876   1.254   6.395 -1.8817  0.1067 -0.9844
 7842SOL    HW235163   3.789   1.365   6.430 -1.4868 -1.3557 -0.8004
 7843SOL     OW35164   1.249   0.735   4.364 -0.3596 -0.7312 -0.8884
 7843SOL    HW135165   1.252   0.715   4.457  1.4311  0.6525 -0.6485
 7843SOL    HW235166   1.337   0.766   4.344 -0.6396  0.5598 -0.0917
 7844SOL     OW35167   1.943   4.592   0.771  0.3059  0.2293 -0.3634
 7844SOL    HW135168   1.977   4.674   0.738  0.3904  0.8505  1.2389
 7844SOL    HW235169   1.849   4.606   0.766  0.5049  1.1156 -1.3584
 7845SOL     OW35170   1.375   4.204   7.369  0.2924 -0.2659  0.4141
 7845SOL    HW135171   1.309   4.193   7.438  0.4376  1.1131  0.7742
 7845SOL    HW235172   1.324   4.170   7.296  2.2435 -0.4846 -0.8305
 7846SOL     OW35173   2.688   3.425   3.783  0.1124 -0.3470  0.4704
 7846SOL    HW135174   2.731   3.501   3.822  0.7882 -0.7463  0.5010
 7846SOL    HW235175   2.744   3.424   3.705  0.3668  1.8215  0.6426
 7847SOL     OW35176   2.022   0.926   4.239  0.4016  0.0823  0.4398
 7847SOL    HW135177   2.007   0.918   4.145 -2.5597  0.7643  0.8679
 7847SOL    HW235178   2.087   0.859   4.262  0.1176 -0.7044 -1.0585
 7848SOL     OW35179   0.796   4.000   5.966 -0.1302  0.3443 -0.7390
 7848SOL    HW135180   0.707   4.030   5.948 -0.0018  0.9181 -0.4535
 7848SOL    HW235181   0.844   4.065   5.915  1.3038  0.6645  1.0026
 7849SOL     OW35182   2.837   1.690   7.829 -0.3591  0.6578 -0.4828
 7849SOL    HW135183   2.828   1.599   7.800 -2.1871  0.4564  0.6940
 7849SOL    HW235184   2.848   1.674   7.923 -2.0487 -0.9226 -0.5335
 7850SOL     OW35185   0.752   3.959  13.367  0.2296  0.1207 -0.0443
 7850SOL    HW135186   0.779   4.036  13.318  1.7705 -0.1798  0.3072
 7850SOL    HW235187   0.727   3.991  13.453  1.7939  1.4535 -0.0776
 7851SOL     OW35188   1.522   2.640   0.677  0.1811 -0.1719 -0.1144
 7851SOL    HW135189   1.469   2.582   0.621 -2.1920  2.0104 -0.1479
 7851SOL    HW235190   1.532   2.713   0.617  2.9383  0.1153  0.6983
 7852SOL     OW35191   3.575   4.022   8.158 -0.0097 -0.2501 -0.0203
 7852SOL    HW135192   3.631   3.945   8.166 -1.2974 -1.1881 -0.0761
 7852SOL    HW235193   3.497   3.978   8.193 -1.9804  2.5729 -0.9203
 7853SOL     OW35194   2.315   1.174  14.780 -0.0732 -0.3058 -0.0882
 7853SOL    HW135195   2.334   1.190  14.687 -0.8258  0.1690 -0.1607
 7853SOL    HW235196   2.223   1.197  14.784  1.2253  4.5897  1.4324
 7854SOL     OW35197   3.781   2.013   5.409 -0.0367  0.1710  0.0661
 7854SOL    HW135198   3.832   1.943   5.449  1.3023  1.4866  0.6696
 7854SOL    HW235199   3.698   2.011   5.455 -0.5046 -0.2074 -0.7917
 7855SOL     OW35200   3.802   0.211  10.955 -0.6413  0.6949  0.1423
 7855SOL    HW135201   3.835   0.298  10.931 -0.9009  0.3279 -1.5856
 7855SOL    HW235202   3.739   0.192  10.885 -1.7653 -1.0772  1.6298
 7856SOL     OW35203   0.619   4.583   3.424 -0.4018  0.0133 -0.2968
 7856SOL    HW135204   0.602   4.619   3.337  3.4625  2.8840  0.1208
 7856SOL    HW235205   0.548   4.624   3.475 -0.2262 -0.2910  0.1917
 7857SOL     OW35206   2.822   4.733   3.833 -0.0857 -0.0527  0.2904
 7857SOL    HW135207   2.870   0.075   3.864 -0.9418  0.1900  0.9972
 7857SOL    HW235208   2.898   4.675   3.823  0.1343 -0.0174  1.8004
 7858SOL     OW35209   2.287   3.346  11.980 -0.0036 -0.1641 -0.2804
 7858SOL    HW135210   2.242   3.278  11.929 -0.5947 -0.0309  0.0700
 7858SOL    HW235211   2.322   3.385  11.899  0.3913  0.1586  0.0447
 7859SOL     OW35212   0.624   1.852   5.696 -0.7268  0.4045 -0.6204
 7859SOL    HW135213   0.656   1.815   5.614  1.9355  0.4437  0.3948
 7859SOL    HW235214   0.548   1.897   5.658 -0.3618  0.3365 -1.4421
 7860SOL     OW35215   4.061   3.297   1.680  0.5999  0.4647 -0.4287
 7860SOL    HW135216   4.140   3.282   1.628 -0.6182 -1.3686 -1.7532
 7860SOL    HW235217   4.046   3.220   1.733  1.0221  0.1337 -0.7892
 7861SOL     OW35218   0.607   0.814   4.393  0.0537  0.1195 -0.1845
 7861SOL    HW135219   0.605   0.904   4.425  0.7152 -0.9910  3.0042
 7861SOL    HW235220   0.560   0.820   4.309  0.6689 -3.0637 -0.7428
 7862SOL     OW35221   3.343   2.747   6.551  0.4318  0.0350  0.1700
 7862SOL    HW135222   3.316   2.674   6.606  1.7187 -0.2796  0.3798
 7862SOL    HW235223   3.261   2.793   6.533 -0.2799 -1.9742 -1.7008
 7863SOL     OW35224   0.590   0.005  12.151 -0.1022 -0.2262  0.2316
 7863SOL    HW135225   0.653   0.072  12.177 -1.0545  0.4963  0.6579
 7863SOL    HW235226   0.534   0.001  12.228  1.5079 -0.4004  1.3832
 7864SOL     OW35227   3.418   0.904   3.119  0.1979  0.4299 -0.0640
 7864SOL    HW135228   3.486   0.914   3.186 -0.9636  1.2334  0.9865
 7864SOL    HW235229   3.345   0.914   3.179  0.8161 -2.2609  1.1446
 7865SOL     OW35230   2.391   3.739   2.972  0.4008 -0.0705  0.8634
 7865SOL    HW135231   2.320   3.780   3.021 -0.1715 -1.3078  1.0610
 7865SOL    HW235232   2.350   3.653   2.970 -0.4895  0.4244 -1.6234
 7866SOL     OW35233   0.617   4.015  12.879 -0.4342  0.4539  0.1681
 7866SOL    HW135234   0.564   4.061  12.943  0.4541 -1.5768  2.3435
 7866SOL    HW235235   0.621   4.080  12.809 -3.3678  3.1721  2.5478
 7867SOL     OW35236   1.583   0.443   8.961  0.3349 -0.4585  0.4833
 7867SOL    HW135237   1.613   0.365   8.913 -2.5367 -1.1060 -0.2374
 7867SOL    HW235238   1.618   0.515   8.910 -2.1982 -0.5382 -1.3563
 7868SOL     OW35239   1.570   1.686   5.472 -0.0440 -0.0689  0.0804
 7868SOL    HW135240   1.495   1.626   5.466  0.9447 -1.3513  0.7346
 7868SOL    HW235241   1.600   1.670   5.561 -2.2057  0.1693  0.8737
 7869SOL     OW35242   2.116   2.141   7.081 -0.4970 -0.1766 -0.2527
 7869SOL    HW135243   2.090   2.049   7.094  0.1489 -0.3195  0.0199
 7869SOL    HW235244   2.030   2.182   7.067 -0.2761  0.4046  0.1048
 7870SOL     OW35245   3.469   3.699   9.256  0.0785  0.3322 -0.4495
 7870SOL    HW135246   3.401   3.631   9.266 -0.2904  0.8262  0.4000
 7870SOL    HW235247   3.517   3.682   9.337  1.6977  0.7997 -1.3123
 7871SOL     OW35248   0.483   3.906  14.531 -0.2817 -0.7258 -0.8301
 7871SOL    HW135249   0.530   3.925  14.450  0.2138  0.2150 -0.3318
 7871SOL    HW235250   0.550   3.936  14.592 -0.4313 -1.3879 -0.3465
 7872SOL     OW35251   0.724   1.496   6.579  0.2614 -0.1925  0.0411
 7872SOL    HW135252   0.777   1.547   6.517  2.6546 -2.3601  0.3240
 7872SOL    HW235253   0.675   1.439   6.519  3.6583 -1.9860 -1.0150
 7873SOL     OW35254   4.109   4.691   4.230 -0.2771  0.3639 -0.3323
 7873SOL    HW135255   4.142   4.637   4.158 -1.6151 -1.6582  0.5959
 7873SOL    HW235256   4.033   4.731   4.189 -1.0823  2.5591  3.3381
 7874SOL     OW35257   2.806   3.419  13.931 -0.4122  0.6801  0.0671
 7874SOL    HW135258   2.896   3.445  13.946  0.3669 -1.7087 -0.4422
 7874SOL    HW235259   2.771   3.437  14.018 -1.4635  1.0181 -0.4147
 7875SOL     OW35260   2.286   2.978  12.560  0.0718 -0.3794  0.1811
 7875SOL    HW135261   2.343   3.008  12.489  1.6386  0.0529  1.6251
 7875SOL    HW235262   2.224   3.050  12.573  0.4668  0.7018 -3.7392
 7876SOL     OW35263   1.168   3.747  10.608 -0.2790 -0.5181  0.2316
 7876SOL    HW135264   1.215   3.747  10.525 -2.1315 -0.6286 -0.8127
 7876SOL    HW235265   1.229   3.786  10.671 -0.4853  0.0219  0.0921
 7877SOL     OW35266   3.889   2.726   8.920  0.4530 -0.2988 -0.6234
 7877SOL    HW135267   3.825   2.706   8.988 -0.5390 -0.4837 -1.6073
 7877SOL    HW235268   3.876   2.821   8.920  2.0476 -0.0800 -2.1103
 7878SOL     OW35269   2.244   2.995   1.285 -0.0294  0.0698  0.0076
 7878SOL    HW135270   2.212   3.072   1.237 -1.4672 -0.0967  0.7148
 7878SOL    HW235271   2.162   2.960   1.318  0.2087  1.6714  2.3641
 7879SOL     OW35272   2.819   0.315   1.801  0.1444  0.5384  0.6095
 7879SOL    HW135273   2.756   0.381   1.831 -1.0031  0.1119 -0.8891
 7879SOL    HW235274   2.864   0.299   1.884  1.5989 -0.8616 -0.4641
 7880SOL     OW35275   3.078   1.098  17.132  0.6763 -0.0285  0.3499
 7880SOL    HW135276   3.092   1.175  17.187  0.5349  0.1533  0.1284
 7880SOL    HW235277   2.984   1.085  17.133  0.8615 -1.3900  0.2668
 7881SOL     OW35278   1.086   0.180   1.898  0.4503  0.2924  0.3069
 7881SOL    HW135279   0.999   0.169   1.862  0.8921  2.1166 -1.3264
 7881SOL    HW235280   1.139   0.225   1.832  0.4114  0.0880  0.1382
 7882SOL     OW35281   1.360   2.171   3.885 -0.2414  0.5955  0.2271
 7882SOL    HW135282   1.353   2.264   3.904  1.7387  0.6649  0.6621
 7882SOL    HW235283   1.417   2.161   3.808 -0.4155 -0.4115  0.2236
 7883SOL     OW35284   4.276   2.539   9.397 -0.3885  0.5070  0.1768
 7883SOL    HW135285   4.205   2.602   9.408 -1.5990 -1.1364  1.9397
 7883SOL    HW235286   4.300   2.546   9.305  1.5482 -1.4789  0.5244
 7884SOL     OW35287   2.738   3.896   3.658 -0.2199 -0.1283  0.2745
 7884SOL    HW135288   2.648   3.925   3.675 -0.7786 -0.7031 -1.7019
 7884SOL    HW235289   2.786   3.979   3.659  0.5407 -0.5654  0.0397
 7885SOL     OW35290   0.323   3.311   8.156  0.2783 -0.0932  0.2973
 7885SOL    HW135291   0.326   3.295   8.062  0.4212 -1.1045  0.4767
 7885SOL    HW235292   0.409   3.294   8.196 -0.1565 -0.4418  1.0708
 7886SOL     OW35293   0.548   4.375  17.313  0.5212 -0.8209  0.0398
 7886SOL    HW135294   0.622   4.339  17.263  0.6051  0.8424 -1.0202
 7886SOL    HW235295   0.499   4.416  17.242  3.5817 -0.6004 -1.9367
 7887SOL     OW35296   2.752   0.501   3.335  0.7337 -0.2044  0.4625
 7887SOL    HW135297   2.677   0.450   3.303  1.7059 -0.6052 -1.1479
 7887SOL    HW235298   2.744   0.513   3.430  0.7534  0.5847  0.3718
 7888SOL     OW35299   2.488   0.473   7.933 -0.2292 -0.7099 -0.2782
 7888SOL    HW135300   2.556   0.432   7.880  0.6046 -0.4787  0.6137
 7888SOL    HW235301   2.538   0.528   7.994 -0.2517 -0.8350 -0.1458
 7889SOL     OW35302   1.922   4.544   6.595  0.1462  0.2802 -0.0175
 7889SOL    HW135303   1.987   4.572   6.660  0.4567 -0.4123 -0.0369
 7889SOL    HW235304   1.853   4.500   6.645  0.9328  0.1755  0.9929
 7890SOL     OW35305   1.493   0.291   5.273 -0.1018 -0.5723  0.2283
 7890SOL    HW135306   1.575   0.340   5.283  0.6231 -1.1860 -2.7268
 7890SOL    HW235307   1.521   0.209   5.313  2.4968 -0.4417 -1.3258
 7891SOL     OW35308   4.072   1.989  12.175  0.1240  0.0042  0.0741
 7891SOL    HW135309   4.010   2.057  12.202 -1.5887 -2.1711  1.6683
 7891SOL    HW235310   4.152   2.040  12.160  0.2751 -0.4050 -0.4836
 7892SOL     OW35311   4.307   4.506  12.700 -0.2424  0.4172 -0.1799
 7892SOL    HW135312   4.381   4.528  12.643 -0.1034  0.3946 -0.0085
 7892SOL    HW235313   4.243   4.569  12.668 -0.7586 -0.4166 -0.8208
 7893SOL     OW35314   4.027   1.363  16.915  0.0740  0.5116 -0.2938
 7893SOL    HW135315   4.073   1.446  16.904 -1.7257  1.4830 -0.4657
 7893SOL    HW235316   3.971   1.361  16.837 -0.5420  0.7380  0.1405
 7894SOL     OW35317   4.703   3.197   1.356  0.0337 -0.1962 -0.4385
 7894SOL    HW135318   4.666   3.144   1.426  1.2730 -1.9083 -1.0717
 7894SOL    HW235319   4.638   3.268   1.353  0.8236  0.5575  0.5804
 7895SOL     OW35320   1.656   1.076   3.991  0.0212 -0.0753 -0.4777
 7895SOL    HW135321   1.635   0.988   4.022  2.9773 -0.3409  0.8572
 7895SOL    HW235322   1.646   1.129   4.070 -0.3606  1.3751 -1.5050
 7896SOL     OW35323   1.928   0.547   8.397  0.4955  0.4578 -0.5219
 7896SOL    HW135324   1.963   0.566   8.309  1.0914  1.7451 -0.0141
 7896SOL    HW235325   1.979   0.467   8.406 -0.4918  0.0363  1.1275
 7897SOL     OW35326   2.500   4.702  10.391  0.2621  0.5262 -0.2979
 7897SOL    HW135327   2.534   0.055  10.409 -0.1706  0.8595 -1.1021
 7897SOL    HW235328   2.440   4.709  10.317  0.4374  0.4041 -0.4504
 7898SOL     OW35329   0.418   1.545   4.558 -0.2405 -0.5050 -0.0354
 7898SOL    HW135330   0.506   1.519   4.529  0.1876 -0.0738  0.8686
 7898SOL    HW235331   0.434   1.582   4.645  3.6553 -0.8377 -0.6052
 7899SOL     OW35332   0.839   1.030  16.291 -0.1430 -0.1037  0.3985
 7899SOL    HW135333   0.826   1.063  16.380 -1.3688  0.0025  0.1732
 7899SOL    HW235334   0.752   1.030  16.252 -0.0363  1.9555  0.1751
 7900SOL     OW35335   4.437   3.573   0.034 -0.3600  0.0122  0.4239
 7900SOL    HW135336   4.397   3.513   0.097 -0.9172  0.3805  0.4199
 7900SOL    HW235337   4.513   3.517   0.021 -0.6964 -0.7673  1.7820
 7901SOL     OW35338   1.610   1.244   4.230  0.0187  0.1187 -0.1177
 7901SOL    HW135339   1.573   1.180   4.292  1.5264 -0.7021 -0.0597
 7901SOL    HW235340   1.672   1.282   4.293  1.1987  0.9792 -1.8119
 7902SOL     OW35341   0.031   4.541  12.625  0.3644 -0.3280 -0.5561
 7902SOL    HW135342   0.120   4.527  12.591  0.2250 -0.7521 -0.7487
 7902SOL    HW235343   4.728   4.460  12.660 -0.0990 -0.0581 -0.4267
 7903SOL     OW35344   2.427   4.567   3.045 -0.4018 -0.5390  0.2033
 7903SOL    HW135345   2.334   4.586   3.030  0.4080  3.7732  0.6679
 7903SOL    HW235346   2.423   4.514   3.124  0.6008 -1.8210 -0.6115
 7904SOL     OW35347   3.048   2.327   2.311  0.3716  0.8416  0.1533
 7904SOL    HW135348   3.030   2.337   2.217 -0.2664  1.6030  0.3555
 7904SOL    HW235349   3.038   2.418   2.337  1.4190  1.0988 -0.3509
 7905SOL     OW35350   0.533   1.566   9.215  0.4197 -0.4080  0.0911
 7905SOL    HW135351   0.582   1.496   9.172 -0.0535  0.4275 -1.8146
 7905SOL    HW235352   0.598   1.635   9.226 -1.0599  0.9189  0.5538
 7906SOL     OW35353   4.695   1.323   2.535 -0.0647  0.1022 -0.0956
 7906SOL    HW135354   4.718   1.402   2.584  0.5746 -1.4469  2.1068
 7906SOL    HW235355   4.632   1.350   2.468  0.8769  1.0880 -0.5899
 7907SOL     OW35356   0.945   1.623   8.782  0.2902 -0.7154 -0.5643
 7907SOL    HW135357   0.905   1.557   8.725  2.0519 -0.8617 -1.6426
 7907SOL    HW235358   0.871   1.644   8.839 -0.7446 -2.8359 -1.1219
 7908SOL     OW35359   3.771   1.836   4.572 -0.3039 -0.4926 -0.2563
 7908SOL    HW135360   3.735   1.805   4.489 -1.3030 -1.2245  0.4468
 7908SOL    HW235361   3.770   1.756   4.624  0.1568 -0.7508 -0.6396
 7909SOL     OW35362   4.305   2.246   3.843  0.5442 -0.1642 -0.0180
 7909SOL    HW135363   4.380   2.242   3.903  0.4727  0.3031  0.0939
 7909SOL    HW235364   4.338   2.312   3.783  0.7694 -0.5233 -0.2944
 7910SOL     OW35365   1.526   2.148  16.085 -0.3592 -0.2880 -0.1511
 7910SOL    HW135366   1.528   2.209  16.158  1.1560 -0.8302  0.2553
 7910SOL    HW235367   1.552   2.204  16.012 -0.9195 -1.7037 -1.4492
 7911SOL     OW35368   1.999   0.417  12.263 -0.1273 -0.3930 -0.0816
 7911SOL    HW135369   2.074   0.443  12.211 -0.3026  0.6338  0.1815
 7911SOL    HW235370   2.006   0.322  12.272  1.4849 -0.0322  2.5120
 7912SOL     OW35371   3.060   2.554   5.879  0.5488  0.3970 -0.4999
 7912SOL    HW135372   3.149   2.521   5.871  0.6662  0.4402  0.6646
 7912SOL    HW235373   3.048   2.589   5.791 -0.0765  1.8458  0.1670
 7913SOL     OW35374   2.325   0.029   8.438 -0.5165 -0.1278  0.0857
 7913SOL    HW135375   2.240   0.015   8.480 -0.8117 -1.1088 -0.8314
 7913SOL    HW235376   2.385   4.729   8.503  0.6133  2.1583  0.2427
 7914SOL     OW35377   1.716   0.331  13.530 -0.4446 -0.5646  1.0217
 7914SOL    HW135378   1.774   0.261  13.560 -0.6601 -0.6936  1.1353
 7914SOL    HW235379   1.655   0.290  13.469 -0.6734  1.7783 -0.3233
 7915SOL     OW35380   4.570   4.332  13.346 -0.4716  0.3300  0.7273
 7915SOL    HW135381   4.655   4.335  13.389 -1.4299  1.0259  2.5817
 7915SOL    HW235382   4.512   4.360  13.417 -2.1191 -0.6590 -0.2256
 7916SOL     OW35383   1.717   2.887   6.009 -0.5022  0.6755 -0.1148
 7916SOL    HW135384   1.637   2.853   6.050  0.7110 -0.2735  1.4649
 7916SOL    HW235385   1.789   2.831   6.039  0.3825  1.2301 -1.1813
 7917SOL     OW35386   2.340   3.427   2.285 -0.1881  0.4922 -0.2790
 7917SOL    HW135387   2.318   3.376   2.363 -0.5943  0.7836 -0.2077
 7917SOL    HW235388   2.352   3.509   2.331  0.8416  0.1166  0.1176
 7918SOL     OW35389   1.373   0.020   8.503  0.0672  0.4750  1.0292
 7918SOL    HW135390   1.348   0.077   8.431  1.6150  1.1421  1.0259
 7918SOL    HW235391   1.458   0.051   8.533  0.7151  0.0813 -0.3996
 7919SOL     OW35392   3.768   0.069   2.796 -0.6975  0.0529 -0.2123
 7919SOL    HW135393   3.735   0.064   2.707 -0.1070 -0.3676 -0.4091
 7919SOL    HW235394   3.684   0.053   2.838 -0.3644  2.9014  1.5845
 7920SOL     OW35395   2.030   3.770  11.828  0.5781  0.0037 -0.3479
 7920SOL    HW135396   1.976   3.692  11.846 -0.9404  0.8634 -1.1779
 7920SOL    HW235397   2.098   3.764  11.895 -0.5491  1.0401  0.8716
 7921SOL     OW35398   1.524   2.750  14.547  0.4237  0.1095 -0.0577
 7921SOL    HW135399   1.453   2.761  14.609  0.4691  1.9137 -0.3187
 7921SOL    HW235400   1.487   2.711  14.468 -0.6661  0.4990  0.2622
 7922SOL     OW35401   3.484   3.432   2.501 -0.0430  0.0527  0.3406
 7922SOL    HW135402   3.553   3.367   2.512  0.0423 -0.2476 -2.0343
 7922SOL    HW235403   3.439   3.415   2.584 -1.4246 -2.1856 -0.8537
 7923SOL     OW35404   1.624   1.887   3.865 -0.1875 -0.3564 -0.2320
 7923SOL    HW135405   1.604   1.954   3.800 -3.6794 -1.7081 -0.5232
 7923SOL    HW235406   1.585   1.922   3.945  2.0118  0.7813  0.3521
 7924SOL     OW35407   4.570   1.507  13.163 -0.0078 -0.3759  0.0280
 7924SOL    HW135408   4.596   1.471  13.248  3.1006  0.5217 -0.5314
 7924SOL    HW235409   4.654   1.547  13.140 -0.0106 -0.0943  0.5104
 7925SOL     OW35410   3.641   0.891  13.187  0.3137 -0.4649 -0.3142
 7925SOL    HW135411   3.665   0.971  13.234 -0.3829 -0.1784 -0.4482
 7925SOL    HW235412   3.729   0.855  13.181 -0.4186 -2.3755  0.4394
 7926SOL     OW35413   2.005   3.134   7.879  0.0778  0.1714  0.1146
 7926SOL    HW135414   1.961   3.067   7.930 -1.6478  1.5987  0.4987
 7926SOL    HW235415   1.968   3.112   7.794  1.3276 -1.6455  0.0314
 7927SOL     OW35416   2.069   3.876   5.514  0.1005 -0.0689  0.0740
 7927SOL    HW135417   2.130   3.928   5.566  1.2960 -0.9046 -0.5078
 7927SOL    HW235418   2.043   3.950   5.460 -0.2232 -1.2783 -1.4466
 7928SOL     OW35419   2.907   4.355   3.738  0.8536 -0.0901  0.3650
 7928SOL    HW135420   2.928   4.431   3.684  0.7491 -0.9879 -0.9292
 7928SOL    HW235421   2.988   4.332   3.784  1.2992 -0.0479 -0.4141
 7929SOL     OW35422   1.818   4.641   4.764 -0.2900 -0.2921  0.6178
 7929SOL    HW135423   1.894   4.674   4.715 -1.1751 -1.0622 -1.2911
 7929SOL    HW235424   1.805   4.555   4.723  0.4030 -0.8227  1.5223
 7930SOL     OW35425   4.478   1.274   5.851  0.3243  0.0947  0.2351
 7930SOL    HW135426   4.388   1.272   5.819 -0.9444  1.7681  3.7220
 7930SOL    HW235427   4.476   1.279   5.947 -1.1540 -1.3197  0.2823
 7931SOL     OW35428   1.929   2.678   6.718 -0.1199 -0.5275  0.0892
 7931SOL    HW135429   1.889   2.764   6.716 -0.0861 -0.5618 -2.3793
 7931SOL    HW235430   1.994   2.675   6.647 -1.3322  0.7545 -1.0706
 7932SOL     OW35431   3.640   4.414  15.649  0.6445  0.1932  0.3093
 7932SOL    HW135432   3.668   4.326  15.624 -0.8955 -0.3690  0.5731
 7932SOL    HW235433   3.667   4.412  15.741  3.0695  0.5948 -0.3910
 7933SOL     OW35434   1.710   3.205   8.029  0.0454 -0.2822 -0.3442
 7933SOL    HW135435   1.745   3.119   8.008 -1.1511 -0.6669 -0.7948
 7933SOL    HW235436   1.703   3.197   8.124 -3.6683  1.1396 -0.4989
 7934SOL     OW35437   1.423   4.047   2.723  0.1706 -0.3573  0.3914
 7934SOL    HW135438   1.400   4.077   2.811  0.1970 -0.3781  0.4057
 7934SOL    HW235439   1.503   3.995   2.734 -0.0420 -1.2093 -2.2163
 7935SOL     OW35440   0.679   1.719  16.799  0.1204 -0.0104  0.1832
 7935SOL    HW135441   0.713   1.630  16.812  0.1331  0.0271  0.4034
 7935SOL    HW235442   0.732   1.755  16.728  2.4058  1.1621  2.4579
 7936SOL     OW35443   3.732   4.142  14.216 -0.2503  0.1130  0.0782
 7936SOL    HW135444   3.671   4.149  14.142  1.3462 -1.5839 -1.3960
 7936SOL    HW235445   3.741   4.047  14.213 -0.4456  0.1094 -0.4476
 7937SOL     OW35446   2.938   0.039   0.246 -0.3342  0.6602 -0.0857
 7937SOL    HW135447   2.904   0.026   0.158 -2.0834 -0.8524  0.8123
 7937SOL    HW235448   2.953   0.134   0.251  0.3280  0.4049  2.5252
 7938SOL     OW35449   2.183   4.217   7.116 -0.0265  0.0050 -0.3008
 7938SOL    HW135450   2.145   4.180   7.196  0.1260 -0.6256 -0.5196
 7938SOL    HW235451   2.196   4.309   7.140 -1.0185  0.2077 -0.5280
 7939SOL     OW35452   2.217   2.514   2.145 -0.2896 -0.4151 -0.5340
 7939SOL    HW135453   2.280   2.560   2.089  0.2785 -0.8967 -0.2876
 7939SOL    HW235454   2.163   2.591   2.162  0.0337 -0.8226  2.2347
 7940SOL     OW35455   0.781   2.370   3.034 -0.2014  0.1747 -0.0091
 7940SOL    HW135456   0.782   2.285   2.989 -1.4325  0.4984 -0.6509
 7940SOL    HW235457   0.874   2.392   3.036 -0.2014  0.2212 -0.3784
 7941SOL     OW35458   1.653   2.105   7.219 -0.0439  1.0600 -0.1195
 7941SOL    HW135459   1.689   2.037   7.275  2.1141  1.1781 -1.3621
 7941SOL    HW235460   1.611   2.155   7.289 -0.4347 -1.1520  1.2021
 7942SOL     OW35461   4.404   0.981   1.975 -0.0023  0.2809  1.0588
 7942SOL    HW135462   4.432   1.055   2.029 -0.9016  1.6876 -0.4139
 7942SOL    HW235463   4.488   0.973   1.930  0.9070  1.8016  2.4915
 7943SOL     OW35464   0.261   3.310   7.872  0.0341  0.3481 -0.0643
 7943SOL    HW135465   0.316   3.310   7.793 -1.9036 -2.2361 -1.3922
 7943SOL    HW235466   0.206   3.385   7.847 -0.2767  0.7550  1.8175
 7944SOL     OW35467   0.239   4.248  12.028 -0.2002 -0.0331  0.4521
 7944SOL    HW135468   0.179   4.309  11.985  1.1787  1.0386  0.0594
 7944SOL    HW235469   0.173   4.183  12.054  0.2774  0.4212  2.7768
 7945SOL     OW35470   1.056   2.873  15.131 -0.5926 -0.2927  0.0289
 7945SOL    HW135471   1.047   2.788  15.089  0.5927 -0.1418 -0.5220
 7945SOL    HW235472   1.008   2.874  15.214  3.2982 -1.5189  2.3040
 7946SOL     OW35473   3.022   3.009   1.842  0.3249  0.6358 -0.2793
 7946SOL    HW135474   3.024   2.967   1.756  0.1789  0.1181 -0.0288
 7946SOL    HW235475   3.041   2.937   1.902 -1.0520  0.6205  0.1385
 7947SOL     OW35476   3.027   2.953   8.520 -0.4760  0.5047 -0.3304
 7947SOL    HW135477   2.935   2.958   8.546 -0.1886  2.7682  0.2216
 7947SOL    HW235478   3.023   3.006   8.441 -1.6531  2.6645  1.1660
 7948SOL     OW35479   2.833   0.478  12.953 -0.1902 -0.5935 -0.4482
 7948SOL    HW135480   2.890   0.410  12.988 -0.2736 -0.2193  0.3957
 7948SOL    HW235481   2.811   0.540  13.022  0.5803 -1.3446  0.4605
 7949SOL     OW35482   1.503   0.485   7.523 -0.1254 -0.2841  0.2579
 7949SOL    HW135483   1.468   0.397   7.506  0.3572 -0.3210 -0.5274
 7949SOL    HW235484   1.423   0.511   7.569 -0.0286  0.9333 -0.2608
 7950SOL     OW35485   2.213   2.058  12.447  0.4445  0.1240 -0.1662
 7950SOL    HW135486   2.251   1.979  12.484 -0.7301 -0.0480  0.6913
 7950SOL    HW235487   2.289   2.115  12.449 -0.8637  1.8090  1.9528
 7951SOL     OW35488   4.187   3.978   6.017 -0.7584  0.0520 -0.0622
 7951SOL    HW135489   4.272   3.936   6.004 -0.6922 -0.0089  0.5652
 7951SOL    HW235490   4.162   3.935   6.099 -2.5341  1.0127 -0.1098
 7952SOL     OW35491   4.666   3.303  10.635  0.1923 -0.7132  0.6757
 7952SOL    HW135492   4.685   3.388  10.596  1.5207 -0.2766  2.2618
 7952SOL    HW235493   4.715   3.320  10.716  2.4562 -0.1824 -0.8070
 7953SOL     OW35494   0.717   0.719   6.630 -0.0064  0.3384 -0.1936
 7953SOL    HW135495   0.720   0.727   6.725 -1.7384 -1.7992  0.0250
 7953SOL    HW235496   0.715   0.811   6.605  0.0882 -0.0751 -1.7375
 7954SOL     OW35497   1.604   2.577   5.285 -0.0938  0.3330  0.1806
 7954SOL    HW135498   1.656   2.565   5.205  0.5859  0.6377  0.5718
 7954SOL    HW235499   1.588   2.672   5.283  0.4501  0.3686 -2.4130
 7955SOL     OW35500   3.214   4.407   4.503 -0.7429  0.1962 -0.2359
 7955SOL    HW135501   3.196   4.490   4.459 -0.1866  0.2903 -0.2915
 7955SOL    HW235502   3.310   4.409   4.501 -0.7062 -0.8265  0.6503
 7956SOL     OW35503   0.198   3.901   8.515  0.0855  0.1914  0.1428
 7956SOL    HW135504   0.276   3.922   8.464  0.8711  0.7656  1.5799
 7956SOL    HW235505   0.157   3.988   8.509 -0.1074  0.1601  1.1394
 7957SOL     OW35506   0.408   0.272   4.266 -0.0607 -0.4087  0.5807
 7957SOL    HW135507   0.482   0.332   4.264 -1.4980  1.3106 -1.0488
 7957SOL    HW235508   0.452   0.188   4.278 -0.2148 -0.7248 -1.0446
 7958SOL     OW35509   1.614   2.050   8.791  0.4763  0.0223  0.0904
 7958SOL    HW135510   1.686   2.112   8.807 -0.3725  1.2318 -0.7383
 7958SOL    HW235511   1.606   1.998   8.870  0.0113 -1.6881 -1.0820
 7959SOL     OW35512   3.065   4.017   8.734 -0.5300 -0.3869 -0.2659
 7959SOL    HW135513   3.020   3.935   8.715  0.4911 -0.6061 -1.7298
 7959SOL    HW235514   3.068   4.016   8.829 -2.2919 -2.2972 -0.2340
 7960SOL     OW35515   1.403   4.683   0.571 -0.1708 -0.7367  0.5945
 7960SOL    HW135516   1.446   4.688   0.485 -2.2957  0.8948 -0.3775
 7960SOL    HW235517   1.425   0.033   0.610  1.1340  0.3951 -2.5719
 7961SOL     OW35518   2.974   2.939   3.248  0.1648 -0.3646  0.1201
 7961SOL    HW135519   2.933   2.888   3.178  0.0217 -0.3133  0.1664
 7961SOL    HW235520   3.065   2.912   3.233 -0.0572 -0.8214 -0.3972
 7962SOL     OW35521   1.271   1.272   1.291  0.1049 -0.2226 -0.2678
 7962SOL    HW135522   1.224   1.275   1.207  0.4671  1.4431 -0.4193
 7962SOL    HW235523   1.320   1.191   1.280 -1.9213 -1.3332 -1.1767
 7963SOL     OW35524   4.315   1.690  10.992  0.0457  0.9115 -0.2127
 7963SOL    HW135525   4.381   1.751  10.960  0.4767  1.0752  0.9666
 7963SOL    HW235526   4.349   1.662  11.077 -0.4972 -0.8427 -0.5808
 7964SOL     OW35527   4.484   1.006   8.457 -0.7915  0.1319 -0.8958
 7964SOL    HW135528   4.535   0.936   8.416  1.3158  1.1896 -0.0877
 7964SOL    HW235529   4.491   1.079   8.395 -0.4221 -0.3552 -1.4267
 7965SOL     OW35530   0.385   2.827   5.999 -0.2559  0.3934 -0.5938
 7965SOL    HW135531   0.347   2.816   5.912 -0.2454 -0.5688 -0.4771
 7965SOL    HW235532   0.363   2.741   6.033 -0.4405  0.1198 -1.4106
 7966SOL     OW35533   1.674   3.559   7.750 -0.0381 -0.3505  0.2216
 7966SOL    HW135534   1.766   3.554   7.723  0.1702 -0.0483  0.8535
 7966SOL    HW235535   1.657   3.465   7.753 -0.2066 -0.3357 -0.4447
 7967SOL     OW35536   4.714   2.479   5.403 -0.3427  0.2046 -0.1420
 7967SOL    HW135537   4.656   2.506   5.332  2.1979  1.3436 -1.8058
 7967SOL    HW235538   0.027   2.561   5.412 -1.0613  0.7541 -1.3152
 7968SOL     OW35539   1.161   3.460   0.087 -0.5380  0.0366  0.3327
 7968SOL    HW135540   1.069   3.433   0.082 -0.3582 -0.8441  1.9592
 7968SOL    HW235541   1.171   3.545   0.044 -1.0354 -0.1048 -0.0736
 7969SOL     OW35542   0.076   1.842   8.931 -0.2076 -0.1709 -0.3903
 7969SOL    HW135543   0.134   1.910   8.898 -0.3168  0.6409  1.0656
 7969SOL    HW235544   0.019   1.880   8.998  1.0696 -1.0306  1.1864
 7970SOL     OW35545   0.549   0.432   7.131 -0.0047 -0.2801  0.2558
 7970SOL    HW135546   0.626   0.489   7.130 -0.6937  0.6638  0.5257
 7970SOL    HW235547   0.491   0.480   7.190 -0.2924 -1.2683  0.7732
 7971SOL     OW35548   1.711   2.593   5.557 -0.9349  0.2644 -0.1777
 7971SOL    HW135549   1.784   2.630   5.508 -0.7286  1.0126  0.7001
 7971SOL    HW235550   1.643   2.599   5.489 -1.8111  0.3904  0.7152
 7972SOL     OW35551   1.909   1.881   7.839 -0.0197  0.2573  0.1284
 7972SOL    HW135552   1.952   1.848   7.760 -0.7347 -0.1604 -0.0857
 7972SOL    HW235553   1.912   1.804   7.897  0.7004  0.0152 -0.2281
 7973SOL     OW35554   4.049   0.424   3.590 -0.2859 -0.2262  0.4793
 7973SOL    HW135555   4.094   0.481   3.652 -0.2229 -0.8559  1.0156
 7973SOL    HW235556   3.968   0.407   3.637  0.2772 -2.8184  0.5049
 7974SOL     OW35557   2.417   1.643   5.627  0.3454 -0.1370 -0.2024
 7974SOL    HW135558   2.335   1.689   5.611  0.3152 -0.4084 -0.8293
 7974SOL    HW235559   2.470   1.722   5.639 -0.0801  0.2734 -1.0648
 7975SOL     OW35560   0.642   1.216  14.465  0.2782 -0.3608 -0.0647
 7975SOL    HW135561   0.639   1.300  14.420 -1.6720 -0.0053  0.7126
 7975SOL    HW235562   0.571   1.166  14.425  0.0264  1.4890 -1.9445
 7976SOL     OW35563   3.964   1.380   3.661 -0.3374 -0.0432 -0.6044
 7976SOL    HW135564   3.878   1.344   3.681  0.1563 -0.4547  0.7765
 7976SOL    HW235565   4.014   1.299   3.649 -1.4716 -1.0411  1.5520
 7977SOL     OW35566   2.233   0.283  12.849 -0.0020  0.5691 -0.3599
 7977SOL    HW135567   2.273   0.361  12.888  2.4352 -1.4308  1.1724
 7977SOL    HW235568   2.310   0.258  12.796 -0.7884  0.6645 -1.5453
 7978SOL     OW35569   3.694   2.967   6.698  0.3890  0.0575  0.0233
 7978SOL    HW135570   3.656   2.880   6.683 -0.1178  0.2673  0.0831
 7978SOL    HW235571   3.625   3.033   6.689  0.7671  0.5563  0.7649
 7979SOL     OW35572   1.432   4.052   6.432 -0.1495  0.4585  0.5079
 7979SOL    HW135573   1.436   4.079   6.523  2.7230 -0.9899  0.7891
 7979SOL    HW235574   1.362   4.112   6.406  1.0076  1.4345 -0.3916
 7980SOL     OW35575   1.750   3.378   5.424  0.3403 -0.0414  0.0488
 7980SOL    HW135576   1.735   3.356   5.517 -0.9438 -1.2412 -0.4331
 7980SOL    HW235577   1.782   3.468   5.432 -2.2523  0.6754  2.5637
 7981SOL     OW35578   4.589   3.061   0.917 -0.6462 -0.3335 -0.1853
 7981SOL    HW135579   4.641   3.068   0.997  0.3288 -0.6306 -0.7937
 7981SOL    HW235580   4.622   2.974   0.892 -0.6290 -0.8803  1.7099
 7982SOL     OW35581   1.676   3.780   4.958 -0.3711  0.0629 -0.2643
 7982SOL    HW135582   1.584   3.779   4.934 -1.0345 -0.9039  2.3772
 7982SOL    HW235583   1.665   3.756   5.050  1.2726  2.6848  0.6169
 7983SOL     OW35584   2.332   0.847   3.272 -0.5238  0.4120  0.1311
 7983SOL    HW135585   2.405   0.907   3.260  1.8035 -1.8494  3.1412
 7983SOL    HW235586   2.261   0.910   3.284 -0.9362 -0.7511  3.7947
 7984SOL     OW35587   1.776   0.214   5.631 -0.5379  0.1953 -0.1199
 7984SOL    HW135588   1.828   0.239   5.555 -0.7088  0.9402  0.0077
 7984SOL    HW235589   1.837   0.234   5.702 -1.8786 -1.0170  1.3679
 7985SOL     OW35590   4.571   1.035   3.614  0.0887 -0.2179 -0.3955
 7985SOL    HW135591   4.607   1.093   3.546 -0.0395  0.0915 -0.1929
 7985SOL    HW235592   4.480   1.017   3.592 -0.4812  1.1987  0.8782
 7986SOL     OW35593   1.508   4.388  15.133  0.5357 -0.3868  0.4184
 7986SOL    HW135594   1.566   4.454  15.096 -0.1729 -0.0008 -0.0248
 7986SOL    HW235595   1.557   4.339  15.199 -2.2898  0.2888  3.0100
 7987SOL     OW35596   3.326   3.099  10.833  0.2932 -0.0198 -0.3063
 7987SOL    HW135597   3.419   3.089  10.850  0.3940 -2.4671 -2.1768
 7987SOL    HW235598   3.323   3.096  10.737 -1.8216 -1.9727 -0.1883
 7988SOL     OW35599   4.483   0.120   4.332  0.0055 -0.2222 -0.5974
 7988SOL    HW135600   4.465   0.104   4.240 -3.4423  1.1389 -0.1593
 7988SOL    HW235601   4.423   0.068   4.386  0.5468  1.8588  2.0090
 7989SOL     OW35602   4.031   1.307   4.424  0.5141 -0.2006 -0.0182
 7989SOL    HW135603   4.075   1.224   4.442 -0.8879 -0.4498  2.2291
 7989SOL    HW235604   3.966   1.285   4.357 -2.4013 -0.4058  2.8577
 7990SOL     OW35605   2.270   1.428   5.704 -0.3353 -0.4292 -0.0312
 7990SOL    HW135606   2.329   1.359   5.674 -0.4484 -0.6224  0.1839
 7990SOL    HW235607   2.323   1.504   5.679 -2.4122  0.5442 -1.4109
 7991SOL     OW35608   1.634   1.812   2.539 -0.7512 -0.4562  0.2688
 7991SOL    HW135609   1.692   1.884   2.564 -0.2440 -0.1574 -1.7552
 7991SOL    HW235610   1.637   1.821   2.444 -1.6838 -1.0699  0.1845
 7992SOL     OW35611   3.979   3.336  11.486 -0.0474 -0.4261  0.3072
 7992SOL    HW135612   4.053   3.309  11.432 -0.4889 -1.3927  0.1870
 7992SOL    HW235613   3.928   3.381  11.418  0.2158  1.8832  1.6615
 7993SOL     OW35614   3.174   1.165  15.320 -0.6514 -0.1100 -0.2002
 7993SOL    HW135615   3.096   1.182  15.266 -0.6477  1.9588  0.4630
 7993SOL    HW235616   3.248   1.165  15.260  0.3566  1.2634  1.0399
 7994SOL     OW35617   0.394   4.189  14.515 -0.3098  0.3434 -0.3534
 7994SOL    HW135618   0.357   4.264  14.469  0.5762  0.6985 -0.4887
 7994SOL    HW235619   0.312   4.154  14.551  0.3632 -0.6663  0.1865
 7995SOL     OW35620   1.529   1.864   9.018 -0.3868 -0.6091  0.1533
 7995SOL    HW135621   1.476   1.845   9.096 -1.7938  0.7277 -0.4762
 7995SOL    HW235622   1.602   1.804   9.032 -0.1500 -0.5605 -0.8958
 7996SOL     OW35623   4.141   2.569   2.955 -0.4612 -0.2359  0.1160
 7996SOL    HW135624   4.178   2.555   3.042 -0.5117 -0.9155  0.0288
 7996SOL    HW235625   4.202   2.509   2.912 -0.8573  1.2987 -2.5605
 7997SOL     OW35626   2.585   0.240   1.156 -0.1038  0.7787 -0.1955
 7997SOL    HW135627   2.642   0.219   1.230  1.3571 -2.8770 -2.3346
 7997SOL    HW235628   2.506   0.186   1.163  0.0342  0.2797 -2.2629
 7998SOL     OW35629   1.011   2.232   7.295  0.2657  0.0483 -0.0240
 7998SOL    HW135630   0.974   2.289   7.228 -2.9171 -0.5640  1.2200
 7998SOL    HW235631   0.936   2.177   7.316  0.7180 -0.5268  0.0879
 7999SOL     OW35632   1.098   1.929   0.403  0.3358  0.0064 -0.2933
 7999SOL    HW135633   1.099   1.834   0.386 -0.2865  0.1637 -1.2248
 7999SOL    HW235634   1.127   1.962   0.318  0.0080  0.7075 -0.1279
 8000SOL     OW35635   1.831   2.656   8.774  0.3319 -0.5717 -0.6676
 8000SOL    HW135636   1.744   2.626   8.800  0.1301 -0.6015 -1.3829
 8000SOL    HW235637   1.806   2.711   8.700  1.4556  1.1668  0.2577
 8001SOL     OW35638   4.522   3.321  16.555 -0.5057  0.2368  0.7028
 8001SOL    HW135639   4.427   3.331  16.557 -0.7304 -0.8838 -4.7681
 8001SOL    HW235640   4.555   3.386  16.492  1.8078  0.4400  2.1504
 8002SOL     OW35641   3.542   3.924  17.704  0.0649  0.2221 -0.6895
 8002SOL    HW135642   3.511   3.887   0.049  0.0871  1.8731  0.0595
 8002SOL    HW235643   3.500   4.010  17.716 -2.4065 -1.2497  1.1216
 8003SOL     OW35644   4.505   0.779   2.568  0.1244  0.9301 -0.1753
 8003SOL    HW135645   4.464   0.854   2.524  0.3639 -0.5077 -2.8806
 8003SOL    HW235646   4.593   0.769   2.532  0.4876 -1.2656  1.3022
 8004SOL     OW35647   2.237   0.273   0.263 -0.3819  0.1699 -0.3089
 8004SOL    HW135648   2.163   0.275   0.323  0.0808 -1.4705  0.3252
 8004SOL    HW235649   2.252   0.180   0.250 -2.5556 -0.1316 -0.5525
 8005SOL     OW35650   4.234   3.187   9.117  0.1521  0.2366 -0.4820
 8005SOL    HW135651   4.327   3.208   9.111  0.4431 -1.1305 -0.8833
 8005SOL    HW235652   4.213   3.224   9.203 -1.1726 -1.0456 -0.2657
 8006SOL     OW35653   0.841   2.412  15.174 -0.0405 -0.1521 -0.2253
 8006SOL    HW135654   0.830   2.320  15.196  0.5787 -0.0601  0.4749
 8006SOL    HW235655   0.811   2.442  15.260  1.9352 -0.8911  0.7209
 8007SOL     OW35656   3.754   3.115  10.444 -0.3103 -1.2193 -0.2173
 8007SOL    HW135657   3.683   3.072  10.397 -0.4437 -1.1893 -0.0431
 8007SOL    HW235658   3.785   3.047  10.504  1.8010  0.6757  0.8420
 8008SOL     OW35659   3.045   0.285  16.929  0.0490 -0.1691 -0.0446
 8008SOL    HW135660   3.068   0.302  17.020 -2.4457 -0.4171  0.6125
 8008SOL    HW235661   3.097   0.205  16.923  0.5528  0.2983 -2.1089
 8009SOL     OW35662   0.359   3.815   6.883 -0.1756  0.0903 -0.5326
 8009SOL    HW135663   0.294   3.807   6.813 -0.6467  1.6179 -0.2754
 8009SOL    HW235664   0.395   3.904   6.880  0.8864 -0.3433 -0.3683
 8010SOL     OW35665   2.449   1.345  17.121 -0.1393  0.0660 -0.1074
 8010SOL    HW135666   2.454   1.331  17.027  1.5043  2.5339 -0.3831
 8010SOL    HW235667   2.360   1.377  17.133 -0.0747  0.7455 -1.4366
 8011SOL     OW35668   0.227   0.203  16.357 -0.1027 -0.0008 -0.1170
 8011SOL    HW135669   0.235   0.114  16.323  2.2351  0.2565 -0.2433
 8011SOL    HW235670   0.240   0.256  16.278  0.4122  1.0536  0.6789
 8012SOL     OW35671   0.398   1.126   5.778  0.0951 -0.2912  0.0003
 8012SOL    HW135672   0.457   1.142   5.852  0.2925 -1.5075  0.0993
 8012SOL    HW235673   0.380   1.034   5.797 -0.5740 -0.0531  0.5061
 8013SOL     OW35674   2.478   3.452   1.842 -0.3966 -0.5021 -0.0378
 8013SOL    HW135675   2.553   3.409   1.800  0.9576  1.3874  0.4104
 8013SOL    HW235676   2.529   3.519   1.889 -1.6891  0.3868  0.1057
 8014SOL     OW35677   0.426   4.028   1.754 -0.0205 -0.9933  0.1941
 8014SOL    HW135678   0.472   3.944   1.749  3.0665  0.7734 -1.1134
 8014SOL    HW235679   0.348   3.994   1.709  0.4973 -1.7539 -0.1359
 8015SOL     OW35680   3.444   4.069   6.785  0.2579  0.4699 -0.3189
 8015SOL    HW135681   3.506   4.124   6.833  1.6897 -1.1213 -0.3456
 8015SOL    HW235682   3.366   4.093   6.835  2.0783  0.0370  2.7112
 8016SOL     OW35683   3.468   1.976   7.612 -0.3054  0.3298  0.4737
 8016SOL    HW135684   3.512   1.905   7.565  0.3671 -0.2581  1.9866
 8016SOL    HW235685   3.399   1.922   7.649 -0.7031  0.8219  0.4389
 8017SOL     OW35686   3.718   3.953   3.168 -0.0070 -0.2318 -0.1868
 8017SOL    HW135687   3.735   3.942   3.074 -0.3948  0.1539 -0.3060
 8017SOL    HW235688   3.645   4.016   3.169  1.2303  1.2476 -2.0245
 8018SOL     OW35689   3.891   4.310   6.557 -0.3316  0.1718 -0.0861
 8018SOL    HW135690   3.984   4.289   6.542 -0.4571 -0.3262 -0.1678
 8018SOL    HW235691   3.857   4.312   6.468 -0.6691 -1.7591 -0.0136
 8019SOL     OW35692   4.596   3.454   4.295 -0.1512 -0.0881 -0.5272
 8019SOL    HW135693   4.611   3.543   4.263  1.3449  0.2314  1.0382
 8019SOL    HW235694   4.681   3.438   4.337 -0.1892  2.3678  0.4658
 8020SOL     OW35695   1.286   1.551  15.789  0.0147 -0.0651 -0.7585
 8020SOL    HW135696   1.223   1.522  15.855  2.8821  0.7096  2.3557
 8020SOL    HW235697   1.342   1.474  15.778 -1.4122 -1.3872  1.0756
 8021SOL     OW35698   2.613   1.227   9.535 -0.6929 -0.5016  0.1806
 8021SOL    HW135699   2.707   1.225   9.554 -0.1398 -0.5040 -2.6479
 8021SOL    HW235700   2.597   1.136   9.509 -0.5123  0.0985 -1.9715
 8022SOL     OW35701   4.137   3.137   2.862  0.0869  0.4808 -0.2495
 8022SOL    HW135702   4.060   3.082   2.848  1.0561 -1.1486  0.7074
 8022SOL    HW235703   4.148   3.175   2.775  1.9134 -0.1073 -0.2756
 8023SOL     OW35704   1.297   4.608   0.057  0.3969 -0.1410  0.1370
 8023SOL    HW135705   1.383   4.637   0.087  0.2611  0.8997 -0.4883
 8023SOL    HW235706   1.260   4.687   0.018 -1.0115 -0.3583  1.0204
 8024SOL     OW35707   0.109   2.117   2.733  0.4192  0.2485  0.2382
 8024SOL    HW135708   0.110   2.027   2.765 -0.0819 -1.3979 -4.4486
 8024SOL    HW235709   0.163   2.169   2.792 -0.2805  0.7667  0.4195
 8025SOL     OW35710   4.156   1.174   3.614  0.0246  0.6481 -0.3570
 8025SOL    HW135711   4.208   1.111   3.564 -1.5348 -1.8713  1.2194
 8025SOL    HW235712   4.219   1.227   3.663  0.1103 -0.5740  0.8536
 8026SOL     OW35713   0.776   2.357   4.201 -0.1857  0.8985 -0.2063
 8026SOL    HW135714   0.856   2.317   4.167 -1.0603 -1.3664  0.3967
 8026SOL    HW235715   0.713   2.308   4.149  1.9920 -1.8864 -0.2410
 8027SOL     OW35716   1.753   1.704   9.073  0.6669 -0.1570  0.1476
 8027SOL    HW135717   1.779   1.707   8.981  0.3996 -0.7000  0.0564
 8027SOL    HW235718   1.839   1.700   9.113 -0.2923 -1.6706  2.0503
 8028SOL     OW35719   3.906   4.325  11.423  0.6405  0.2653  0.4698
 8028SOL    HW135720   3.966   4.324  11.349  0.3302  0.6434  0.2120
 8028SOL    HW235721   3.871   4.414  11.409  0.6365  0.3037  0.7293
 8029SOL     OW35722   4.270   0.667   4.998 -1.0404  0.4301 -0.1766
 8029SOL    HW135723   4.365   0.681   4.997 -0.8945 -0.5186 -0.1784
 8029SOL    HW235724   4.246   0.650   5.089  2.0554  0.3888  0.6160
 8030SOL     OW35725   1.760   0.150   7.045 -0.2362 -0.0531 -0.1089
 8030SOL    HW135726   1.821   0.223   7.050 -0.2636 -0.0253 -0.2004
 8030SOL    HW235727   1.694   0.187   7.103  0.9054 -1.4121  2.0819
 8031SOL     OW35728   3.941   4.447   8.576 -0.0562 -0.1318 -0.1897
 8031SOL    HW135729   4.004   4.396   8.524  0.4879  0.2366  0.1045
 8031SOL    HW235730   3.927   4.403   8.660  1.1365  0.7817  0.4930
 8032SOL     OW35731   4.150   2.452   4.568 -0.4836  0.0452 -0.0188
 8032SOL    HW135732   4.143   2.371   4.619  0.1929 -1.0461 -1.6443
 8032SOL    HW235733   4.136   2.410   4.483 -0.1637 -1.2458  0.5670
 8033SOL     OW35734   1.389   2.687  14.331  0.2971 -0.1315  0.3847
 8033SOL    HW135735   1.405   2.678  14.237 -0.6639  0.0802  0.1989
 8033SOL    HW235736   1.301   2.650  14.325 -0.4396  1.9263 -1.2931
 8034SOL     OW35737   1.958   2.375   4.072  0.0191 -0.4903 -0.1306
 8034SOL    HW135738   2.036   2.399   4.121 -1.2370  3.1197  0.0888
 8034SOL    HW235739   1.923   2.302   4.123 -0.3695 -0.9654 -1.0745
 8035SOL     OW35740   4.664   1.163   5.695 -0.4518 -0.5466 -0.0435
 8035SOL    HW135741   4.605   1.208   5.755 -0.7139  1.3899 -1.8000
 8035SOL    HW235742   4.639   1.199   5.610 -1.0520 -2.6845 -0.7857
 8036SOL     OW35743   2.889   3.099   2.927 -0.6205  0.1723  0.2754
 8036SOL    HW135744   2.823   3.110   2.859  0.5265 -0.4104 -0.9129
 8036SOL    HW235745   2.836   3.103   3.007 -2.0663 -0.6247 -0.6493
 8037SOL     OW35746   4.669   2.759   3.839 -0.2786  0.6209 -0.1349
 8037SOL    HW135747   4.690   2.712   3.759 -0.0415  3.6317 -1.8288
 8037SOL    HW235748   4.650   2.852   3.822 -0.0399  0.7199  0.1341
 8038SOL     OW35749   4.591   1.807   2.582  0.1149 -0.5405 -0.0323
 8038SOL    HW135750   4.647   1.839   2.653 -1.2666  1.5297  0.1163
 8038SOL    HW235751   4.510   1.840   2.620 -0.4310 -1.1797 -0.6412
 8039SOL     OW35752   4.284   0.446  16.731  0.5979  0.6791  0.5353
 8039SOL    HW135753   4.365   0.480  16.768 -0.5668  3.2497  0.7285
 8039SOL    HW235754   4.233   0.520  16.698 -0.9226  0.1120  1.6028
 8040SOL     OW35755   3.783   3.130  13.147 -0.2383 -0.0922  0.2329
 8040SOL    HW135756   3.718   3.089  13.204  2.0133 -1.7582  1.5989
 8040SOL    HW235757   3.726   3.166  13.079 -2.2827  2.5450  3.3691
 8041SOL     OW35758   4.713   2.713   8.448 -0.0034 -0.1660  0.0773
 8041SOL    HW135759   0.018   2.698   8.534 -0.9181  0.3056  0.5702
 8041SOL    HW235760   4.649   2.643   8.432 -2.6375  1.9932  1.2327
 8042SOL     OW35761   1.892   0.233   3.716  0.7939  0.9279  0.0452
 8042SOL    HW135762   1.943   0.228   3.635  0.2410 -1.0204 -0.1970
 8042SOL    HW235763   1.811   0.279   3.695 -0.3773  0.6843  4.1645
 8043SOL     OW35764   1.886   4.606   6.343  0.1464  0.2753  0.1226
 8043SOL    HW135765   1.980   4.594   6.356  0.2510  0.1961 -0.6639
 8043SOL    HW235766   1.856   4.585   6.431 -1.5591 -0.4545 -0.6379
 8044SOL     OW35767   3.792   0.000   0.120  0.4161 -0.5452 -0.2518
 8044SOL    HW135768   3.795   0.084   0.073  0.9149 -0.4989 -0.1400
 8044SOL    HW235769   3.878   4.698   0.102  0.8872  1.1646 -1.5624
 8045SOL     OW35770   1.109   4.056   4.265 -0.3347 -0.0324  0.6530
 8045SOL    HW135771   1.183   4.009   4.303  1.4783  2.4509  0.2133
 8045SOL    HW235772   1.044   3.987   4.259 -0.0936  0.0941 -3.3748
 8046SOL     OW35773   0.707   2.707   7.478 -0.5730 -0.0234  0.2541
 8046SOL    HW135774   0.660   2.636   7.522  1.0993 -1.3298 -0.0397
 8046SOL    HW235775   0.633   2.747   7.434 -0.6381 -0.4895 -0.0667
 8047SOL     OW35776   4.045   1.322   9.102 -0.0032  0.2229 -0.3408
 8047SOL    HW135777   3.962   1.352   9.139 -0.1555 -0.3560 -0.2085
 8047SOL    HW235778   4.037   1.226   9.098  0.3018  0.2508 -1.5773
 8048SOL     OW35779   2.041   2.052  15.393 -0.0627  0.0851 -0.6708
 8048SOL    HW135780   2.120   2.106  15.397 -0.6834  0.8819  0.9344
 8048SOL    HW235781   2.085   1.967  15.394  1.0162  0.6663  1.2568
 8049SOL     OW35782   3.815   2.547  16.008 -0.2512 -0.2844  0.0455
 8049SOL    HW135783   3.798   2.640  16.028  0.3089  0.3316 -2.3118
 8049SOL    HW235784   3.903   2.536  16.043 -0.2461  0.7878  0.3778
 8050SOL     OW35785   0.600   4.224  14.332  0.0905 -0.1221 -0.3809
 8050SOL    HW135786   0.544   4.195  14.404  1.0998 -1.8755 -0.2913
 8050SOL    HW235787   0.618   4.139  14.292 -0.5588 -0.3036 -0.2890
 8051SOL     OW35788   4.506   0.363  14.253 -0.2908  0.0638 -0.1272
 8051SOL    HW135789   4.431   0.321  14.295 -0.4935 -0.6907 -1.2285
 8051SOL    HW235790   4.519   0.420  14.329 -0.6605 -1.3691  1.0087
 8052SOL     OW35791   4.201   3.241  12.301  0.1973 -0.0615 -0.2513
 8052SOL    HW135792   4.174   3.167  12.247  0.1179  1.2129 -1.9538
 8052SOL    HW235793   4.147   3.225  12.379  1.5032 -2.4131  0.1614
 8053SOL     OW35794   1.301   3.852   7.220  0.0123  0.0772  0.6104
 8053SOL    HW135795   1.293   3.759   7.200  2.1490  0.0337 -0.0965
 8053SOL    HW235796   1.326   3.848   7.313 -1.7052 -1.3391  1.0011
 8054SOL     OW35797   1.167   0.770   7.310 -0.3338  0.4713  0.6549
 8054SOL    HW135798   1.177   0.805   7.399  0.8812 -2.9127  1.8424
 8054SOL    HW235799   1.257   0.766   7.281 -0.9754  1.8695 -1.4984
 8055SOL     OW35800   1.753   2.035   6.524 -0.3978 -0.1501  0.0322
 8055SOL    HW135801   1.785   1.980   6.452  0.5833  1.8964 -1.1050
 8055SOL    HW235802   1.809   2.002   6.594  1.2140  2.4582 -0.0135
 8056SOL     OW35803   2.541   0.754   9.776  0.2848 -0.3337  0.5089
 8056SOL    HW135804   2.475   0.745   9.707  1.1389 -0.3162 -0.3079
 8056SOL    HW235805   2.554   0.661   9.795  3.6040  0.1169  0.4331
 8057SOL     OW35806   3.337   0.183   5.162  0.1728  0.0901 -0.1497
 8057SOL    HW135807   3.382   0.254   5.209 -0.9536 -0.1935  1.3758
 8057SOL    HW235808   3.364   0.208   5.074 -1.0030  0.8354 -0.2920
 8058SOL     OW35809   1.908   3.916  12.139  0.3962  0.1902 -0.1086
 8058SOL    HW135810   2.002   3.911  12.120  0.0206  0.0483 -1.9050
 8058SOL    HW235811   1.861   3.869  12.070  0.4779 -0.6689  0.4125
 8059SOL     OW35812   4.306   2.418  16.843  0.0040  0.1505  0.0041
 8059SOL    HW135813   4.272   2.408  16.931 -0.3910  2.2231  0.0862
 8059SOL    HW235814   4.269   2.503  16.822 -0.1224 -0.3968 -2.0552
 8060SOL     OW35815   0.520   1.578  11.923  0.2177 -0.4571  0.6532
 8060SOL    HW135816   0.495   1.669  11.933  1.2792 -0.0027 -0.8422
 8060SOL    HW235817   0.449   1.536  11.971  1.7758  1.2568  4.4415
 8061SOL     OW35818   1.306   0.572  13.122  0.2187 -0.4722 -0.5733
 8061SOL    HW135819   1.371   0.578  13.192  2.5722  0.3614 -2.8217
 8061SOL    HW235820   1.343   0.640  13.065 -0.5207  0.8012  0.4763
 8062SOL     OW35821   0.052   0.059   1.303 -0.2556 -0.1233 -0.6225
 8062SOL    HW135822   0.082   0.020   1.385 -2.2044  0.0384  0.1915
 8062SOL    HW235823   0.044   0.150   1.333 -0.3544  0.0751 -1.2619
 8063SOL     OW35824   3.223   0.530   3.302  0.3739  0.7699  0.2063
 8063SOL    HW135825   3.192   0.532   3.212 -2.1954  0.0873  1.0982
 8063SOL    HW235826   3.160   0.571   3.361 -0.2503  1.6791 -1.1154
 8064SOL     OW35827   0.027   2.115   9.715 -0.4220 -0.4907 -0.3362
 8064SOL    HW135828   0.082   2.153   9.647  2.9982 -0.3322  2.5001
 8064SOL    HW235829   0.055   2.024   9.719 -0.5503 -0.5203 -0.1040
 8065SOL     OW35830   4.588   0.661   5.942 -0.3222 -0.4041  0.3849
 8065SOL    HW135831   4.606   0.652   5.848 -2.0948 -0.3628  0.0443
 8065SOL    HW235832   4.493   0.645   5.939 -0.4399 -0.0437  2.1633
 8066SOL     OW35833   4.485   4.660   8.209  0.3900 -0.4789  0.1618
 8066SOL    HW135834   4.419   4.655   8.279  1.8214 -2.8730  1.3191
 8066SOL    HW235835   4.512   4.569   8.200 -0.1678 -0.5804 -0.4997
 8067SOL     OW35836   2.291   2.121   9.899 -0.4714  0.1660 -0.1911
 8067SOL    HW135837   2.204   2.082   9.908 -0.6786  0.5469 -0.5712
 8067SOL    HW235838   2.339   2.039   9.912  0.6559  1.0322  1.1678
 8068SOL     OW35839   1.525   3.116   1.849 -0.0187  0.2052  0.3009
 8068SOL    HW135840   1.478   3.142   1.928 -0.0308  2.2954 -0.4045
 8068SOL    HW235841   1.490   3.174   1.781  1.2838  0.6438  0.0066
 8069SOL     OW35842   1.688   3.698  15.704  0.0352  0.3376 -0.1541
 8069SOL    HW135843   1.700   3.793  15.716  1.7438 -0.0009  0.8138
 8069SOL    HW235844   1.592   3.694  15.706 -0.0045  0.5406 -1.8780
 8070SOL     OW35845   2.305   2.025   1.079  0.8528 -0.0278  0.2142
 8070SOL    HW135846   2.223   2.005   1.035  1.1646  0.8553 -0.7644
 8070SOL    HW235847   2.282   2.083   1.152 -4.7160 -1.3790 -0.4798
 8071SOL     OW35848   3.838   0.414   6.120 -0.3127  0.1555 -0.2758
 8071SOL    HW135849   3.764   0.397   6.177 -2.1945  0.0003 -2.7578
 8071SOL    HW235850   3.888   0.337   6.146 -0.5259 -0.1335 -0.7074
 8072SOL     OW35851   2.616   2.016   1.384  0.1761 -0.3324 -0.3412
 8072SOL    HW135852   2.565   1.965   1.321 -1.4042 -0.9642  1.4409
 8072SOL    HW235853   2.681   2.065   1.334  1.9216  0.0376  2.2797
 8073SOL     OW35854   2.702   1.136  13.123 -0.5650 -0.0153  0.2811
 8073SOL    HW135855   2.767   1.138  13.053 -1.5977 -2.0966 -0.7536
 8073SOL    HW235856   2.627   1.123  13.064  0.7608 -0.0025 -1.3825
 8074SOL     OW35857   0.590   4.002   6.429 -0.4457 -0.2263  0.0814
 8074SOL    HW135858   0.499   3.974   6.444 -0.9237 -1.0833 -4.3715
 8074SOL    HW235859   0.583   4.001   6.333 -0.5653 -0.5417  0.0932
 8075SOL     OW35860   1.424   3.498  12.441 -0.6286  0.0795 -0.2832
 8075SOL    HW135861   1.464   3.469  12.522 -0.7633 -0.6475 -0.4767
 8075SOL    HW235862   1.348   3.440  12.442  0.5315 -1.3918  1.4566
 8076SOL     OW35863   4.466   4.418   1.531  0.2983 -0.3269  0.6376
 8076SOL    HW135864   4.463   4.327   1.500  2.5529  0.8545 -3.0129
 8076SOL    HW235865   4.397   4.445   1.470 -0.1654 -2.0116  0.3986
 8077SOL     OW35866   2.203   1.877  16.744 -0.1490 -0.4233 -0.2286
 8077SOL    HW135867   2.163   1.894  16.830  1.3318 -2.0979  0.7979
 8077SOL    HW235868   2.136   1.914  16.687 -2.2229 -1.7514  1.3383
 8078SOL     OW35869   2.875   2.559  17.268 -0.6390  0.5855 -0.0369
 8078SOL    HW135870   2.812   2.619  17.227 -0.6409  0.9061  0.4406
 8078SOL    HW235871   2.825   2.480  17.248 -0.2452  0.8200 -1.9797
 8079SOL     OW35872   0.268   2.124   4.357  0.2077 -0.1667 -0.5426
 8079SOL    HW135873   0.261   2.185   4.430 -1.9919  2.3984 -2.8708
 8079SOL    HW235874   0.186   2.077   4.371  1.9718 -2.7101  1.2198
 8080SOL     OW35875   1.914   4.105  14.122 -0.0829 -0.1730 -0.4944
 8080SOL    HW135876   1.854   4.178  14.141  1.1867  0.9132 -0.6774
 8080SOL    HW235877   1.991   4.148  14.086  0.2927 -0.5960 -0.1888
 8081SOL     OW35878   1.501   4.011   5.710  0.1979  0.6997  0.1853
 8081SOL    HW135879   1.532   3.926   5.740 -0.3155  0.6901  0.6952
 8081SOL    HW235880   1.420   4.010   5.760 -1.0906  0.9702 -1.8697
 8082SOL     OW35881   1.335   2.771   1.884 -0.1435 -0.3874  0.4403
 8082SOL    HW135882   1.414   2.794   1.932  0.2363  0.3575 -0.5385
 8082SOL    HW235883   1.319   2.850   1.833 -1.2537 -2.1787 -2.0113
 8083SOL     OW35884   4.721   1.627  17.097 -0.3396  0.3456 -0.0223
 8083SOL    HW135885   0.052   1.558  17.110  2.2666  2.8279 -0.1512
 8083SOL    HW235886   4.725   1.646  17.003 -0.5819  1.3231  0.1737
 8084SOL     OW35887   4.340   3.635   8.482 -0.5880 -0.2148  0.0048
 8084SOL    HW135888   4.269   3.576   8.510 -1.1490  0.6352  0.3608
 8084SOL    HW235889   4.296   3.719   8.493  1.4947  0.8199  0.2468
 8085SOL     OW35890   3.609   4.286   2.503  0.3954 -0.2405 -0.3755
 8085SOL    HW135891   3.695   4.283   2.463  0.5653 -0.2385 -0.0069
 8085SOL    HW235892   3.574   4.365   2.462 -0.9225 -0.9547 -0.6547
 8086SOL     OW35893   3.641   1.684  12.084 -0.0066  0.2551  0.1356
 8086SOL    HW135894   3.681   1.718  12.004 -1.1618 -2.4021 -1.5767
 8086SOL    HW235895   3.673   1.762  12.130 -1.6454  0.2523  1.2710
 8087SOL     OW35896   2.872   0.249  10.114 -0.1454  0.4628 -0.0701
 8087SOL    HW135897   2.803   0.316  10.117  0.5190  1.2431 -2.3186
 8087SOL    HW235898   2.929   0.283  10.183 -0.2166  1.0528 -0.2999
 8088SOL     OW35899   0.682   4.474  13.979  0.3205  0.2960  0.2011
 8088SOL    HW135900   0.774   4.498  13.985  0.8578 -1.0501 -2.9407
 8088SOL    HW235901   0.687   4.428  13.895  2.4639 -2.6221  1.9088
 8089SOL     OW35902   3.910   1.012   9.384 -0.4800 -0.0460  0.2551
 8089SOL    HW135903   3.893   0.948   9.453  0.2391  1.0212  1.4303
 8089SOL    HW235904   3.828   1.060   9.391  1.2751  2.6594  1.9545
 8090SOL     OW35905   2.139   3.504   6.646  0.5217  0.5496 -0.2988
 8090SOL    HW135906   2.146   3.592   6.610 -0.0691  0.4448 -0.6754
 8090SOL    HW235907   2.108   3.532   6.732  0.1013 -0.8596  0.0194
 8091SOL     OW35908   0.902   0.529   5.913 -0.0697  0.6657 -0.7090
 8091SOL    HW135909   0.943   0.611   5.942  0.1689  0.6236 -0.9291
 8091SOL    HW235910   0.810   0.544   5.935 -0.1621  3.7376 -3.2772
 8092SOL     OW35911   1.493   4.260   3.293 -0.4695 -0.4788  0.3912
 8092SOL    HW135912   1.449   4.327   3.345  0.9840  2.1888 -1.8169
 8092SOL    HW235913   1.586   4.279   3.282 -0.9955  0.1553 -2.7928
 8093SOL     OW35914   1.476   2.566   1.769  0.0639  0.8136 -0.1285
 8093SOL    HW135915   1.436   2.556   1.682 -0.9710  1.6655  0.2532
 8093SOL    HW235916   1.415   2.631   1.805  0.6339  1.3132 -0.0762
 8094SOL     OW35917   1.554   2.565   0.066 -0.7180 -0.3529  0.0783
 8094SOL    HW135918   1.579   2.474   0.056 -2.1211 -0.6650 -0.6612
 8094SOL    HW235919   1.634   2.611   0.042 -1.2339  0.5141  0.0079
 8095SOL     OW35920   4.426   1.432   6.494 -0.6374 -0.0605  0.3831
 8095SOL    HW135921   4.458   1.409   6.582 -0.5557 -2.0521 -0.1628
 8095SOL    HW235922   4.479   1.510   6.477  1.7976 -2.0041 -1.0003
 8096SOL     OW35923   3.570   3.494   5.426 -0.4221  0.0534  0.1652
 8096SOL    HW135924   3.606   3.570   5.470  0.0100 -1.5694  2.6179
 8096SOL    HW235925   3.645   3.434   5.417  0.7494  1.6531 -0.6886
 8097SOL     OW35926   2.448   0.380   4.335  0.0651 -0.3240 -0.0023
 8097SOL    HW135927   2.506   0.442   4.291  0.5364  0.3038  1.5106
 8097SOL    HW235928   2.373   0.401   4.280  1.2462  1.3919 -0.9963
 8098SOL     OW35929   3.540   0.837   5.598 -0.2800 -0.3711  0.7116
 8098SOL    HW135930   3.472   0.852   5.663 -3.3633 -0.6377 -2.4648
 8098SOL    HW235931   3.526   0.919   5.550 -0.6902  0.8461  2.9208
 8099SOL     OW35932   2.700   0.105   1.356 -0.2404 -0.4779  0.1351
 8099SOL    HW135933   2.637   0.090   1.427 -0.4020 -0.4973 -0.0126
 8099SOL    HW235934   2.750   0.024   1.343  1.3981  0.6209 -0.3343
 8100SOL     OW35935   2.313   0.914   5.799  0.0856  0.3326  0.1429
 8100SOL    HW135936   2.395   0.938   5.842  1.3880 -2.2404 -0.9494
 8100SOL    HW235937   2.273   1.001   5.793  0.9195  0.7297  0.2932
 8101SOL     OW35938   3.457   1.591   3.443  0.0464  0.9465  0.3052
 8101SOL    HW135939   3.512   1.667   3.457  2.4288 -0.1449 -3.2058
 8101SOL    HW235940   3.502   1.554   3.367 -0.7394 -2.0681  1.3231
 8102SOL     OW35941   4.625   1.880  16.382 -0.2235  0.1703 -0.0582
 8102SOL    HW135942   4.571   1.831  16.444 -2.9932  1.6467 -1.3357
 8102SOL    HW235943   4.636   1.815  16.312 -1.0461 -0.0526  0.0208
 8103SOL     OW35944   2.586   2.910   2.072  0.1158 -0.3486 -0.2596
 8103SOL    HW135945   2.523   2.839   2.062  0.7771 -0.6146 -2.5056
 8103SOL    HW235946   2.654   2.860   2.118  0.0015  0.6121  0.9738
 8104SOL     OW35947   0.191   3.977   4.252 -0.7304 -0.5514 -0.0725
 8104SOL    HW135948   0.278   3.997   4.285  0.1485  1.1931 -3.3695
 8104SOL    HW235949   0.219   3.937   4.170 -2.3547 -0.5784 -0.6103
 8105SOL     OW35950   2.521   4.515   5.715  0.0958  0.1676 -0.7220
 8105SOL    HW135951   2.458   4.451   5.749 -0.4203 -0.6609 -3.2262
 8105SOL    HW235952   2.549   4.557   5.796  1.8326  1.6010 -2.0723
 8106SOL     OW35953   4.483   0.050   3.204 -0.2826 -0.5029  0.6399
 8106SOL    HW135954   4.407   4.733   3.232 -0.6573  0.2812  1.0683
 8106SOL    HW235955   4.472   0.054   3.109  1.1204 -1.0864  0.4592
 8107SOL     OW35956   3.205   0.388  15.604 -0.3297 -0.1212  0.1725
 8107SOL    HW135957   3.226   0.362  15.694  1.2951  1.5223  0.2648
 8107SOL    HW235958   3.287   0.434  15.586 -1.0534  0.8860 -0.5497
 8108SOL     OW35959   4.375   2.418   2.257  0.0852 -0.1575 -0.0564
 8108SOL    HW135960   4.303   2.360   2.232 -1.7730  1.3248  1.8774
 8108SOL    HW235961   4.453   2.363   2.253  0.4907  0.3617  0.8418
 8109SOL     OW35962   2.279   0.269   2.018  0.2566 -0.1673 -0.2821
 8109SOL    HW135963   2.328   0.285   2.099  0.8001 -1.0871 -0.4264
 8109SOL    HW235964   2.335   0.206   1.973  0.1680  0.6865 -1.5655
 8110SOL     OW35965   1.971   3.797   2.632 -0.6425 -0.8334 -0.0171
 8110SOL    HW135966   1.992   3.731   2.565  0.2058 -0.9813  0.4057
 8110SOL    HW235967   1.914   3.851   2.578  0.7686  1.5154  0.8651
 8111SOL     OW35968   2.128   4.098   3.038 -0.0518 -1.1959  1.0370
 8111SOL    HW135969   2.176   4.047   2.973 -2.6332  0.7449 -2.4521
 8111SOL    HW235970   2.189   4.097   3.111  0.3205 -0.8484  0.7329
 8112SOL     OW35971   1.252   2.879   8.158  0.2787  0.0813 -0.0258
 8112SOL    HW135972   1.310   2.838   8.094 -0.7469 -0.6001 -0.5163
 8112SOL    HW235973   1.202   2.937   8.100  1.7559  0.0979 -1.2897
 8113SOL     OW35974   3.880   0.606   5.826  0.0580 -0.3645 -0.2889
 8113SOL    HW135975   3.839   0.608   5.740 -0.1516 -3.4455 -0.2611
 8113SOL    HW235976   3.813   0.571   5.884 -1.2157  0.6073 -1.2011
 8114SOL     OW35977   0.532   4.305  12.416  0.8353  0.0295  0.3305
 8114SOL    HW135978   0.590   4.366  12.463 -0.1782  0.3273  1.1792
 8114SOL    HW235979   0.556   4.331  12.327  1.0272 -0.7336  0.1614
 8115SOL     OW35980   1.420   4.430   9.596 -0.3108  0.0924  0.2659
 8115SOL    HW135981   1.485   4.499   9.583  0.6733 -0.9154 -0.1111
 8115SOL    HW235982   1.441   4.396   9.682  1.0627  2.3303  0.8020
 8116SOL     OW35983   2.632   0.487   9.828 -0.1978 -0.5645 -0.0479
 8116SOL    HW135984   2.632   0.426   9.755 -1.3975 -1.3119  0.5649
 8116SOL    HW235985   2.724   0.498   9.850  0.1164  0.3111 -1.8131
 8117SOL     OW35986   3.295   0.986   5.227  0.3289  0.5643 -0.0320
 8117SOL    HW135987   3.273   1.058   5.285  1.7006  1.0149 -0.0703
 8117SOL    HW235988   3.277   1.018   5.139  2.8783  2.5302  0.1710
 8118SOL     OW35989   3.641   4.461   7.525 -0.1424  0.0949 -0.5078
 8118SOL    HW135990   3.668   4.453   7.433  0.2916  0.0626 -0.3743
 8118SOL    HW235991   3.564   4.518   7.518 -0.4467 -0.3001 -0.3801
 8119SOL     OW35992   3.482   0.339   0.123  0.0672  0.2452 -0.4824
 8119SOL    HW135993   3.505   0.426   0.089  0.6286 -0.7416 -2.6074
 8119SOL    HW235994   3.424   0.308   0.053 -2.1289  1.8955  0.6059
 8120SOL     OW35995   3.209   2.269   3.464  0.1250  0.5660  0.5020
 8120SOL    HW135996   3.255   2.264   3.548 -0.5344  0.5287  0.8622
 8120SOL    HW235997   3.282   2.274   3.402  0.2855  0.6804  0.6972
 8121SOL     OW35998   4.211   2.802   0.882 -0.2416  0.2093 -0.1460
 8121SOL    HW135999   4.305   2.820   0.886 -0.5687  1.4893  1.7631
 8121SOL    HW236000   4.163   2.881   0.858 -0.6976  0.1515  0.5835
 8122SOL     OW36001   0.035   0.720  12.131 -0.3776 -0.1501  0.1905
 8122SOL    HW136002   0.050   0.811  12.105 -1.1090  0.1243  0.7252
 8122SOL    HW236003   0.057   0.726  12.225 -1.4706  0.3327  0.4156
 8123SOL     OW36004   3.292   1.999   9.638 -0.4915  0.0650 -0.5003
 8123SOL    HW136005   3.204   1.965   9.654  0.3896 -1.3565  1.2768
 8123SOL    HW236006   3.348   1.922   9.635 -1.3404 -0.5181 -1.3644
 8124SOL     OW36007   0.596   4.640  14.207 -0.5088 -0.5435 -0.1797
 8124SOL    HW136008   0.649   4.588  14.267 -0.0131 -2.1214 -1.9941
 8124SOL    HW236009   0.604   4.575  14.138  0.0209 -2.1534  1.4082
 8125SOL     OW36010   1.907   2.163   2.210  0.0998  0.3371  0.4595
 8125SOL    HW136011   1.997   2.131   2.208 -0.3938 -1.0313 -0.2751
 8125SOL    HW236012   1.868   2.120   2.133 -0.9311  3.2991 -0.6548
 8126SOL     OW36013   3.791   4.528   1.886 -0.3106 -0.5366  0.3679
 8126SOL    HW136014   3.807   4.544   1.793  1.0136  2.4555  1.1053
 8126SOL    HW236015   3.707   4.484   1.873 -0.8212  1.2848 -2.6110
 8127SOL     OW36016   4.356   3.046   8.910  0.8591 -0.6006  0.1925
 8127SOL    HW136017   4.333   3.137   8.894 -0.0503 -0.5823  1.5744
 8127SOL    HW236018   4.303   3.030   8.988 -0.3592 -0.4500 -0.5923
 8128SOL     OW36019   4.580   2.876   5.573  0.6309  0.3934  0.0981
 8128SOL    HW136020   4.550   2.793   5.612 -2.0194  1.1725 -0.2927
 8128SOL    HW236021   4.497   2.919   5.554  0.5514  0.1948 -0.0133
 8129SOL     OW36022   0.390   3.744   5.535  0.0239  0.2731 -0.0973
 8129SOL    HW136023   0.416   3.658   5.503 -0.0015  0.7540 -1.4428
 8129SOL    HW236024   0.472   3.774   5.573  0.5881 -1.4762  0.0751
 8130SOL     OW36025   2.244   0.437   4.156  0.0212 -0.0564 -0.6101
 8130SOL    HW136026   2.240   0.433   4.061 -1.7617  2.0251 -0.6320
 8130SOL    HW236027   2.153   0.438   4.186  0.5781 -1.1696  1.1368
 8131SOL     OW36028   4.062   1.177  12.642  0.0367  0.0284 -0.6303
 8131SOL    HW136029   4.045   1.128  12.723  2.1886  1.2760  0.5515
 8131SOL    HW236030   4.089   1.263  12.674  0.7211 -1.2170  2.1160
 8132SOL     OW36031   2.312   2.895   2.998  0.5050 -0.0683 -0.1003
 8132SOL    HW136032   2.220   2.922   3.007  0.7821  0.8949 -0.1984
 8132SOL    HW236033   2.315   2.879   2.903 -1.8305 -1.2253  0.0056
 8133SOL     OW36034   1.158   0.405   8.735 -0.0522  0.8262 -0.1953
 8133SOL    HW136035   1.244   0.384   8.697 -0.0501 -0.5306  0.5673
 8133SOL    HW236036   1.192   0.458   8.807  1.7716  1.2648 -1.3825
 8134SOL     OW36037   1.339   4.527   8.330  0.0989  0.6057  0.3149
 8134SOL    HW136038   1.364   4.619   8.342  1.9621  0.0470  0.6127
 8134SOL    HW236039   1.361   4.520   8.237  1.3975 -1.9373  0.8329
 8135SOL     OW36040   3.584   1.562   5.697 -0.8908 -0.2125 -0.3113
 8135SOL    HW136041   3.552   1.513   5.773  1.9584  0.3606  1.2438
 8135SOL    HW236042   3.504   1.608   5.670 -0.1842  0.8747 -0.5853
 8136SOL     OW36043   3.222   2.652   9.826  0.0323 -0.2541  0.5271
 8136SOL    HW136044   3.190   2.563   9.808 -1.4605  0.2293  0.8705
 8136SOL    HW236045   3.144   2.706   9.815 -0.6045 -1.3654 -0.5177
 8137SOL     OW36046   1.721   4.163   1.769  0.3698  0.0097 -0.1941
 8137SOL    HW136047   1.809   4.201   1.771 -1.2272  3.5148  3.3066
 8137SOL    HW236048   1.721   4.107   1.846  0.2172 -0.0353 -0.2270
 8138SOL     OW36049   3.129   1.373   2.975  0.0200  0.3325  0.2436
 8138SOL    HW136050   3.196   1.428   3.017 -1.2012  0.4038  2.1004
 8138SOL    HW236051   3.047   1.422   2.975  0.1647  0.5729 -0.6779
 8139SOL     OW36052   4.593   1.732   0.873 -0.4641  0.3688 -0.1472
 8139SOL    HW136053   4.651   1.711   0.946 -2.4793  0.8332  1.5707
 8139SOL    HW236054   4.591   1.828   0.873 -2.3486  0.3051  1.9201
 8140SOL     OW36055   4.325   0.765  13.531  0.1379  0.8839  0.2801
 8140SOL    HW136056   4.410   0.789  13.569 -0.4521  2.1753  0.8002
 8140SOL    HW236057   4.300   0.850  13.495 -1.1169 -0.7730 -2.7712
 8141SOL     OW36058   2.050   0.722   5.634  0.3446  0.4522  0.6948
 8141SOL    HW136059   2.031   0.636   5.597 -1.5541  1.5057 -0.7202
 8141SOL    HW236060   1.968   0.737   5.682 -0.8123  1.4083 -1.6244
 8142SOL     OW36061   1.824   3.780   7.845  0.1253 -0.3408 -0.0545
 8142SOL    HW136062   1.760   3.774   7.916 -0.0240 -0.9730 -0.2413
 8142SOL    HW236063   1.798   3.703   7.794  0.1521  2.1082 -3.7518
 8143SOL     OW36064   0.564   0.554   6.141  0.3492  0.3029  0.7750
 8143SOL    HW136065   0.632   0.612   6.176  1.6952 -0.3135 -0.8212
 8143SOL    HW236066   0.507   0.522   6.211 -0.2790  0.1841  0.2140
 8144SOL     OW36067   2.012   1.193   6.546 -0.2306  0.5236  0.0862
 8144SOL    HW136068   2.026   1.287   6.549 -2.3908  0.8407  0.3943
 8144SOL    HW236069   1.923   1.178   6.513 -0.5571  4.2727 -0.7037
 8145SOL     OW36070   4.160   0.229   7.946 -0.1712  0.5005  0.2541
 8145SOL    HW136071   4.141   0.145   7.904  2.3170 -0.4045  0.9087
 8145SOL    HW236072   4.250   0.224   7.980  0.1637  0.9665 -0.5753
 8146SOL     OW36073   0.232   0.788   7.430  0.6664 -0.1835  0.0262
 8146SOL    HW136074   0.160   0.781   7.493  4.2334 -2.4998  3.8957
 8146SOL    HW236075   0.264   0.698   7.420  0.2653 -0.1725 -1.2890
 8147SOL     OW36076   1.069   0.815   9.814  0.1255 -0.5827  0.0980
 8147SOL    HW136077   1.126   0.862   9.875  2.7497 -0.3565 -2.5195
 8147SOL    HW236078   0.985   0.833   9.855  1.2371 -0.8644  2.4813
 8148SOL     OW36079   3.408   2.883  14.857  0.6742  0.2554  0.4544
 8148SOL    HW136080   3.500   2.859  14.870  0.3683 -1.0555  0.2185
 8148SOL    HW236081   3.386   2.816  14.792 -1.8153  0.6678  0.8628
 8149SOL     OW36082   1.058   1.468   2.070 -0.3664 -0.6381 -0.3177
 8149SOL    HW136083   1.043   1.474   2.164  1.9982  0.3448 -0.0084
 8149SOL    HW236084   1.007   1.391   2.043  0.7796 -1.4203 -0.2774
 8150SOL     OW36085   2.515   0.964   9.431  0.1712  0.2004  0.2566
 8150SOL    HW136086   2.467   0.935   9.353 -4.8172  1.1666  2.9626
 8150SOL    HW236087   2.479   0.903   9.495 -0.6314  2.0289  1.5421
 8151SOL     OW36088   1.870   3.523  13.301  0.0283 -0.7124  0.8996
 8151SOL    HW136089   1.938   3.461  13.327 -0.7977 -0.6663  3.2487
 8151SOL    HW236090   1.794   3.468  13.320 -0.6816 -0.4159 -1.1071
 8152SOL     OW36091   0.809   3.942   9.769  0.0590  0.1336  0.5375
 8152SOL    HW136092   0.806   3.904   9.857  0.1188  0.3719  0.6440
 8152SOL    HW236093   0.796   4.035   9.787  0.7607  0.3561 -0.1208
 8153SOL     OW36094   4.104   3.209   7.715  0.0334  0.4499  0.1100
 8153SOL    HW136095   4.016   3.216   7.677 -0.4265  0.1068  1.1202
 8153SOL    HW236096   4.090   3.229   7.807 -0.6054 -1.0849  0.3479
 8154SOL     OW36097   3.237   4.415  15.862 -0.3837 -0.3882  0.4749
 8154SOL    HW136098   3.192   4.384  15.784  3.1950 -1.8195 -1.0425
 8154SOL    HW236099   3.264   4.328  15.893 -3.9710 -2.3005 -1.7092
 8155SOL     OW36100   0.332   4.165   9.858  0.5991 -0.5499  0.6602
 8155SOL    HW136101   0.406   4.123   9.816  1.5875  1.9825 -0.1214
 8155SOL    HW236102   0.284   4.197   9.782  1.0828 -2.8517 -0.6007
 8156SOL     OW36103   1.491   0.649   9.411 -0.1519  0.5969  0.3425
 8156SOL    HW136104   1.534   0.585   9.354 -0.9981  2.1042 -1.9950
 8156SOL    HW236105   1.554   0.657   9.482 -1.4725  0.9079  1.4839
 8157SOL     OW36106   2.846   4.226  13.138  0.8450  0.4099  0.2454
 8157SOL    HW136107   2.789   4.300  13.117  0.8296  0.4035  0.2651
 8157SOL    HW236108   2.799   4.144  13.122  0.1392  0.7751  0.4180
 8158SOL     OW36109   4.479   2.638   3.390 -0.6532 -0.6358 -0.1833
 8158SOL    HW136110   4.567   2.652   3.353 -0.7442  2.9273  1.0369
 8158SOL    HW236111   4.432   2.706   3.343 -2.9025 -1.5454  0.7647
 8159SOL     OW36112   1.015   1.633   4.234 -0.0304  0.4749 -0.0337
 8159SOL    HW136113   0.969   1.612   4.152  1.8670 -1.4676 -0.5931
 8159SOL    HW236114   0.950   1.697   4.264 -1.5397 -1.1797  0.2524
 8160SOL     OW36115   3.733   3.944   6.713  0.2588 -0.1002  0.0941
 8160SOL    HW136116   3.671   3.876   6.688  2.8373 -2.1265 -0.8430
 8160SOL    HW236117   3.679   4.022   6.712 -1.0498 -1.0065  0.2018
 8161SOL     OW36118   2.366   4.474   0.598 -0.2744 -0.7616  0.5223
 8161SOL    HW136119   2.408   4.395   0.564  0.2437 -1.4199  2.7087
 8161SOL    HW236120   2.280   4.464   0.558  0.3812  1.6306 -1.4601
 8162SOL     OW36121   2.299   4.113   1.455  0.0333 -0.0619 -0.2128
 8162SOL    HW136122   2.227   4.073   1.503  1.6305 -0.7399  1.5849
 8162SOL    HW236123   2.246   4.185   1.419 -0.1120 -0.6682 -1.2051
 8163SOL     OW36124   2.712   1.997  17.170 -0.2713  0.3574  0.0255
 8163SOL    HW136125   2.668   1.913  17.178  0.1503  0.1799  0.4887
 8163SOL    HW236126   2.794   1.975  17.214  0.3301  1.0956 -0.7179
 8164SOL     OW36127   4.658   3.674   4.145 -0.1031 -1.0991  0.3410
 8164SOL    HW136128   4.652   3.761   4.184 -1.2366 -0.7957 -0.4920
 8164SOL    HW236129   4.704   3.690   4.062  1.4197  0.5896  1.5050
 8165SOL     OW36130   0.685   3.271   1.958  0.4800 -1.3993 -0.1654
 8165SOL    HW136131   0.698   3.295   1.866 -0.7913 -0.1545 -0.0213
 8165SOL    HW236132   0.590   3.262   1.946  0.1081  3.2018 -0.9773
 8166SOL     OW36133   0.145   3.189   5.019 -0.1207 -0.0800 -0.1355
 8166SOL    HW136134   0.177   3.247   4.950  0.1875  1.3671  1.2319
 8166SOL    HW236135   0.063   3.231   5.045 -0.4533 -0.0110 -1.3117
 8167SOL     OW36136   2.313   4.564   3.788  0.5961 -0.1534 -0.2345
 8167SOL    HW136137   2.346   4.518   3.865  0.5796  2.6144  1.4251
 8167SOL    HW236138   2.391   4.615   3.766  0.6204 -0.5706 -1.1024
 8168SOL     OW36139   2.864   4.083   6.544 -0.1301  0.2114  0.0764
 8168SOL    HW136140   2.854   3.994   6.509  1.7450 -0.1325  0.4305
 8168SOL    HW236141   2.959   4.082   6.556  0.1663  0.7106 -2.1556
 8169SOL     OW36142   0.400   4.646   3.938 -0.3616 -0.3180 -0.2021
 8169SOL    HW136143   0.433   0.001   3.939  0.1294 -0.5565  2.9766
 8169SOL    HW236144   0.358   4.652   3.852  1.0556  0.9565 -0.7957
 8170SOL     OW36145   2.484   3.899  17.462 -0.2135  0.2415  0.5584
 8170SOL    HW136146   2.485   3.967  17.395 -1.2628  0.5964  0.8980
 8170SOL    HW236147   2.414   3.936  17.515  0.5262  0.7322  1.1796
 8171SOL     OW36148   0.588   4.027   5.194  0.1860 -0.1799 -0.6695
 8171SOL    HW136149   0.537   4.104   5.219  0.5854  0.6842 -2.5461
 8171SOL    HW236150   0.573   3.973   5.272 -2.4922  1.7142  0.1218
 8172SOL     OW36151   2.721   2.491  15.132 -0.0530 -0.4175  0.0934
 8172SOL    HW136152   2.678   2.491  15.047  0.5409 -1.4866 -0.2162
 8172SOL    HW236153   2.687   2.573  15.165  2.5001  1.4740 -1.9262
 8173SOL     OW36154   3.711   1.403   7.048 -0.0697  0.0987  0.2363
 8173SOL    HW136155   3.702   1.415   6.953 -0.4534 -0.7659  0.1636
 8173SOL    HW236156   3.754   1.318   7.060 -0.5016 -0.2957 -0.9936
 8174SOL     OW36157   3.969   0.215   4.389 -0.7019 -0.0679  0.0553
 8174SOL    HW136158   3.933   0.225   4.478 -1.6065 -2.0161 -0.0963
 8174SOL    HW236159   4.059   0.248   4.397 -0.9558  0.5603  0.3779
 8175SOL     OW36160   4.422   1.896   3.767  0.3913 -0.1058 -0.2929
 8175SOL    HW136161   4.484   1.955   3.810 -0.1480 -0.4588  0.9707
 8175SOL    HW236162   4.485   1.827   3.748  0.4110 -0.1577 -0.0410
 8176SOL     OW36163   3.059   2.073   4.443 -0.8943  0.4531  0.1436
 8176SOL    HW136164   3.021   2.098   4.527  0.5590 -0.7849  1.1778
 8176SOL    HW236165   3.034   1.981   4.447  0.7724  0.0301  1.1028
 8177SOL     OW36166   0.783   2.089   3.153 -0.0271 -0.4035  0.0686
 8177SOL    HW136167   0.724   2.123   3.220 -2.4523 -0.1690 -2.2124
 8177SOL    HW236168   0.863   2.097   3.206  0.6914 -2.0839 -0.7777
 8178SOL     OW36169   2.852   1.793  13.111  0.1739  0.2702  0.0213
 8178SOL    HW136170   2.907   1.871  13.112 -3.1594  2.6752 -0.5641
 8178SOL    HW236171   2.894   1.743  13.180  0.4129  0.5844  0.1040
 8179SOL     OW36172   2.218   0.000   6.669  0.2286  0.0945 -0.1172
 8179SOL    HW136173   2.188   4.707   6.583 -1.1356  1.3727 -0.0614
 8179SOL    HW236174   2.174   4.679   6.733  2.0538 -0.7790  0.3542
 8180SOL     OW36175   4.409   0.905   1.623  0.3111  0.1610  0.0497
 8180SOL    HW136176   4.404   0.983   1.567  1.9869 -3.0179 -4.4888
 8180SOL    HW236177   4.317   0.897   1.649 -0.2369  2.4977 -1.1154
 8181SOL     OW36178   4.599   0.649  11.942  0.2517  0.5275  0.4576
 8181SOL    HW136179   4.572   0.739  11.922 -0.7198  0.0463 -0.3920
 8181SOL    HW236180   4.666   0.674  12.005 -0.2648  1.0023  0.8286
 8182SOL     OW36181   3.490   4.414   2.828  0.4562 -1.0724  0.4366
 8182SOL    HW136182   3.500   4.405   2.733  0.6146  1.8717  0.1638
 8182SOL    HW236183   3.467   4.324   2.851 -1.7515 -0.5840  0.1137
 8183SOL     OW36184   3.242   1.594  11.913 -0.1476 -0.3294 -0.1337
 8183SOL    HW136185   3.303   1.545  11.859 -0.0648 -0.6914  0.2878
 8183SOL    HW236186   3.266   1.687  11.910 -1.2663 -0.0411 -0.2945
 8184SOL     OW36187   1.076   2.193  14.428  0.1788 -0.3466  0.4080
 8184SOL    HW136188   1.158   2.184  14.380 -0.2078 -2.6595  0.1611
 8184SOL    HW236189   1.078   2.286  14.452  0.7629 -0.4517  0.7763
 8185SOL     OW36190   4.088   3.303   5.484  0.0493 -0.5548  0.6169
 8185SOL    HW136191   4.151   3.341   5.546  2.2305 -0.6478 -1.5417
 8185SOL    HW236192   4.129   3.224   5.449 -0.7874  0.4536 -2.5667
 8186SOL     OW36193   1.032   2.783   2.417  0.2359 -0.0177 -0.3243
 8186SOL    HW136194   0.992   2.735   2.489  0.4557 -1.4678 -1.1645
 8186SOL    HW236195   0.964   2.850   2.406 -0.1985 -0.3660  0.2320
 8187SOL     OW36196   1.284   3.912  13.630  0.2761 -0.2741 -0.2850
 8187SOL    HW136197   1.358   3.896  13.571  2.6896 -0.1772  2.7032
 8187SOL    HW236198   1.260   4.002  13.610 -0.8284 -0.5483 -0.1716
 8188SOL     OW36199   3.880   1.590   5.726 -0.0731  0.4112 -0.2022
 8188SOL    HW136200   3.789   1.560   5.727  0.3673 -0.8244  1.8998
 8188SOL    HW236201   3.929   1.525   5.677  0.1767  0.6218 -0.2315
 8189SOL     OW36202   4.662   0.292  12.272  0.2171  0.3348  0.3548
 8189SOL    HW136203   4.639   0.277  12.364  1.3910 -1.3435  0.3866
 8189SOL    HW236204   4.582   0.331  12.239 -1.7867 -2.7097  1.5680
 8190SOL     OW36205   2.709   1.509   6.237 -0.0494 -0.3110  0.2523
 8190SOL    HW136206   2.656   1.547   6.167 -0.0099 -2.3302 -0.8863
 8190SOL    HW236207   2.733   1.430   6.189  1.5079  0.5812 -0.4210
 8191SOL     OW36208   3.342   4.480   8.665  0.1023 -0.0066  0.6002
 8191SOL    HW136209   3.422   4.529   8.685  2.1320 -2.2204 -2.1553
 8191SOL    HW236210   3.341   4.488   8.570 -2.9618  2.0176  0.7834
 8192SOL     OW36211   4.176   1.110   2.181 -0.1360  0.4819  0.5658
 8192SOL    HW136212   4.228   1.044   2.226 -3.2246 -0.3775  2.8392
 8192SOL    HW236213   4.229   1.188   2.162  1.0524 -0.4211  0.1768
 8193SOL     OW36214   4.127   4.513   2.383  0.5065 -0.4954  0.0191
 8193SOL    HW136215   4.148   4.471   2.299  0.3435  1.0329 -0.7965
 8193SOL    HW236216   4.215   4.526   2.418 -0.5524  3.4167  1.2756
 8194SOL     OW36217   4.549   2.079   0.597 -0.1411  0.2808 -0.2175
 8194SOL    HW136218   4.627   2.115   0.555  1.9128 -0.6442  2.8496
 8194SOL    HW236219   4.593   2.047   0.675  0.2001  1.1643 -0.0583
 8195SOL     OW36220   0.690   4.653  11.903 -0.0384  0.1486 -0.1083
 8195SOL    HW136221   0.696   4.557  11.900  1.6013  0.2833 -1.1836
 8195SOL    HW236222   0.646   4.654  11.988  1.6792  1.0196  0.7730
 8196SOL     OW36223   0.716   4.152   9.071 -0.0519  0.1862 -0.3327
 8196SOL    HW136224   0.803   4.183   9.045  0.6892 -0.2909  1.6231
 8196SOL    HW236225   0.704   4.175   9.163 -0.4014  1.1575 -0.6176
 8197SOL     OW36226   4.312   0.514   8.917  0.1768  0.0157  0.4430
 8197SOL    HW136227   4.301   0.608   8.908  0.7327 -0.0637 -1.1443
 8197SOL    HW236228   4.300   0.498   9.011 -1.1447  1.0436  0.4414
 8198SOL     OW36229   2.302   1.028   5.271 -0.0443 -0.1854 -0.3047
 8198SOL    HW136230   2.319   1.014   5.178 -0.8096  0.4833 -0.5355
 8198SOL    HW236231   2.211   1.000   5.265 -0.2089 -0.1239  1.8343
 8199SOL     OW36232   2.476   0.564   8.864  0.4677  0.3229 -0.4600
 8199SOL    HW136233   2.390   0.597   8.891  0.8960  0.9049  0.2030
 8199SOL    HW236234   2.521   0.593   8.944 -0.6890  0.1118  0.2555
 8200SOL     OW36235   0.749   2.006   1.549 -0.3121  0.2438 -0.1921
 8200SOL    HW136236   0.680   2.049   1.600 -0.2847  0.0934 -0.0286
 8200SOL    HW236237   0.702   1.927   1.522 -1.4606  0.2950  1.6412
 8201SOL     OW36238   0.848   3.060  16.136 -0.2023  0.1271 -0.2943
 8201SOL    HW136239   0.905   3.076  16.060 -1.1775  2.0644 -0.6219
 8201SOL    HW236240   0.766   3.027  16.100 -0.2672  0.1891 -0.2030
 8202SOL     OW36241   3.597   2.082   0.888  0.3353  0.4771 -0.0705
 8202SOL    HW136242   3.657   2.152   0.862  2.8263 -1.1292  1.2818
 8202SOL    HW236243   3.531   2.077   0.819 -1.1874  3.3409  1.1882
 8203SOL     OW36244   2.701   1.393   6.527  0.5021  0.2234 -0.3323
 8203SOL    HW136245   2.708   1.417   6.435 -0.0223 -1.5585 -0.8391
 8203SOL    HW236246   2.752   1.312   6.523  1.6976  0.9569 -0.0475
 8204SOL     OW36247   1.976   1.188   2.663  0.3177 -0.1734 -0.5393
 8204SOL    HW136248   1.980   1.199   2.758  3.0281 -1.2286 -0.5161
 8204SOL    HW236249   2.060   1.149   2.638  0.7702  1.7816 -2.0974
 8205SOL     OW36250   4.523   2.299   5.793 -0.4068  0.2686 -0.2206
 8205SOL    HW136251   4.462   2.328   5.725 -1.3934 -1.5895 -0.1331
 8205SOL    HW236252   4.484   2.212   5.806  4.1868 -1.5228  1.3603
 8206SOL     OW36253   2.404   1.043  10.629 -0.3167  0.0556  0.0149
 8206SOL    HW136254   2.409   1.138  10.617 -1.2419  0.0323 -0.5455
 8206SOL    HW236255   2.325   1.040  10.682  0.9152 -0.6982  1.8061
 8207SOL     OW36256   1.204   2.417   3.666 -0.5559 -0.2627  0.6973
 8207SOL    HW136257   1.202   2.491   3.727  0.1766  0.9566 -0.7744
 8207SOL    HW236258   1.295   2.392   3.681 -0.3372 -0.4538 -0.9052
 8208SOL     OW36259   4.112   1.856  15.861  0.2591 -0.3277 -0.1255
 8208SOL    HW136260   4.103   1.801  15.783 -1.5349  0.3094 -0.3597
 8208SOL    HW236261   4.109   1.944  15.822  2.6777 -0.3905 -0.4966
 8209SOL     OW36262   3.134   1.632  17.467 -0.5799 -0.3283 -0.2465
 8209SOL    HW136263   3.217   1.614  17.510  0.6760  1.4462 -1.9276
 8209SOL    HW236264   3.151   1.721  17.437  1.3496 -0.9627 -0.9680
 8210SOL     OW36265   1.101   2.332   6.519  0.2373 -0.0066  0.7604
 8210SOL    HW136266   1.103   2.424   6.490  1.7517 -0.6700 -1.2573
 8210SOL    HW236267   1.007   2.326   6.535  0.5089 -0.5460  2.1466
 8211SOL     OW36268   0.368   1.887   2.552 -0.6438 -0.4678  0.2515
 8211SOL    HW136269   0.414   1.945   2.613  3.3955 -2.7086 -0.6872
 8211SOL    HW236270   0.333   1.832   2.622 -0.3947  0.8379  1.4150
 8212SOL     OW36271   3.312   3.589   7.236  0.0244 -0.1508  0.0986
 8212SOL    HW136272   3.310   3.539   7.317  2.0605 -0.8753 -0.3012
 8212SOL    HW236273   3.354   3.670   7.266  2.1413 -0.7481 -1.2656
 8213SOL     OW36274   3.958   3.747   5.152 -0.0287 -0.1490  0.1926
 8213SOL    HW136275   3.937   3.735   5.244  2.6660 -1.3314  0.6640
 8213SOL    HW236276   3.996   3.834   5.167 -1.7880  0.8266 -1.0069
 8214SOL     OW36277   2.618   2.919   3.370 -0.2105  0.1496 -0.2593
 8214SOL    HW136278   2.555   2.951   3.435  0.9845  3.4537 -0.7697
 8214SOL    HW236279   2.588   2.828   3.374  0.0298  0.0654 -0.3583
 8215SOL     OW36280   1.764   0.634   2.103 -0.2021  0.2999  0.6521
 8215SOL    HW136281   1.825   0.591   2.163 -0.1073 -0.1818  0.2055
 8215SOL    HW236282   1.720   0.693   2.165  0.1691  1.5499 -0.2879
 8216SOL     OW36283   1.334   2.221   7.983  0.3181  0.0443 -0.0456
 8216SOL    HW136284   1.397   2.247   7.916  2.5751 -2.7478  0.9781
 8216SOL    HW236285   1.294   2.149   7.934  0.6918  0.2760 -0.6871
 8217SOL     OW36286   1.728   3.161  15.443 -0.1080 -0.3025 -0.6376
 8217SOL    HW136287   1.806   3.129  15.398  0.6629  1.0843 -0.3092
 8217SOL    HW236288   1.694   3.231  15.386  3.1452  2.1873  0.4995
 8218SOL     OW36289   4.151   0.774   6.608  0.3861 -0.6247 -0.4934
 8218SOL    HW136290   4.158   0.793   6.701  1.0125 -2.1132 -0.2454
 8218SOL    HW236291   4.144   0.679   6.603  1.4958 -0.6956 -0.5419
 8219SOL     OW36292   1.552   1.708  15.779  0.4257  0.5048  0.3697
 8219SOL    HW136293   1.549   1.802  15.799 -0.0166  1.2080 -3.0118
 8219SOL    HW236294   1.461   1.684  15.797  0.7521 -0.3830  0.7919
 8220SOL     OW36295   3.026   4.587  10.920  0.6608 -0.1107  0.1511
 8220SOL    HW136296   2.952   4.530  10.902  0.3072  0.3848  0.0461
 8220SOL    HW236297   2.987   4.672  10.940  1.1928 -0.3288  2.1243
 8221SOL     OW36298   3.819   3.434   1.631  0.1080  0.1130 -0.0605
 8221SOL    HW136299   3.910   3.407   1.622  0.3621  1.3593 -1.2955
 8221SOL    HW236300   3.781   3.347   1.635  1.1367 -0.2665  1.2610
 8222SOL     OW36301   3.542   3.085  15.006 -0.7266  0.3568  0.1311
 8222SOL    HW136302   3.460   3.040  15.026  0.0064 -1.3822 -0.7578
 8222SOL    HW236303   3.533   3.090  14.911  0.1150 -0.4472  0.0111
 8223SOL     OW36304   3.335   0.357   8.539  0.0101  0.0054 -0.2685
 8223SOL    HW136305   3.350   0.329   8.629  0.7063 -1.7423 -0.9382
 8223SOL    HW236306   3.311   0.273   8.501  1.2202 -0.5054  0.1052
 8224SOL     OW36307   1.428   1.742   2.210 -0.0894  0.3350  0.4431
 8224SOL    HW136308   1.421   1.695   2.127  3.4509  1.8906 -0.7248
 8224SOL    HW236309   1.498   1.696   2.257 -1.6898 -0.2277  2.2765
 8225SOL     OW36310   2.470   3.134  15.111  0.5812  0.6515 -0.1534
 8225SOL    HW136311   2.543   3.101  15.060  1.2847 -0.5881  1.6754
 8225SOL    HW236312   2.406   3.171  15.051 -0.6721 -0.7345  0.3067
 8226SOL     OW36313   1.999   1.280  14.879 -0.0494 -0.3575  0.2337
 8226SOL    HW136314   1.906   1.299  14.869 -0.4015 -3.3646 -2.3191
 8226SOL    HW236315   2.045   1.363  14.881 -1.3501  0.3734 -0.5251
 8227SOL     OW36316   4.164   3.904   9.220  0.2825  0.4429 -0.2907
 8227SOL    HW136317   4.079   3.861   9.217  1.8487 -2.4185 -3.0408
 8227SOL    HW236318   4.200   3.860   9.297 -1.3193 -1.3648 -0.5834
 8228SOL     OW36319   2.240   1.317   4.837  0.1926  0.0834 -0.5656
 8228SOL    HW136320   2.283   1.320   4.922  1.2567 -0.8206 -1.0827
 8228SOL    HW236321   2.278   1.394   4.795 -2.5805  2.0199  0.4643
 8229SOL     OW36322   1.117   4.349   7.426 -0.5649  0.2312  0.3538
 8229SOL    HW136323   1.105   4.293   7.349  1.4490 -0.2571  0.3859
 8229SOL    HW236324   1.086   4.431   7.388 -1.0646 -0.3896 -0.6074
 8230SOL     OW36325   4.270   0.702  17.077  0.7608 -0.7435  0.0135
 8230SOL    HW136326   4.294   0.638  17.144 -1.3974 -2.0237 -0.4630
 8230SOL    HW236327   4.316   0.774  17.121 -1.7236  1.0549 -0.3536
 8231SOL     OW36328   3.068   3.629  10.712 -0.3834 -0.4923 -0.2805
 8231SOL    HW136329   3.072   3.685  10.635  3.6044  1.1337  1.1510
 8231SOL    HW236330   2.972   3.624  10.718 -0.6028  1.2841 -2.2297
 8232SOL     OW36331   0.427   2.487   2.115  0.0108 -0.0874  0.2389
 8232SOL    HW136332   0.521   2.474   2.099 -0.7448  0.4877 -4.5756
 8232SOL    HW236333   0.397   2.491   2.024 -2.0947 -0.6640  0.9153
 8233SOL     OW36334   4.500   4.704   3.519  0.6888  0.1142  0.4778
 8233SOL    HW136335   4.417   4.680   3.478 -1.2504  1.7744  3.4201
 8233SOL    HW236336   4.524   4.617   3.551 -0.0524 -0.7294 -1.2816
 8234SOL     OW36337   1.827   1.291   7.204  0.2658 -0.3723  0.2929
 8234SOL    HW136338   1.748   1.254   7.167  1.2394 -2.8567  0.7003
 8234SOL    HW236339   1.851   1.352   7.134  2.2937 -1.1315  0.3254
 8235SOL     OW36340   4.520   2.809   8.950  0.2740 -0.0277 -0.0734
 8235SOL    HW136341   4.476   2.873   8.894  1.0160  1.4527  1.0196
 8235SOL    HW236342   4.613   2.832   8.952  0.8685 -2.4487  0.2261
 8236SOL     OW36343   2.666   1.116  13.408  0.0246  0.3873 -0.4037
 8236SOL    HW136344   2.579   1.095  13.377 -0.5683 -2.0492  2.8191
 8236SOL    HW236345   2.696   1.179  13.342 -1.2229 -0.4227 -1.7328
 8237SOL     OW36346   4.169   4.125  12.644 -0.1505 -0.9990  0.2666
 8237SOL    HW136347   4.227   4.182  12.694 -1.2696 -0.6046  1.1371
 8237SOL    HW236348   4.134   4.069  12.714 -1.3047 -0.5193  0.0846
 8238SOL     OW36349   3.664   4.162  15.608  0.0668  0.1066 -0.0777
 8238SOL    HW136350   3.649   4.088  15.667 -0.6798 -0.7863 -1.3741
 8238SOL    HW236351   3.745   4.136  15.564  0.0919 -1.2518  0.7769
 8239SOL     OW36352   2.050   2.998   4.351  0.3011  0.4304 -0.0994
 8239SOL    HW136353   2.020   3.069   4.294  0.3718 -0.2051 -0.9359
 8239SOL    HW236354   2.078   3.054   4.423 -1.2544  0.4762  0.4750
 8240SOL     OW36355   1.347   3.981   8.697  0.3426 -0.3426  0.6009
 8240SOL    HW136356   1.257   3.948   8.693  0.6660 -1.0376 -1.1254
 8240SOL    HW236357   1.331   4.072   8.675 -0.3191 -0.3117  1.2237
 8241SOL     OW36358   2.107   1.930   7.466  0.5583  0.1599  0.5347
 8241SOL    HW136359   2.178   1.874   7.495 -0.3364 -1.5513 -0.5243
 8241SOL    HW236360   2.160   1.998   7.423  0.4258  0.4250  0.7926
 8242SOL     OW36361   0.822   4.734   4.982 -0.0455  0.1096 -0.7207
 8242SOL    HW136362   0.849   4.725   5.073 -1.3604 -1.7516 -0.5143
 8242SOL    HW236363   0.790   0.090   4.990 -0.1117  0.2273 -2.3311
 8243SOL     OW36364   0.045   0.031  12.748  0.1398 -0.4508 -0.2815
 8243SOL    HW136365   0.121   4.732  12.795 -1.2203  0.1713  2.3598
 8243SOL    HW236366   0.012   4.684  12.708  1.6190 -1.7694  1.1814
 8244SOL     OW36367   2.901   1.714   8.109 -0.1911 -0.0985 -0.0702
 8244SOL    HW136368   2.955   1.664   8.171  1.5870  3.3515  1.1600
 8244SOL    HW236369   2.813   1.687   8.135  0.6017 -0.9474  1.7246
 8245SOL     OW36370   3.574   4.298   3.348  0.1140  0.0214 -0.2189
 8245SOL    HW136371   3.648   4.335   3.300  0.2646 -0.1831 -0.1430
 8245SOL    HW236372   3.614   4.237   3.409  2.2048 -0.3578 -1.9773
 8246SOL     OW36373   2.761   3.497   7.274 -0.7980  0.3870  0.1337
 8246SOL    HW136374   2.785   3.589   7.264 -0.9840  0.4574  0.3414
 8246SOL    HW236375   2.844   3.449   7.271 -0.5833  0.6494  1.7522
 8247SOL     OW36376   3.901   3.898   7.418  0.2260  0.1118  0.2722
 8247SOL    HW136377   3.821   3.856   7.448 -0.8586  1.3346 -0.9211
 8247SOL    HW236378   3.970   3.864   7.476 -0.2393 -0.8063  0.2865
 8248SOL     OW36379   3.033   3.264   1.786  0.3787 -0.1489 -0.3400
 8248SOL    HW136380   3.007   3.291   1.874  0.0048  2.1945 -1.1666
 8248SOL    HW236381   3.010   3.173   1.801 -1.7243 -0.0151 -2.7097
 8249SOL     OW36382   4.172   0.127   1.648 -0.3244  0.8057 -0.3039
 8249SOL    HW136383   4.246   0.067   1.638 -1.7542 -1.3164  1.9528
 8249SOL    HW236384   4.136   0.115   1.735 -1.4110 -0.5042 -0.9351
 8250SOL     OW36385   1.949   0.763   1.627  0.1403 -0.3192 -0.2001
 8250SOL    HW136386   1.993   0.832   1.578 -0.7615  0.0835 -0.4552
 8250SOL    HW236387   2.002   0.759   1.706 -2.5483 -0.2028  1.6071
 8251SOL     OW36388   3.536   3.049   3.506  0.0761  0.1127 -0.3639
 8251SOL    HW136389   3.458   2.995   3.520  0.8516 -0.4095  1.9643
 8251SOL    HW236390   3.541   3.020   3.415 -2.9530  1.5941 -0.9953
 8252SOL     OW36391   2.400   0.006   0.528  1.0577  0.1642 -0.2832
 8252SOL    HW136392   2.463   0.065   0.572  2.5946  0.0835 -2.3638
 8252SOL    HW236393   2.415   4.657   0.573  0.5185 -1.6455 -3.5073
 8253SOL     OW36394   0.343   4.361   5.599 -0.1689  0.3643  0.1398
 8253SOL    HW136395   0.324   4.410   5.519  0.9785  0.0130 -0.3474
 8253SOL    HW236396   0.389   4.285   5.564 -1.1397  0.1069 -0.5616
 8254SOL     OW36397   4.227   3.940   8.024 -0.6886  0.2655  0.1588
 8254SOL    HW136398   4.175   3.995   7.965  0.1823  1.2744  0.3412
 8254SOL    HW236399   4.185   3.855   8.014 -0.5339 -0.0924  2.5066
 8255SOL     OW36400   0.530   0.612   5.083 -0.0667  0.1723  0.3515
 8255SOL    HW136401   0.513   0.705   5.101 -2.5157  0.5473 -3.8191
 8255SOL    HW236402   0.592   0.619   5.011 -1.4572 -1.1245 -0.9577
 8256SOL     OW36403   3.012   1.529   7.431  0.5374 -0.0031 -0.5095
 8256SOL    HW136404   2.984   1.474   7.358  0.8987  0.2705 -0.8554
 8256SOL    HW236405   3.087   1.574   7.392 -0.4844  1.4267 -0.8454
 8257SOL     OW36406   0.563   0.314  11.684 -0.0725 -0.2195 -0.0787
 8257SOL    HW136407   0.472   0.312  11.654 -0.5716 -2.5372  1.6231
 8257SOL    HW236408   0.569   0.409  11.675  0.3274 -0.2217  0.1366
 8258SOL     OW36409   4.127   4.166   6.432 -0.1311 -0.5139  0.7047
 8258SOL    HW136410   4.076   4.107   6.487 -2.7473  0.0939 -1.0576
 8258SOL    HW236411   4.213   4.124   6.436 -0.5594 -1.5655 -0.8499
 8259SOL     OW36412   4.481   0.957   6.279 -0.5707 -0.7367  0.1208
 8259SOL    HW136413   4.488   0.937   6.372 -1.1221  1.0566  0.5531
 8259SOL    HW236414   4.389   0.982   6.280 -0.0864  1.0074  0.2435
 8260SOL     OW36415   0.970   4.489   2.580 -0.2174 -0.0660  0.1047
 8260SOL    HW136416   1.050   4.437   2.568  1.4101  2.1872  1.1763
 8260SOL    HW236417   0.969   4.529   2.493 -0.0034  1.6877  0.9147
 8261SOL     OW36418   3.229   0.420   6.178  0.1174 -0.1461 -0.2822
 8261SOL    HW136419   3.195   0.343   6.223  3.6291  0.0265  2.6664
 8261SOL    HW236420   3.146   0.453   6.145  0.6391 -0.9504 -2.3819
 8262SOL     OW36421   0.070   1.545   4.353  0.4611  0.1341  0.1290
 8262SOL    HW136422   0.114   1.613   4.406  0.4053 -0.5512  1.0509
 8262SOL    HW236423   0.131   1.474   4.371  0.5574  0.3718  0.7718
 8263SOL     OW36424   2.437   0.342   5.615  0.7445  0.4178 -0.1019
 8263SOL    HW136425   2.428   0.437   5.624 -1.7378  0.3845 -2.2548
 8263SOL    HW236426   2.383   0.326   5.537 -1.2809  0.5796  1.2747
 8264SOL     OW36427   3.347   0.910  15.627  0.1060 -0.1239 -0.2028
 8264SOL    HW136428   3.311   0.998  15.611 -2.3172 -1.4036 -1.7821
 8264SOL    HW236429   3.321   0.904  15.719  0.9208  1.2462  0.1219
 8265SOL     OW36430   0.388   1.307   8.064 -0.4250  0.9266 -0.1027
 8265SOL    HW136431   0.444   1.304   7.987  0.3738 -0.0322  0.5071
 8265SOL    HW236432   0.321   1.371   8.042 -1.6222 -0.7655 -1.4323
 8266SOL     OW36433   2.344   2.984  13.564 -0.4175 -0.6966  0.0672
 8266SOL    HW136434   2.296   2.920  13.511  1.0118 -1.1009 -0.7510
 8266SOL    HW236435   2.430   2.942  13.552  0.7608  1.4197  1.1622
 8267SOL     OW36436   3.636   2.589   7.420  0.1425  0.0319 -0.0269
 8267SOL    HW136437   3.643   2.528   7.347  0.4938 -0.6164  0.5596
 8267SOL    HW236438   3.616   2.672   7.375 -0.1185 -0.0764 -0.1085
 8268SOL     OW36439   3.131   1.692   6.880 -0.0568 -0.1935 -0.0469
 8268SOL    HW136440   3.210   1.647   6.906  1.6582  2.9732  0.2471
 8268SOL    HW236441   3.161   1.772   6.838 -0.5871  1.0121  1.8635
 8269SOL     OW36442   2.073   2.959  15.870  0.0439 -0.5320  0.6526
 8269SOL    HW136443   2.037   2.968  15.959 -1.1713  0.6636  0.0438
 8269SOL    HW236444   2.111   2.872  15.876  2.0466  0.3396  0.5281
 8270SOL     OW36445   4.167   1.499   3.795 -0.4896  0.6592 -0.6995
 8270SOL    HW136446   4.165   1.587   3.757 -0.4010  1.8531  2.0566
 8270SOL    HW236447   4.093   1.458   3.751 -1.7789  0.4051  1.6712
 8271SOL     OW36448   2.994   1.713   2.709  0.4190  0.1605  0.0842
 8271SOL    HW136449   3.081   1.675   2.721 -0.4422 -2.6398 -2.4486
 8271SOL    HW236450   3.013   1.786   2.650 -1.6621 -0.8508 -1.8766
 8272SOL     OW36451   0.550   0.656   5.457 -0.5732 -0.4260 -0.2444
 8272SOL    HW136452   0.470   0.707   5.446 -0.5839 -0.3729  0.0854
 8272SOL    HW236453   0.622   0.717   5.473 -1.7636  0.6705  0.8836
 8273SOL     OW36454   2.511   1.536  12.455  0.1682 -0.0243  0.7434
 8273SOL    HW136455   2.498   1.447  12.485  1.1150  0.3551  2.2506
 8273SOL    HW236456   2.455   1.582  12.517  0.7094 -0.8552  1.8320
 8274SOL     OW36457   3.140   4.540   5.569 -0.0669 -0.2682  0.7384
 8274SOL    HW136458   3.150   4.451   5.536 -0.9273 -0.2830  0.5167
 8274SOL    HW236459   3.146   4.599   5.493 -0.5358 -0.6795  0.3875
 8275SOL     OW36460   4.620   3.775   9.292  0.3258 -0.1791  0.3641
 8275SOL    HW136461   4.647   3.839   9.226 -0.1369 -0.4899 -0.1213
 8275SOL    HW236462   4.707   3.745   9.319  0.5974 -0.1098 -0.4220
 8276SOL     OW36463   0.021   0.451  13.036 -0.1608  0.6684 -0.1416
 8276SOL    HW136464   0.039   0.375  12.980 -0.4783  0.7820 -0.3949
 8276SOL    HW236465   0.075   0.519  12.995 -2.5417  1.8658 -1.2970
 8277SOL     OW36466   0.564   4.585  16.293  0.0687 -0.8520  0.4015
 8277SOL    HW136467   0.483   4.635  16.303  0.0209 -1.0023  0.7402
 8277SOL    HW236468   0.553   4.529  16.216  1.1577 -0.8119  0.2091
 8278SOL     OW36469   2.470   4.455   8.848  0.4851  0.2138  0.3297
 8278SOL    HW136470   2.396   4.396   8.862  0.9841 -0.6994 -0.8613
 8278SOL    HW236471   2.507   4.407   8.774 -0.9755  0.9710 -0.8808
 8279SOL     OW36472   2.879   4.063   5.883  0.1421 -0.1179  0.3469
 8279SOL    HW136473   2.847   3.998   5.820 -0.7477  0.5584  0.0923
 8279SOL    HW236474   2.974   4.060   5.872  0.0539  2.0760 -0.9946
 8280SOL     OW36475   3.925   2.769  15.106  0.1034 -0.0464 -0.0837
 8280SOL    HW136476   3.853   2.824  15.138 -0.6303 -1.8940  1.4324
 8280SOL    HW236477   3.958   2.817  15.031 -1.9982  0.6574 -0.5597
 8281SOL     OW36478   4.635   1.356   8.598  0.0035  0.1581  0.4288
 8281SOL    HW136479   4.691   1.378   8.672 -2.1216  0.2421  2.0113
 8281SOL    HW236480   4.554   1.403   8.620 -0.7052 -0.5646 -0.6564
 8282SOL     OW36481   4.539   3.498   8.381 -0.2957  0.1571  0.1967
 8282SOL    HW136482   4.538   3.418   8.433  0.4959 -1.0595 -1.6428
 8282SOL    HW236483   4.462   3.536   8.424  0.0328 -1.4505  2.1619
 8283SOL     OW36484   1.273   3.105   4.560  0.2709 -0.4668 -0.8815
 8283SOL    HW136485   1.252   3.162   4.634  0.8531 -0.1056 -0.9936
 8283SOL    HW236486   1.188   3.067   4.537 -0.3222 -0.1096  0.7006
 8284SOL     OW36487   3.994   2.300  17.165  0.4803  0.6139  0.5382
 8284SOL    HW136488   4.083   2.277  17.141 -0.0396  0.5386 -1.3305
 8284SOL    HW236489   3.984   2.372  17.103 -0.0834  0.3130  0.2761
 8285SOL     OW36490   1.601   3.225   1.355 -0.3330 -0.4008 -0.2219
 8285SOL    HW136491   1.694   3.225   1.334 -0.6102  1.6966 -1.4509
 8285SOL    HW236492   1.613   3.195   1.445 -1.6427  0.1498  0.1494
 8286SOL     OW36493   4.479   1.776  10.174 -0.2911 -0.2543  0.2577
 8286SOL    HW136494   4.443   1.822  10.098 -0.4931  1.5585  1.4272
 8286SOL    HW236495   4.402   1.775  10.231  0.4331  1.2595  1.2661
 8287SOL     OW36496   1.777   2.963   9.172 -0.2044  0.3977 -0.1595
 8287SOL    HW136497   1.838   2.949   9.245 -0.7315 -1.4358 -0.0702
 8287SOL    HW236498   1.818   2.917   9.099  1.5356 -0.9914  1.7036
 8288SOL     OW36499   2.703   3.225   5.615  0.0386  0.1070 -0.0007
 8288SOL    HW136500   2.786   3.272   5.620 -0.1909  0.4728  0.4899
 8288SOL    HW236501   2.639   3.296   5.607  0.5123  0.5627  0.2679
 8289SOL     OW36502   2.933   0.814   2.159 -0.6637 -0.1751 -0.0123
 8289SOL    HW136503   3.005   0.814   2.222  0.2166 -0.1903 -1.0123
 8289SOL    HW236504   2.896   0.899   2.182  2.6176  1.4840 -0.9223
 8290SOL     OW36505   3.011   4.215   4.543 -0.4316 -0.0644 -0.1113
 8290SOL    HW136506   3.075   4.279   4.511 -0.3051 -0.1657 -0.0654
 8290SOL    HW236507   2.969   4.270   4.608  0.4242  0.3818  0.0581
 8291SOL     OW36508   2.521   4.255  17.045  0.4581  0.1201 -0.0250
 8291SOL    HW136509   2.511   4.341  17.004 -0.4252  0.1581  0.2740
 8291SOL    HW236510   2.521   4.192  16.973  0.3363 -0.5327  0.5515
 8292SOL     OW36511   2.614   1.313   5.105 -0.4093  0.0603  0.5321
 8292SOL    HW136512   2.675   1.242   5.121 -0.4226 -0.1464 -0.3128
 8292SOL    HW236513   2.609   1.319   5.009  1.8326  0.5628  0.4380
 8293SOL     OW36514   4.212   4.025   5.449 -0.4244  0.2182  0.3130
 8293SOL    HW136515   4.289   3.985   5.490 -0.4972 -1.1125 -0.8731
 8293SOL    HW236516   4.139   4.004   5.507  1.2262  0.9428  2.6772
 8294SOL     OW36517   3.923   0.848   5.491 -0.2409 -0.1909 -0.0162
 8294SOL    HW136518   3.887   0.825   5.406 -0.3959 -0.8906  0.2382
 8294SOL    HW236519   3.978   0.922   5.466  2.0858 -2.0124 -0.2314
 8295SOL     OW36520   4.026   2.789   7.138 -0.1853  0.0968  0.1464
 8295SOL    HW136521   4.097   2.758   7.083 -0.6188  0.2315 -0.4903
 8295SOL    HW236522   4.081   2.841   7.197  1.4096 -1.1879 -0.2285
 8296SOL     OW36523   0.492   4.392   4.670 -0.4389  0.2231  0.0051
 8296SOL    HW136524   0.446   4.361   4.592  0.1138 -2.0587  0.5738
 8296SOL    HW236525   0.470   4.483   4.653 -0.4504  0.6489  2.2481
 8297SOL     OW36526   1.516   3.005   9.140 -0.4083 -0.0050 -0.4473
 8297SOL    HW136527   1.599   2.971   9.172 -2.5342 -1.6540  3.3245
 8297SOL    HW236528   1.464   2.926   9.154  1.1795 -1.0106 -0.3393
 8298SOL     OW36529   1.334   2.972   4.190 -0.7138  0.0490  0.4346
 8298SOL    HW136530   1.425   3.001   4.177 -1.3880  1.9634 -0.0336
 8298SOL    HW236531   1.302   2.967   4.101  1.0413 -0.1561 -0.1853
 8299SOL     OW36532   3.475   1.781   7.020 -0.3424  0.1901  0.0144
 8299SOL    HW136533   3.566   1.758   7.039 -0.3661 -0.1782 -0.3282
 8299SOL    HW236534   3.474   1.866   6.976  0.4037  0.8726  1.3054
 8300SOL     OW36535   4.092   2.949   1.236 -0.3016  0.1349  0.1103
 8300SOL    HW136536   4.088   2.962   1.142 -2.5243  2.2500  0.5151
 8300SOL    HW236537   4.180   2.982   1.252  0.2792 -1.1081 -0.4762
 8301SOL     OW36538   4.279   3.735   3.124  0.1299  0.3394  0.0251
 8301SOL    HW136539   4.220   3.721   3.198 -1.2801 -0.7562 -1.3135
 8301SOL    HW236540   4.268   3.829   3.114  2.2963  0.8528  2.3823
 8302SOL     OW36541   2.845   0.654   3.967  0.1095 -0.0521  0.1505
 8302SOL    HW136542   2.776   0.588   3.967 -0.2120  0.2831  0.2744
 8302SOL    HW236543   2.894   0.637   4.048  1.6642 -1.3745 -1.0564
 8303SOL     OW36544   3.502   1.126  14.755 -0.0692 -0.0030 -0.0906
 8303SOL    HW136545   3.563   1.147  14.684  0.4024  1.8567  0.8781
 8303SOL    HW236546   3.478   1.036  14.733 -0.0629  0.3360 -1.5062
 8304SOL     OW36547   2.672   4.515   1.139  0.4312  0.1744 -0.4569
 8304SOL    HW136548   2.736   4.569   1.185  1.3192  0.3532 -1.8949
 8304SOL    HW236549   2.653   4.567   1.061  0.6351 -1.0544 -1.3069
 8305SOL     OW36550   0.233   4.240   7.772  0.3234  0.5479  0.2840
 8305SOL    HW136551   0.186   4.318   7.801 -2.1157 -0.2790 -1.4318
 8305SOL    HW236552   0.244   4.267   7.681 -3.1988  0.0898 -0.2672
 8306SOL     OW36553   2.018   1.125   8.418  0.8134 -0.3152  0.0018
 8306SOL    HW136554   2.023   1.052   8.480  0.1903  1.2638  1.9060
 8306SOL    HW236555   2.095   1.175   8.446 -0.2944  2.0008 -1.1787
 8307SOL     OW36556   3.474   2.193   9.615  0.3763 -0.2909  0.0716
 8307SOL    HW136557   3.471   2.194   9.519  0.1091 -0.8656  0.0783
 8307SOL    HW236558   3.415   2.120   9.633  1.3170 -1.7795 -2.9062
 8308SOL     OW36559   3.494   1.887   3.565 -0.6574  0.1025  0.1567
 8308SOL    HW136560   3.518   1.979   3.572  0.1552 -0.1211  0.2794
 8308SOL    HW236561   3.424   1.878   3.629 -0.4470  1.9985  0.6462
 8309SOL     OW36562   1.085   2.798   9.418 -0.4593 -0.2266  0.1221
 8309SOL    HW136563   1.003   2.749   9.413 -0.2468 -0.5805  0.0657
 8309SOL    HW236564   1.131   2.749   9.487  0.6839 -0.3246 -0.7181
 8310SOL     OW36565   4.250   0.582   2.228 -0.8483 -0.0054 -0.0955
 8310SOL    HW136566   4.329   0.609   2.275 -1.7662 -0.5345  1.7700
 8310SOL    HW236567   4.276   0.604   2.139 -1.2474 -0.2831 -0.2797
 8311SOL     OW36568   1.557   1.651   6.145  0.7365  0.2498 -0.3088
 8311SOL    HW136569   1.507   1.665   6.226 -0.3192 -0.3441 -0.8611
 8311SOL    HW236570   1.588   1.739   6.124  1.6388  0.5767  2.3526
 8312SOL     OW36571   4.224   4.417   1.132  0.0229 -0.0477 -0.0627
 8312SOL    HW136572   4.191   4.440   1.045 -1.7125 -0.7283  0.4233
 8312SOL    HW236573   4.162   4.346   1.147 -1.4609  1.2892  0.0401
 8313SOL     OW36574   1.020   0.244   8.076  0.1528  0.0742  0.3796
 8313SOL    HW136575   1.074   0.297   8.135  0.2906  2.4531 -1.9195
 8313SOL    HW236576   1.022   0.166   8.132  1.2574  1.2637  2.0175
 8314SOL     OW36577   2.450   1.045   6.068 -0.1523  0.4317 -0.2482
 8314SOL    HW136578   2.535   1.062   6.027 -0.1141 -1.8724 -1.0857
 8314SOL    HW236579   2.456   1.048   6.164 -1.3803  3.1535 -0.2493
 8315SOL     OW36580   4.074   1.367   4.912 -0.2857 -0.1072  0.0717
 8315SOL    HW136581   4.103   1.354   4.822  1.6618 -0.9594  0.8200
 8315SOL    HW236582   3.981   1.346   4.903  0.0679 -0.9463 -1.5633
 8316SOL     OW36583   1.522   4.541   7.837 -0.0606  0.0193  0.0666
 8316SOL    HW136584   1.440   4.510   7.799 -0.9175 -1.3547  3.0243
 8316SOL    HW236585   1.562   4.456   7.857  1.3417  0.1225 -2.2312
 8317SOL     OW36586   0.885   0.698  11.472  0.3573  0.0469 -0.7558
 8317SOL    HW136587   0.967   0.696  11.423  0.0551  0.8780 -1.2908
 8317SOL    HW236588   0.885   0.605  11.497 -0.5880  0.2704  0.1025
 8318SOL     OW36589   3.397   3.231   5.450  0.5251 -0.3443  0.2714
 8318SOL    HW136590   3.481   3.186   5.443 -0.7711 -2.8312  0.7725
 8318SOL    HW236591   3.429   3.319   5.470 -0.2256 -0.2818  1.2162
 8319SOL     OW36592   4.616   1.828   8.745  0.1667  0.1268  0.2544
 8319SOL    HW136593   4.698   1.820   8.794  0.1649  3.1442  0.7830
 8319SOL    HW236594   4.640   1.885   8.672  0.9522  0.7075  0.9664
 8320SOL     OW36595   0.271   4.401   4.856 -0.2094  0.6805  0.0783
 8320SOL    HW136596   0.244   4.492   4.843 -1.7395  0.1215 -0.6829
 8320SOL    HW236597   0.330   4.391   4.781 -0.7685 -1.6435 -0.0381
 8321SOL     OW36598   1.709   2.271  15.887  0.4959  0.1386 -0.2929
 8321SOL    HW136599   1.756   2.247  15.807 -0.5057  1.2164 -1.2115
 8321SOL    HW236600   1.698   2.365  15.874 -0.0588  0.2965  1.2319
 8322SOL     OW36601   3.321   0.816  11.066  0.1553 -0.3193  0.6691
 8322SOL    HW136602   3.413   0.838  11.050 -0.4780  1.5380 -0.4435
 8322SOL    HW236603   3.339   0.723  11.080 -0.7658 -0.5559  0.2582
 8323SOL     OW36604   2.652   1.858  12.480  0.2929 -0.0506 -0.0819
 8323SOL    HW136605   2.557   1.868  12.491  0.6123  0.6912  1.9469
 8323SOL    HW236606   2.670   1.865  12.386 -0.4018 -0.2267 -0.2316
 8324SOL     OW36607   2.859   4.449  13.315  0.6168 -0.4848  0.0952
 8324SOL    HW136608   2.796   4.421  13.382  1.2399  0.6316  1.1500
 8324SOL    HW236609   2.855   4.545  13.319  2.3609 -0.3225 -2.0207
 8325SOL     OW36610   0.410   2.021  12.482 -0.4928  0.1899  0.2289
 8325SOL    HW136611   0.406   2.112  12.454 -1.7220  0.1451  0.2661
 8325SOL    HW236612   0.503   2.002  12.470 -0.3742  1.0365 -0.1969
 8326SOL     OW36613   0.562   0.369   3.867  0.0196  0.1510  0.6927
 8326SOL    HW136614   0.499   0.435   3.840  1.1725  1.3606  0.9802
 8326SOL    HW236615   0.642   0.420   3.873  0.1039 -0.1074  1.7795
 8327SOL     OW36616   2.389   1.871  12.541 -0.5894 -0.2335  0.5334
 8327SOL    HW136617   2.381   1.907  12.629 -1.5275 -0.6183  0.6117
 8327SOL    HW236618   2.335   1.792  12.549 -1.3467  0.0905 -1.3834
 8328SOL     OW36619   2.014   1.453   6.858  0.7249  0.0112  0.6317
 8328SOL    HW136620   2.029   1.448   6.764 -0.7147 -1.5762  0.5055
 8328SOL    HW236621   1.920   1.466   6.857  0.7671 -0.0338 -2.8105
 8329SOL     OW36622   0.005   3.771   1.569  0.7122  0.1314 -0.1653
 8329SOL    HW136623   4.733   3.838   1.502  0.2502 -0.2005 -0.4519
 8329SOL    HW236624   4.667   3.712   1.552  0.9073 -0.3545  0.6628
 8330SOL     OW36625   3.316   0.915   4.830  0.5074 -0.1708  0.0628
 8330SOL    HW136626   3.380   0.877   4.891  1.7379 -0.7277 -1.5692
 8330SOL    HW236627   3.289   0.843   4.774 -0.9455  0.5304 -0.1209
 8331SOL     OW36628   2.980   3.007   9.714  0.2063  0.2458 -0.1959
 8331SOL    HW136629   2.947   3.097   9.709  0.8612  0.5059  0.2197
 8331SOL    HW236630   2.952   2.965   9.632 -2.3941 -1.4550  1.5622
 8332SOL     OW36631   1.830   4.119   3.793  0.0381  0.3326  0.8722
 8332SOL    HW136632   1.882   4.061   3.849 -1.2909  0.2249  2.0109
 8332SOL    HW236633   1.907   4.149   3.745 -1.2263 -1.6210 -2.3698
 8333SOL     OW36634   0.097   4.301   8.227  0.0571 -0.3733  0.1192
 8333SOL    HW136635   0.017   4.341   8.262  1.7333  1.7984  1.4502
 8333SOL    HW236636   0.061   4.218   8.197 -1.1060  1.1156 -2.6648
 8334SOL     OW36637   4.097   0.659   1.551 -0.3652 -0.1356  0.5465
 8334SOL    HW136638   4.047   0.607   1.613 -0.8774 -1.1084 -0.6739
 8334SOL    HW236639   4.098   0.739   1.604 -0.0281 -0.0237  0.3728
 8335SOL     OW36640   4.664   3.345  12.661  0.3138  0.3117 -0.2889
 8335SOL    HW136641   4.733   3.281  12.679 -0.8239 -0.5810  0.9237
 8335SOL    HW236642   4.630   3.321  12.575 -1.4052  1.3941  0.0936
 8336SOL     OW36643   4.042   2.876   5.801  0.6137  0.6694 -0.3056
 8336SOL    HW136644   4.022   2.797   5.851  1.0942  1.1949  0.7205
 8336SOL    HW236645   3.959   2.922   5.813  1.1125  0.7854  2.6285
 8337SOL     OW36646   4.524   1.850   5.580  0.2719  0.1411 -0.1133
 8337SOL    HW136647   4.453   1.858   5.644 -0.0256 -1.6527 -0.1982
 8337SOL    HW236648   4.579   1.787   5.627  1.4914  1.7946  0.6594
 8338SOL     OW36649   2.874   0.342   5.507 -0.1367 -0.0842  0.1137
 8338SOL    HW136650   2.959   0.353   5.465  0.3408 -1.0710  0.8133
 8338SOL    HW236651   2.902   0.264   5.556 -1.3900 -0.6723 -0.0960
 8339SOL     OW36652   3.379   3.687   2.375 -0.2096  0.0265 -0.7724
 8339SOL    HW136653   3.428   3.620   2.422  2.6422 -0.4082 -4.4255
 8339SOL    HW236654   3.392   3.764   2.432 -1.5404 -0.8687  0.7416
 8340SOL     OW36655   1.079   1.879   7.872  0.1998 -0.3663  0.4727
 8340SOL    HW136656   1.026   1.926   7.936  0.2764 -2.1422  1.8065
 8340SOL    HW236657   1.145   1.944   7.845 -1.1785  0.1015 -1.7640
 8341SOL     OW36658   2.542   1.071  14.923 -0.1157 -0.0396 -0.0375
 8341SOL    HW136659   2.498   1.054  15.007 -0.7915 -3.0637 -0.9842
 8341SOL    HW236660   2.534   0.982  14.889 -0.7857  0.6482 -1.6557
 8342SOL     OW36661   2.373   3.108  11.383 -0.1020 -0.2626 -0.3847
 8342SOL    HW136662   2.437   3.041  11.407  1.1604 -0.0622 -3.2596
 8342SOL    HW236663   2.405   3.147  11.301  0.4569 -0.6373 -0.3467
 8343SOL     OW36664   0.107   1.911  13.999 -0.7476 -0.3014 -0.1055
 8343SOL    HW136665   0.168   1.933  13.928  0.7747 -0.4620  1.1528
 8343SOL    HW236666   0.171   1.851  14.037  1.3621  0.5011 -2.3627
 8344SOL     OW36667   3.721   1.906   1.101 -0.5756 -0.4571  0.6143
 8344SOL    HW136668   3.724   1.975   1.168 -0.9540 -0.7368  0.9179
 8344SOL    HW236669   3.658   1.947   1.041  0.4804  0.6990  0.2904
 8345SOL     OW36670   4.518   1.922   6.307 -0.1185 -0.0016 -0.1819
 8345SOL    HW136671   4.449   1.957   6.251 -0.3084  0.2278  0.1938
 8345SOL    HW236672   4.595   1.957   6.264 -0.5638  0.6968 -0.4011
 8346SOL     OW36673   0.432   3.616  15.264  0.1159 -0.4074 -0.1853
 8346SOL    HW136674   0.502   3.668  15.223  0.0916 -0.9823 -0.9554
 8346SOL    HW236675   0.485   3.580  15.335  0.3095  3.2708  1.5178
 8347SOL     OW36676   1.185   3.246   8.937  0.2760 -0.1709  0.1452
 8347SOL    HW136677   1.158   3.337   8.924  1.1762  0.4675  2.7881
 8347SOL    HW236678   1.245   3.254   9.011 -1.1469 -0.2123  1.3101
 8348SOL     OW36679   0.251   2.108   3.530 -0.5345 -0.2248  0.1257
 8348SOL    HW136680   0.192   2.092   3.457 -0.0742 -1.5621  0.0358
 8348SOL    HW236681   0.333   2.092   3.483  1.3831 -2.1052  4.0228
 8349SOL     OW36682   3.495   2.286   3.397 -0.3091  0.0143  0.0937
 8349SOL    HW136683   3.580   2.326   3.415  0.4111  0.0429 -3.4452
 8349SOL    HW236684   3.504   2.224   3.469  1.0338  0.6861  0.5069
 8350SOL     OW36685   1.994   2.498   9.693  0.2617  0.8733 -0.1274
 8350SOL    HW136686   2.001   2.561   9.765 -0.0015  0.6342  0.1061
 8350SOL    HW236687   2.065   2.434   9.701  1.5104  2.1170 -1.3775
 8351SOL     OW36688   2.084   1.733   8.655 -0.7716 -0.0195  0.1452
 8351SOL    HW136689   2.076   1.651   8.607  0.7381 -0.2466  0.2816
 8351SOL    HW236690   2.169   1.762   8.621 -1.4505  1.5629 -0.2020
 8352SOL     OW36691   1.565   1.097   8.144  0.1793  0.1135  0.0837
 8352SOL    HW136692   1.651   1.087   8.103  0.8642 -0.4672  1.6704
 8352SOL    HW236693   1.572   1.191   8.161 -1.4189  0.3329 -0.5606
 8353SOL     OW36694   1.901   4.375   7.786 -0.0537 -0.1021 -0.0873
 8353SOL    HW136695   1.807   4.366   7.795 -0.1696  1.1788 -0.0006
 8353SOL    HW236696   1.909   4.457   7.736 -0.5532 -0.7751 -1.2823
 8354SOL     OW36697   0.254   2.768   7.102 -0.0468 -0.1005  0.1916
 8354SOL    HW136698   0.305   2.848   7.090 -0.7710  0.5518  1.4302
 8354SOL    HW236699   0.312   2.696   7.079  0.1254 -0.5724  2.0526
 8355SOL     OW36700   2.507   2.701   5.957  0.0739 -0.1649 -0.4732
 8355SOL    HW136701   2.510   2.692   5.861  0.0775  0.2100 -0.5103
 8355SOL    HW236702   2.470   2.615   5.974  1.5412 -0.7780 -0.3838
 8356SOL     OW36703   4.196   0.137   8.289 -0.3645 -0.4751 -0.2115
 8356SOL    HW136704   4.158   0.085   8.218  0.2540  0.5577 -1.2869
 8356SOL    HW236705   4.288   0.130   8.264 -0.5460 -1.7023 -0.5160
 8357SOL     OW36706   0.989   2.151   1.056 -0.0614 -0.3503 -0.1153
 8357SOL    HW136707   1.024   2.086   1.117 -0.2572 -1.9655 -1.7277
 8357SOL    HW236708   1.024   2.109   0.977  0.1009 -1.9558  0.7914
 8358SOL     OW36709   2.008   2.787   3.991  0.5222 -0.3383 -0.2517
 8358SOL    HW136710   2.056   2.766   4.071  0.2741 -0.4503 -0.1345
 8358SOL    HW236711   1.918   2.761   4.007 -0.0668  1.7330 -0.1630
 8359SOL     OW36712   3.688   4.045   4.928  0.1310 -0.8713 -0.6373
 8359SOL    HW136713   3.783   4.050   4.923  0.2495 -1.2611  1.3833
 8359SOL    HW236714   3.667   4.091   4.847  0.7941 -0.9297 -0.8398
 8360SOL     OW36715   2.906   1.285   8.065 -0.4715 -0.0957  0.3197
 8360SOL    HW136716   2.967   1.321   8.130 -0.4597  0.6327 -0.0993
 8360SOL    HW236717   2.876   1.201   8.101 -1.3791  0.1512  0.1278
 8361SOL     OW36718   4.503   1.407   2.337  0.0445 -0.0044 -0.9041
 8361SOL    HW136719   4.462   1.493   2.347 -0.7256 -0.5474  0.5695
 8361SOL    HW236720   4.587   1.442   2.306  0.0113  1.1463  0.3525
 8362SOL     OW36721   0.561   1.861   4.218 -0.1452 -0.3298 -0.4330
 8362SOL    HW136722   0.508   1.849   4.297 -1.0536  0.1758 -0.9635
 8362SOL    HW236723   0.512   1.823   4.145  0.8631 -0.3200 -1.1102
 8363SOL     OW36724   3.542   0.996   6.795  0.1035  0.4100  0.0404
 8363SOL    HW136725   3.465   1.010   6.740 -1.6556 -0.0962  2.3852
 8363SOL    HW236726   3.520   1.049   6.872  0.6605  1.9428 -0.8701
 8364SOL     OW36727   0.341   0.798   1.229 -0.3368 -0.2252  0.4400
 8364SOL    HW136728   0.253   0.812   1.196 -0.4567  0.2595  0.9537
 8364SOL    HW236729   0.377   0.887   1.228  1.3296 -0.9194 -0.6353
 8365SOL     OW36730   3.959   0.640   2.101  0.2323  0.0045 -0.5313
 8365SOL    HW136731   3.998   0.688   2.174  0.3311  0.6169 -0.9902
 8365SOL    HW236732   4.038   0.590   2.077 -1.4979 -3.0700  0.1672
 8366SOL     OW36733   3.410   2.804  10.211  0.0535 -0.0020 -0.3234
 8366SOL    HW136734   3.421   2.796  10.117  2.3303  1.8421 -0.2144
 8366SOL    HW236735   3.422   2.714  10.239  0.0625  0.8554  2.4677
 8367SOL     OW36736   1.170   3.319   4.705  0.2641  0.1839  0.0909
 8367SOL    HW136737   1.111   3.365   4.645  1.1518  1.7002  0.3600
 8367SOL    HW236738   1.114   3.320   4.782  1.8868  2.6011  1.2396
 8368SOL     OW36739   0.914   1.702   1.818 -0.0615  0.1751  0.6766
 8368SOL    HW136740   0.929   1.772   1.755 -0.7962  0.7498  1.1384
 8368SOL    HW236741   0.995   1.695   1.868 -0.0553 -0.8526  0.5273
 8369SOL     OW36742   0.469   3.223  17.322 -0.0230 -0.2788  0.4652
 8369SOL    HW136743   0.444   3.133  17.344 -1.0834 -0.3170 -0.8856
 8369SOL    HW236744   0.564   3.213  17.330 -0.0619 -0.6234  0.4968
 8370SOL     OW36745   2.544   1.117   7.735  0.1397  0.1609 -0.6432
 8370SOL    HW136746   2.529   1.075   7.651  0.1794  0.3240 -0.7312
 8370SOL    HW236747   2.640   1.122   7.736  0.1330  0.2909 -0.7575
 8371SOL     OW36748   2.079   2.031   1.653  0.4932 -0.1473  0.0198
 8371SOL    HW136749   2.022   2.081   1.594 -2.3001  0.1592  2.9817
 8371SOL    HW236750   2.102   1.956   1.599 -0.1210 -0.8910  0.8065
 8372SOL     OW36751   1.260   0.578   7.600  0.3081  0.5348 -0.3049
 8372SOL    HW136752   1.165   0.588   7.603  0.2974  0.4345 -0.3018
 8372SOL    HW236753   1.280   0.619   7.684 -3.8613  0.8312  0.5076
 8373SOL     OW36754   3.060   1.707   6.438  0.2291 -0.6605  0.2182
 8373SOL    HW136755   3.049   1.629   6.384 -2.2929 -1.2106  1.4908
 8373SOL    HW236756   2.986   1.698   6.498 -1.2445  0.1068 -1.4758
 8374SOL     OW36757   4.197   0.948   5.025 -0.3769 -0.4994 -0.8113
 8374SOL    HW136758   4.251   0.985   4.955  1.6368  0.6484  1.3692
 8374SOL    HW236759   4.227   0.856   5.025 -1.2337 -0.7788  0.0219
 8375SOL     OW36760   1.320   2.636   1.116  0.0062 -0.3523  0.1655
 8375SOL    HW136761   1.382   2.707   1.098 -1.2782  0.6149 -0.4912
 8375SOL    HW236762   1.370   2.557   1.099 -1.9695 -1.8505  1.2990
 8376SOL     OW36763   2.692   3.650   7.934  0.4869 -0.1340  0.4565
 8376SOL    HW136764   2.604   3.637   7.899 -0.5956  0.6146  2.8580
 8376SOL    HW236765   2.733   3.566   7.914  2.2624  1.4218 -2.3414
 8377SOL     OW36766   1.171   2.188   9.378  0.1647  0.5496  0.3980
 8377SOL    HW136767   1.109   2.256   9.403 -1.2514 -1.2374  1.7285
 8377SOL    HW236768   1.202   2.155   9.463  2.8784 -0.2825 -0.9284
 8378SOL     OW36769   2.104   4.452   4.294  0.3859  0.2562  0.2762
 8378SOL    HW136770   2.012   4.429   4.277 -0.6126  1.2820  4.4305
 8378SOL    HW236771   2.115   4.386   4.362 -0.1287 -1.3221 -1.1614
 8379SOL     OW36772   3.852   3.622   5.874 -0.0759  0.9871 -0.2962
 8379SOL    HW136773   3.816   3.707   5.849 -2.5037  0.6539  2.0906
 8379SOL    HW236774   3.915   3.648   5.940  0.4416  0.2809 -0.5125
 8380SOL     OW36775   3.837   1.465  17.521  0.4297 -0.0712  0.4821
 8380SOL    HW136776   3.878   1.397  17.468  1.7019 -0.9273  2.5785
 8380SOL    HW236777   3.916   1.494  17.568  0.3743 -1.0046  1.1444
 8381SOL     OW36778   1.431   4.653   9.227  0.0801 -0.1071 -1.0892
 8381SOL    HW136779   1.415   4.624   9.316  1.8976 -2.5381 -1.5595
 8381SOL    HW236780   1.350   4.700   9.210 -0.3025 -0.6237 -0.6928
 8382SOL     OW36781   3.744   2.442   5.673  0.1980  0.0149 -0.1258
 8382SOL    HW136782   3.668   2.388   5.651  1.0665 -0.2894 -2.3280
 8382SOL    HW236783   3.745   2.498   5.596  0.4681 -0.0622 -0.1799
 8383SOL     OW36784   4.329   0.064   9.331  0.3567  0.2959  0.5881
 8383SOL    HW136785   4.296   0.118   9.403 -0.2142  1.1679 -0.3244
 8383SOL    HW236786   4.283   0.094   9.253 -0.5686  0.5126  1.2157
 8384SOL     OW36787   2.044   3.065   8.174 -0.3269  0.5833  0.8352
 8384SOL    HW136788   2.044   3.017   8.091  0.7481  1.9851  0.0170
 8384SOL    HW236789   2.000   3.146   8.150  1.9823  1.6934  0.2993
 8385SOL     OW36790   4.378   3.820   7.226  0.1059 -0.2890 -0.2817
 8385SOL    HW136791   4.379   3.728   7.254 -0.0867  0.0482  0.8468
 8385SOL    HW236792   4.429   3.820   7.145  0.6619  1.6106  0.0698
 8386SOL     OW36793   1.399   2.521   2.787  0.3172  0.2338  0.5347
 8386SOL    HW136794   1.458   2.569   2.728 -1.6445  0.9306 -0.8651
 8386SOL    HW236795   1.360   2.448   2.740  1.5783  1.2206 -2.0483
 8387SOL     OW36796   3.297   1.519   5.424  0.3472  0.0300 -0.4908
 8387SOL    HW136797   3.267   1.589   5.366  0.9540 -0.0331 -0.8782
 8387SOL    HW236798   3.209   1.481   5.432  1.4586 -2.6022 -0.6168
 8388SOL     OW36799   1.236   0.285   1.707 -0.4628  0.7285  0.4608
 8388SOL    HW136800   1.266   0.277   1.617  2.0826  1.0030  1.2995
 8388SOL    HW236801   1.312   0.249   1.752  0.0825  0.6147 -0.5521
 8389SOL     OW36802   1.155   2.987   4.831  0.0683  0.4210 -0.3681
 8389SOL    HW136803   1.103   3.015   4.756 -0.2075  0.5514 -0.1276
 8389SOL    HW236804   1.117   3.040   4.900  0.0645 -0.0679  0.0056
 8390SOL     OW36805   2.545   2.072   2.296 -0.8194 -0.3536 -1.0674
 8390SOL    HW136806   2.566   2.001   2.235  0.6785 -0.3309 -0.5872
 8390SOL    HW236807   2.618   2.128   2.269 -2.8620  3.4172  1.2293
 8391SOL     OW36808   1.037   1.313  15.890 -0.0215 -0.4199  0.0274
 8391SOL    HW136809   0.943   1.297  15.884 -0.4141  2.4440 -1.2498
 8391SOL    HW236810   1.058   1.376  15.959 -2.2446  0.9202 -0.5230
 8392SOL     OW36811   4.231   4.315   7.909  0.0195 -0.0635 -0.5549
 8392SOL    HW136812   4.181   4.236   7.888  0.7014 -0.2725 -1.3687
 8392SOL    HW236813   4.260   4.339   7.821  3.9173  1.2560  1.1036
 8393SOL     OW36814   0.739   1.009  12.411 -0.3238  0.2515  0.7591
 8393SOL    HW136815   0.656   0.975  12.443 -1.5406  2.1326 -0.3989
 8393SOL    HW236816   0.763   0.952  12.337 -1.0192 -0.9907  1.5004
 8394SOL     OW36817   1.060   2.552   2.778 -0.4291 -0.1085  0.4290
 8394SOL    HW136818   1.137   2.595   2.815 -0.7342 -0.0536  1.0023
 8394SOL    HW236819   1.049   2.492   2.852 -4.9328  0.5599  0.2583
 8395SOL     OW36820   1.227   2.919   7.188 -0.3582 -0.0215  0.1664
 8395SOL    HW136821   1.145   2.956   7.154  0.7055  1.8046 -0.4076
 8395SOL    HW236822   1.252   2.981   7.256  1.2712  1.2727 -1.5892
 8396SOL     OW36823   2.356   4.438  15.294  0.0629  0.1876 -0.2913
 8396SOL    HW136824   2.335   4.527  15.267 -1.1594  0.2975  1.0264
 8396SOL    HW236825   2.310   4.435  15.378 -2.2709  1.3880 -1.5377
 8397SOL     OW36826   3.333   1.268  14.896 -0.3323  0.7994 -0.0637
 8397SOL    HW136827   3.383   1.208  14.840  3.2735  2.7511  1.0072
 8397SOL    HW236828   3.344   1.221  14.979  3.3990 -1.2783 -1.7237
 8398SOL     OW36829   2.422   2.558   6.977  0.2124  0.1956 -0.3640
 8398SOL    HW136830   2.435   2.555   6.882  2.6484  3.0306 -0.1146
 8398SOL    HW236831   2.355   2.490   6.978 -0.0266  0.4592  2.9758
 8399SOL     OW36832   0.490   3.995   2.604  0.0087 -0.1749  0.3225
 8399SOL    HW136833   0.524   3.906   2.607 -1.7887 -0.8284  1.4172
 8399SOL    HW236834   0.467   4.019   2.694 -1.5408 -1.2061  0.1988
 8400SOL     OW36835   3.890   2.034   3.805  0.3791 -0.5014  0.2352
 8400SOL    HW136836   3.952   2.106   3.817  1.1577 -1.0630 -0.4262
 8400SOL    HW236837   3.812   2.071   3.848 -0.6311 -1.0195 -1.1493
 8401SOL     OW36838   2.238   1.630   4.383 -0.2860  0.3079  0.4914
 8401SOL    HW136839   2.171   1.565   4.363 -1.2028  1.4039 -0.0316
 8401SOL    HW236840   2.214   1.704   4.328 -1.0427 -1.8886 -2.1087
 8402SOL     OW36841   0.725   1.777   9.135  0.4976  1.0114  0.0594
 8402SOL    HW136842   0.797   1.817   9.086 -1.4233  2.4718 -1.5386
 8402SOL    HW236843   0.781   1.734   9.200 -0.3563  1.1467  0.8908
 8403SOL     OW36844   1.683   4.215   6.232  0.4942  0.1053  0.7649
 8403SOL    HW136845   1.647   4.228   6.144  0.1624  0.7811  1.0021
 8403SOL    HW236846   1.620   4.258   6.288 -0.5037 -0.3184 -0.0241
 8404SOL     OW36847   2.843   1.773  12.682 -0.0638 -0.2779 -0.6794
 8404SOL    HW136848   2.922   1.759  12.631  1.9883 -0.5276  2.5830
 8404SOL    HW236849   2.778   1.785  12.613 -2.5657  0.4324  1.7734
 8405SOL     OW36850   1.664   1.091   7.509 -0.4593  1.3092 -0.2705
 8405SOL    HW136851   1.591   1.046   7.553 -0.4871  3.0699  1.4923
 8405SOL    HW236852   1.661   1.041   7.428 -1.1452  0.3891  0.3187
 8406SOL     OW36853   0.607   1.328   6.815 -0.1610  0.1353 -0.4652
 8406SOL    HW136854   0.578   1.397   6.875  0.6036  0.2325 -0.2076
 8406SOL    HW236855   0.701   1.346   6.801  0.4580 -2.6670  0.1615
 8407SOL     OW36856   4.427   3.896   5.967  0.3099  0.3338  0.0297
 8407SOL    HW136857   4.501   3.954   5.950  1.1838 -1.0769 -0.9647
 8407SOL    HW236858   4.472   3.816   5.994  2.3403  0.9586 -1.4940
 8408SOL     OW36859   0.844   0.411   6.909 -0.4183 -1.3308 -0.3354
 8408SOL    HW136860   0.923   0.363   6.881 -0.1870 -1.6965  0.9069
 8408SOL    HW236861   0.864   0.504   6.910 -1.0141 -1.1924 -1.5523
 8409SOL     OW36862   0.687   1.630   5.283  0.3828 -0.1160 -0.2120
 8409SOL    HW136863   0.721   1.671   5.203 -2.1645 -0.9710 -1.7231
 8409SOL    HW236864   0.593   1.646   5.282  0.3387 -0.2269  2.1403
 8410SOL     OW36865   0.702   1.259   7.623  0.1165 -0.0370 -0.4706
 8410SOL    HW136866   0.609   1.240   7.608  0.3651 -0.8898 -0.9524
 8410SOL    HW236867   0.737   1.224   7.541  0.1484 -0.1040 -0.4285
 8411SOL     OW36868   2.224   1.806  10.933  0.4094  0.4310 -0.0243
 8411SOL    HW136869   2.305   1.777  10.974 -0.0442 -2.4591 -1.1871
 8411SOL    HW236870   2.195   1.874  10.994 -1.0186 -1.5639  1.5135
 8412SOL     OW36871   4.340   3.995   8.280 -0.0168 -0.4942  0.5824
 8412SOL    HW136872   4.278   3.955   8.340 -1.6263 -1.0883 -1.4817
 8412SOL    HW236873   4.274   4.023   8.217  0.2996 -0.4602  0.2611
 8413SOL     OW36874   1.517   2.841  10.413 -0.4317  0.2141  0.0892
 8413SOL    HW136875   1.518   2.749  10.440 -0.6712  0.7521  1.9404
 8413SOL    HW236876   1.602   2.863  10.452  2.0699 -3.7947 -3.1312
 8414SOL     OW36877   2.178   1.032   8.846  0.2313  0.7049 -0.5091
 8414SOL    HW136878   2.268   1.063   8.846  1.0583 -1.6433 -0.1977
 8414SOL    HW236879   2.156   1.047   8.938 -0.3616  0.2312 -0.5750
 8415SOL     OW36880   2.613   2.548   2.908 -0.2458  0.1323 -0.5632
 8415SOL    HW136881   2.563   2.509   2.837 -1.8532  1.7546 -0.3170
 8415SOL    HW236882   2.622   2.638   2.876 -2.0438  0.8228  0.9139
 8416SOL     OW36883   2.051   0.955   5.202  0.0423  0.0488 -0.1790
 8416SOL    HW136884   1.989   0.882   5.194 -0.8998  0.6767  1.3537
 8416SOL    HW236885   2.066   0.933   5.294  2.3508  0.5052 -0.4558
 8417SOL     OW36886   0.723   1.541   7.687  0.8077 -0.1020  0.3310
 8417SOL    HW136887   0.733   1.448   7.669  0.9575 -0.2023  0.9465
 8417SOL    HW236888   0.632   1.555   7.715  0.2120 -0.1460 -1.6017
 8418SOL     OW36889   2.592   3.582   4.932  0.3123  0.3860  0.1459
 8418SOL    HW136890   2.507   3.540   4.931  1.1240 -1.2833  2.3234
 8418SOL    HW236891   2.643   3.513   4.889  0.7911  0.3015  0.8519
 8419SOL     OW36892   2.414   2.822   4.358  0.1531  0.4715  0.1739
 8419SOL    HW136893   2.474   2.850   4.426  1.3071 -1.4980 -0.0255
 8419SOL    HW236894   2.478   2.793   4.292 -0.7946 -1.0403 -0.0918
 8420SOL     OW36895   1.845   2.087  12.124  0.1030 -0.3285  0.4394
 8420SOL    HW136896   1.908   2.159  12.115 -0.2614 -0.1355 -0.5394
 8420SOL    HW236897   1.759   2.122  12.103  0.6987 -0.1566 -1.6976
 8421SOL     OW36898   4.506   2.266   4.027  0.2547 -0.2991  0.3301
 8421SOL    HW136899   4.551   2.345   4.056 -0.2843 -0.1053  0.6350
 8421SOL    HW236900   4.479   2.235   4.113  2.9005  1.3899  1.7748
 8422SOL     OW36901   2.211   0.507   7.333 -0.4083 -0.0131  0.6698
 8422SOL    HW136902   2.173   0.589   7.302 -0.6334 -1.1269 -2.0351
 8422SOL    HW236903   2.266   0.477   7.261  1.1861 -0.6883  2.1508
 8423SOL     OW36904   3.909   2.853  14.843  0.5331  0.1268  0.1647
 8423SOL    HW136905   3.948   2.842  14.757 -1.0539 -2.2735 -0.2680
 8423SOL    HW236906   3.872   2.941  14.844 -0.2164 -0.1651 -2.3291
 8424SOL     OW36907   3.695   2.482   2.114 -0.5765 -0.1791  0.0982
 8424SOL    HW136908   3.714   2.388   2.107  0.8052  0.2684 -2.0398
 8424SOL    HW236909   3.690   2.497   2.208 -2.3605  0.9223 -0.1668
 8425SOL     OW36910   2.721   1.466   7.046  0.1125 -0.8136 -0.7611
 8425SOL    HW136911   2.657   1.511   6.992 -1.4856 -0.5199  1.3585
 8425SOL    HW236912   2.802   1.481   6.999  1.3819 -0.1342  1.6230
 8426SOL     OW36913   4.612   1.753   6.836 -0.5213 -0.3852  0.2171
 8426SOL    HW136914   4.654   1.821   6.784 -1.3195  0.9489  1.2940
 8426SOL    HW236915   4.686   1.739   6.895  0.1804  0.0153 -0.5709
 8427SOL     OW36916   3.877   4.404   6.280 -0.0625 -0.2824  0.0881
 8427SOL    HW136917   3.870   4.311   6.258 -2.2030  0.1428 -0.9906
 8427SOL    HW236918   3.797   4.443   6.246 -0.3726 -1.3683 -0.4067
 8428SOL     OW36919   3.892   3.504   9.690  0.1559  0.0097 -0.4728
 8428SOL    HW136920   3.904   3.414   9.723 -1.2410  0.2251  0.6088
 8428SOL    HW236921   3.813   3.503   9.636  0.4583  0.6068 -0.9210
 8429SOL     OW36922   4.011   0.404  17.033 -0.0894 -0.1594  0.2854
 8429SOL    HW136923   3.963   0.324  17.053  0.6361 -0.5213  0.5900
 8429SOL    HW236924   3.977   0.422  16.946  0.8474 -0.9847 -0.2506
 8430SOL     OW36925   2.929   3.962   3.368  0.0654  0.5829  0.2992
 8430SOL    HW136926   2.950   3.992   3.457 -0.1282 -0.6897  0.7847
 8430SOL    HW236927   2.917   3.871   3.397  0.6115  0.1053 -0.9874
 8431SOL     OW36928   1.162   2.067   8.684  0.7294 -0.6357  0.3224
 8431SOL    HW136929   1.251   2.051   8.655  0.3186 -0.3948 -1.0766
 8431SOL    HW236930   1.147   1.996   8.747 -1.7560  0.7005  1.2671
 8432SOL     OW36931   3.410   2.724   1.413 -0.5215 -0.3350 -0.1319
 8432SOL    HW136932   3.506   2.729   1.423 -0.4313 -2.8780  0.1872
 8432SOL    HW236933   3.400   2.636   1.449  0.6043  0.5196  2.2461
 8433SOL     OW36934   3.314   3.813  14.518  0.0639 -0.6041  0.1195
 8433SOL    HW136935   3.292   3.736  14.570 -0.2309  1.3618  2.8947
 8433SOL    HW236936   3.280   3.887  14.568 -0.4552 -1.5196  1.1173
 8434SOL     OW36937   2.835   3.067   3.445 -0.6867  0.2484  0.4496
 8434SOL    HW136938   2.766   3.001   3.437 -0.2547  0.0259 -1.2519
 8434SOL    HW236939   2.898   3.024   3.388 -1.8475 -2.6039  1.3360
 8435SOL     OW36940   1.751   4.570   5.183 -0.5669  0.6330 -0.2967
 8435SOL    HW136941   1.681   4.559   5.118 -1.4177 -0.8101  0.8529
 8435SOL    HW236942   1.832   4.565   5.132 -1.0421 -1.3438 -0.8711
 8436SOL     OW36943   0.787   2.295  11.801 -0.4586 -1.0653  0.1368
 8436SOL    HW136944   0.750   2.359  11.862  0.6522 -2.5160  2.3053
 8436SOL    HW236945   0.827   2.360  11.742 -1.6140 -0.5876 -0.1206
 8437SOL     OW36946   2.724   3.381   2.063  0.8280  0.3236  0.1906
 8437SOL    HW136947   2.734   3.293   2.027  2.3598  0.6751 -0.2191
 8437SOL    HW236948   2.629   3.373   2.073  0.9278 -1.0695  0.0630
 8438SOL     OW36949   4.165   0.877   4.365  0.0464  0.3640 -0.4640
 8438SOL    HW136950   4.242   0.823   4.350  0.7172  2.0736 -3.1133
 8438SOL    HW236951   4.194   0.963   4.334 -0.9326  1.1187  0.7458
 8439SOL     OW36952   1.818   2.131   9.418 -0.1644  0.5682  0.0295
 8439SOL    HW136953   1.852   2.056   9.368  0.1846  1.1135 -0.5440
 8439SOL    HW236954   1.794   2.183   9.341  2.3296 -0.1582 -1.2328
 8440SOL     OW36955   4.025   4.305   1.469 -0.1702  0.2372  0.0659
 8440SOL    HW136956   3.992   4.393   1.449  0.5873  0.5002  0.0076
 8440SOL    HW236957   3.997   4.286   1.559  1.2476 -1.5905  0.1227
 8441SOL     OW36958   4.399   2.944   4.733  0.2174 -0.1486 -0.3564
 8441SOL    HW136959   4.363   2.987   4.655  1.3312  1.2078 -0.1410
 8441SOL    HW236960   4.331   2.958   4.799  0.6973 -0.8882  0.2944
 8442SOL     OW36961   0.832   4.094   3.939  0.4003  0.2308  0.5540
 8442SOL    HW136962   0.837   4.099   3.844  0.2445  0.7789  0.5734
 8442SOL    HW236963   0.903   4.033   3.959 -1.3151 -1.5600  1.2871
 8443SOL     OW36964   3.355   0.403   2.375  0.5357  0.6917  0.3225
 8443SOL    HW136965   3.399   0.461   2.436  1.2453  0.3415  0.1478
 8443SOL    HW236966   3.420   0.409   2.304 -0.8407  0.3653 -0.9746
 8444SOL     OW36967   3.563   3.182   6.424  0.3253  0.1784 -0.0304
 8444SOL    HW136968   3.523   3.097   6.410  1.8258 -1.0596  3.1989
 8444SOL    HW236969   3.533   3.196   6.514  0.5512  2.0961 -0.2559
 8445SOL     OW36970   2.266   4.217  10.614 -0.2433 -0.0496  0.1124
 8445SOL    HW136971   2.189   4.268  10.587  0.7297  1.4635  0.2069
 8445SOL    HW236972   2.331   4.247  10.551 -0.0553  0.1079  0.3842
 8446SOL     OW36973   0.982   4.430   9.288 -0.6081  0.3626 -0.1146
 8446SOL    HW136974   0.943   4.515   9.308 -2.1244 -0.6647  1.2243
 8446SOL    HW236975   1.030   4.416   9.369 -0.4869 -0.6999 -0.3777
 8447SOL     OW36976   4.000   4.187   2.963 -0.0102  0.2806  0.6700
 8447SOL    HW136977   4.061   4.258   2.941 -2.0106  1.2666 -1.7672
 8447SOL    HW236978   3.924   4.244   2.977 -0.8611 -0.7244  0.1338
 8448SOL     OW36979   2.993   2.774   2.207  0.2905 -0.7626  0.3023
 8448SOL    HW136980   2.965   2.865   2.196 -0.9652 -1.1367  0.3561
 8448SOL    HW236981   3.049   2.769   2.129  2.0491  0.3974  1.5018
 8449SOL     OW36982   1.088   3.223   2.240  0.2772 -0.0065 -0.1569
 8449SOL    HW136983   1.049   3.160   2.301  1.5280 -0.0350  0.6061
 8449SOL    HW236984   1.147   3.281   2.287 -1.7315 -0.4487  2.8856
 8450SOL     OW36985   0.304   3.453  17.408 -0.8901 -0.0434 -0.2670
 8450SOL    HW136986   0.333   3.542  17.386 -2.6914  1.1332  2.0893
 8450SOL    HW236987   0.373   3.421  17.467 -0.1962  0.9732 -0.5213
 8451SOL     OW36988   3.622   3.819   7.411 -0.4068  0.4606  0.1619
 8451SOL    HW136989   3.530   3.818   7.386 -0.2919 -0.6716 -0.2087
 8451SOL    HW236990   3.612   3.886   7.478 -1.1061 -0.8910  1.4060
 8452SOL     OW36991   0.982   0.378   9.688 -0.3792  0.5180 -0.7399
 8452SOL    HW136992   0.903   0.339   9.725  0.5559  0.1611  0.8705
 8452SOL    HW236993   1.046   0.308   9.702 -1.5259 -0.6533 -1.3072
 8453SOL     OW36994   1.746   3.379  16.025  0.1634  0.8503 -0.1205
 8453SOL    HW136995   1.689   3.415  16.094 -0.6734 -0.6841 -0.0118
 8453SOL    HW236996   1.690   3.316  15.979  0.6361 -0.8521  1.6275
 8454SOL     OW36997   2.081   4.169   3.716  0.1517 -0.0787  0.4331
 8454SOL    HW136998   2.107   4.256   3.747  0.4997  0.0966 -0.3598
 8454SOL    HW236999   2.140   4.114   3.767  1.0374 -1.5750 -2.1893
 8455SOL     OW37000   2.829   2.706  17.488 -0.5786  0.2200 -0.3943
 8455SOL    HW137001   2.735   2.691  17.479 -0.9564  1.5232  1.3884
 8455SOL    HW237002   2.856   2.650  17.415 -0.5431 -2.1593  1.4883
 8456SOL     OW37003   2.777   3.097   1.678  0.0799 -0.1881  0.1843
 8456SOL    HW137004   2.847   3.079   1.615  0.1577 -0.8941  0.4670
 8456SOL    HW237005   2.702   3.065   1.627 -0.3041  0.5351  0.3040
 8457SOL     OW37006   0.894   0.827   0.190  0.2385  0.3205  0.5746
 8457SOL    HW137007   0.893   0.906   0.243 -1.2188 -0.7016  2.0478
 8457SOL    HW237008   0.972   0.781   0.221  0.2079  0.5525  0.9975
 8458SOL     OW37009   1.508   2.289  12.313 -0.3241  0.3578  0.1228
 8458SOL    HW137010   1.524   2.259  12.224  3.3092 -0.0737  0.9331
 8458SOL    HW237011   1.600   2.301  12.338 -0.0652  0.2524 -0.7858
 8459SOL     OW37012   0.439   3.204   2.296 -0.0629 -0.4847  0.1421
 8459SOL    HW137013   0.437   3.273   2.230  2.9172 -0.4233  0.1097
 8459SOL    HW237014   0.363   3.221   2.352  0.4868 -1.7540  1.2934
 8460SOL     OW37015   3.708   3.138  11.951  0.6652  0.7445 -0.7353
 8460SOL    HW137016   3.781   3.166  11.896  2.8210 -2.5221  0.4174
 8460SOL    HW237017   3.746   3.149  12.038  0.0359  0.6626 -0.4470
 8461SOL     OW37018   0.751   1.956   6.445  0.0445 -0.3741  1.0402
 8461SOL    HW137019   0.779   2.000   6.525 -1.4621  0.9986  0.8314
 8461SOL    HW237020   0.831   1.938   6.396 -0.6073  0.2790 -0.2728
 8462SOL     OW37021   3.948   0.522   2.680 -0.0873  0.3622 -0.3312
 8462SOL    HW137022   3.998   0.490   2.605 -0.4917  0.7475 -0.7598
 8462SOL    HW237023   3.992   0.483   2.756 -3.0168 -1.7234  0.2923
 8463SOL     OW37024   2.594   3.405   2.916  0.7136 -0.0843 -0.1405
 8463SOL    HW137025   2.581   3.477   2.855 -1.2947 -1.2487 -1.0713
 8463SOL    HW237026   2.504   3.392   2.946  0.0004  2.2228 -1.3249
 8464SOL     OW37027   0.752   3.846   6.952  0.6446  1.5289 -0.0965
 8464SOL    HW137028   0.692   3.918   6.933 -1.3345 -0.2638 -0.6462
 8464SOL    HW237029   0.734   3.821   7.043  0.0244  0.4184 -0.5339
 8465SOL     OW37030   1.152   2.278   8.971 -0.0355 -0.1497 -0.1375
 8465SOL    HW137031   1.105   2.196   8.982  1.2103 -0.8381  0.0726
 8465SOL    HW237032   1.234   2.248   9.011 -0.2929 -1.6771 -0.7803
 8466SOL     OW37033   2.365   1.785   7.467 -0.0688 -0.4279 -0.4630
 8466SOL    HW137034   2.346   1.701   7.426 -3.0343  0.6863 -1.3505
 8466SOL    HW237035   2.459   1.798   7.461 -0.2643 -0.4522 -3.4809
 8467SOL     OW37036   4.414   3.955   4.805  0.3559  0.2327  0.1753
 8467SOL    HW137037   4.421   3.998   4.719  0.4871  1.2163  0.6738
 8467SOL    HW237038   4.343   4.000   4.851  1.7047  2.7325 -0.1824
 8468SOL     OW37039   3.481   0.202  15.066  0.0630  0.1763  0.7649
 8468SOL    HW137040   3.561   0.166  15.026 -0.2425  0.9642 -0.5387
 8468SOL    HW237041   3.497   0.295  15.082  0.7402  0.1878 -0.0040
 8469SOL     OW37042   3.520   2.971   5.798  0.3659 -0.3351  0.2099
 8469SOL    HW137043   3.593   2.912   5.816  1.5641  0.9269 -0.5067
 8469SOL    HW237044   3.528   3.024   5.877  1.0809 -1.6414  1.0158
 8470SOL     OW37045   3.178   3.070   9.919 -0.5304  0.6361 -0.0327
 8470SOL    HW137046   3.115   3.043   9.852 -0.8816 -1.3076  1.0659
 8470SOL    HW237047   3.248   3.014   9.884 -0.6569  1.1154 -1.0481
 8471SOL     OW37048   1.130   3.867   6.269 -0.0479  0.3048  0.1204
 8471SOL    HW137049   1.163   3.778   6.254  1.5717  1.1709 -1.5390
 8471SOL    HW237050   1.049   3.853   6.318  0.7600 -1.7457  0.8832
 8472SOL     OW37051   3.162   4.228  15.687  0.1373  0.2318  0.3877
 8472SOL    HW137052   3.236   4.190  15.640 -0.4285 -1.4872  0.8975
 8472SOL    HW237053   3.102   4.240  15.613  0.0594 -0.6153  0.3173
 8473SOL     OW37054   3.786   1.647   1.023  0.2293 -0.6769 -0.7983
 8473SOL    HW137055   3.876   1.637   0.991 -0.1474  2.1140 -2.7340
 8473SOL    HW237056   3.777   1.738   1.051  0.6702 -0.3108 -1.8454
 8474SOL     OW37057   2.111   1.591  15.647 -0.1693  0.2255 -0.0061
 8474SOL    HW137058   2.055   1.552  15.714  0.6384  1.2783  1.2694
 8474SOL    HW237059   2.064   1.576  15.565  0.9916  0.2641 -0.6748
 8475SOL     OW37060   4.255   0.369   7.343 -0.3616 -0.4283 -0.0592
 8475SOL    HW137061   4.276   0.443   7.285  0.5788 -1.3794 -0.9441
 8475SOL    HW237062   4.344   0.340   7.363 -0.4687 -1.0451 -0.4817
 8476SOL     OW37063   2.886   2.032  14.286 -0.6531  1.1860 -0.2019
 8476SOL    HW137064   2.901   2.100  14.220 -0.4021  2.2540  0.9484
 8476SOL    HW237065   2.792   2.017  14.278  0.0426 -2.8315 -1.1503
 8477SOL     OW37066   2.709   3.909   5.479  0.0927 -0.3022 -0.5228
 8477SOL    HW137067   2.737   3.852   5.408 -0.2870 -0.7474 -0.3145
 8477SOL    HW237068   2.758   3.988   5.455  0.3505 -0.2913  0.0365
 8478SOL     OW37069   0.432   2.054  11.155  0.2467  0.4367  0.2220
 8478SOL    HW137070   0.467   1.968  11.179  0.5851  0.4269 -0.3053
 8478SOL    HW237071   0.470   2.067  11.068  0.8471  0.4428  0.4840
 8479SOL     OW37072   4.617   3.358   0.023 -0.6428 -0.0682 -0.0914
 8479SOL    HW137073   4.564   3.308   0.087 -0.8347 -1.8746 -1.6553
 8479SOL    HW237074   4.704   3.357   0.063 -0.8049  0.4990  0.2769
 8480SOL     OW37075   2.977   1.275   3.290  0.1710 -0.9806 -1.1667
 8480SOL    HW137076   2.910   1.263   3.223 -2.3927  0.3326  1.1290
 8480SOL    HW237077   2.983   1.371   3.285  0.0115 -1.0077 -1.8838
 8481SOL     OW37078   4.667   3.112  13.066 -0.0405  0.0944 -0.1041
 8481SOL    HW137079   4.609   3.182  13.036 -1.5456 -0.8341  0.6508
 8481SOL    HW237080   4.705   3.087  12.982 -1.2661 -1.5315 -0.1593
 8482SOL     OW37081   1.936   4.197  12.677 -0.2088 -0.0412  0.4183
 8482SOL    HW137082   1.922   4.111  12.716  1.7839 -0.9750 -0.9162
 8482SOL    HW237083   2.007   4.220  12.738 -0.7142  0.9761  0.6219
 8483SOL     OW37084   0.675   2.638   9.701 -0.0863  0.4178  0.1928
 8483SOL    HW137085   0.703   2.695   9.773  1.9105  0.4270 -0.5794
 8483SOL    HW237086   0.592   2.668   9.665 -0.8201  0.3460  1.8328
 8484SOL     OW37087   3.592   0.445   7.270 -0.0897  0.1927 -0.0011
 8484SOL    HW137088   3.638   0.519   7.230  0.0334 -0.1299 -0.4600
 8484SOL    HW237089   3.647   0.374   7.237  0.5207 -0.4927  2.5310
 8485SOL     OW37090   4.094   2.830   1.891 -0.3081 -0.0958 -0.0588
 8485SOL    HW137091   4.184   2.804   1.908 -0.1962 -0.6616 -1.4593
 8485SOL    HW237092   4.053   2.746   1.910  0.7339 -0.5769  0.0228
 8486SOL     OW37093   4.574   4.298  13.706  1.1072 -0.1274 -0.7469
 8486SOL    HW137094   4.634   4.306  13.780  0.0619 -0.1124  0.1036
 8486SOL    HW237095   4.635   4.326  13.638 -0.4403  1.3415 -1.5064
 8487SOL     OW37096   1.490   1.609   7.316  0.3310  0.4628  0.1566
 8487SOL    HW137097   1.529   1.602   7.403  1.6421  0.6478 -0.4184
 8487SOL    HW237098   1.475   1.703   7.322  0.5385  0.4886  0.2922
 8488SOL     OW37099   1.400   0.750   0.054  0.0973 -0.2295 -0.8682
 8488SOL    HW137100   1.417   0.658   0.033  2.6223 -0.1643  0.9438
 8488SOL    HW237101   1.487   0.772   0.087  0.0181 -2.4801  0.7944
 8489SOL     OW37102   0.969   1.183   8.805 -0.3728  0.1245 -0.2108
 8489SOL    HW137103   0.918   1.101   8.807  1.5349 -1.0039  2.6422
 8489SOL    HW237104   1.004   1.170   8.717 -1.0270 -0.0245 -0.4508
 8490SOL     OW37105   0.314   3.666  13.138 -0.2719 -0.0020 -1.1747
 8490SOL    HW137106   0.236   3.614  13.118 -0.8300  0.4186 -0.0872
 8490SOL    HW237107   0.301   3.748  13.091 -0.0655  1.9906  2.2250
 8491SOL     OW37108   4.043   2.469  14.846 -0.1107  0.4425  0.2619
 8491SOL    HW137109   4.115   2.510  14.799  0.2325  0.6521  0.9606
 8491SOL    HW237110   3.982   2.461  14.773 -1.4143 -0.8464  1.4814
 8492SOL     OW37111   3.390   0.156   8.774  0.7386 -0.1330  0.3691
 8492SOL    HW137112   3.320   0.189   8.830  0.7919 -0.8457  0.8493
 8492SOL    HW237113   3.465   0.208   8.804  2.4087 -2.1464 -0.2705
 8493SOL     OW37114   2.654   2.648  16.682  0.9167 -0.7878 -0.2226
 8493SOL    HW137115   2.601   2.720  16.715 -0.6623 -1.1535 -1.9795
 8493SOL    HW237116   2.583   2.591  16.653 -0.7799  1.1998  0.0279
 8494SOL     OW37117   0.276   2.915   1.453  0.2464  0.4130 -0.5161
 8494SOL    HW137118   0.284   3.009   1.437  0.3518  0.0745 -2.4511
 8494SOL    HW237119   0.224   2.901   1.374  0.7891  0.1339 -0.8200
 8495SOL     OW37120   2.361   4.211   4.516 -0.0542  0.1504  0.4775
 8495SOL    HW137121   2.268   4.229   4.528  0.0735  1.6492 -0.6491
 8495SOL    HW237122   2.354   4.178   4.426 -1.1546 -1.6850  1.2319
 8496SOL     OW37123   2.968   0.054  12.130 -0.1798 -0.1369  0.1179
 8496SOL    HW137124   2.935   4.728  12.064 -1.2870  1.4852 -0.8083
 8496SOL    HW237125   2.895   0.044  12.192 -0.4232  1.2736  0.0448
 8497SOL     OW37126   0.111   2.458   2.918  0.0518 -0.2608  0.4043
 8497SOL    HW137127   0.185   2.432   2.863 -0.1201  0.6259 -0.2465
 8497SOL    HW237128   0.069   2.516   2.854 -1.0290 -1.1063  0.3518
 8498SOL     OW37129   4.397   2.315   9.462  0.2449 -0.7001 -0.6223
 8498SOL    HW137130   4.403   2.277   9.374 -0.1436  0.1138 -1.0004
 8498SOL    HW237131   4.380   2.409   9.452 -2.1366 -1.0884 -0.1778
 8499SOL     OW37132   2.823   1.259   6.150  0.4413 -0.5426  0.2803
 8499SOL    HW137133   2.915   1.285   6.152 -0.5610  2.7452  3.0199
 8499SOL    HW237134   2.827   1.215   6.065 -1.3822  1.0432 -0.6154
 8500SOL     OW37135   1.811   1.288  14.653 -0.3355  0.5307 -0.0942
 8500SOL    HW137136   1.724   1.329  14.655 -0.8119 -0.4518 -0.6618
 8500SOL    HW237137   1.801   1.221  14.585 -0.5833 -0.0061  0.4710
 8501SOL     OW37138   4.425   1.554  15.522  0.7049  0.0070  0.2422
 8501SOL    HW137139   4.345   1.562  15.470  1.1031 -0.6601 -0.4763
 8501SOL    HW237140   4.488   1.538  15.452  0.7694  3.2204 -0.4382
 8502SOL     OW37141   3.773   0.086   6.191  0.2844  0.1801  0.0461
 8502SOL    HW137142   3.853   0.043   6.161  1.2829  1.5072  0.7929
 8502SOL    HW237143   3.809   0.126   6.270 -0.5128 -0.6921  0.8654
 8503SOL     OW37144   3.408   3.308   1.588  0.3982 -0.0706 -0.5527
 8503SOL    HW137145   3.410   3.381   1.526  0.5338  1.7483  1.6289
 8503SOL    HW237146   3.384   3.234   1.531 -0.2689 -0.4054  0.1594
 8504SOL     OW37147   4.475   1.193   2.100  0.1718  0.3988  0.2790
 8504SOL    HW137148   4.547   1.235   2.053  0.1077 -1.5610 -1.5140
 8504SOL    HW237149   4.408   1.261   2.097 -1.6238 -1.4570 -1.1718
 8505SOL     OW37150   2.700   0.545   3.653 -0.5418 -0.7137  0.2623
 8505SOL    HW137151   2.613   0.577   3.629  0.3381  0.6047 -1.2193
 8505SOL    HW237152   2.678   0.531   3.745 -2.5732 -0.9513 -0.2689
 8506SOL     OW37153   1.764   0.702   3.248  0.5920 -0.4498  0.2770
 8506SOL    HW137154   1.841   0.741   3.206  0.1952 -0.4794 -0.4744
 8506SOL    HW237155   1.690   0.715   3.188  3.4764  0.6607 -3.0726
 8507SOL     OW37156   2.692   1.462  11.884 -0.2478 -0.0472  0.3058
 8507SOL    HW137157   2.709   1.551  11.853  0.0953  0.2528  1.3349
 8507SOL    HW237158   2.780   1.425  11.892  0.1264  0.7985  0.0541
 8508SOL     OW37159   1.142   2.732   4.959 -0.1638 -0.1808  0.2335
 8508SOL    HW137160   1.165   2.776   5.041 -2.3881 -0.4705  1.0171
 8508SOL    HW237161   1.133   2.807   4.901  0.9085 -0.7533 -0.6650
 8509SOL     OW37162   1.084   3.694  16.951  0.6337 -0.1763  0.4730
 8509SOL    HW137163   1.055   3.642  16.877  1.3745  0.4983 -0.2891
 8509SOL    HW237164   1.179   3.681  16.948  0.6352  0.6171 -2.9110
 8510SOL     OW37165   1.427   0.162   7.487  0.4201 -0.4924 -0.0931
 8510SOL    HW137166   1.411   0.070   7.465 -2.1796 -0.6584  2.5470
 8510SOL    HW237167   1.476   0.148   7.569 -0.6615  0.2396  0.6755
 8511SOL     OW37168   3.513   3.468   4.206  0.1333  0.7586 -0.3134
 8511SOL    HW137169   3.499   3.486   4.299  1.4733  1.1126 -0.1876
 8511SOL    HW237170   3.446   3.399   4.200 -0.1558  1.0463 -0.3695
 8512SOL     OW37171   4.037   0.471   7.831 -0.1541  0.5383 -0.1607
 8512SOL    HW137172   4.017   0.470   7.738  0.5633 -1.7273 -0.2920
 8512SOL    HW237173   4.082   0.386   7.828  2.6552  1.9917  0.7633
 8513SOL     OW37174   3.995   1.498   8.751  0.2967 -0.2709  0.2263
 8513SOL    HW137175   4.032   1.493   8.663  0.3710  0.9274  0.1965
 8513SOL    HW237176   4.008   1.589   8.778 -4.0217  0.0156  1.3319
 8514SOL     OW37177   4.305   1.479   4.322 -0.2605 -0.1782  0.2238
 8514SOL    HW137178   4.245   1.493   4.248  0.3415  1.5191  0.0627
 8514SOL    HW237179   4.361   1.407   4.291 -0.0971 -0.1643  0.4916
 8515SOL     OW37180   1.253   2.116   7.310 -0.1049  0.0585  0.3367
 8515SOL    HW137181   1.166   2.153   7.292 -0.3337 -0.2129  0.8878
 8515SOL    HW237182   1.299   2.197   7.332 -0.8004  0.4558  0.3276
 8516SOL     OW37183   3.525   3.933   8.432  0.1126 -0.0532 -0.4512
 8516SOL    HW137184   3.471   4.007   8.459  3.0574  2.2735 -0.9072
 8516SOL    HW237185   3.611   3.965   8.460 -0.9816  0.8406  1.8681
 8517SOL     OW37186   4.248   3.647   5.546  0.2042 -0.5120  0.4446
 8517SOL    HW137187   4.267   3.711   5.615  1.8450 -0.1990 -0.2997
 8517SOL    HW237188   4.296   3.572   5.583  2.1477 -0.2132 -1.4764
 8518SOL     OW37189   3.843   3.959   4.612  0.2545 -0.3073 -0.0541
 8518SOL    HW137190   3.852   3.890   4.547  0.6612 -1.0500  0.7909
 8518SOL    HW237191   3.775   4.008   4.565  1.6758 -0.7704 -2.5520
 8519SOL     OW37192   2.705   3.331  13.698 -0.3854  0.0010  0.1919
 8519SOL    HW137193   2.670   3.247  13.727 -0.4170 -0.3780 -0.9258
 8519SOL    HW237194   2.745   3.353  13.782 -1.6176 -0.5056  0.9209
 8520SOL     OW37195   0.800   1.695   5.525 -0.0424  0.0102 -0.2296
 8520SOL    HW137196   0.740   1.672   5.453 -1.9114 -1.3518  1.7704
 8520SOL    HW237197   0.879   1.735   5.488 -0.3895  1.4863  0.6466
 8521SOL     OW37198   0.957   2.511   6.740  0.2667  0.7599 -0.0718
 8521SOL    HW137199   1.020   2.490   6.809 -0.1056 -1.1133 -0.2862
 8521SOL    HW237200   0.936   2.423   6.708 -0.1367  0.1430  1.8773
 8522SOL     OW37201   4.354   3.249   1.659  0.0556 -0.4184  0.0512
 8522SOL    HW137202   4.379   3.336   1.689  1.4449 -0.2214 -1.6581
 8522SOL    HW237203   4.398   3.188   1.718  0.8168 -1.5115 -1.6316
 8523SOL     OW37204   1.366   1.771   6.983  0.0799  0.2740 -0.4108
 8523SOL    HW137205   1.453   1.785   6.946 -0.3707 -1.2691 -2.0608
 8523SOL    HW237206   1.381   1.785   7.076 -0.1140 -0.1349 -0.3213
 8524SOL     OW37207   2.308   3.564  11.508  0.2815 -0.0625 -0.6420
 8524SOL    HW137208   2.256   3.634  11.547  1.5388  0.4061  0.2193
 8524SOL    HW237209   2.294   3.488  11.565 -2.8931 -0.8753 -2.5610
 8525SOL     OW37210   4.123   4.240   5.169  0.2362 -0.5028 -0.7118
 8525SOL    HW137211   4.177   4.318   5.153 -2.4852  1.2508 -1.4477
 8525SOL    HW237212   4.193   4.177   5.154 -0.3056 -0.9995 -1.1800
 8526SOL     OW37213   0.239   1.970  14.605 -0.0325  0.2221 -0.7420
 8526SOL    HW137214   0.323   2.007  14.634  0.0072  0.5554 -1.2839
 8526SOL    HW237215   0.206   1.933  14.687 -0.3003 -0.9488 -1.3770
 8527SOL     OW37216   4.098   1.709  11.254  0.1113  0.0383  0.5682
 8527SOL    HW137217   4.183   1.665  11.249  1.2457  2.0507  2.4984
 8527SOL    HW237218   4.071   1.721  11.162  0.7562 -1.9754  0.1328
 8528SOL     OW37219   4.322   0.954   3.477 -0.0884  0.5436  0.2798
 8528SOL    HW137220   4.292   0.895   3.407  0.1500 -0.7205  1.2367
 8528SOL    HW237221   4.340   0.885   3.541 -1.9685  0.1140  0.3445
 8529SOL     OW37222   2.751   3.051   5.381 -0.3744  0.0873 -0.2253
 8529SOL    HW137223   2.733   3.104   5.458  2.5168 -0.9618  1.2165
 8529SOL    HW237224   2.808   3.106   5.328  0.4393  0.6342  1.1973
 8530SOL     OW37225   0.131   0.654  11.776  0.6362 -0.1962  0.2700
 8530SOL    HW137226   0.121   0.595  11.851  4.1198 -2.1971 -0.8267
 8530SOL    HW237227   0.211   0.702  11.795  0.6517 -0.4485  0.8282
 8531SOL     OW37228   0.040   0.280   8.228 -0.4234  0.1339  0.8518
 8531SOL    HW137229   0.065   0.187   8.221  0.2628  0.2940  1.1596
 8531SOL    HW237230   0.053   0.305   8.137 -0.0920  1.6535  1.3242
 8532SOL     OW37231   1.759   4.310   3.324 -0.4818  0.2096 -0.9622
 8532SOL    HW137232   1.827   4.244   3.310  0.8319  1.4710 -0.5303
 8532SOL    HW237233   1.807   4.378   3.372  1.2937 -1.7065  0.0062
 8533SOL     OW37234   2.385   0.023   5.465 -0.0332  0.7504 -0.6694
 8533SOL    HW137235   2.397   0.023   5.370  2.0969 -1.1476 -0.4025
 8533SOL    HW237236   2.293   0.048   5.468 -0.0880  0.3955  0.6279
 8534SOL     OW37237   0.802   1.481   4.932 -0.4289  0.3697  0.1818
 8534SOL    HW137238   0.874   1.508   4.990  0.5130  2.1022 -1.7951
 8534SOL    HW237239   0.748   1.427   4.989 -1.2232  2.2100  1.2037
 8535SOL     OW37240   2.519   3.914   6.935  0.2688  0.2206  0.4524
 8535SOL    HW137241   2.559   3.976   6.875  2.1762 -0.1437  1.3447
 8535SOL    HW237242   2.516   3.826   6.897 -1.4392  0.0909  0.8921
 8536SOL     OW37243   4.673   0.522   6.174  0.5215 -0.1576  0.1898
 8536SOL    HW137244   0.028   0.492   6.158  0.4237 -0.0075 -0.6635
 8536SOL    HW237245   4.660   0.553   6.084 -0.9026  0.9800  0.7762
 8537SOL     OW37246   1.922   0.340  15.235  0.1099  0.3388  0.2801
 8537SOL    HW137247   1.971   0.416  15.205 -0.7638  0.6233 -0.4075
 8537SOL    HW237248   1.964   0.312  15.317 -0.2450 -2.9740 -0.6505
 8538SOL     OW37249   2.209   4.444  15.518  0.2482 -0.2665  0.2091
 8538SOL    HW137250   2.119   4.432  15.548 -0.0446 -1.2040 -1.0596
 8538SOL    HW237251   2.240   4.493  15.594 -0.0431  1.3788 -0.7564
 8539SOL     OW37252   4.126   2.237  13.264 -0.1086 -0.2693 -0.3470
 8539SOL    HW137253   4.158   2.311  13.316 -0.4549 -0.7951  0.6248
 8539SOL    HW237254   4.192   2.172  13.287 -0.7016 -1.4110 -1.8285
 8540SOL     OW37255   1.490   3.636  13.708  0.3603 -0.0222 -0.6619
 8540SOL    HW137256   1.496   3.704  13.640  0.9053  0.3225 -0.2750
 8540SOL    HW237257   1.538   3.690  13.771  0.0558 -1.1689  0.5516
 8541SOL     OW37258   3.991   3.081   1.917  0.2382  0.1748 -0.0805
 8541SOL    HW137259   3.984   3.104   2.009  0.4137  2.8078 -0.7234
 8541SOL    HW237260   4.060   3.016   1.926  0.3938  0.5750  1.6362
 8542SOL     OW37261   2.403   3.954   1.886  0.9602 -0.1481 -0.3934
 8542SOL    HW137262   2.432   3.985   1.972 -0.5220 -1.6301  0.6304
 8542SOL    HW237263   2.469   3.997   1.831 -0.0395 -0.4127 -1.8001
 8543SOL     OW37264   2.554   3.182   7.593 -0.3647 -0.3742 -0.1166
 8543SOL    HW137265   2.565   3.243   7.666 -1.5345 -1.7648  1.2023
 8543SOL    HW237266   2.553   3.250   7.525  1.1198 -2.3133 -2.0477
 8544SOL     OW37267   0.063   4.150   2.392 -0.5606  0.7438  0.5950
 8544SOL    HW137268   0.022   4.134   2.477 -1.3669 -0.6388 -0.0371
 8544SOL    HW237269   0.154   4.136   2.415 -0.8660  0.7237  1.7871
 8545SOL     OW37270   0.534   3.984   8.005  0.0198 -0.2399  0.1810
 8545SOL    HW137271   0.515   3.891   8.020  0.6102 -0.2443  0.9528
 8545SOL    HW237272   0.453   4.023   8.038 -0.1430 -0.6726  0.2898
 8546SOL     OW37273   3.796   1.091   6.644  0.3350  0.0631 -0.0566
 8546SOL    HW137274   3.821   1.175   6.605  0.9598  0.9665  2.2811
 8546SOL    HW237275   3.701   1.090   6.639  0.3397 -2.8533  0.2047
 8547SOL     OW37276   1.129   4.288   2.915  0.5723 -0.0480  0.3887
 8547SOL    HW137277   1.183   4.246   2.982  0.3895 -3.3299 -1.5257
 8547SOL    HW237278   1.100   4.207   2.873  1.5670 -0.6702  0.8844
 8548SOL     OW37279   3.859   2.373   3.743  0.0683 -0.4613  0.3751
 8548SOL    HW137280   3.819   2.430   3.809  0.9167 -0.2313  0.6917
 8548SOL    HW237281   3.915   2.316   3.796 -0.9823 -0.7561  1.1857
 8549SOL     OW37282   3.409   4.586   7.494 -0.3054  0.1397  0.6796
 8549SOL    HW137283   3.382   4.611   7.405  1.5964 -2.5028 -0.6475
 8549SOL    HW237284   3.323   4.582   7.535 -0.7119  0.6133 -0.1190
 8550SOL     OW37285   4.371   3.877  15.875  0.1052 -0.1335 -0.4114
 8550SOL    HW137286   4.402   3.933  15.804 -1.4241  1.8397  0.4661
 8550SOL    HW237287   4.283   3.911  15.894  0.5104 -0.3427  1.7775
 8551SOL     OW37288   2.743   4.351   5.517  0.4712 -0.0882  0.1520
 8551SOL    HW137289   2.677   4.407   5.558  0.5435 -0.1193  0.3081
 8551SOL    HW237290   2.787   4.414   5.459 -2.4934 -0.8557 -2.9263
 8552SOL     OW37291   0.485   4.385  11.989 -0.0550  0.0291  0.0625
 8552SOL    HW137292   0.408   4.330  12.004  0.6353 -0.7180  0.8759
 8552SOL    HW237293   0.496   4.417  12.078  1.3851  1.2900 -0.5722
 8553SOL     OW37294   0.214   4.614   1.979  0.0643  0.5228 -0.6542
 8553SOL    HW137295   0.155   4.605   2.053 -0.6408 -0.9831 -1.4141
 8553SOL    HW237296   0.151   4.602   1.907 -0.3552 -0.7283 -0.0752
 8554SOL     OW37297   4.452   4.559  17.294  0.4529 -0.3097  0.2202
 8554SOL    HW137298   4.446   4.552  17.198  1.5426 -3.8913  0.4336
 8554SOL    HW237299   4.509   4.636  17.289 -1.5121  1.2057  1.0226
 8555SOL     OW37300   0.210   0.719   3.472  0.1227  0.5559 -0.1422
 8555SOL    HW137301   0.140   0.747   3.530  0.3614  0.9632 -0.0541
 8555SOL    HW237302   0.223   0.630   3.504  1.0655  1.2739  1.4470
 8556SOL     OW37303   1.307   0.173   3.575  0.4140  0.1749 -0.2233
 8556SOL    HW137304   1.298   0.113   3.501  0.9655 -0.8632  0.5583
 8556SOL    HW237305   1.362   0.119   3.631  0.5305  1.0173  0.4757
 8557SOL     OW37306   4.005   4.022  14.926 -0.4935  0.0379 -0.0052
 8557SOL    HW137307   3.926   4.046  14.975 -1.1629 -0.9239 -0.6216
 8557SOL    HW237308   4.006   4.081  14.850 -0.8499  0.1945  0.1125
 8558SOL     OW37309   3.305   2.481   8.232 -0.4607  0.4562 -0.0993
 8558SOL    HW137310   3.366   2.419   8.271 -0.0478  1.1849  0.4083
 8558SOL    HW237311   3.323   2.552   8.294 -3.3662 -0.0458  1.3391
 8559SOL     OW37312   2.142   3.932   8.618  0.5881 -0.0677 -0.0860
 8559SOL    HW137313   2.179   3.864   8.673  1.1970 -0.1063 -0.5460
 8559SOL    HW237314   2.071   3.971   8.670  0.3965 -0.1033 -0.3202
 8560SOL     OW37315   1.405   3.460   6.348 -0.8150  0.1595  0.0974
 8560SOL    HW137316   1.376   3.414   6.426 -0.2414 -0.9856 -0.3673
 8560SOL    HW237317   1.500   3.466   6.356 -0.6980 -1.0407 -0.3675
 8561SOL     OW37318   2.964   4.077   3.621 -0.4076 -0.5594  0.3942
 8561SOL    HW137319   3.052   4.085   3.659 -0.8112  1.0671  0.9899
 8561SOL    HW237320   2.946   4.171   3.614  1.5019 -0.2839 -0.9660
 8562SOL     OW37321   1.753   3.134   1.556 -0.3362  0.0869  0.7557
 8562SOL    HW137322   1.771   3.175   1.640 -1.3206  0.7773  0.6298
 8562SOL    HW237323   1.823   3.071   1.540 -0.1161  0.0127  2.0543
 8563SOL     OW37324   1.307   0.602   3.077  0.3309 -0.8103 -0.2041
 8563SOL    HW137325   1.243   0.658   3.033  1.6204 -0.3519 -1.4971
 8563SOL    HW237326   1.258   0.593   3.159 -0.1128 -1.0902 -0.5053
 8564SOL     OW37327   3.341   2.449   0.127  0.0838 -0.4166  0.1803
 8564SOL    HW137328   3.369   2.535   0.095 -2.0737 -0.5620 -2.1293
 8564SOL    HW237329   3.248   2.464   0.143  0.5570  1.2800  1.3308
 8565SOL     OW37330   4.461   3.646  10.927 -0.2174 -0.1822  0.7793
 8565SOL    HW137331   4.475   3.719  10.868 -3.1041 -1.2421 -1.2214
 8565SOL    HW237332   4.460   3.691  11.011  1.1211  1.5134 -0.1224
 8566SOL     OW37333   0.580   2.153  12.164 -0.3956  0.8851 -0.3394
 8566SOL    HW137334   0.552   2.075  12.212 -2.2829  1.5422 -0.3739
 8566SOL    HW237335   0.649   2.120  12.106  0.2982  1.2521  0.2688
 8567SOL     OW37336   1.485   4.147  15.415  0.0138  0.2256 -0.4552
 8567SOL    HW137337   1.566   4.183  15.381 -0.3456  0.1098 -1.4333
 8567SOL    HW237338   1.505   4.163  15.508  0.2549  0.1070 -0.4889
 8568SOL     OW37339   0.797   2.106  12.582 -0.4712  0.1899 -0.2055
 8568SOL    HW137340   0.892   2.112  12.570 -0.1602 -3.1618  0.5539
 8568SOL    HW237341   0.773   2.046  12.511 -0.5132 -0.2921  0.2175
 8569SOL     OW37342   4.020   4.292   0.575  0.1828 -0.1667 -0.1975
 8569SOL    HW137343   4.013   4.248   0.660 -1.6194 -0.9827 -0.7832
 8569SOL    HW237344   4.049   4.213   0.529  2.0347 -0.5639  1.6111
 8570SOL     OW37345   0.281   3.813  12.919  0.0821  0.3493 -0.2007
 8570SOL    HW137346   0.329   3.760  12.855  0.2310 -1.6958  1.5981
 8570SOL    HW237347   0.244   3.876  12.858 -1.5127 -0.9689 -0.5953
 8571SOL     OW37348   3.029   0.329   4.207 -0.4501 -0.2171 -0.0055
 8571SOL    HW137349   2.992   0.411   4.239 -1.6310 -0.7525 -0.0197
 8571SOL    HW237350   2.963   0.264   4.230 -0.0484  0.3221  2.6964
 8572SOL     OW37351   0.549   2.366  10.878 -0.4590  0.0596 -0.1139
 8572SOL    HW137352   0.615   2.434  10.895 -1.8262  1.4651 -0.3972
 8572SOL    HW237353   0.531   2.392  10.788  0.3576 -0.1698 -0.3450
 8573SOL     OW37354   1.209   3.375  16.425 -0.0171  0.2018 -0.2428
 8573SOL    HW137355   1.242   3.306  16.483 -1.8799 -0.2644  0.2707
 8573SOL    HW237356   1.116   3.351  16.430  0.3094 -1.3780 -1.7223
 8574SOL     OW37357   3.266   1.841   7.718  0.0628  0.0121  0.6875
 8574SOL    HW137358   3.182   1.822   7.676  0.7479 -0.4820 -0.4530
 8574SOL    HW237359   3.237   1.806   7.802  0.5204 -2.0005  0.0039
 8575SOL     OW37360   4.387   0.765   4.239  0.2999 -0.0351  0.2093
 8575SOL    HW137361   4.368   0.671   4.236 -1.3106  0.2822  0.7165
 8575SOL    HW237362   4.358   0.802   4.156  1.6952  0.3193 -0.1179
 8576SOL     OW37363   0.901   1.773   1.423  0.1335 -0.3271 -0.2315
 8576SOL    HW137364   0.915   1.782   1.517  1.2663  0.9459 -0.5233
 8576SOL    HW237365   0.862   1.687   1.408  0.9556 -0.8360  0.5670
 8577SOL     OW37366   3.373   3.689   3.361  0.4990  0.6113 -0.0685
 8577SOL    HW137367   3.306   3.626   3.389 -0.4626  1.6020 -0.1125
 8577SOL    HW237368   3.451   3.634   3.362  0.9484  1.2527 -0.6965
 8578SOL     OW37369   1.374   0.444   3.995  0.2904 -0.3631 -0.2004
 8578SOL    HW137370   1.284   0.464   4.022  0.7968  0.4813  0.8364
 8578SOL    HW237371   1.411   0.444   4.083  0.4881 -1.4597 -0.2794
 8579SOL     OW37372   4.144   2.053   8.558  0.0235 -0.1721 -0.2870
 8579SOL    HW137373   4.191   2.128   8.593 -2.2173  0.4101  1.4515
 8579SOL    HW237374   4.071   2.090   8.508  1.0757  0.8432 -1.0644
 8580SOL     OW37375   3.752   2.762   7.176 -0.0552 -0.1770 -0.4376
 8580SOL    HW137376   3.847   2.753   7.191 -0.3503 -0.7244  1.0489
 8580SOL    HW237377   3.750   2.791   7.085  1.3124 -0.8397 -0.6868
 8581SOL     OW37378   3.657   2.419   9.910 -0.6590  0.5460  0.0318
 8581SOL    HW137379   3.570   2.412   9.871 -1.4420  1.0297  1.7030
 8581SOL    HW237380   3.705   2.373   9.840  1.3274  0.2089  1.6111
 8582SOL     OW37381   1.172   0.404   8.230 -0.6610  0.2712  0.0899
 8582SOL    HW137382   1.202   0.456   8.156  2.7155 -1.6050  0.1407
 8582SOL    HW237383   1.194   0.458   8.306 -1.0482  0.7120 -0.1173
 8583SOL     OW37384   0.006   0.487   5.260 -0.6756 -0.0132 -0.2182
 8583SOL    HW137385   0.096   0.454   5.261  1.2698  5.3432  1.0811
 8583SOL    HW237386   0.017   0.573   5.220 -1.3629 -0.4763 -1.3838
 8584SOL     OW37387   2.627   0.506   3.961  0.8549 -0.1792 -0.6059
 8584SOL    HW137388   2.535   0.521   3.943  0.3943  1.5033  2.9744
 8584SOL    HW237389   2.621   0.426   4.012 -0.7404 -1.1305 -2.3169
 8585SOL     OW37390   2.139   3.671  14.608  0.4464  0.3356  0.0155
 8585SOL    HW137391   2.208   3.704  14.552  0.2914  1.6688  0.6231
 8585SOL    HW237392   2.063   3.692  14.555 -1.3332 -0.0569  2.3750
 8586SOL     OW37393   1.652   1.048   4.938  0.2690 -0.2656 -0.3330
 8586SOL    HW137394   1.638   1.078   4.848 -3.2952  0.9769  0.6354
 8586SOL    HW237395   1.666   0.956   4.916 -0.0063 -1.0847  2.9013
 8587SOL     OW37396   1.144   2.122   5.892  0.0339 -0.2291 -0.2941
 8587SOL    HW137397   1.105   2.179   5.825  1.4847 -0.2823 -1.1926
 8587SOL    HW237398   1.065   2.085   5.932 -0.5756  0.2832 -1.0046
 8588SOL     OW37399   4.231   3.890   8.530 -0.1594  0.4076 -0.3338
 8588SOL    HW137400   4.150   3.936   8.511 -0.1548 -0.0004 -1.3498
 8588SOL    HW237401   4.245   3.920   8.620  2.4845 -1.9978  0.0608
 8589SOL     OW37402   0.848   2.444   3.354  0.0405  0.1566 -0.3733
 8589SOL    HW137403   0.889   2.517   3.401 -1.7041  0.8888 -0.0092
 8589SOL    HW237404   0.868   2.475   3.265  0.2304 -0.8525 -0.6819
 8590SOL     OW37405   3.647   3.323   1.105  0.0250 -0.3415  0.0397
 8590SOL    HW137406   3.610   3.393   1.053  0.1233  0.8568  1.5806
 8590SOL    HW237407   3.620   3.361   1.189  2.5611 -1.1351  1.2229
 8591SOL     OW37408   2.473   4.407  13.284  0.0803  0.3077  0.2060
 8591SOL    HW137409   2.526   4.454  13.219 -0.8462  0.2843 -0.5533
 8591SOL    HW237410   2.531   4.414  13.360  1.0164  0.1090 -0.4905
 8592SOL     OW37411   3.311   0.253   1.839 -1.0291  0.7108  0.8824
 8592SOL    HW137412   3.260   0.290   1.912 -1.5141  0.2324  0.7855
 8592SOL    HW237413   3.296   0.314   1.767  0.7174 -0.9296 -0.8735
 8593SOL     OW37414   0.145   3.048   7.241  0.5012  0.0684  0.3036
 8593SOL    HW137415   0.162   3.061   7.148  0.1826  1.1304  0.3957
 8593SOL    HW237416   0.219   3.080   7.293  0.4122 -0.1885  0.5873
 8594SOL     OW37417   2.348   0.340  17.666  0.0904  0.0791 -0.1735
 8594SOL    HW137418   2.422   0.389  17.629  0.7026  0.3243  1.3729
 8594SOL    HW237419   2.373   0.358   0.020 -0.8597 -2.0934  0.5159
 8595SOL     OW37420   0.698   2.350   1.281  0.1411  0.1503 -0.0559
 8595SOL    HW137421   0.700   2.297   1.202 -1.4183 -1.2990  0.8800
 8595SOL    HW237422   0.782   2.327   1.320  0.8231 -1.5977 -2.5829
 8596SOL     OW37423   2.346   0.358   2.285  0.1046  0.0201 -0.0235
 8596SOL    HW137424   2.250   0.365   2.288  0.0231 -0.4898 -1.7135
 8596SOL    HW237425   2.363   0.312   2.368 -1.1674  1.9308  1.2793
 8597SOL     OW37426   3.683   1.291   2.257 -0.2278  0.0728  0.6815
 8597SOL    HW137427   3.601   1.333   2.284 -2.3700 -3.6263 -0.0385
 8597SOL    HW237428   3.667   1.304   2.163 -0.5406 -0.8213  0.6146
 8598SOL     OW37429   1.365   0.618  12.541 -0.4412 -0.3902 -0.1227
 8598SOL    HW137430   1.288   0.664  12.573  0.1129  0.0169  0.6358
 8598SOL    HW237431   1.329   0.531  12.523 -0.6358 -0.2138 -0.5735
 8599SOL     OW37432   2.675   3.993  16.108  0.3882  0.5915 -0.2002
 8599SOL    HW137433   2.702   3.982  16.017 -0.3508 -0.2540 -0.3198
 8599SOL    HW237434   2.579   4.004  16.105  0.5713  2.2712 -0.1402
 8600SOL     OW37435   2.826   2.798   7.498  0.3685  0.0832 -0.0540
 8600SOL    HW137436   2.756   2.850   7.537  0.1963  0.3289 -0.7062
 8600SOL    HW237437   2.794   2.778   7.411 -0.7277  1.3492  0.0562
 8601SOL     OW37438   2.539   2.670   3.426 -0.3120 -0.3553 -1.0224
 8601SOL    HW137439   2.509   2.595   3.477 -1.0106  0.6296 -0.0082
 8601SOL    HW237440   2.579   2.617   3.356  0.9804  0.7495 -1.1306
 8602SOL     OW37441   1.425   4.489   3.463 -0.4060  0.6539  0.0052
 8602SOL    HW137442   1.492   4.557   3.477 -0.0838  0.4321 -0.4650
 8602SOL    HW237443   1.352   4.543   3.432 -0.7762  1.1825  1.8195
 8603SOL     OW37444   1.193   1.572   2.631  0.5300  0.1811  0.1186
 8603SOL    HW137445   1.254   1.618   2.573  0.9781 -1.6815 -0.8987
 8603SOL    HW237446   1.255   1.503   2.656 -0.6243 -1.0132 -0.2958
 8604SOL     OW37447   2.482   2.121   0.886  0.1186  0.1947 -0.2787
 8604SOL    HW137448   2.485   2.026   0.870  0.0295  0.0398  0.6512
 8604SOL    HW237449   2.427   2.119   0.964  0.4102  1.0084 -0.0539
 8605SOL     OW37450   1.622   4.457   5.430 -0.0522 -0.6532 -0.6363
 8605SOL    HW137451   1.656   4.492   5.348 -0.0700 -0.3656 -0.5215
 8605SOL    HW237452   1.557   4.525   5.450 -0.3848 -1.4659  1.0920
 8606SOL     OW37453   3.403   0.156   5.511 -0.1341 -0.5341 -0.1352
 8606SOL    HW137454   3.329   0.121   5.462 -1.3253 -0.9220  1.9305
 8606SOL    HW237455   3.353   0.188   5.586  1.4113  1.4286  0.0400
 8607SOL     OW37456   3.681   0.039   1.933  0.0799  0.1410 -0.1906
 8607SOL    HW137457   3.762   0.086   1.913  0.5801 -0.1397  1.1825
 8607SOL    HW237458   3.711   4.686   1.909  0.6042  0.0519  0.7784
 8608SOL     OW37459   3.449   3.459   6.026 -0.4209 -0.0959 -0.0185
 8608SOL    HW137460   3.525   3.404   6.007 -1.4692 -1.9513  1.1341
 8608SOL    HW237461   3.397   3.397   6.078  1.0080 -0.6407  0.7609
 8609SOL     OW37462   3.282   0.637   7.995 -0.5342  0.0763 -0.1387
 8609SOL    HW137463   3.369   0.601   7.980 -0.6230 -1.1136  2.1335
 8609SOL    HW237464   3.263   0.678   7.910  3.3110 -0.5570 -1.3056
 8610SOL     OW37465   1.829   1.749  15.829 -0.0305  0.5117 -0.2030
 8610SOL    HW137466   1.869   1.663  15.838 -0.9384  0.4274  2.8683
 8610SOL    HW237467   1.739   1.724  15.806  0.4766 -2.2524  0.8267
 8611SOL     OW37468   2.463   2.414  10.528 -0.6101  0.1299 -0.0506
 8611SOL    HW137469   2.507   2.457  10.456 -1.1544  2.2874  0.9162
 8611SOL    HW237470   2.448   2.495  10.576  2.8154  0.1393  1.0226
 8612SOL     OW37471   2.318   3.768   3.922  0.2614  0.3322 -0.2367
 8612SOL    HW137472   2.355   3.762   4.010 -2.6403 -1.1831  0.8697
 8612SOL    HW237473   2.336   3.684   3.882 -1.8710  0.4689 -1.4942
 8613SOL     OW37474   2.407   1.786   2.678  0.0167 -0.4995 -0.3292
 8613SOL    HW137475   2.488   1.752   2.715 -1.1903 -0.6402  2.1506
 8613SOL    HW237476   2.437   1.876   2.662  3.1001 -1.6682 -1.1043
 8614SOL     OW37477   2.435   4.370  17.393  0.0143 -0.1643  0.1394
 8614SOL    HW137478   2.413   4.422  17.471  4.4874 -2.8396  3.2220
 8614SOL    HW237479   2.527   4.391  17.375  0.0599 -0.1423  0.3985
 8615SOL     OW37480   1.153   1.460   3.623 -0.1677  0.0161 -0.1897
 8615SOL    HW137481   1.137   1.486   3.532 -0.7007  0.1238 -0.0707
 8615SOL    HW237482   1.061   1.452   3.650  0.5032 -1.1964  1.7208
 8616SOL     OW37483   3.162   2.708  11.670 -0.6245 -0.1788 -0.0236
 8616SOL    HW137484   3.131   2.798  11.659  1.1303  0.2564 -1.3713
 8616SOL    HW237485   3.207   2.710  11.586  0.1052  0.7151  0.3924
 8617SOL     OW37486   0.106   4.575   7.255 -0.2205  0.9905  0.0506
 8617SOL    HW137487   0.041   4.549   7.190  0.5371 -0.2518 -0.2054
 8617SOL    HW237488   0.185   4.586   7.202  0.1306  1.5440  0.6848
 8618SOL     OW37489   4.161   1.688   7.117  0.1498 -0.4578 -0.2868
 8618SOL    HW137490   4.090   1.726   7.168  0.4827 -0.4602  0.1838
 8618SOL    HW237491   4.141   1.600   7.151  0.6343 -1.1759 -1.8802
 8619SOL     OW37492   1.062   3.517   5.549 -0.1180  0.9470 -0.2041
 8619SOL    HW137493   1.042   3.456   5.620 -2.9187 -0.5326 -2.3009
 8619SOL    HW237494   1.087   3.595   5.597  2.3048 -1.1347  1.9331
 8620SOL     OW37495   0.856   0.205   3.743  1.1068 -0.1722  0.2631
 8620SOL    HW137496   0.924   0.143   3.769 -0.0808 -1.4780  0.2199
 8620SOL    HW237497   0.920   0.268   3.709 -0.7436  0.0554 -2.8022
 8621SOL     OW37498   0.291   4.477  12.446  0.2511 -0.1674  0.0091
 8621SOL    HW137499   0.230   4.405  12.429  1.5028 -1.4857  1.0641
 8621SOL    HW237500   0.376   4.437  12.466 -0.5445  0.0438  3.9329
 8622SOL     OW37501   1.242   0.570   8.940 -0.0941 -0.8760  0.5239
 8622SOL    HW137502   1.329   0.563   8.901  1.4459  2.5260  3.3090
 8622SOL    HW237503   1.265   0.584   9.032 -0.7382  2.4544  0.1878
 8623SOL     OW37504   1.970   3.025   1.464  0.3210  0.0380 -0.2162
 8623SOL    HW137505   2.049   3.009   1.515  1.0361  0.1615 -1.2880
 8623SOL    HW237506   1.997   3.115   1.445 -2.4301  0.6460 -1.2434
 8624SOL     OW37507   0.390   0.783  11.379  0.4912  0.4943 -0.3074
 8624SOL    HW137508   0.309   0.747  11.417  0.0896  0.8932 -0.7907
 8624SOL    HW237509   0.452   0.715  11.405  1.6547  1.4556 -0.6066
 8625SOL     OW37510   0.394   0.593   3.828 -0.6796 -0.9844 -0.5526
 8625SOL    HW137511   0.459   0.656   3.859  0.0389 -0.3683 -3.3079
 8625SOL    HW237512   0.320   0.614   3.886  0.2362 -1.2617  0.7026
 8626SOL     OW37513   2.514   2.171   4.422  0.7002 -0.0977  0.2083
 8626SOL    HW137514   2.602   2.203   4.441  0.6352  0.6061 -0.7001
 8626SOL    HW237515   2.463   2.247   4.392 -0.6010  0.1919  3.1059
 8627SOL     OW37516   1.559   1.600   5.721  0.0690 -0.2973  0.3198
 8627SOL    HW137517   1.525   1.525   5.769  0.6599  0.3098  1.6937
 8627SOL    HW237518   1.650   1.570   5.710  0.1520  0.3682 -0.9353
 8628SOL     OW37519   0.514   0.330   5.110  0.3356  0.3377  0.6757
 8628SOL    HW137520   0.592   0.299   5.063 -0.9747 -0.9414 -0.6592
 8628SOL    HW237521   0.515   0.423   5.088 -0.5242  0.6974  2.1729
 8629SOL     OW37522   0.543   0.125   4.003  0.1236  0.3348 -0.1078
 8629SOL    HW137523   0.614   0.100   3.944 -0.0981 -1.6214  0.4383
 8629SOL    HW237524   0.539   0.219   3.990 -0.6176  0.1560 -1.1547
 8630SOL     OW37525   1.696   4.725  11.466 -0.3179 -0.3077 -0.6942
 8630SOL    HW137526   1.720   4.633  11.477 -2.4910 -1.1221 -2.6929
 8630SOL    HW237527   1.607   4.718  11.502  0.0748 -2.8610 -0.2379
 8631SOL     OW37528   3.819   4.153   5.882 -0.3400 -0.1334  0.3773
 8631SOL    HW137529   3.835   4.247   5.888 -0.5321 -0.1852  1.6803
 8631SOL    HW237530   3.818   4.143   5.787  1.4551  0.9584  0.2381
 8632SOL     OW37531   0.818   1.265   3.201  0.3396  0.1047  0.2838
 8632SOL    HW137532   0.910   1.285   3.216 -0.2261  1.4630  2.0672
 8632SOL    HW237533   0.819   1.247   3.107 -0.1874 -0.7971  0.4503
 8633SOL     OW37534   2.543   0.135   0.709 -1.0482  0.0392 -0.0927
 8633SOL    HW137535   2.470   0.105   0.764  0.7750 -2.1753  1.1122
 8633SOL    HW237536   2.570   0.208   0.765  0.6459  1.2445 -2.4558
 8634SOL     OW37537   3.706   0.905   4.956 -0.0525 -0.1303 -1.0180
 8634SOL    HW137538   3.705   0.993   4.918 -2.3424  0.6293  0.7528
 8634SOL    HW237539   3.783   0.914   5.011 -2.4585 -0.7577  2.4956
 8635SOL     OW37540   2.950   2.681   8.531  0.6814  0.2622 -0.5383
 8635SOL    HW137541   2.996   2.766   8.530  1.0129  0.0988  1.8398
 8635SOL    HW237542   2.907   2.681   8.445  0.0076 -0.1556 -0.1966
 8636SOL     OW37543   2.990   0.796   1.886  0.1647  0.7003  0.3469
 8636SOL    HW137544   2.949   0.772   1.969 -2.4255  0.0479 -1.1154
 8636SOL    HW237545   3.060   0.730   1.889 -0.4266  0.0742  0.4209
 8637SOL     OW37546   3.287   4.225   7.394 -0.2116 -0.4412  0.2298
 8637SOL    HW137547   3.207   4.275   7.380  0.8378  0.9682 -0.6369
 8637SOL    HW237548   3.306   4.238   7.487  1.0141  0.4523 -0.1417
 8638SOL     OW37549   3.847   0.109   8.295  0.0092 -0.0643  0.1155
 8638SOL    HW137550   3.877   0.043   8.232  1.3140  0.7141 -0.0944
 8638SOL    HW237551   3.823   0.053   8.369  0.3641  0.2030  0.4362
 8639SOL     OW37552   1.098   0.810   4.646  0.3358 -0.0566 -0.4903
 8639SOL    HW137553   1.058   0.838   4.563  1.7892 -3.3655 -2.2683
 8639SOL    HW237554   1.027   0.830   4.707 -1.0108 -0.6337 -1.8544
 8640SOL     OW37555   3.270   3.511   8.065 -0.1037  0.5954  0.1194
 8640SOL    HW137556   3.220   3.548   7.992  0.3493 -0.0917 -0.5357
 8640SOL    HW237557   3.237   3.558   8.142 -1.2248 -1.5892  0.9727
 8641SOL     OW37558   4.634   4.048   7.648  0.4496 -0.1636 -0.0608
 8641SOL    HW137559   4.604   4.002   7.726 -1.6321 -1.5648 -1.6928
 8641SOL    HW237560   4.555   4.088   7.611  1.3237  2.9406  1.4021
 8642SOL     OW37561   3.017   3.642   8.968  0.1687 -0.2667 -0.3057
 8642SOL    HW137562   2.925   3.615   8.973  0.7343 -1.9519  1.2500
 8642SOL    HW237563   3.064   3.567   9.003 -0.0421  0.8100  2.3629
 8643SOL     OW37564   4.515   4.621   0.147  0.7413 -0.0833  0.3096
 8643SOL    HW137565   4.512   4.592   0.238 -1.7590 -0.0874  0.2361
 8643SOL    HW237566   4.422   4.607   0.127  0.3796  2.1732  0.3445
 8644SOL     OW37567   0.286   1.236   2.240  0.2563  0.9031 -0.4638
 8644SOL    HW137568   0.379   1.240   2.262  0.0831  0.3477  0.3497
 8644SOL    HW237569   0.251   1.165   2.294 -0.0063  0.9177 -0.6118
 8645SOL     OW37570   4.079   3.426   2.912  0.6479  0.6089  0.2596
 8645SOL    HW137571   4.094   3.333   2.928  0.7604  0.2910 -1.6879
 8645SOL    HW237572   4.050   3.466   2.994  1.6093  2.0342 -0.0953
 8646SOL     OW37573   2.178   0.248   3.906  0.4186  0.2290 -0.4936
 8646SOL    HW137574   2.179   0.209   3.994  0.5851  0.4169 -0.4108
 8646SOL    HW237575   2.107   0.200   3.864  1.0963 -0.6813 -0.6002
 8647SOL     OW37576   0.845   2.279   6.621 -0.2144  0.0733 -0.3462
 8647SOL    HW137577   0.750   2.279   6.624 -0.2230  1.5620 -0.5256
 8647SOL    HW237578   0.855   2.188   6.648 -0.8847 -0.0941 -0.6670
 8648SOL     OW37579   0.926   1.907   8.941  0.3529 -0.1981 -0.1298
 8648SOL    HW137580   0.954   1.949   9.022 -1.8127  0.0283  0.4987
 8648SOL    HW237581   1.011   1.869   8.920 -0.2038 -1.7601  0.4769
 8649SOL     OW37582   3.061   2.587   2.402  0.2644 -0.2212 -0.1282
 8649SOL    HW137583   3.114   2.649   2.453  0.3183 -0.8190  0.5496
 8649SOL    HW237584   3.015   2.647   2.343 -1.1479  0.2799  1.4785
 8650SOL     OW37585   3.572   0.011   5.008 -0.2947 -0.3779 -0.3739
 8650SOL    HW137586   3.586   0.103   5.028 -1.5473 -0.6373  1.6570
 8650SOL    HW237587   3.585   4.701   5.092 -2.3804 -0.4019 -0.0698
 8651SOL     OW37588   1.128   2.652   0.900 -0.0414  0.3018  0.8749
 8651SOL    HW137589   1.159   2.614   0.818  0.0987 -1.0066  1.5477
 8651SOL    HW237590   1.195   2.624   0.962  2.3609  0.2384 -1.7862
 8652SOL     OW37591   1.978   4.038   7.983  0.3719 -0.8890  0.0183
 8652SOL    HW137592   1.985   3.986   7.903  2.4771 -1.6304  0.7114
 8652SOL    HW237593   2.048   3.997   8.032 -0.4261 -0.5156  1.4714
 8653SOL     OW37594   0.741   2.760   1.359 -0.5193  0.4807 -0.5048
 8653SOL    HW137595   0.675   2.811   1.408 -1.8358 -1.6660 -0.0614
 8653SOL    HW237596   0.686   2.701   1.308 -0.4164  1.1997 -1.4447
 8654SOL     OW37597   4.699   2.721   1.381 -0.7589  0.1234 -0.0251
 8654SOL    HW137598   4.631   2.781   1.410  0.4765  0.6970  1.6724
 8654SOL    HW237599   4.685   2.698   1.289  1.4384  0.2947 -0.3976
 8655SOL     OW37600   4.453   3.952   5.544  0.1691  0.4825  0.0203
 8655SOL    HW137601   4.513   3.878   5.554  0.9393  1.1322  0.2439
 8655SOL    HW237602   4.506   4.022   5.583 -0.1385  1.4401 -1.2929
 8656SOL     OW37603   0.329   1.934   4.995 -0.2334  0.5526  0.0811
 8656SOL    HW137604   0.265   1.885   5.046  0.4625 -0.2568  0.1807
 8656SOL    HW237605   0.357   1.995   5.062 -0.2520  0.8745 -0.2045
 8657SOL     OW37606   2.750   1.714  11.820  0.3459  0.2789 -0.2757
 8657SOL    HW137607   2.672   1.725  11.874 -0.3221  1.1735 -1.4211
 8657SOL    HW237608   2.738   1.792  11.766 -0.4306  1.7976  2.1471
 8658SOL     OW37609   3.138   4.446   6.774  0.4957  0.3227 -0.2241
 8658SOL    HW137610   3.124   4.387   6.848  1.8679 -2.3791 -2.1112
 8658SOL    HW237611   3.107   4.530   6.809  0.0445 -0.0071  0.1637
 8659SOL     OW37612   2.743   0.334   5.977 -0.4032 -0.7208 -0.1264
 8659SOL    HW137613   2.813   0.271   5.991 -1.5476 -2.3818 -1.7600
 8659SOL    HW237614   2.735   0.332   5.881  0.8091  1.8270 -0.2724
 8660SOL     OW37615   2.855   2.897   6.308 -0.0882  0.1613  1.0178
 8660SOL    HW137616   2.881   2.966   6.369  3.4883 -0.9048  0.7191
 8660SOL    HW237617   2.844   2.944   6.226 -0.3228  0.1244  1.0265
 8661SOL     OW37618   1.676   1.304   5.417 -0.2239 -0.0869 -0.2964
 8661SOL    HW137619   1.741   1.240   5.447 -0.8889 -0.8790 -0.5618
 8661SOL    HW237620   1.718   1.363   5.355  0.6530 -1.3933 -0.9565
 8662SOL     OW37621   3.631   0.185  12.013  0.1109 -0.5154  0.3750
 8662SOL    HW137622   3.624   0.160  12.106  1.1585  1.3390  0.9540
 8662SOL    HW237623   3.687   0.118  11.975 -2.8992 -2.0391 -1.3498
 8663SOL     OW37624   3.995   3.942   3.793  0.1388 -0.3496 -0.3616
 8663SOL    HW137625   4.018   4.000   3.865  0.2169  0.9879 -1.4778
 8663SOL    HW237626   3.985   4.002   3.720 -1.1480 -1.5782 -1.2056
 8664SOL     OW37627   1.342   1.488   6.242  0.0279  0.4546 -0.7790
 8664SOL    HW137628   1.271   1.473   6.180 -1.7755  0.9381  1.1537
 8664SOL    HW237629   1.410   1.508   6.179  2.5740 -0.0816  1.8010
 8665SOL     OW37630   1.531   2.042   1.407  0.1888 -0.1344 -0.3504
 8665SOL    HW137631   1.601   2.013   1.466  0.8745  0.0997 -1.0649
 8665SOL    HW237632   1.541   2.137   1.412 -1.2428 -0.0959  1.7931
 8666SOL     OW37633   2.365   2.102   7.231  0.6677  0.5924 -0.1073
 8666SOL    HW137634   2.286   2.111   7.177  1.6587 -0.8460 -1.7491
 8666SOL    HW237635   2.329   2.138   7.313 -0.2516 -0.1171 -0.1999
 8667SOL     OW37636   3.220   3.835   4.685  0.1870 -0.1828 -0.1883
 8667SOL    HW137637   3.247   3.747   4.713 -2.0863 -1.2008 -1.1654
 8667SOL    HW237638   3.127   3.813   4.693  0.0602  1.0713  1.7933
 8668SOL     OW37639   2.041   1.571  16.580 -0.4472 -0.0571  0.1694
 8668SOL    HW137640   2.021   1.650  16.631  0.4619 -0.9630  1.9394
 8668SOL    HW237641   2.055   1.613  16.495  2.5446  1.0570  1.2109
 8669SOL     OW37642   0.182   3.396  14.348  0.3781 -0.1336  0.2529
 8669SOL    HW137643   0.147   3.325  14.402  1.5442  1.1989  2.7403
 8669SOL    HW237644   0.154   3.475  14.395 -1.2098 -1.2033  1.1094
 8670SOL     OW37645   0.567   0.659   8.623 -0.5662  0.0017 -0.5076
 8670SOL    HW137646   0.659   0.650   8.649 -0.6108  0.8721 -0.0495
 8670SOL    HW237647   0.568   0.603   8.545  1.7241  2.6692 -2.4268
 8671SOL     OW37648   2.678   2.809  16.317 -0.1497  0.1468  0.4564
 8671SOL    HW137649   2.585   2.815  16.337 -0.8747 -0.7950 -2.5906
 8671SOL    HW237650   2.673   2.822  16.222 -1.1595 -0.7607  0.3887
 8672SOL     OW37651   2.447   2.558   4.671 -0.4067  0.4495 -0.1518
 8672SOL    HW137652   2.424   2.631   4.728  0.4234  0.3799  0.2706
 8672SOL    HW237653   2.361   2.559   4.628 -0.2020 -3.8087 -0.6894
 8673SOL     OW37654   1.063   4.435  17.470  0.2251 -0.1698  0.4999
 8673SOL    HW137655   1.047   4.487  17.549 -2.0618 -1.6659  1.0193
 8673SOL    HW237656   0.975   4.400  17.456  0.6670 -1.1652  0.2658
 8674SOL     OW37657   4.289   0.695  11.650  0.0163 -0.3488  0.3231
 8674SOL    HW137658   4.218   0.634  11.667  0.6185 -0.0614  3.9784
 8674SOL    HW237659   4.284   0.756  11.724  1.2798  0.3947 -0.1988
 8675SOL     OW37660   0.065   1.520   2.897  0.7240 -0.1835 -0.0756
 8675SOL    HW137661   0.024   1.519   2.983 -2.9836  0.2723 -1.8259
 8675SOL    HW237662   0.139   1.462   2.913  1.3883  0.3019 -1.4021
 8676SOL     OW37663   0.818   4.336   8.733 -0.1722 -0.2700 -1.0698
 8676SOL    HW137664   0.819   4.424   8.695 -0.7944  0.7131  1.1904
 8676SOL    HW237665   0.768   4.280   8.674 -0.4669 -0.3013 -0.7880
 8677SOL     OW37666   3.828   3.480   3.605  0.5918  0.3402  0.6076
 8677SOL    HW137667   3.743   3.445   3.579  1.5456 -0.8263 -0.9512
 8677SOL    HW237668   3.874   3.400   3.631 -0.1029 -0.4544 -0.5748
 8678SOL     OW37669   1.311   4.248   5.182  0.2383  0.0592  0.0869
 8678SOL    HW137670   1.278   4.204   5.104  0.4717 -0.5450  0.3302
 8678SOL    HW237671   1.308   4.338   5.150  0.1740  0.1993  0.4877
 8679SOL     OW37672   4.100   2.243   7.599  0.4084  0.4761 -0.4014
 8679SOL    HW137673   4.102   2.262   7.692  0.7432 -0.3931 -0.2350
 8679SOL    HW237674   4.095   2.329   7.557  1.6717  2.1816  2.9978
 8680SOL     OW37675   3.429   2.947   6.400  0.3643 -0.8931  0.2968
 8680SOL    HW137676   3.391   2.870   6.443 -1.3021 -0.9065 -1.2461
 8680SOL    HW237677   3.417   2.930   6.307  0.5797  1.3227 -0.1249
 8681SOL     OW37678   3.941   1.418  16.642 -0.2891 -0.2506  0.1173
 8681SOL    HW137679   3.887   1.363  16.586 -1.3447 -1.6639  2.4982
 8681SOL    HW237680   3.911   1.506  16.619  0.9977  0.2805  0.4249
 8682SOL     OW37681   2.534   0.521  16.330  0.3051  0.5266  0.1346
 8682SOL    HW137682   2.509   0.447  16.386 -0.3610 -0.8856 -1.9733
 8682SOL    HW237683   2.441   0.531  16.310  0.4391  1.6444  0.1202
 8683SOL     OW37684   3.005   2.140   6.205  0.6600  0.2750  0.2294
 8683SOL    HW137685   2.971   2.227   6.185 -1.6995 -0.3178  1.6703
 8683SOL    HW237686   2.939   2.107   6.266  0.9832 -0.1041  0.3704
 8684SOL     OW37687   1.652   0.083   8.105 -0.4096 -0.7283  0.8565
 8684SOL    HW137688   1.691   0.039   8.028  0.1630  1.3831 -0.0592
 8684SOL    HW237689   1.651   0.174   8.077 -0.2611 -0.6264  1.1893
 8685SOL     OW37690   2.763   0.009   2.229 -0.6008  0.0149  0.0178
 8685SOL    HW137691   2.758   0.081   2.292 -1.2826 -0.5056  0.5613
 8685SOL    HW237692   2.809   4.679   2.284  1.1664  1.5430  0.3563
 8686SOL     OW37693   4.559   2.766   7.835  0.8218  0.5567 -0.0220
 8686SOL    HW137694   4.518   2.733   7.755 -1.4034  0.5988  1.1035
 8686SOL    HW237695   4.595   2.683   7.865  0.9622  1.2202  1.6601
 8687SOL     OW37696   4.354   4.304  17.677 -0.2763  0.4236 -0.3531
 8687SOL    HW137697   4.414   4.346  17.616  0.2454  1.7826  1.0973
 8687SOL    HW237698   4.416   4.248  17.724 -0.2520  0.9059  0.2006
 8688SOL     OW37699   4.351   3.219   4.030  0.0250 -0.3275  0.0452
 8688SOL    HW137700   4.344   3.289   4.094 -0.6144 -1.1283  0.8567
 8688SOL    HW237701   4.419   3.252   3.972  2.3930 -2.0777  1.7980
 8689SOL     OW37702   4.041   4.356   7.125 -0.3669 -0.7801 -0.3551
 8689SOL    HW137703   4.000   4.290   7.180 -0.1871 -0.0824  0.6053
 8689SOL    HW237704   4.085   4.406   7.193  1.5694 -0.5435 -1.7560
 8690SOL     OW37705   1.958   0.501   7.128  0.0535 -0.8059  0.0249
 8690SOL    HW137706   1.955   0.444   7.204  2.0241  1.3531  1.7388
 8690SOL    HW237707   1.903   0.454   7.065 -0.7970  0.1268  0.0596
 8691SOL     OW37708   0.868   0.015  16.011 -0.6444 -0.7540  0.2247
 8691SOL    HW137709   0.800   4.682  16.015 -1.0275 -0.1863  3.1292
 8691SOL    HW237710   0.864   0.051  16.099 -1.1992  0.3390 -0.2457
 8692SOL     OW37711   3.188   3.590   6.959 -0.4359 -0.0951  0.2795
 8692SOL    HW137712   3.215   3.499   6.949  1.0695  0.3649  0.0879
 8692SOL    HW237713   3.188   3.596   7.054  0.4287 -0.6016  0.3058
 8693SOL     OW37714   4.079   4.079   2.178  0.2351  0.1320 -0.4193
 8693SOL    HW137715   4.019   4.042   2.243  1.1901 -3.8719 -1.7712
 8693SOL    HW237716   4.126   4.003   2.143 -2.1607 -1.3150 -0.4952
 8694SOL     OW37717   1.873   0.203   3.305 -0.2801 -0.0060  0.1024
 8694SOL    HW137718   1.950   0.223   3.358 -0.0217 -1.5978  0.3311
 8694SOL    HW237719   1.825   0.285   3.314 -0.5601  0.0335 -1.7730
 8695SOL     OW37720   0.380   1.193   3.964 -0.0696 -0.2294 -0.2807
 8695SOL    HW137721   0.408   1.242   3.887  0.5586  1.0996  0.8000
 8695SOL    HW237722   0.324   1.258   4.007  1.8412  1.0544  0.2587
 8696SOL     OW37723   4.260   0.359  11.664  0.2656  0.0680  0.3894
 8696SOL    HW137724   4.310   0.426  11.710  1.3025  0.3514 -1.1626
 8696SOL    HW237725   4.179   0.406  11.646 -1.0183 -2.5026 -0.5081
 8697SOL     OW37726   0.492   4.556   7.277  0.4476  0.0093  0.2635
 8697SOL    HW137727   0.557   4.588   7.340  0.0453 -1.7598  1.5641
 8697SOL    HW237728   0.450   4.637   7.248 -0.7316 -0.8903 -0.5209
 8698SOL     OW37729   1.266   0.340   4.334  0.1464 -0.1152 -0.2020
 8698SOL    HW137730   1.223   0.360   4.251 -0.8736  2.1642  0.8582
 8698SOL    HW237731   1.358   0.349   4.308  0.6245 -1.1813  1.1251
 8699SOL     OW37732   1.645   3.280   7.770  0.7689 -0.2363 -0.0714
 8699SOL    HW137733   1.668   3.202   7.720 -0.9600 -0.5877 -0.3149
 8699SOL    HW237734   1.671   3.260   7.860  1.8554 -2.3648 -0.8503
 8700SOL     OW37735   2.930   1.563   2.918  0.5943 -0.1002 -0.7049
 8700SOL    HW137736   2.835   1.573   2.929  0.1841 -2.9407 -1.7717
 8700SOL    HW237737   2.959   1.631   2.858  0.4600  0.7284  0.1671
 8701SOL     OW37738   3.061   1.554   5.263 -0.4812 -0.0529  0.0320
 8701SOL    HW137739   3.087   1.585   5.176  0.8010 -1.1887  0.0064
 8701SOL    HW237740   2.977   1.511   5.245 -0.4866 -0.4543  1.0233
 8702SOL     OW37741   2.629   2.314   8.721 -0.4800 -0.4473 -0.8672
 8702SOL    HW137742   2.638   2.220   8.736  0.9276 -0.4842 -1.8919
 8702SOL    HW237743   2.644   2.333   8.628 -1.9667  0.4667 -0.9141
 8703SOL     OW37744   4.343   3.684   6.372 -1.2483  0.2880  0.5437
 8703SOL    HW137745   4.345   3.589   6.384  2.9260  0.1853 -0.9623
 8703SOL    HW237746   4.257   3.712   6.403 -1.6430  0.1714 -0.4326
 8704SOL     OW37747   2.606   0.471   8.670 -0.1692  0.2603  0.4904
 8704SOL    HW137748   2.551   0.511   8.737 -1.3896  4.1292 -2.8006
 8704SOL    HW237749   2.633   0.398   8.725 -0.0681  0.8472  1.2267
 8705SOL     OW37750   1.816   1.618   4.505 -0.2605  0.1937 -0.3799
 8705SOL    HW137751   1.791   1.650   4.418  0.9773 -1.1938 -1.2497
 8705SOL    HW237752   1.791   1.691   4.562  0.4060  0.4495 -0.4199
 8706SOL     OW37753   0.074   2.664   9.121  0.4735  0.7056 -0.6310
 8706SOL    HW137754   0.025   2.678   9.201  2.4698  1.1192  0.5230
 8706SOL    HW237755   0.088   2.756   9.100 -1.1548  1.2397  0.6653
 8707SOL     OW37756   3.519   3.560  12.972  0.2968  0.3042 -0.0731
 8707SOL    HW137757   3.577   3.611  13.029  2.4520 -0.6257 -1.4434
 8707SOL    HW237758   3.564   3.476  12.965 -1.2693 -0.6924  2.0227
 8708SOL     OW37759   4.028   4.273   1.987  0.2062 -0.1821 -0.4557
 8708SOL    HW137760   3.945   4.289   2.031 -0.2875 -1.9744 -0.7383
 8708SOL    HW237761   4.061   4.202   2.042  1.2696  1.7302  1.3710
 8709SOL     OW37762   4.084   2.972   4.286  0.0698  0.2672  0.1430
 8709SOL    HW137763   4.037   2.888   4.294 -3.0139  1.9516 -0.3476
 8709SOL    HW237764   4.154   2.953   4.223 -0.0080 -1.9127  0.6867
 8710SOL     OW37765   0.645   2.320   7.990  0.0015 -0.0254 -0.7072
 8710SOL    HW137766   0.659   2.350   8.079  1.6097 -2.7853 -0.0407
 8710SOL    HW237767   0.592   2.241   8.000 -1.1778  0.7867 -0.5037
 8711SOL     OW37768   1.991   2.992  11.726 -0.0430 -0.4236  0.6552
 8711SOL    HW137769   1.928   2.945  11.672  0.6218 -1.4810  0.7925
 8711SOL    HW237770   2.066   3.003  11.667  0.9780 -2.2171  1.6320
 8712SOL     OW37771   1.161   1.795  13.606  0.8037 -0.0805 -0.1185
 8712SOL    HW137772   1.255   1.807  13.593  0.8298 -0.1984 -0.0369
 8712SOL    HW237773   1.127   1.849  13.534  0.3673 -0.0497  0.1145
 8713SOL     OW37774   3.552   2.256   6.547 -0.4485  0.0737 -0.4271
 8713SOL    HW137775   3.470   2.294   6.517 -0.9871 -2.7519 -2.4733
 8713SOL    HW237776   3.552   2.297   6.634  0.1235  0.5996 -0.6761
 8714SOL     OW37777   0.615   3.601   5.977  0.2254  0.2357 -0.3138
 8714SOL    HW137778   0.702   3.636   5.994 -0.5299  1.4016  1.1476
 8714SOL    HW237779   0.632   3.539   5.905 -1.7750 -0.1553 -0.4524
 8715SOL     OW37780   3.590   1.384  14.764 -0.0419 -0.0534  0.3923
 8715SOL    HW137781   3.518   1.339  14.808 -0.2964 -0.7963 -0.7810
 8715SOL    HW237782   3.551   1.409  14.681  1.4715  0.0573 -0.2905
 8716SOL     OW37783   3.714   3.900   6.149 -0.2088 -0.0490  0.2878
 8716SOL    HW137784   3.682   3.810   6.159 -2.2254  0.6689  0.2317
 8716SOL    HW237785   3.649   3.942   6.094 -1.7045 -0.8643  1.4225
 8717SOL     OW37786   2.946   0.081  15.818  0.6518 -0.0169 -0.2613
 8717SOL    HW137787   3.027   0.065  15.770  1.9766  2.6467  1.0798
 8717SOL    HW237788   2.902   0.155  15.776 -1.4305 -0.5114  1.0533
 8718SOL     OW37789   2.728   4.679  13.728  0.7434 -0.4872  0.0481
 8718SOL    HW137790   2.699   4.681  13.637 -1.4886 -0.7469  0.7525
 8718SOL    HW237791   2.813   4.634  13.729  1.2597  0.4559 -1.3877
 8719SOL     OW37792   4.668   2.058   8.627  0.0452  0.2139 -0.4975
 8719SOL    HW137793   4.592   2.091   8.578  1.1013 -0.4076 -2.5610
 8719SOL    HW237794   4.679   2.135   8.682  1.1648  0.4293 -1.0142
 8720SOL     OW37795   1.144   2.590   4.523 -0.3517  0.2493  0.1693
 8720SOL    HW137796   1.195   2.661   4.484  1.1012 -1.1773 -0.5249
 8720SOL    HW237797   1.100   2.558   4.444  0.5321 -0.5275 -0.0093
 8721SOL     OW37798   4.630   3.789   4.867 -0.4196  0.3384  0.3567
 8721SOL    HW137799   4.547   3.835   4.855 -1.1871 -0.6700  1.7890
 8721SOL    HW237800   4.691   3.859   4.843  0.6583 -0.5513  0.5247
 8722SOL     OW37801   0.240   1.626   8.946 -0.2330 -0.7377  0.1866
 8722SOL    HW137802   0.172   1.692   8.929  0.7693  0.7851  2.1617
 8722SOL    HW237803   0.312   1.685   8.967  0.4805 -1.2747 -0.7318
 8723SOL     OW37804   2.671   3.860   5.168 -0.2622 -0.5231 -0.1945
 8723SOL    HW137805   2.660   3.864   5.073  3.2062 -1.9196 -0.6696
 8723SOL    HW237806   2.765   3.872   5.182 -0.5515 -0.9540  2.1349
 8724SOL     OW37807   1.411   1.090   5.060 -0.5601 -0.2622  0.0276
 8724SOL    HW137808   1.377   1.118   4.975 -1.3882  1.1057  0.8115
 8724SOL    HW237809   1.502   1.075   5.035 -0.9289  0.2756 -1.6651
 8725SOL     OW37810   0.190   2.702   8.633 -0.4039 -0.4182 -0.1027
 8725SOL    HW137811   0.202   2.607   8.628 -1.2628 -0.4300 -2.0071
 8725SOL    HW237812   0.244   2.721   8.710  1.0049 -0.5569 -1.0727
 8726SOL     OW37813   3.604   3.115  16.369 -0.0629  0.3125 -0.0839
 8726SOL    HW137814   3.638   3.204  16.384  0.1429  0.1986  0.1228
 8726SOL    HW237815   3.574   3.084  16.454  1.3364  1.3410  0.7848
 8727SOL     OW37816   4.482   1.818  15.790 -0.0031  0.2286  0.3537
 8727SOL    HW137817   4.424   1.820  15.714 -0.1478 -2.8194  0.3598
 8727SOL    HW237818   4.567   1.813  15.745 -0.5157  0.0604 -0.5887
 8728SOL     OW37819   3.320   4.194   7.639 -0.1919  0.6740 -0.5710
 8728SOL    HW137820   3.279   4.129   7.696  0.6452  1.1971  0.6206
 8728SOL    HW237821   3.304   4.272   7.691 -3.2553  0.1838 -0.7777
 8729SOL     OW37822   4.204   4.696   4.706 -0.1289  0.6540 -0.1271
 8729SOL    HW137823   4.145   0.037   4.714 -0.0549  0.9909 -2.8892
 8729SOL    HW237824   4.241   4.712   4.620 -0.2992  1.8882  0.0219
 8730SOL     OW37825   1.498   1.631   3.823  0.1199 -0.3074 -1.1148
 8730SOL    HW137826   1.431   1.652   3.757 -0.8569  0.2104  0.0352
 8730SOL    HW237827   1.506   1.717   3.862 -0.0275 -1.1498  0.7752
 8731SOL     OW37828   2.625   3.412  14.628  0.3578  0.2908  0.1120
 8731SOL    HW137829   2.695   3.408  14.563  0.3636  1.6816  0.0368
 8731SOL    HW237830   2.609   3.505  14.645  1.2702  0.5803 -0.6100
 8732SOL     OW37831   2.324   0.596   3.832 -0.3310  0.2190 -0.1418
 8732SOL    HW137832   2.343   0.686   3.859  0.0910  0.2319 -0.4861
 8732SOL    HW237833   2.351   0.600   3.741  0.6482  1.2881  0.1938
 8733SOL     OW37834   4.135   3.959  16.038  0.1257 -0.1583  0.2946
 8733SOL    HW137835   4.079   3.972  16.114  0.9617 -1.0433  1.0802
 8733SOL    HW237836   4.118   3.867  16.017 -1.8487  0.2938 -0.0295
 8734SOL     OW37837   2.645   1.535   5.511 -1.1740 -0.1971  0.5368
 8734SOL    HW137838   2.562   1.561   5.552 -1.5658 -0.4418 -0.0950
 8734SOL    HW237839   2.675   1.615   5.469 -1.2030 -0.0976  0.7065
 8735SOL     OW37840   4.124   4.728   2.669  0.3907 -0.0509 -0.3784
 8735SOL    HW137841   4.060   4.713   2.600 -0.3486  0.0392  0.2895
 8735SOL    HW237842   4.177   0.061   2.627 -0.2302  0.7667  0.1627
 8736SOL     OW37843   3.393   1.316   4.956  0.4543  0.4860 -0.5346
 8736SOL    HW137844   3.330   1.317   5.028  1.8037  1.1164  0.6494
 8736SOL    HW237845   3.409   1.410   4.966 -0.7089  0.6890 -0.5585
 8737SOL     OW37846   1.163   4.324   2.449 -0.0572 -0.0641  0.0374
 8737SOL    HW137847   1.235   4.302   2.508 -0.6349 -2.0055  0.0164
 8737SOL    HW237848   1.201   4.291   2.367 -0.1006 -0.7486  0.2899
 8738SOL     OW37849   4.559   1.918  14.604 -0.1172  0.1426  0.4551
 8738SOL    HW137850   4.646   1.958  14.593  0.6505 -1.6203  0.2018
 8738SOL    HW237851   4.548   1.938  14.697 -2.1111 -0.1470  0.2815
 8739SOL     OW37852   2.256   0.803   8.389  0.0116  0.2031  0.4556
 8739SOL    HW137853   2.215   0.850   8.316 -0.5951 -1.9816 -0.6157
 8739SOL    HW237854   2.286   0.723   8.346 -1.3344 -0.0908  0.0743
 8740SOL     OW37855   0.902   2.019   6.700  0.4182  1.0122  0.4831
 8740SOL    HW137856   0.887   2.020   6.794 -0.0124 -0.8718  0.4406
 8740SOL    HW237857   0.959   1.943   6.687 -3.2787 -1.1364 -3.5230
 8741SOL     OW37858   0.543   3.878   8.765  0.2331  0.6621 -0.5832
 8741SOL    HW137859   0.453   3.900   8.786 -0.0603  0.0952 -1.2462
 8741SOL    HW237860   0.538   3.784   8.746 -0.9348  0.9794 -1.8213
 8742SOL     OW37861   4.130   1.161   9.372  0.0095  0.3262  0.1613
 8742SOL    HW137862   4.047   1.126   9.403  0.5331 -0.1933  0.9741
 8742SOL    HW237863   4.145   1.097   9.302 -1.4813  0.4897 -0.3114
 8743SOL     OW37864   4.579   0.475   8.320 -0.8746 -0.3257  0.4145
 8743SOL    HW137865   4.581   0.404   8.255 -0.7076 -1.2262  1.3932
 8743SOL    HW237866   4.487   0.498   8.308 -0.3294  0.5882 -2.0380
 8744SOL     OW37867   3.759   0.920   4.558 -0.3931  0.7666  0.5553
 8744SOL    HW137868   3.719   0.928   4.472  0.6663  1.9157  0.1703
 8744SOL    HW237869   3.731   0.829   4.567  1.7508  0.0659  0.1384
 8745SOL     OW37870   0.509   2.983   3.898 -0.8139  0.1655  0.3537
 8745SOL    HW137871   0.497   2.940   3.982  2.8603 -1.6794 -0.0415
 8745SOL    HW237872   0.428   2.963   3.851 -0.8517  1.0180  0.0491
 8746SOL     OW37873   4.413   3.579  15.048  0.0881  0.2993  0.4110
 8746SOL    HW137874   4.447   3.491  15.034 -1.3605 -0.1203 -0.5970
 8746SOL    HW237875   4.337   3.576  14.989  0.1823 -2.6941  0.4583
 8747SOL     OW37876   2.542   4.443  10.563 -0.9045 -0.4491  0.2026
 8747SOL    HW137877   2.528   4.525  10.516  0.8772 -0.7208 -0.8186
 8747SOL    HW237878   2.503   4.386  10.496 -1.7510 -0.9099  1.0843
 8748SOL     OW37879   2.190   3.372   8.344  0.5175 -0.4877 -0.0208
 8748SOL    HW137880   2.280   3.351   8.372 -0.4451 -1.8833  2.0268
 8748SOL    HW237881   2.160   3.422   8.420 -0.1765  1.0799 -1.3415
 8749SOL     OW37882   0.218   0.139  15.680 -0.6587 -0.7393 -0.7124
 8749SOL    HW137883   0.264   0.055  15.677 -1.8425 -1.4329  0.9681
 8749SOL    HW237884   0.149   0.117  15.742  0.6682  0.6755  1.2418
 8750SOL     OW37885   0.000   1.547  13.758 -0.2370  0.3183 -1.0301
 8750SOL    HW137886   0.081   1.598  13.763  0.0659 -0.4850  2.3258
 8750SOL    HW237887   4.677   1.596  13.816 -0.9606 -1.0342 -0.6193
 8751SOL     OW37888   3.017   3.851   8.089  1.0151  0.0577 -0.7154
 8751SOL    HW137889   2.950   3.794   8.129 -0.1331 -0.1344 -2.9412
 8751SOL    HW237890   3.003   3.837   7.996  2.1634  0.3743 -0.9380
 8752SOL     OW37891   0.335   3.174   9.571  0.1989 -0.0693 -0.3285
 8752SOL    HW137892   0.403   3.241   9.584 -0.5847  0.8139 -0.7905
 8752SOL    HW237893   0.371   3.127   9.496 -2.1011  0.6942 -1.9384
 8753SOL     OW37894   0.740   2.216   5.513 -0.0969  0.7989 -0.7672
 8753SOL    HW137895   0.673   2.275   5.548 -0.1198  1.0523 -1.2413
 8753SOL    HW237896   0.737   2.156   5.588 -0.8874  2.1943  0.3255
 8754SOL     OW37897   2.406   0.856  16.904 -0.0881 -1.0455  0.1589
 8754SOL    HW137898   2.358   0.835  16.823 -1.6380  1.9567  0.2824
 8754SOL    HW237899   2.338   0.890  16.962  0.4695 -0.2603  0.3521
 8755SOL     OW37900   1.038   3.937  17.042 -0.0777 -0.2368  0.1368
 8755SOL    HW137901   1.087   3.973  16.968  1.2667 -1.6804  0.3157
 8755SOL    HW237902   1.045   3.844  17.021 -1.4392 -0.4655  0.7599
 8756SOL     OW37903   4.121   0.768   2.678 -0.2777  0.0542 -0.0398
 8756SOL    HW137904   4.085   0.840   2.627  3.1712  2.1616  0.4905
 8756SOL    HW237905   4.041   0.726   2.711  0.2570  0.6223  1.9911
 8757SOL     OW37906   0.142   3.702   3.954  0.4499 -0.3403  0.4231
 8757SOL    HW137907   0.158   3.639   4.024 -0.6294  0.2744  1.2352
 8757SOL    HW237908   0.200   3.776   3.972  0.3154 -0.3306  0.8099
 8758SOL     OW37909   2.725   1.715  16.243  0.4838 -0.4082  0.1834
 8758SOL    HW137910   2.696   1.710  16.334 -0.6519  1.1233 -0.0934
 8758SOL    HW237911   2.721   1.810  16.237 -3.4744 -0.6303 -0.9858
 8759SOL     OW37912   0.528   4.343   3.267  0.4115 -0.2741  0.4359
 8759SOL    HW137913   0.464   4.367   3.334 -0.5729  0.3566 -0.7301
 8759SOL    HW237914   0.599   4.400   3.294  1.2542 -0.4543 -1.3927
 8760SOL     OW37915   4.292   2.139   1.346 -0.2118  0.3395  0.2461
 8760SOL    HW137916   4.225   2.104   1.288 -0.9746  0.8097  0.8522
 8760SOL    HW237917   4.242   2.199   1.401 -0.1180  0.4350  0.2291
 8761SOL     OW37918   2.394   1.349   6.224 -0.2574 -0.6694 -0.6523
 8761SOL    HW137919   2.438   1.366   6.140  1.7550 -0.2001  0.4869
 8761SOL    HW237920   2.437   1.265   6.238  1.5494  0.2993 -0.3900
 8762SOL     OW37921   4.245   4.190   4.827  0.1473 -0.5652 -0.0483
 8762SOL    HW137922   4.218   4.279   4.849  2.4354  0.2934 -0.6436
 8762SOL    HW237923   4.231   4.193   4.733 -0.4894  1.6826  0.1330
 8763SOL     OW37924   2.409   1.520   3.088  0.0978  0.3114  0.1826
 8763SOL    HW137925   2.444   1.507   3.000  2.4562 -2.4185  1.5099
 8763SOL    HW237926   2.313   1.523   3.080 -0.0586  1.0512  2.4988
 8764SOL     OW37927   2.648   3.502   8.639 -0.0619  0.3758 -0.5483
 8764SOL    HW137928   2.612   3.562   8.704 -2.6354  0.6918 -2.2592
 8764SOL    HW237929   2.610   3.558   8.571 -0.5344 -1.0609 -1.4756
 8765SOL     OW37930   4.248   1.788   7.963  0.4063 -0.3114 -0.0246
 8765SOL    HW137931   4.273   1.698   7.985 -1.0718 -0.6346  0.2980
 8765SOL    HW237932   4.273   1.797   7.870  1.9476  1.1368  0.5317
 8766SOL     OW37933   1.238   0.703   2.001  0.2487  0.1772  0.5434
 8766SOL    HW137934   1.331   0.695   2.020  0.2455 -0.1808  0.4121
 8766SOL    HW237935   1.211   0.650   2.076 -2.5584 -0.2550 -0.7485
 8767SOL     OW37936   3.395   3.668   0.424 -0.0427  0.0481  0.7048
 8767SOL    HW137937   3.394   3.650   0.330  1.1948  1.1898  0.4691
 8767SOL    HW237938   3.319   3.726   0.432 -1.5386 -1.4975 -2.2346
 8768SOL     OW37939   3.392   4.520  12.759  0.5995  0.1415  0.1025
 8768SOL    HW137940   3.419   4.428  12.761  1.9665  0.5465  0.5060
 8768SOL    HW237941   3.347   4.525  12.675  0.8692  5.0957  0.2265
 8769SOL     OW37942   1.111   1.974   4.086 -1.2490 -0.5510 -0.4800
 8769SOL    HW137943   1.166   1.942   4.158 -2.4330 -1.3523  0.0797
 8769SOL    HW237944   1.143   1.923   4.012 -0.5290  1.5825 -1.6086
 8770SOL     OW37945   1.420   0.664   1.678  0.6663  0.0913 -0.0230
 8770SOL    HW137946   1.449   0.686   1.767  1.8762 -0.8706 -0.1745
 8770SOL    HW237947   1.456   0.575   1.677 -4.4216 -1.9886  0.8682
 8771SOL     OW37948   2.645   1.903   7.761  0.5421  0.1487  0.1134
 8771SOL    HW137949   2.688   1.818   7.772  0.9591  0.4020  0.4385
 8771SOL    HW237950   2.553   1.886   7.783  0.3887  1.2868  0.3567
 8772SOL     OW37951   2.062   3.235  16.555 -0.0534  0.4001 -0.0344
 8772SOL    HW137952   2.030   3.233  16.645 -1.3427  0.2414 -0.5067
 8772SOL    HW237953   2.008   3.303  16.514 -0.1359  0.7696  0.6882
 8773SOL     OW37954   1.164   3.121   2.554 -0.0237  0.0333  0.2760
 8773SOL    HW137955   1.076   3.085   2.544  0.2243 -0.4307 -0.1701
 8773SOL    HW237956   1.208   3.071   2.486 -2.2974 -0.0303 -1.1478
 8774SOL     OW37957   0.120   3.405   7.331  0.1422 -0.4070  0.2826
 8774SOL    HW137958   0.046   3.429   7.387  1.5104 -0.4719  2.1148
 8774SOL    HW237959   0.090   3.449   7.252 -1.4638 -0.0406  1.0957
 8775SOL     OW37960   4.372   0.515   3.204  0.0191  0.1133 -0.2276
 8775SOL    HW137961   4.367   0.429   3.247 -3.3007 -0.3140 -1.5161
 8775SOL    HW237962   4.416   0.565   3.273  2.1405 -1.1347 -0.6537
 8776SOL     OW37963   2.671   0.687   5.033 -0.6533 -0.0554  0.2271
 8776SOL    HW137964   2.601   0.636   5.074 -1.7234  0.4311 -0.9943
 8776SOL    HW237965   2.633   0.772   5.009  0.0124 -0.0171 -0.6978
 8777SOL     OW37966   4.412   3.411   6.439 -0.4963 -0.2713  0.8096
 8777SOL    HW137967   4.352   3.350   6.396  1.6292  0.2999 -3.0069
 8777SOL    HW237968   4.469   3.438   6.367 -1.3881  2.2737  1.0451
 8778SOL     OW37969   3.256   1.291   3.346  0.3154  0.0526  0.2811
 8778SOL    HW137970   3.201   1.359   3.386  0.6758 -0.4020  1.5386
 8778SOL    HW237971   3.181   1.238   3.319 -0.3568  1.4923 -0.6701
 8779SOL     OW37972   1.881   0.881   8.938  0.8635  0.3953 -0.1752
 8779SOL    HW137973   1.799   0.921   8.968 -0.6143 -1.4059 -1.7939
 8779SOL    HW237974   1.855   0.866   8.847  1.3226 -0.1961 -0.2098
 8780SOL     OW37975   0.123   0.935   7.084 -0.3983 -0.6064 -0.2551
 8780SOL    HW137976   0.068   0.996   7.034 -0.9821 -0.3930  0.6539
 8780SOL    HW237977   0.064   0.879   7.135  1.1283 -2.8115 -0.9185
 8781SOL     OW37978   3.770   0.341   0.387 -0.1455  0.1112 -0.4488
 8781SOL    HW137979   3.678   0.333   0.360 -0.3641  0.8333  0.0831
 8781SOL    HW237980   3.811   0.257   0.369  2.0521  0.4165  3.2362
 8782SOL     OW37981   3.991   1.061   7.629 -0.4558  0.7270  0.3788
 8782SOL    HW137982   4.061   1.125   7.641  1.5786 -1.2043 -1.3682
 8782SOL    HW237983   3.942   1.103   7.558 -2.1819 -1.2319  0.4192
 8783SOL     OW37984   3.026   3.066   3.963 -0.6661 -0.0028  0.3509
 8783SOL    HW137985   3.028   2.996   3.899 -0.7991 -0.8234  1.2470
 8783SOL    HW237986   2.953   3.113   3.924 -0.1457  1.1150  0.7101
 8784SOL     OW37987   3.624   1.080  12.373 -0.3484 -0.5134  0.5087
 8784SOL    HW137988   3.662   1.157  12.331  0.1066 -0.2287  1.4308
 8784SOL    HW237989   3.540   1.110  12.408 -0.7829 -1.8632  0.6044
 8785SOL     OW37990   1.581   1.941  15.904 -0.1717 -0.4159  0.0528
 8785SOL    HW137991   1.590   1.948  15.999  0.3087  0.8556 -0.0754
 8785SOL    HW237992   1.515   2.009  15.892  1.3914  1.3796  1.6482
 8786SOL     OW37993   2.058   0.368  12.659  0.3034 -0.0848 -0.2489
 8786SOL    HW137994   2.030   0.280  12.632 -1.7271  0.3854  0.3497
 8786SOL    HW237995   2.119   0.343  12.729 -0.4784 -0.9210  0.1487
 8787SOL     OW37996   4.578   0.771  13.361 -0.0703 -0.2704 -0.2324
 8787SOL    HW137997   4.560   0.760  13.454  0.4625  2.3667  0.2002
 8787SOL    HW237998   4.550   0.686  13.326  1.0536 -0.8319  0.2638
 8788SOL     OW37999   4.707   2.207  13.245 -0.4669  0.1459  0.2977
 8788SOL    HW138000   4.629   2.186  13.194  0.5314 -1.5135 -0.5421
 8788SOL    HW238001   0.020   2.276  13.197  1.4696 -2.3052 -1.3444
 8789SOL     OW38002   0.866   3.742   3.163 -0.1876 -0.1914 -0.3932
 8789SOL    HW138003   0.845   3.668   3.106 -1.6440 -1.8945  2.3552
 8789SOL    HW238004   0.855   3.813   3.100  2.8377  0.8887  0.3093
 8790SOL     OW38005   0.149   4.457   8.691 -0.4234 -0.1022 -0.0428
 8790SOL    HW138006   0.150   4.429   8.783 -0.7769 -3.2115 -0.9854
 8790SOL    HW238007   0.138   4.372   8.648  0.5907 -1.6624  2.7654
 8791SOL     OW38008   4.715   4.212  17.105  0.4500  0.1356 -0.1078
 8791SOL    HW138009   0.000   4.122  17.132  2.0253  0.4184 -0.3432
 8791SOL    HW238010   0.035   4.271  17.157 -0.2032  0.5439  0.1243
 8792SOL     OW38011   0.190   2.431  10.722 -0.1972  0.5528 -0.3057
 8792SOL    HW138012   0.279   2.401  10.701  0.9545  2.3571  1.9534
 8792SOL    HW238013   0.151   2.349  10.691  0.8689 -0.3196  0.6395
 8793SOL     OW38014   3.327   1.893   6.731 -0.4301 -0.2772  0.2959
 8793SOL    HW138015   3.413   1.918   6.696 -0.2384 -1.4777 -0.0974
 8793SOL    HW238016   3.302   1.975   6.774 -0.2888 -1.8904  3.4071
 8794SOL     OW38017   4.283   1.666   7.626 -0.6302 -0.1551  0.2309
 8794SOL    HW138018   4.346   1.676   7.554  1.0563  0.6356  1.8357
 8794SOL    HW238019   4.281   1.571   7.636 -1.8195 -0.3654 -1.8671
 8795SOL     OW38020   0.560   4.349   7.078 -0.5038  0.9983  0.3151
 8795SOL    HW138021   0.510   4.395   7.145 -0.8146  0.3339  0.5346
 8795SOL    HW238022   0.589   4.267   7.119 -3.5437  1.0135  2.4872
 8796SOL     OW38023   2.926   0.043   0.523 -0.2242  0.3014 -0.6107
 8796SOL    HW138024   2.950   0.025   0.432 -0.1556 -1.4899 -0.2386
 8796SOL    HW238025   3.009   0.082   0.550 -0.6430 -0.0030  1.0945
 8797SOL     OW38026   2.209   1.343  17.616  0.0465  0.4570 -0.0571
 8797SOL    HW138027   2.115   1.359  17.601  0.3061  0.2056 -1.9914
 8797SOL    HW238028   2.235   1.433  17.595  0.1738  0.4483  0.0621
 8798SOL     OW38029   4.245   0.958   7.094 -0.7940  0.7241  0.2171
 8798SOL    HW138030   4.233   0.891   7.162  3.0782 -1.4268 -1.2407
 8798SOL    HW238031   4.188   0.913   7.031 -1.1563  1.4053  0.0543
 8799SOL     OW38032   2.595   4.666   6.552  0.2376 -0.0089  0.5028
 8799SOL    HW138033   2.683   4.668   6.513 -0.2127  1.0551 -0.4521
 8799SOL    HW238034   2.591   0.027   6.546  3.8602  0.0867 -0.5942
 8800SOL     OW38035   4.104   0.402   2.884 -0.1988 -1.0613  0.6090
 8800SOL    HW138036   4.198   0.421   2.879 -0.6905  1.6024  1.6579
 8800SOL    HW238037   4.093   0.307   2.885 -2.6677 -0.7759  0.8948
 8801SOL     OW38038   0.529   3.302  10.961  0.6373  0.6979  0.6587
 8801SOL    HW138039   0.521   3.207  10.952  3.6433  0.5317 -0.0754
 8801SOL    HW238040   0.494   3.323  10.874  2.0529 -1.2309 -0.3924
 8802SOL     OW38041   3.297   2.362   6.468 -0.8041  0.3348 -0.0331
 8802SOL    HW138042   3.223   2.303   6.481 -0.3887 -0.4920 -1.4838
 8802SOL    HW238043   3.266   2.433   6.411 -2.2864  1.5684  2.2978
 8803SOL     OW38044   4.266   0.376   9.809  0.4518  0.8275 -0.6705
 8803SOL    HW138045   4.234   0.352   9.895  1.5963  3.5057  0.5155
 8803SOL    HW238046   4.360   0.370   9.825  0.4516 -2.9653 -2.2427
 8804SOL     OW38047   4.048   3.924   4.807  0.4404 -0.1769  0.3314
 8804SOL    HW138048   4.054   3.996   4.870 -1.8063  1.5975 -1.4761
 8804SOL    HW238049   3.992   3.959   4.739  1.9520 -4.5697 -3.1825
 8805SOL     OW38050   0.390   2.711   5.464  0.4625  0.1095  0.6212
 8805SOL    HW138051   0.318   2.648   5.467 -0.7111  1.3327 -1.9402
 8805SOL    HW238052   0.350   2.795   5.442 -1.7348 -0.6442  1.7524
 8806SOL     OW38053   1.087   1.559   4.988  0.2559 -0.0951  0.5876
 8806SOL    HW138054   1.121   1.470   4.996 -1.4854 -0.5579  2.8412
 8806SOL    HW238055   1.107   1.603   5.071  0.1998  1.1698 -0.0627
 8807SOL     OW38056   3.470   4.553   3.911 -0.1367 -0.1308 -0.1633
 8807SOL    HW138057   3.551   4.560   3.859 -0.3069 -1.9726 -0.6815
 8807SOL    HW238058   3.419   4.499   3.850 -0.2768 -0.7061  0.4625
 8808SOL     OW38059   1.224   0.016  11.285 -0.4929  0.1111  0.3928
 8808SOL    HW138060   1.303   0.069  11.285  0.7153 -1.6980 -1.4245
 8808SOL    HW238061   1.267   4.666  11.298  0.0039  0.1014 -1.2783
 8809SOL     OW38062   1.622   4.221   4.391 -0.2834  0.4831  0.9957
 8809SOL    HW138063   1.595   4.130   4.381  1.2095  0.3054 -1.2234
 8809SOL    HW238064   1.574   4.226   4.474 -2.0056  0.4832 -0.0229
 8810SOL     OW38065   3.615   2.611   3.386 -0.4408 -0.7922  0.0505
 8810SOL    HW138066   3.580   2.637   3.301  1.5052 -0.3444 -0.6250
 8810SOL    HW238067   3.698   2.571   3.361  1.6363  2.5348  1.6285
 8811SOL     OW38068   0.622   1.742   6.762 -0.4540  0.2430 -0.6402
 8811SOL    HW138069   0.647   1.693   6.683  0.3292 -2.3952  1.2531
 8811SOL    HW238070   0.708   1.753   6.804  0.0362  0.5166 -1.7058
 8812SOL     OW38071   2.215   4.431  12.917  0.3298  0.4341 -0.6495
 8812SOL    HW138072   2.206   4.356  12.975 -3.1402 -0.2150 -2.0263
 8812SOL    HW238073   2.140   4.409  12.862 -0.5844  1.8911  0.0059
 8813SOL     OW38074   1.416   4.649   6.767  0.6637 -0.0062  0.3269
 8813SOL    HW138075   1.340   4.640   6.825  0.3768  0.4749  0.0366
 8813SOL    HW238076   1.477   4.593   6.814  0.7194  0.3773  0.7196
 8814SOL     OW38077   1.431   0.759   7.221 -0.0562  0.2372  0.2147
 8814SOL    HW138078   1.501   0.807   7.266  1.5099 -1.0735 -0.8124
 8814SOL    HW238079   1.426   0.796   7.133  1.4158  1.9621  0.8376
 8815SOL     OW38080   3.961   3.787   8.976  0.5492 -0.1392 -0.2332
 8815SOL    HW138081   4.003   3.757   8.896 -0.1736  0.3415 -0.7858
 8815SOL    HW238082   3.868   3.773   8.962  1.0409 -1.2445 -2.4432
 8816SOL     OW38083   4.450   1.691   5.926 -0.2843  0.1447 -0.3428
 8816SOL    HW138084   4.363   1.681   5.888  0.0418 -0.2683 -0.9638
 8816SOL    HW238085   4.449   1.656   6.015  0.1331  0.1509 -0.3365
 8817SOL     OW38086   1.692   0.761   6.678 -0.3989 -0.2599 -0.2972
 8817SOL    HW138087   1.627   0.788   6.613 -0.2806 -0.1437 -0.3687
 8817SOL    HW238088   1.690   0.666   6.672  4.1185 -0.3764 -0.2776
 8818SOL     OW38089   1.585   2.569   8.816  0.7791 -0.0562  0.4251
 8818SOL    HW138090   1.530   2.626   8.869  0.3250 -1.4030  1.3910
 8818SOL    HW238091   1.513   2.551   8.755  0.4056  2.9408 -0.0447
 8819SOL     OW38092   0.478   3.300   1.482  0.4451  0.0170 -0.2699
 8819SOL    HW138093   0.390   3.276   1.509  0.1027  1.6738  0.0823
 8819SOL    HW238094   0.481   3.275   1.390  1.0505  1.2763 -0.5948
 8820SOL     OW38095   4.732   3.327   8.108 -0.3435 -0.1589 -0.0122
 8820SOL    HW138096   0.010   3.260   8.175  2.3549 -0.8734 -1.2615
 8820SOL    HW238097   0.077   3.308   8.059  0.2374 -1.2105  1.3321
 8821SOL     OW38098   3.919   3.950   0.423 -0.3509  0.0132  0.3654
 8821SOL    HW138099   3.865   3.873   0.406  1.8198 -1.8272  1.8164
 8821SOL    HW238100   3.861   4.019   0.391  0.6015  1.0577  0.8500
 8822SOL     OW38101   3.840   4.415   4.890  1.1149  0.4043 -0.3658
 8822SOL    HW138102   3.857   4.474   4.963 -0.0606  0.7218 -0.3389
 8822SOL    HW238103   3.892   4.462   4.825 -0.6108  1.5791 -0.9024
 8823SOL     OW38104   0.539   0.594   5.857  0.6004  0.3757 -0.6936
 8823SOL    HW138105   0.516   0.604   5.950 -0.2113  0.7133 -0.9300
 8823SOL    HW238106   0.463   0.545   5.826 -0.3990  0.7359  1.1699
 8824SOL     OW38107   3.816   2.479   3.258  0.3226 -0.6314 -0.7580
 8824SOL    HW138108   3.825   2.512   3.169 -2.2371 -0.1022 -0.8316
 8824SOL    HW238109   3.906   2.484   3.291  0.2415 -0.8429 -0.5057
 8825SOL     OW38110   3.070   0.710   6.293 -0.1868  0.0830  0.3868
 8825SOL    HW138111   3.107   0.716   6.204 -1.9444  0.3769 -0.3191
 8825SOL    HW238112   2.980   0.737   6.277  0.2241  2.3902  1.9955
 8826SOL     OW38113   4.470   0.318  14.749 -0.6805  0.7939 -0.1287
 8826SOL    HW138114   4.478   0.222  14.741 -0.8420  0.6386  1.6811
 8826SOL    HW238115   4.380   0.336  14.721 -1.0374  0.4301  0.7999
 8827SOL     OW38116   1.427   3.168  10.833  0.0421  0.3722 -1.0826
 8827SOL    HW138117   1.391   3.110  10.766 -0.4720  0.8959 -1.2526
 8827SOL    HW238118   1.349   3.220  10.854 -0.2974  0.3828 -2.3957
 8828SOL     OW38119   4.311   3.270   5.310  0.1549  0.3271  0.4678
 8828SOL    HW138120   4.362   3.342   5.273 -0.2739 -0.6688 -2.1155
 8828SOL    HW238121   4.221   3.292   5.284 -0.6027 -0.7870  2.1398
 8829SOL     OW38122   2.660   2.134   4.846  0.4661  0.6462  0.1040
 8829SOL    HW138123   2.610   2.210   4.816  1.4279  0.1151 -2.8421
 8829SOL    HW238124   2.605   2.108   4.920  0.4170  0.5055  0.0181
 8830SOL     OW38125   3.316   2.452   7.310  0.0015  0.7504 -0.1119
 8830SOL    HW138126   3.350   2.363   7.305 -1.3873  0.3762 -2.9713
 8830SOL    HW238127   3.345   2.492   7.392 -1.3914  2.5711 -0.5022
 8831SOL     OW38128   4.111   4.060  11.790  0.2429  0.3512  0.4780
 8831SOL    HW138129   4.020   4.052  11.762  0.7064 -1.7467 -0.4011
 8831SOL    HW238130   4.146   4.047  11.702  1.0331 -0.8613  0.9603
 8832SOL     OW38131   2.443   2.073   8.770 -0.1122 -0.0182 -0.0732
 8832SOL    HW138132   2.352   2.069   8.798  0.0061  0.3890  0.3651
 8832SOL    HW238133   2.426   2.104   8.681  1.4377 -2.9204 -1.4193
 8833SOL     OW38134   2.081   2.711   9.522 -0.7008  0.2613 -0.4711
 8833SOL    HW138135   2.148   2.691   9.456  1.9425  2.6757  1.4996
 8833SOL    HW238136   2.048   2.627   9.553 -2.3798 -0.1086 -3.2301
 8834SOL     OW38137   1.288   2.106   1.583 -0.5755 -0.5265 -0.5654
 8834SOL    HW138138   1.361   2.087   1.524 -0.1949 -0.4913 -0.0993
 8834SOL    HW238139   1.317   2.153   1.661  0.7471 -1.3975 -0.5237
 8835SOL     OW38140   3.302   4.257  11.763 -0.0293  0.1114  0.1111
 8835SOL    HW138141   3.232   4.224  11.706 -1.7543 -0.1931  2.4186
 8835SOL    HW238142   3.329   4.181  11.814 -2.2338 -0.8473 -0.1287
 8836SOL     OW38143   4.012   0.537   6.808  0.0764  0.2555 -0.5404
 8836SOL    HW138144   3.945   0.495   6.753 -2.8762  1.3391  2.2218
 8836SOL    HW238145   4.096   0.514   6.768  0.8091 -2.1675  2.3496
 8837SOL     OW38146   3.890   1.232  17.398  0.0755 -0.1167 -0.0956
 8837SOL    HW138147   3.819   1.170  17.411  1.3557 -1.2136  1.7040
 8837SOL    HW238148   3.887   1.274  17.312 -0.1088  0.7317  0.3230
 8838SOL     OW38149   1.619   0.715  11.495 -0.0244  0.6334  0.1732
 8838SOL    HW138150   1.609   0.645  11.429  2.0875  0.9198 -0.4420
 8838SOL    HW238151   1.700   0.699  11.542 -1.0845 -1.8008  1.1712
 8839SOL     OW38152   2.303   2.710   1.359  0.2920  0.0296 -0.6446
 8839SOL    HW138153   2.356   2.739   1.285 -1.1942 -0.0434 -1.7374
 8839SOL    HW238154   2.357   2.646   1.405 -1.8698  0.5905  2.6131
 8840SOL     OW38155   3.565   2.468  16.166 -0.0467 -0.2430 -0.1759
 8840SOL    HW138156   3.640   2.422  16.128  1.3802  1.0479  1.0913
 8840SOL    HW238157   3.569   2.553  16.122 -2.1379  0.2997  0.6735
 8841SOL     OW38158   2.030   3.677   2.361  0.2717  0.4153  0.1163
 8841SOL    HW138159   2.031   3.713   2.272 -2.6890 -0.8158 -0.4368
 8841SOL    HW238160   1.936   3.659   2.361  0.6365 -1.4341  0.5240
 8842SOL     OW38161   1.975   0.775   6.633  0.6346 -0.0993 -0.3266
 8842SOL    HW138162   1.894   0.768   6.683  1.8415 -1.2976  1.4705
 8842SOL    HW238163   1.946   0.724   6.557 -0.5562 -0.3935  0.3288
 8843SOL     OW38164   3.304   4.342   5.500 -0.5610 -0.1191  0.1214
 8843SOL    HW138165   3.340   4.345   5.412  1.3817 -0.1321  0.9249
 8843SOL    HW238166   3.344   4.418   5.542 -0.5331  0.7262 -1.4393
 8844SOL     OW38167   3.249   0.652   3.959 -0.1791  0.1611 -0.6233
 8844SOL    HW138168   3.302   0.631   3.883 -0.0755  2.0464 -1.0712
 8844SOL    HW238169   3.184   0.714   3.924 -1.0989 -0.6194 -0.3015
 8845SOL     OW38170   3.339   4.175  10.874  0.8048 -0.0381  0.4710
 8845SOL    HW138171   3.343   4.129  10.791 -0.0945 -0.0641  0.4377
 8845SOL    HW238172   3.271   4.239  10.854  0.0777 -1.2303 -0.8390
 8846SOL     OW38173   3.661   2.143   3.917  0.1264 -0.4406  0.0821
 8846SOL    HW138174   3.653   2.238   3.904  0.9240 -0.1977  1.3092
 8846SOL    HW238175   3.642   2.152   4.010 -0.9944 -3.2829  0.1038
 8847SOL     OW38176   3.688   3.202   3.943  0.3372  0.5263  0.3486
 8847SOL    HW138177   3.721   3.112   3.939 -0.1139  0.4330 -1.2608
 8847SOL    HW238178   3.706   3.232   3.853 -0.0102  0.0078  0.1063
 8848SOL     OW38179   2.246   4.120   4.288  0.1983 -0.2431 -0.1023
 8848SOL    HW138180   2.244   4.024   4.292  0.4538 -0.2284  0.2812
 8848SOL    HW238181   2.153   4.143   4.286  0.6449  1.5488 -0.3639
 8849SOL     OW38182   0.824   0.588   8.744 -0.3549 -0.0172  0.0124
 8849SOL    HW138183   0.879   0.536   8.685  0.9280  0.9515  0.3496
 8849SOL    HW238184   0.862   0.569   8.830  1.0203  0.1190 -0.5536
 8850SOL     OW38185   4.734   4.001   6.787 -0.4759  0.0876  0.2298
 8850SOL    HW138186   4.705   3.988   6.697  0.0585 -0.5101  0.1422
 8850SOL    HW238187   0.042   4.087   6.792  2.0673 -1.1761  0.5664
 8851SOL     OW38188   4.423   0.106   5.808 -0.3383  0.0812  0.2101
 8851SOL    HW138189   4.330   0.092   5.824 -0.6399  1.1772 -0.5934
 8851SOL    HW238190   4.448   0.019   5.778 -0.7487 -0.6770  2.0820
 8852SOL     OW38191   0.538   1.007  15.861  0.6227 -0.7536  0.0266
 8852SOL    HW138192   0.553   1.041  15.774 -1.8057 -1.3147 -0.6092
 8852SOL    HW238193   0.477   1.077  15.884 -1.0023 -2.4155  0.8927
 8853SOL     OW38194   0.219   1.982   1.270 -0.4287  0.0626  0.1846
 8853SOL    HW138195   0.146   1.927   1.301  0.0243 -1.7676 -1.9868
 8853SOL    HW238196   0.222   1.961   1.177  1.3228 -1.1011  0.5101
 8854SOL     OW38197   3.366   2.230   0.281 -0.5560 -0.1193  0.4880
 8854SOL    HW138198   3.356   2.308   0.226  0.6719 -0.0005  0.4356
 8854SOL    HW238199   3.457   2.239   0.309 -0.5111  0.4025  0.1862
 8855SOL     OW38200   1.089   4.523  12.508  0.1752  0.0032  0.0070
 8855SOL    HW138201   1.129   4.436  12.495  0.6999 -0.1622  2.7206
 8855SOL    HW238202   1.012   4.527  12.452  0.0650 -0.5869  0.1175
 8856SOL     OW38203   0.068   0.933   3.893 -0.1546 -0.0975 -0.4627
 8856SOL    HW138204   0.162   0.917   3.906 -0.0918  0.8349  0.2318
 8856SOL    HW238205   0.075   1.022   3.857  1.3935  0.2889  0.8056
 8857SOL     OW38206   0.095   0.683   1.893 -0.1561  0.1658 -0.2215
 8857SOL    HW138207   0.153   0.640   1.829  0.7398  0.1831  0.5695
 8857SOL    HW238208   0.060   0.752   1.838  0.7389  0.4282 -0.4698
 8858SOL     OW38209   4.122   1.087   6.633  0.0146 -0.0918 -0.3777
 8858SOL    HW138210   4.192   1.108   6.694  0.3874 -1.0579 -0.4783
 8858SOL    HW238211   4.059   1.158   6.649  1.8634  0.9676  1.9998
 8859SOL     OW38212   3.160   2.887   5.980  0.2647 -0.4765  0.3030
 8859SOL    HW138213   3.078   2.882   5.932  1.9361 -0.7320 -2.5073
 8859SOL    HW238214   3.207   2.952   5.927 -0.8357 -0.3761 -0.5359
 8860SOL     OW38215   1.435   4.266   5.688 -0.1746 -0.1642  0.4845
 8860SOL    HW138216   1.410   4.253   5.597 -0.9084  1.6575  0.4257
 8860SOL    HW238217   1.491   4.190   5.707 -1.2942 -1.2211 -0.4485
 8861SOL     OW38218   0.082   3.735   3.247 -0.4863 -0.1441  0.0009
 8861SOL    HW138219   0.037   3.654   3.226 -1.3003  0.9709 -2.6041
 8861SOL    HW238220   0.116   3.700   3.329  1.8302  0.2075 -0.7757
 8862SOL     OW38221   1.151   0.752   2.914  0.3788 -0.2478  0.2652
 8862SOL    HW138222   1.087   0.706   2.859 -0.2051  1.4129 -0.4288
 8862SOL    HW238223   1.212   0.778   2.845 -1.1035  2.6750  0.0887
 8863SOL     OW38224   3.350   4.569   6.655  0.1851  0.2152 -0.5752
 8863SOL    HW138225   3.277   4.526   6.699 -0.3732  2.0289  0.2610
 8863SOL    HW238226   3.397   4.492   6.623 -0.4118 -0.2169 -0.4088
 8864SOL     OW38227   4.090   3.556   6.204  0.7663 -0.2651  0.0389
 8864SOL    HW138228   4.032   3.626   6.173 -0.8395 -0.4533  2.5670
 8864SOL    HW238229   4.077   3.562   6.299 -0.6928  2.0551 -0.3049
 8865SOL     OW38230   1.547   0.236   1.205 -0.3200  0.2498 -0.4801
 8865SOL    HW138231   1.494   0.178   1.259  0.2321  1.2888  1.1927
 8865SOL    HW238232   1.632   0.207   1.239  0.2022 -1.2765 -3.0251
 8866SOL     OW38233   2.789   4.017  17.403 -0.5497 -0.0290 -0.1739
 8866SOL    HW138234   2.815   4.097  17.358  0.8780  0.1076  0.9117
 8866SOL    HW238235   2.744   3.974  17.329 -2.2701 -0.3342  1.0295
 8867SOL     OW38236   3.144   4.165  16.180  0.6598  0.1065  0.0415
 8867SOL    HW138237   3.199   4.155  16.102 -0.8473 -3.4503 -0.5978
 8867SOL    HW238238   3.202   4.138  16.251 -1.2431 -0.1842  1.4615
 8868SOL     OW38239   3.187   2.482   4.306  0.2068 -0.7282  0.3741
 8868SOL    HW138240   3.233   2.423   4.246  0.4569  0.7310 -0.8520
 8868SOL    HW238241   3.218   2.443   4.388  0.5189  0.8824  1.0325
 8869SOL     OW38242   2.740   3.772  12.264  0.1142  0.5315  0.3029
 8869SOL    HW138243   2.794   3.774  12.185  0.6599 -1.4613  0.6163
 8869SOL    HW238244   2.678   3.703  12.241 -0.3839  1.2350 -0.4318
 8870SOL     OW38245   3.238   3.366   9.701 -0.6190  0.4467  0.1665
 8870SOL    HW138246   3.147   3.345   9.679 -0.3349 -0.8482  0.2471
 8870SOL    HW238247   3.222   3.446   9.753 -2.1679  0.6503 -0.6308
 8871SOL     OW38248   2.008   3.539   3.903  0.4828 -0.0211  0.3980
 8871SOL    HW138249   2.082   3.527   3.961  2.1862 -0.4366 -1.8440
 8871SOL    HW238250   2.017   3.464   3.844 -0.3866 -0.6911  1.1113
 8872SOL     OW38251   2.837   1.448   5.152  0.6253 -0.2661 -0.5555
 8872SOL    HW138252   2.749   1.416   5.170  0.7788 -0.4933 -0.1816
 8872SOL    HW238253   2.820   1.473   5.062  2.9910 -0.6998 -1.1379
 8873SOL     OW38254   0.639   0.891   6.869 -0.2273 -0.3396 -0.2760
 8873SOL    HW138255   0.604   0.913   6.955 -0.1035 -1.6100  0.1104
 8873SOL    HW238256   0.572   0.921   6.808  1.0341  1.4957 -0.7423
 8874SOL     OW38257   3.595   2.591   6.934  0.0502 -0.3317  0.4573
 8874SOL    HW138258   3.537   2.632   6.999 -0.9295  0.8128 -1.1238
 8874SOL    HW238259   3.675   2.603   6.984  1.1765 -1.2031 -1.1380
 8875SOL     OW38260   0.481   2.457  11.806  0.3942 -0.1842  0.1937
 8875SOL    HW138261   0.565   2.464  11.850 -0.6268  0.9024  1.9753
 8875SOL    HW238262   0.446   2.378  11.848 -2.0378  2.1873  2.6032
 8876SOL     OW38263   1.557   3.104   6.691 -0.3297 -0.2512  0.5577
 8876SOL    HW138264   1.486   3.052   6.728 -1.1734  0.3525 -0.1657
 8876SOL    HW238265   1.543   3.184   6.742  0.1706  0.0911  0.1668
 8877SOL     OW38266   2.459   3.396   4.020  0.1985 -0.3720 -0.2836
 8877SOL    HW138267   2.551   3.405   4.041  0.5702 -1.4931 -1.3872
 8877SOL    HW238268   2.451   3.430   3.931 -2.5277 -0.4991 -0.0977
 8878SOL     OW38269   2.403   2.922   5.712 -0.5611 -0.2422 -0.1626
 8878SOL    HW138270   2.444   2.837   5.725  0.3829 -0.2229 -2.9542
 8878SOL    HW238271   2.312   2.895   5.723 -0.9649  1.1097 -0.2160
 8879SOL     OW38272   0.886   3.224   8.600  0.3133  0.2284  0.6567
 8879SOL    HW138273   0.917   3.183   8.680 -1.8929  0.1563  1.4774
 8879SOL    HW238274   0.833   3.300   8.624  0.6346  0.2761  1.1953
 8880SOL     OW38275   2.944   4.183   1.731 -0.0832 -0.0494 -0.1368
 8880SOL    HW138276   2.994   4.106   1.704 -0.1230  0.9503 -3.0984
 8880SOL    HW238277   2.877   4.146   1.788  0.7674  1.4630  1.8241
 8881SOL     OW38278   1.598   3.025   0.603 -0.1822 -0.0124 -0.0477
 8881SOL    HW138279   1.511   3.037   0.565 -0.2444 -0.2263  0.0291
 8881SOL    HW238280   1.643   3.097   0.557  1.7638  0.3034  2.3589
 8882SOL     OW38281   3.124   4.462  11.606 -0.1500  0.2922  0.2052
 8882SOL    HW138282   3.105   4.370  11.621 -0.2935  0.4091  0.7204
 8882SOL    HW238283   3.042   4.510  11.611 -0.4106  0.0232 -1.6638
 8883SOL     OW38284   1.267   1.585   0.577  0.2085  0.1321  0.0667
 8883SOL    HW138285   1.348   1.538   0.560 -1.4312 -1.7322 -2.3845
 8883SOL    HW238286   1.209   1.526   0.529 -0.8830  3.2376 -2.4380
 8884SOL     OW38287   0.122   0.349  13.278 -0.3042 -0.3156  0.3888
 8884SOL    HW138288   0.215   0.373  13.272 -0.3741  0.1924  1.3749
 8884SOL    HW238289   0.093   0.391  13.197  1.3710 -0.4998 -0.3204
 8885SOL     OW38290   0.299   4.412   2.358  0.5244  0.7009 -0.3258
 8885SOL    HW138291   0.315   4.327   2.400  1.2197  0.6034 -0.7888
 8885SOL    HW238292   0.291   4.465   2.437  1.2114 -1.9255  1.5066
 8886SOL     OW38293   2.544   3.596   2.671  0.3212 -0.1221  0.3681
 8886SOL    HW138294   2.594   3.677   2.662  3.1531 -2.0072 -0.8938
 8886SOL    HW238295   2.454   3.625   2.683  0.3854  0.0277  0.4873
 8887SOL     OW38296   3.157   4.146   0.617 -0.5646 -0.4569  0.2552
 8887SOL    HW138297   3.134   4.154   0.524 -1.1303 -0.4792  0.3917
 8887SOL    HW238298   3.077   4.113   0.657  0.2153 -0.7553  1.5608
 8888SOL     OW38299   3.705   0.107  13.906  0.0265  0.3479 -0.0039
 8888SOL    HW138300   3.636   0.041  13.908 -0.3664  0.7681  0.2675
 8888SOL    HW238301   3.731   0.094  13.815  1.1748  3.5567 -0.1489
 8889SOL     OW38302   2.416   1.625  16.263  0.1687  0.1577  0.1459
 8889SOL    HW138303   2.388   1.680  16.190 -0.1751  0.9493  0.8631
 8889SOL    HW238304   2.507   1.652  16.269  0.1985  0.7031 -3.1951
 8890SOL     OW38305   3.858   2.542   2.999  0.8122 -0.3550  0.6583
 8890SOL    HW138306   3.795   2.605   2.963 -0.7276 -0.8278  2.4940
 8890SOL    HW238307   3.941   2.567   2.958  1.3590 -0.1219  1.9219
 8891SOL     OW38308   1.879   1.382   2.206  0.2995 -0.2880 -0.1397
 8891SOL    HW138309   1.822   1.458   2.220  1.5660  0.5193  0.7003
 8891SOL    HW238310   1.964   1.400   2.246 -0.7318 -0.2877  2.0942
 8892SOL     OW38311   2.275   0.875   4.059  0.4409 -0.5494 -0.1417
 8892SOL    HW138312   2.187   0.856   4.026  1.2620 -0.8070 -2.2092
 8892SOL    HW238313   2.296   0.950   4.003 -0.8442 -1.4278 -1.8120
 8893SOL     OW38314   1.612   0.524   4.469 -0.0350 -0.6248 -0.2985
 8893SOL    HW138315   1.550   0.558   4.533  1.3727 -1.7963  1.7020
 8893SOL    HW238316   1.649   0.444   4.507 -0.7504 -1.4539 -1.3565
 8894SOL     OW38317   0.036   1.945   5.169  0.2231  0.0615  0.0068
 8894SOL    HW138318   4.685   1.973   5.201  0.0963  1.5295 -1.5949
 8894SOL    HW238319   0.015   1.878   5.104 -2.1738  2.8498 -2.0794
 8895SOL     OW38320   3.212   0.356   5.558  0.0451 -0.0632 -0.2066
 8895SOL    HW138321   3.199   0.335   5.466  2.4062  1.5159 -0.9131
 8895SOL    HW238322   3.237   0.448   5.558  2.0248 -0.5991 -1.5191
 8896SOL     OW38323   2.782   2.304   5.919 -0.0852  0.0150 -0.8340
 8896SOL    HW138324   2.864   2.278   5.962 -0.6903  1.3891  1.1027
 8896SOL    HW238325   2.725   2.313   5.995  0.6040 -2.4760 -0.0234
 8897SOL     OW38326   1.826   1.556   5.654  0.0225  0.1881 -0.2443
 8897SOL    HW138327   1.885   1.560   5.578 -0.9804 -0.0345 -1.0354
 8897SOL    HW238328   1.887   1.532   5.724 -0.6532  0.8552  0.5663
 8898SOL     OW38329   1.401   3.761   6.519 -0.0137 -0.0820 -0.4454
 8898SOL    HW138330   1.397   3.856   6.526  1.0778 -0.1156  0.6586
 8898SOL    HW238331   1.308   3.745   6.505  0.3290  2.7560 -5.9348
 8899SOL     OW38332   0.587   1.788   1.522 -0.1500  0.1893 -0.0107
 8899SOL    HW138333   0.520   1.830   1.467  1.6062 -0.8410 -2.9093
 8899SOL    HW238334   0.574   1.700   1.487  0.3892  0.8993 -1.9533
 8900SOL     OW38335   0.476   4.362   7.807  0.1557 -0.3659 -0.5260
 8900SOL    HW138336   0.448   4.288   7.753 -2.2134  1.7104 -2.1201
 8900SOL    HW238337   0.395   4.413   7.812  1.0522  0.9669  0.2555
 8901SOL     OW38338   1.364   0.406   2.549  0.1548  0.0960  0.0469
 8901SOL    HW138339   1.378   0.320   2.590  1.3888  0.9661  1.4423
 8901SOL    HW238340   1.289   0.438   2.599 -1.2518 -1.1911 -1.2567
 8902SOL     OW38341   1.254   3.812  14.466 -0.0869 -1.1432  0.0787
 8902SOL    HW138342   1.292   3.770  14.544  0.8411 -1.0909 -0.3429
 8902SOL    HW238343   1.175   3.759  14.458 -0.3354 -0.2975 -3.0500
 8903SOL     OW38344   2.975   4.269   2.331  0.0229 -0.0205  0.6834
 8903SOL    HW138345   2.996   4.198   2.271  1.0387  1.3364 -0.5934
 8903SOL    HW238346   2.996   4.226   2.414  1.3685 -2.2127 -0.7864
 8904SOL     OW38347   0.820   2.492   5.291 -0.2647  0.5559 -0.5759
 8904SOL    HW138348   0.863   2.433   5.228  1.9677  0.0270  1.4420
 8904SOL    HW238349   0.730   2.470   5.267 -1.1237  1.5561  1.8000
 8905SOL     OW38350   4.283   0.500   8.217 -0.2633 -0.1202  0.0749
 8905SOL    HW138351   4.257   0.573   8.161 -0.6574  0.3291  0.8348
 8905SOL    HW238352   4.227   0.428   8.187 -0.6338  0.8104 -1.4581
 8906SOL     OW38353   4.523   0.979   3.882  0.1324 -0.3578  0.1247
 8906SOL    HW138354   4.564   0.999   3.798  0.8302  3.8447  1.4540
 8906SOL    HW238355   4.572   0.898   3.898  1.8058  0.7175  0.4904
 8907SOL     OW38356   3.952   4.065   3.323 -0.0547  0.2264 -0.3436
 8907SOL    HW138357   4.019   4.080   3.257  0.8213  0.6385  0.6342
 8907SOL    HW238358   3.877   4.042   3.268 -0.9412  0.5832  0.7287
 8908SOL     OW38359   1.368   3.021  10.583 -0.2341 -0.1549 -0.5550
 8908SOL    HW138360   1.444   3.050  10.533  0.1577  0.5773  0.4715
 8908SOL    HW238361   1.304   3.006  10.514  0.3133 -0.4496 -0.9917
 8909SOL     OW38362   0.147   2.244   5.399 -0.1281  0.0049  0.1930
 8909SOL    HW138363   0.091   2.175   5.434  0.6461 -0.9795 -0.5115
 8909SOL    HW238364   0.102   2.319   5.437  0.1138 -0.2107  0.8966
 8910SOL     OW38365   0.453   2.844   8.610  0.2340  0.0895 -0.5764
 8910SOL    HW138366   0.546   2.859   8.592  0.5788 -0.6698  0.6115
 8910SOL    HW238367   0.456   2.886   8.695 -1.0484 -0.4121 -0.2782
 8911SOL     OW38368   2.229   0.305   5.395 -0.1574 -0.1889 -0.6579
 8911SOL    HW138369   2.291   0.322   5.324  0.2062  0.7154 -0.1204
 8911SOL    HW238370   2.162   0.371   5.378  2.1627  2.3432 -0.0235
 8912SOL     OW38371   2.241   2.141   6.711 -0.1668  0.2385 -0.3324
 8912SOL    HW138372   2.333   2.123   6.732 -0.5414  0.9845  1.9235
 8912SOL    HW238373   2.249   2.228   6.671 -0.7919 -0.1031 -1.2056
 8913SOL     OW38374   0.156   2.208   6.478  1.0041  0.2516 -0.0672
 8913SOL    HW138375   0.179   2.287   6.428 -0.9765  1.0082  0.2171
 8913SOL    HW238376   0.238   2.159   6.473  1.1268  0.4347  0.1277
 8914SOL     OW38377   4.399   3.542  10.642 -0.3863  0.0342  0.0584
 8914SOL    HW138378   4.424   3.558  10.733  0.2813 -2.6339  0.3626
 8914SOL    HW238379   4.305   3.531  10.659 -0.7519 -0.6631 -2.5378
 8915SOL     OW38380   3.376   3.290  13.041 -0.0843  1.1073 -0.4236
 8915SOL    HW138381   3.470   3.307  13.034  0.2387 -0.6494 -0.3130
 8915SOL    HW238382   3.363   3.262  13.132  2.0528 -2.3069 -1.1851
 8916SOL     OW38383   0.704   4.549   8.145 -0.1662  0.2007  0.5200
 8916SOL    HW138384   0.772   4.571   8.209  0.2134 -0.9934  0.5240
 8916SOL    HW238385   0.730   4.461   8.120  0.2218  1.1327 -2.3531
 8917SOL     OW38386   0.031   2.402  10.966 -0.2618  0.3027 -0.1280
 8917SOL    HW138387   0.034   2.442  10.879  0.8800 -1.3302 -0.8413
 8917SOL    HW238388   0.119   2.421  10.999  0.5728 -0.6851 -1.7658
 8918SOL     OW38389   2.487   3.777   2.223  0.1515  0.3144 -0.0549
 8918SOL    HW138390   2.519   3.795   2.311 -0.3261 -0.8102  0.3506
 8918SOL    HW238391   2.420   3.709   2.231 -0.1294  0.3893 -1.7410
 8919SOL     OW38392   4.020   1.001   2.540  0.0126 -0.4046 -0.0270
 8919SOL    HW138393   3.962   1.024   2.613  0.3642 -1.2214  0.5208
 8919SOL    HW238394   3.972   1.033   2.464 -1.6128 -0.3407  1.0208
 8920SOL     OW38395   1.640   0.199   6.232 -0.0125 -0.3477  0.7593
 8920SOL    HW138396   1.650   0.265   6.300 -1.4806  1.3899 -0.6884
 8920SOL    HW238397   1.723   0.206   6.185 -0.6178 -0.0886 -0.2803
 8921SOL     OW38398   0.069   1.253   8.884  0.6213 -0.4854  0.4644
 8921SOL    HW138399   0.112   1.233   8.967 -2.1886 -0.4637  1.9105
 8921SOL    HW238400   0.132   1.211   8.825 -2.2816  0.8626 -3.6239
 8922SOL     OW38401   1.564   1.297  10.096  0.2198  0.3797 -0.1153
 8922SOL    HW138402   1.653   1.302  10.060  0.4467 -1.6803  0.1728
 8922SOL    HW238403   1.592   1.290  10.187  0.9336  0.6079 -0.3134
 8923SOL     OW38404   1.162   4.181  10.835  0.0694 -0.2932 -0.0629
 8923SOL    HW138405   1.180   4.275  10.843  0.1898 -0.3931  0.8006
 8923SOL    HW238406   1.083   4.188  10.780  1.2507 -0.7006 -1.7858
 8924SOL     OW38407   4.121   3.416   1.942 -0.1313  0.5643 -0.2309
 8924SOL    HW138408   4.033   3.378   1.944 -0.1754  0.8602  3.1014
 8924SOL    HW238409   4.126   3.429   1.847  0.9919 -0.7522 -0.3616
 8925SOL     OW38410   3.705   3.292  16.106 -0.7044 -0.2283  0.0533
 8925SOL    HW138411   3.647   3.287  16.181  1.8371  1.6979  2.1753
 8925SOL    HW238412   3.749   3.209  16.122  0.7855  0.7978  1.3558
 8926SOL     OW38413   0.946   4.078   3.130 -0.2404  0.5031 -0.6435
 8926SOL    HW138414   0.955   4.172   3.116 -0.9484  0.6110 -0.3828
 8926SOL    HW238415   0.873   4.048   3.076  1.3339  2.9964 -4.1630
 8927SOL     OW38416   0.043   0.439  17.083 -0.2270 -0.4700 -0.1145
 8927SOL    HW138417   0.036   0.344  17.090  1.4534 -0.5290  0.9105
 8927SOL    HW238418   0.008   0.473  17.166  1.0730 -2.7741  1.3897
 8928SOL     OW38419   4.048   2.104   1.146 -0.0171  0.3180  0.1758
 8928SOL    HW138420   4.020   2.085   1.056 -2.4426  0.7502  0.8562
 8928SOL    HW238421   4.093   2.025   1.175 -0.2362 -1.1985 -3.6174
 8929SOL     OW38422   3.832   4.545  13.821  0.2246  0.0933 -0.0533
 8929SOL    HW138423   3.739   4.561  13.801  0.0635  1.0039  1.4415
 8929SOL    HW238424   3.822   4.512  13.910 -0.3345 -1.5612 -0.7376
 8930SOL     OW38425   1.875   3.379   4.936  0.3712  0.3189 -0.0288
 8930SOL    HW138426   1.889   3.474   4.937  4.0959 -0.2579  0.9447
 8930SOL    HW238427   1.893   3.343   5.023 -2.2975  1.8287  1.1551
 8931SOL     OW38428   0.848   1.797   5.856  0.4483  0.0941 -0.7378
 8931SOL    HW138429   0.817   1.859   5.921 -0.8055 -1.0412 -0.2572
 8931SOL    HW238430   0.775   1.783   5.796  0.9317  0.0148 -1.3153
 8932SOL     OW38431   1.589   0.426  17.182 -0.3842 -0.1363 -0.5214
 8932SOL    HW138432   1.548   0.422  17.096  1.7525 -0.3751 -1.5088
 8932SOL    HW238433   1.657   0.360  17.188 -1.7502 -1.2708  2.5668
 8933SOL     OW38434   4.397   3.308  12.479  0.0303  0.1574 -0.3920
 8933SOL    HW138435   4.317   3.298  12.429 -1.9634  1.4225  2.5667
 8933SOL    HW238436   4.476   3.313  12.424  0.4366 -0.8351  0.0957
 8934SOL     OW38437   0.909   3.076   7.766  0.7729 -0.1019 -0.0747
 8934SOL    HW138438   0.865   3.150   7.725  2.5163  1.5336  0.9830
 8934SOL    HW238439   0.857   3.056   7.844  0.4421 -1.8450 -0.7512
 8935SOL     OW38440   1.088   1.531   6.915  0.0832  0.2406  0.3921
 8935SOL    HW138441   1.143   1.558   6.989  2.3874  0.4578 -1.4460
 8935SOL    HW238442   1.153   1.544   6.847  1.3695 -0.7998  1.4371
 8936SOL     OW38443   3.017   4.094   0.155 -0.0599 -0.0178  0.5685
 8936SOL    HW138444   2.930   4.054   0.147 -0.4939  0.7167  1.6249
 8936SOL    HW238445   3.062   4.050   0.083  1.2557  1.8670  0.2358
 8937SOL     OW38446   0.408   0.848   5.854 -0.3102 -0.5270  0.5108
 8937SOL    HW138447   0.471   0.776   5.848 -1.8107 -2.0586  3.5775
 8937SOL    HW238448   0.332   0.800   5.887 -2.6172  1.7245 -1.5049
 8938SOL     OW38449   3.855   3.481  13.863  0.4769 -0.2627 -0.0701
 8938SOL    HW138450   3.917   3.424  13.819 -1.4780 -1.1261 -1.6869
 8938SOL    HW238451   3.903   3.498  13.944  0.6390 -1.5118  0.0936
 8939SOL     OW38452   0.357   2.753   0.764 -0.0628  0.2562  0.0331
 8939SOL    HW138453   0.282   2.700   0.790 -0.5367  1.5460  1.2961
 8939SOL    HW238454   0.319   2.840   0.759 -1.1870 -0.1040  2.5705
 8940SOL     OW38455   1.815   3.383   2.729  0.6368  0.4120 -0.4885
 8940SOL    HW138456   1.754   3.455   2.740  0.0484 -0.0280 -0.8692
 8940SOL    HW238457   1.871   3.382   2.807  2.3192 -0.9328 -1.6908
 8941SOL     OW38458   4.646   3.333   1.657  0.0917  0.2104  0.0339
 8941SOL    HW138459   4.555   3.362   1.656 -0.6732 -2.1760 -0.5738
 8941SOL    HW238460   4.666   3.328   1.751 -3.3666 -0.5715  0.7309
 8942SOL     OW38461   3.744   1.475   6.748 -0.1210 -0.1022 -0.5545
 8942SOL    HW138462   3.665   1.521   6.777 -0.5309 -1.4264  0.4048
 8942SOL    HW238463   3.800   1.553   6.750 -0.0057 -0.2181  0.9726
 8943SOL     OW38464   0.503   2.160   2.257 -0.1087 -0.1284  0.1987
 8943SOL    HW138465   0.576   2.191   2.204 -0.5055  0.7544  0.1718
 8943SOL    HW238466   0.431   2.169   2.194 -1.3883  1.5892  1.9219
 8944SOL     OW38467   0.736   2.405  12.462  0.1735  0.0041  0.5384
 8944SOL    HW138468   0.744   2.429  12.555 -1.1353  0.0025  0.6514
 8944SOL    HW238469   0.723   2.313  12.483 -0.7604 -0.0769 -0.4214
 8945SOL     OW38470   1.971   4.723   9.187  0.5474  0.0058 -0.0579
 8945SOL    HW138471   2.046   0.027   9.143 -0.1909 -0.4635 -1.7043
 8945SOL    HW238472   1.970   0.030   9.274 -0.5247  1.1672 -0.6282
 8946SOL     OW38473   0.616   1.162   5.579 -0.1302  0.2051  0.0502
 8946SOL    HW138474   0.559   1.213   5.636  0.2162 -3.5090  3.7413
 8946SOL    HW238475   0.671   1.136   5.652 -0.4046 -2.5921 -0.7303
 8947SOL     OW38476   0.093   0.985   6.735  0.3814 -0.5381 -0.6215
 8947SOL    HW138477   0.153   0.995   6.809  0.9326  1.6462 -1.3449
 8947SOL    HW238478   0.028   1.051   6.758 -0.0460 -1.5811  1.0931
 8948SOL     OW38479   1.705   1.900   8.559 -0.5853  0.7060 -0.0972
 8948SOL    HW138480   1.654   1.951   8.496  1.4394  1.4142 -1.1705
 8948SOL    HW238481   1.682   1.943   8.641 -1.4652 -1.2486  0.6716
 8949SOL     OW38482   1.547   3.366  15.350  0.0617 -0.4619  0.4214
 8949SOL    HW138483   1.573   3.440  15.295  0.4051 -0.2349  0.8896
 8949SOL    HW238484   1.492   3.413  15.413 -0.3972  0.8174 -0.9259
 8950SOL     OW38485   3.022   0.568   4.506  0.4741  0.4943 -0.1946
 8950SOL    HW138486   2.998   0.586   4.597  1.0038  0.7164 -0.1006
 8950SOL    HW238487   3.047   0.476   4.511 -0.6649  0.1669 -0.5799
 8951SOL     OW38488   1.149   2.498   6.972 -0.4867  0.2011  1.0909
 8951SOL    HW138489   1.134   2.440   7.046 -0.6999 -1.0491  0.0669
 8951SOL    HW238490   1.077   2.560   6.980 -0.0079  0.9591 -0.3847
 8952SOL     OW38491   1.225   1.244   6.496  0.0170 -0.0021  0.6033
 8952SOL    HW138492   1.208   1.187   6.421 -2.0497  3.8613 -1.8740
 8952SOL    HW238493   1.153   1.215   6.553 -0.2486  2.0346  1.3164
 8953SOL     OW38494   3.673   2.685   3.767 -0.0467 -0.0336 -0.3151
 8953SOL    HW138495   3.629   2.749   3.822 -0.0319  1.7112 -2.3283
 8953SOL    HW238496   3.603   2.645   3.715 -0.7970 -0.2172  0.8455
 8954SOL     OW38497   2.209   0.697   5.877 -0.4926 -0.3055 -0.7023
 8954SOL    HW138498   2.147   0.692   5.805  0.6301 -2.0101 -1.5614
 8954SOL    HW238499   2.252   0.780   5.861  2.7886 -1.6399  1.1406
 8955SOL     OW38500   1.828   1.891  12.313  0.1136 -0.2583 -0.5722
 8955SOL    HW138501   1.813   1.956  12.245  0.0587 -0.5525 -0.8428
 8955SOL    HW238502   1.865   1.946  12.382 -0.8319 -0.9590  0.4907
 8956SOL     OW38503   3.140   1.108   3.053 -0.0576 -0.8664  0.6284
 8956SOL    HW138504   3.149   1.100   2.958 -1.9332 -0.7456  0.4425
 8956SOL    HW238505   3.135   1.204   3.052 -1.5289 -0.9292  0.9585
 8957SOL     OW38506   2.095   3.222   3.201  0.4283 -0.3718  0.5924
 8957SOL    HW138507   2.018   3.223   3.257 -1.0789  0.4407 -1.5242
 8957SOL    HW238508   2.154   3.291   3.231 -0.1173  0.5666 -0.5137
 8958SOL     OW38509   0.842   2.341  10.204  0.2887 -0.1204  0.4382
 8958SOL    HW138510   0.794   2.267  10.168  1.8301 -0.3072 -1.2633
 8958SOL    HW238511   0.864   2.311  10.292  1.4470  1.0841  0.5737
 8959SOL     OW38512   3.395   2.610   5.200 -0.0500  0.3836  0.0980
 8959SOL    HW138513   3.416   2.686   5.255 -1.4446  0.1126  1.0139
 8959SOL    HW238514   3.447   2.536   5.231  0.5521  0.8178  0.1370
 8960SOL     OW38515   2.665   4.264   6.569  0.0760  0.6201  0.1370
 8960SOL    HW138516   2.660   4.294   6.478  0.5151  0.7620  0.1608
 8960SOL    HW238517   2.743   4.209   6.561  1.7206  2.8368  0.6599
 8961SOL     OW38518   2.630   0.207   3.439  0.2099  0.0200  0.3992
 8961SOL    HW138519   2.702   0.236   3.494 -1.7045  0.8787  2.4466
 8961SOL    HW238520   2.658   0.115   3.441  0.9518  0.2136 -0.9012
 8962SOL     OW38521   1.787   3.459  15.580  0.3531  0.2073 -0.3992
 8962SOL    HW138522   1.768   3.536  15.633  0.7332  0.4528 -0.6191
 8962SOL    HW238523   1.759   3.487  15.492  0.1220 -1.5941 -0.9101
 8963SOL     OW38524   1.300   1.099   8.038  0.5334 -0.1335  0.1559
 8963SOL    HW138525   1.387   1.109   8.074  1.4373 -0.3887 -1.9417
 8963SOL    HW238526   1.298   1.008   8.008  2.2739 -0.8007  2.1318
 8964SOL     OW38527   2.368   4.020   3.152  0.4988 -0.1331 -0.0683
 8964SOL    HW138528   2.452   4.021   3.105  1.7256  2.5176  2.2071
 8964SOL    HW238529   2.401   4.022   3.242 -0.2060  0.5049  0.1738
 8965SOL     OW38530   1.615   4.158   5.413  0.3417  0.3975  0.3844
 8965SOL    HW138531   1.625   4.250   5.438 -2.5632  0.8535 -0.1369
 8965SOL    HW238532   1.528   4.139   5.447  0.4303  0.3258  0.5709
 8966SOL     OW38533   1.282   3.507  14.647 -0.4010 -0.0917 -0.6434
 8966SOL    HW138534   1.208   3.525  14.589 -1.4112 -2.3156 -0.0466
 8966SOL    HW238535   1.247   3.443  14.708  1.6948  1.6798  2.3955
 8967SOL     OW38536   1.889   1.904   9.275 -0.4622 -0.6048  0.2391
 8967SOL    HW138537   1.927   1.818   9.258  1.9238  0.3492  0.8468
 8967SOL    HW238538   1.819   1.905   9.210  1.2180  2.1973 -1.5457
 8968SOL     OW38539   4.595   2.107   3.055 -0.2441  0.3746  0.4823
 8968SOL    HW138540   4.606   2.111   2.960  0.5003 -0.9856  0.5055
 8968SOL    HW238541   4.623   2.195   3.078  0.1802 -0.4818  3.2840
 8969SOL     OW38542   3.157   3.223   5.993 -0.2436 -0.3869  0.1580
 8969SOL    HW138543   3.224   3.218   6.061 -1.4151  0.3860  1.3435
 8969SOL    HW238544   3.197   3.166   5.926 -0.0617 -0.1301  0.0484
 8970SOL     OW38545   2.895   3.304   5.368 -0.0124 -0.6937  0.3869
 8970SOL    HW138546   2.898   3.321   5.462  0.4505  2.6249 -0.2467
 8970SOL    HW238547   2.820   3.354   5.335  2.1912  2.0706 -0.4476
 8971SOL     OW38548   0.054   1.150   4.192  0.2664  0.5486  0.6477
 8971SOL    HW138549   4.724   1.081   4.206  1.6464 -0.8204  0.1202
 8971SOL    HW238550   0.066   1.164   4.098 -0.0706  0.0979  0.5400
 8972SOL     OW38551   1.266   0.598   5.763  0.4737 -0.4278 -0.4589
 8972SOL    HW138552   1.240   0.529   5.702  1.5088 -0.0296 -1.3350
 8972SOL    HW238553   1.210   0.670   5.733 -0.6785 -0.2965  1.9730
 8973SOL     OW38554   1.335   1.805   8.098 -0.0007  0.1294 -0.3256
 8973SOL    HW138555   1.326   1.839   8.187 -0.8317 -1.1370  0.0786
 8973SOL    HW238556   1.247   1.819   8.064 -0.5922 -0.5539  0.8990
 8974SOL     OW38557   2.826   3.614   4.681  0.0497  0.1608 -0.6139
 8974SOL    HW138558   2.733   3.597   4.666 -0.1100  0.5145 -0.0161
 8974SOL    HW238559   2.856   3.621   4.590 -1.5060  1.3431 -1.0500
 8975SOL     OW38560   3.284   2.488  12.749 -0.1288  0.2043 -0.2971
 8975SOL    HW138561   3.327   2.572  12.767 -1.6050  0.9415 -0.2374
 8975SOL    HW238562   3.289   2.474  12.655 -1.7588 -0.1335 -0.3330
 8976SOL     OW38563   2.366   3.630   8.603 -0.1271 -0.1328  0.1094
 8976SOL    HW138564   2.351   3.686   8.679 -2.8483 -2.1338  1.0121
 8976SOL    HW238565   2.277   3.597   8.600 -0.5104  1.1452 -2.1251
 8977SOL     OW38566   2.154   2.104   8.775 -0.4447  0.0111 -0.6240
 8977SOL    HW138567   2.096   2.042   8.731  0.3561 -2.5931  1.9792
 8977SOL    HW238568   2.136   2.189   8.736  0.1505  1.4569  2.2481
 8978SOL     OW38569   2.831   3.974   1.451 -0.0502 -0.1476  0.0865
 8978SOL    HW138570   2.882   4.040   1.497 -1.7368  1.1264  0.1559
 8978SOL    HW238571   2.740   4.002   1.437  0.3608  1.4154  0.5587
 8979SOL     OW38572   0.816   1.857   7.285  0.4705 -0.2890 -0.1396
 8979SOL    HW138573   0.755   1.891   7.351  2.0541  1.3297  0.4852
 8979SOL    HW238574   0.900   1.891   7.314 -0.3048  0.0268  1.7744
 8980SOL     OW38575   0.941   2.902  10.587 -0.3095 -0.0579 -0.0034
 8980SOL    HW138576   1.002   2.911  10.660 -1.9289 -0.6576  1.4219
 8980SOL    HW238577   0.999   2.908  10.511 -0.5046 -0.2001 -0.1650
 8981SOL     OW38578   3.965   2.935   2.981 -0.3981  0.2568 -0.0473
 8981SOL    HW138579   4.029   2.895   3.039  0.3039  1.6457  0.1100
 8981SOL    HW238580   3.903   2.869   2.949 -1.6321  1.3571  0.0787
 8982SOL     OW38581   0.697   3.565   5.467 -0.0221 -0.1384 -0.0238
 8982SOL    HW138582   0.765   3.632   5.456 -1.6889  1.5500 -0.0411
 8982SOL    HW238583   0.718   3.537   5.557  0.5826  0.7187  0.0988
 8983SOL     OW38584   1.135   3.135   3.987 -0.5238 -0.6839  0.6244
 8983SOL    HW138585   1.119   3.196   4.060 -0.6675  0.8756 -0.7095
 8983SOL    HW238586   1.098   3.185   3.914  2.1233 -1.6613 -1.3848
 8984SOL     OW38587   1.595   1.525   1.110  0.8743  0.0386  0.2727
 8984SOL    HW138588   1.564   1.538   1.020  2.1645  1.6220  0.0517
 8984SOL    HW238589   1.510   1.509   1.152  0.5615  0.4901 -0.1859
 8985SOL     OW38590   3.812   1.140   7.425  0.3543  0.4715  0.1744
 8985SOL    HW138591   3.747   1.209   7.442 -1.0629 -1.0659  0.9649
 8985SOL    HW238592   3.808   1.121   7.331 -4.2630  0.6745  0.3163
 8986SOL     OW38593   3.466   3.600   9.871 -0.5842  0.3287 -0.3391
 8986SOL    HW138594   3.371   3.607   9.884 -0.5986 -0.5611  0.0567
 8986SOL    HW238595   3.492   3.542   9.943 -1.9408 -1.1590 -1.0465
 8987SOL     OW38596   0.541   4.500   8.592 -0.7645  0.5065 -0.3690
 8987SOL    HW138597   0.630   4.536   8.599 -0.9298  1.3040 -2.5110
 8987SOL    HW238598   0.502   4.540   8.670 -1.7649 -1.0920 -0.0546
 8988SOL     OW38599   4.170   0.353   5.610 -0.0363  0.1011 -0.2422
 8988SOL    HW138600   4.084   0.344   5.567  0.4704 -3.6137 -0.4790
 8988SOL    HW238601   4.168   0.289   5.680  1.6415  0.8887  0.5083
 8989SOL     OW38602   1.002   2.245   8.550  0.1451 -1.1032  0.2824
 8989SOL    HW138603   0.934   2.188   8.515  1.9768 -2.7016 -0.6660
 8989SOL    HW238604   1.048   2.181   8.604  0.8307 -0.7381  0.1395
 8990SOL     OW38605   3.125   0.120   2.671  0.1639 -0.3335  0.1096
 8990SOL    HW138606   3.110   0.069   2.750  3.2921  1.4565  1.8639
 8990SOL    HW238607   3.063   0.188   2.699  1.2822  0.5506  0.4519
 8991SOL     OW38608   2.538   0.176  11.087 -0.1849 -0.0418 -0.3037
 8991SOL    HW138609   2.538   0.197  11.180 -0.3237  1.5903 -0.6758
 8991SOL    HW238610   2.492   0.249  11.045  1.2898  1.7857  1.3345
 8992SOL     OW38611   4.468   2.868   1.360 -0.3209  0.7042  0.1677
 8992SOL    HW138612   4.420   2.945   1.390  0.2746  0.5266  1.5647
 8992SOL    HW238613   4.428   2.808   1.422  1.2535  0.0767  0.5858
 8993SOL     OW38614   3.365   3.854   7.293  0.3148 -0.5036  0.2471
 8993SOL    HW138615   3.366   3.883   7.202  2.6260  2.3392  1.1535
 8993SOL    HW238616   3.307   3.910   7.344  1.7564  0.1086  1.1974
 8994SOL     OW38617   0.786   1.153  14.683  0.5795 -0.2158 -0.3361
 8994SOL    HW138618   0.718   1.155  14.617 -0.3928 -0.8173  0.6352
 8994SOL    HW238619   0.836   1.078  14.649  1.5381  0.4003 -0.2668
 8995SOL     OW38620   3.258   4.347   1.541 -0.7267 -0.0578 -0.0513
 8995SOL    HW138621   3.311   4.413   1.586 -1.8699  0.5607  0.3985
 8995SOL    HW238622   3.299   4.335   1.456 -0.8771 -1.2147  0.0326
 8996SOL     OW38623   3.874   4.128  15.406 -0.4085  0.4905 -0.3564
 8996SOL    HW138624   3.935   4.078  15.460  0.4013 -0.3735 -2.0561
 8996SOL    HW238625   3.905   4.219  15.409 -1.1890  0.7290  0.3806
 8997SOL     OW38626   1.377   0.318   5.018  0.1834  0.4742 -0.0267
 8997SOL    HW138627   1.289   0.306   5.051  0.5256  2.0784  1.4835
 8997SOL    HW238628   1.426   0.310   5.100  1.6722  2.6881 -0.6939
 8998SOL     OW38629   0.957   0.199  12.628 -0.0360  0.1578 -0.3954
 8998SOL    HW138630   0.862   0.199  12.640 -0.0302  1.2266 -0.3247
 8998SOL    HW238631   0.961   0.182  12.533 -1.3038 -0.0887 -0.4151
 8999SOL     OW38632   2.428   0.815  15.448 -0.5079  0.8069 -0.4692
 8999SOL    HW138633   2.439   0.720  15.452  0.3353  0.9891  1.6060
 8999SOL    HW238634   2.489   0.831  15.520  1.6163  1.8273 -2.5076
 9000SOL     OW38635   1.782   0.427   8.601 -0.3471  0.5743 -0.2915
 9000SOL    HW138636   1.771   0.338   8.566  2.5462  0.1243 -0.0868
 9000SOL    HW238637   1.807   0.475   8.522 -1.2391  0.6099 -0.5553
 9001SOL     OW38638   1.525   1.561   3.445 -0.0343 -0.3332 -0.1076
 9001SOL    HW138639   1.572   1.536   3.525 -0.2786  0.3895  0.2630
 9001SOL    HW238640   1.559   1.490   3.390  0.3183  0.3811 -0.8110
 9002SOL     OW38641   4.610   0.379  11.981 -0.0613  0.4552 -0.2157
 9002SOL    HW138642   4.631   0.471  11.998 -0.8239  0.6899 -0.5216
 9002SOL    HW238643   4.671   0.371  11.907 -0.3140 -1.1682 -0.2425
 9003SOL     OW38644   4.391   0.291   4.958 -0.2822  0.0710 -0.3591
 9003SOL    HW138645   4.359   0.306   5.047 -1.2024 -2.5018 -0.2574
 9003SOL    HW238646   4.486   0.285   4.958 -0.1672  1.7511  0.0542
 9004SOL     OW38647   3.414   3.390   4.553 -0.0617  0.3157  0.5293
 9004SOL    HW138648   3.333   3.347   4.580  1.3847 -2.2528  0.8020
 9004SOL    HW238649   3.463   3.316   4.516  1.1360  1.7160 -0.6822
 9005SOL     OW38650   4.655   2.054   6.766 -0.0324 -0.0829  0.0821
 9005SOL    HW138651   4.688   2.048   6.856 -0.0037  1.3244  0.1753
 9005SOL    HW238652   4.566   2.021   6.773 -0.6041  0.9794 -2.0799
 9006SOL     OW38653   3.234   0.567  16.956 -0.1363 -0.2024 -0.2205
 9006SOL    HW138654   3.193   0.533  16.876 -0.4100  1.0914 -0.6231
 9006SOL    HW238655   3.232   0.497  17.021  0.6149  0.4835  0.5338
 9007SOL     OW38656   0.223   2.859   2.468  0.0007 -0.0430 -0.2533
 9007SOL    HW138657   0.286   2.787   2.459  0.9919  0.8034 -0.1198
 9007SOL    HW238658   0.191   2.877   2.379 -0.9402 -2.4795 -0.3860
 9008SOL     OW38659   3.259   3.436   3.373  0.2679 -0.5969 -0.2026
 9008SOL    HW138660   3.237   3.383   3.297 -1.0995 -1.7444  0.9890
 9008SOL    HW238661   3.283   3.365   3.434 -0.5604 -1.3415 -0.7489
 9009SOL     OW38662   2.077   3.802   8.336 -0.2109 -0.1747  0.9076
 9009SOL    HW138663   2.104   3.867   8.272 -3.7917  1.5155  1.1038
 9009SOL    HW238664   1.994   3.782   8.293 -0.1676  1.5584  0.0402
 9010SOL     OW38665   0.142   0.010   8.418 -0.6297 -0.0736  0.0980
 9010SOL    HW138666   0.203   4.733   8.345  0.5055  2.1154  0.7178
 9010SOL    HW238667   0.172   0.089   8.463  0.7872 -1.2279  1.1264
 9011SOL     OW38668   2.449   3.655   7.403 -0.1961  0.0484 -0.1963
 9011SOL    HW138669   2.440   3.737   7.354  0.5850  0.0830 -0.2729
 9011SOL    HW238670   2.371   3.604   7.380 -0.1281  0.1293 -0.6136
 9012SOL     OW38671   3.651   4.526   6.166 -0.2539  0.3632  0.4629
 9012SOL    HW138672   3.670   4.617   6.186 -1.7901  0.8101 -0.1083
 9012SOL    HW238673   3.583   4.521   6.234 -0.0172 -0.6119  0.6294
 9013SOL     OW38674   3.447   3.354   5.082 -0.0097 -0.5958 -0.4527
 9013SOL    HW138675   3.522   3.338   5.025  0.8316  1.9055 -0.0401
 9013SOL    HW238676   3.451   3.270   5.128  0.3700  0.2921  1.1517
 9014SOL     OW38677   1.294   0.852   7.964  0.7382  0.4380 -0.1220
 9014SOL    HW138678   1.238   0.826   7.890 -0.2170 -0.3405  0.8816
 9014SOL    HW238679   1.365   0.788   7.954  0.7534  0.1485  1.9037
 9015SOL     OW38680   1.058   4.405  11.104 -0.1380  0.0315 -0.5156
 9015SOL    HW138681   1.137   4.445  11.065  0.3914  0.0827  0.6010
 9015SOL    HW238682   1.014   4.481  11.143 -0.0862 -0.2450  0.0749
 9016SOL     OW38683   2.053   2.469   7.977 -0.3507 -0.3726 -0.8837
 9016SOL    HW138684   2.031   2.421   8.057 -0.2417  2.2808  0.7243
 9016SOL    HW238685   2.121   2.522   8.017 -1.1438 -1.4854  1.9110
 9017SOL     OW38686   0.134   2.871   2.216 -0.2828 -0.4499  0.0895
 9017SOL    HW138687   0.130   2.777   2.201  1.3454 -1.0590  3.4783
 9017SOL    HW238688   0.214   2.891   2.168 -0.5217 -0.4164 -0.2949
 9018SOL     OW38689   0.960   3.445   2.080  0.0822  0.0125 -0.0728
 9018SOL    HW138690   0.970   3.370   2.139  0.6177  0.5749  0.5412
 9018SOL    HW238691   0.970   3.517   2.142  2.6211 -0.3479 -0.0964
 9019SOL     OW38692   3.425   1.270   1.988  0.2175  0.0600 -0.5243
 9019SOL    HW138693   3.338   1.310   1.992 -0.4096 -1.2656 -0.6168
 9019SOL    HW238694   3.411   1.188   2.035  2.0172  0.2860  0.4183
 9020SOL     OW38695   0.919   4.726   5.225  0.1707  0.1197 -0.4100
 9020SOL    HW138696   0.937   4.635   5.202  1.4585 -0.2351  1.9628
 9020SOL    HW238697   0.984   0.008   5.294 -1.5394  1.1259  0.9556
 9021SOL     OW38698   2.612   4.454  12.038  0.1528 -0.6577 -0.2802
 9021SOL    HW138699   2.591   4.397  12.112 -1.6889  0.5974  0.1549
 9021SOL    HW238700   2.679   4.390  12.012  2.7446  1.8937  0.1176
 9022SOL     OW38701   2.609   2.160   0.641 -0.0428  0.2255 -0.2195
 9022SOL    HW138702   2.689   2.107   0.640  1.5777  2.6536  0.2072
 9022SOL    HW238703   2.554   2.121   0.709 -0.2526 -0.9069 -1.0311
 9023SOL     OW38704   4.513   0.576  13.155  0.1059  0.1554 -0.5199
 9023SOL    HW138705   4.457   0.499  13.158  0.3653  0.0243  1.2200
 9023SOL    HW238706   4.589   0.537  13.112  0.6973 -0.5387  1.1474
 9024SOL     OW38707   2.238   1.081  17.542  0.2330  0.1665  0.4702
 9024SOL    HW138708   2.228   1.176  17.552  4.6633  0.4619  2.1131
 9024SOL    HW238709   2.150   1.057  17.513  0.2745 -3.0836  3.0624
 9025SOL     OW38710   4.607   2.430   4.194 -0.3201 -0.7177  0.1423
 9025SOL    HW138711   4.591   2.426   4.288  0.4801 -1.0278  0.2718
 9025SOL    HW238712   4.629   2.523   4.188 -0.3563 -0.8017 -1.2499
 9026SOL     OW38713   4.232   1.502   8.960 -0.5933 -0.0433 -0.6966
 9026SOL    HW138714   4.169   1.435   8.988 -1.2079  1.1118  0.6873
 9026SOL    HW238715   4.299   1.495   9.028 -0.8236 -1.8946 -0.6610
 9027SOL     OW38716   3.267   3.084  14.177 -0.0936 -0.2246  0.2297
 9027SOL    HW138717   3.268   3.168  14.223  4.1946 -0.2103  0.0927
 9027SOL    HW238718   3.175   3.071  14.155  0.3946  0.7588 -2.3517
 9028SOL     OW38719   2.431   0.169  11.758  0.1420  0.4744  0.0838
 9028SOL    HW138720   2.399   0.148  11.846 -0.5116 -1.2674 -0.5838
 9028SOL    HW238721   2.365   0.234  11.734  0.2197  0.5324  0.0280
 9029SOL     OW38722   1.492   1.745   3.228  0.1313  0.1698 -0.4857
 9029SOL    HW138723   1.503   1.699   3.311  0.4676 -0.1186 -0.6904
 9029SOL    HW238724   1.482   1.669   3.172 -2.1479  0.7733 -0.9102
 9030SOL     OW38725   2.477   0.365   5.296 -0.3340  0.0469 -0.8814
 9030SOL    HW138726   2.522   0.419   5.362 -1.0047  2.0508 -2.0672
 9030SOL    HW238727   2.554   0.311   5.279  0.0957  0.1020  0.8775
 9031SOL     OW38728   1.878   0.593   6.444 -0.2557 -0.2061 -0.2142
 9031SOL    HW138729   1.813   0.548   6.391  0.6341  1.1426 -2.4562
 9031SOL    HW238730   1.948   0.543   6.401  0.8900  0.3128  1.0632
 9032SOL     OW38731   2.208   4.662   8.883  0.2409  0.7894 -0.2997
 9032SOL    HW138732   2.207   4.629   8.973  1.0962 -1.4528 -1.1375
 9032SOL    HW238733   2.145   4.734   8.879 -0.5984  0.0868  0.1402
 9033SOL     OW38734   0.704   0.229   2.103  0.5468  0.3565  0.3148
 9033SOL    HW138735   0.797   0.207   2.091  0.2350 -2.8472  3.7919
 9033SOL    HW238736   0.668   0.145   2.074 -0.1354  0.4228  0.9708
 9034SOL     OW38737   0.287   2.858   8.414  0.7128 -0.1046  0.1381
 9034SOL    HW138738   0.215   2.800   8.438  0.4297 -0.2714 -1.1053
 9034SOL    HW238739   0.341   2.852   8.493  3.5217 -3.0857 -1.9497
 9035SOL     OW38740   0.989   4.452   5.144 -0.1408  0.4630 -0.0110
 9035SOL    HW138741   0.922   4.385   5.132  0.1113  0.3714 -0.9239
 9035SOL    HW238742   1.051   4.425   5.075  3.6449  1.1265  3.1328
 9036SOL     OW38743   2.406   3.382   8.520  0.2905 -0.7096  0.2264
 9036SOL    HW138744   2.401   3.336   8.604  1.6606 -1.2260  0.0443
 9036SOL    HW238745   2.418   3.474   8.542 -0.9695 -1.3463  3.6831
 9037SOL     OW38746   1.034   3.683   3.734 -0.0858 -0.0099  0.2806
 9037SOL    HW138747   1.061   3.598   3.769 -0.7196 -0.8017 -1.2112
 9037SOL    HW238748   1.120   3.716   3.707  0.4008  0.1981  2.0233
 9038SOL     OW38749   4.133   1.383  12.787 -0.6563  0.0457 -0.4389
 9038SOL    HW138750   4.185   1.374  12.867 -0.9439  1.7198 -0.0680
 9038SOL    HW238751   4.118   1.477  12.785  0.2546  0.2023  0.2205
 9039SOL     OW38752   4.685   1.457  16.530  0.1231  0.0555 -0.1833
 9039SOL    HW138753   4.593   1.461  16.502 -0.0027  0.8194  0.3554
 9039SOL    HW238754   4.688   1.369  16.568  1.0080 -0.2023 -0.8526
 9040SOL     OW38755   3.610   3.008   7.518 -0.5352  0.1816 -0.1992
 9040SOL    HW138756   3.568   3.088   7.549  0.1103  0.1390  0.8006
 9040SOL    HW238757   3.604   2.946   7.590 -2.4843  0.2638 -0.3056
 9041SOL     OW38758   3.742   2.419   8.395  0.0541  0.0279  0.2355
 9041SOL    HW138759   3.769   2.394   8.307  0.6258 -3.0376  1.2653
 9041SOL    HW238760   3.662   2.367   8.400  0.1996 -0.2092  0.1022
 9042SOL     OW38761   4.012   3.410   4.864 -0.6177  0.1298 -0.0629
 9042SOL    HW138762   4.091   3.414   4.917 -0.1828 -2.3539 -0.5197
 9042SOL    HW238763   3.981   3.501   4.860  1.7895  0.9293 -0.1106
 9043SOL     OW38764   2.431   2.672   2.025  0.0478  0.7269  0.2008
 9043SOL    HW138765   2.499   2.616   1.988 -1.8457 -0.3142 -1.7128
 9043SOL    HW238766   2.369   2.659   1.953  1.1597 -1.1863 -0.4053
 9044SOL     OW38767   4.283   4.241   2.240 -0.2344 -0.2457 -0.8164
 9044SOL    HW138768   4.313   4.175   2.302  1.1145  2.2370  1.1590
 9044SOL    HW238769   4.203   4.197   2.211  0.4284 -2.3728  0.6101
 9045SOL     OW38770   0.382   4.011   8.364 -1.0998 -0.2976 -0.6335
 9045SOL    HW138771   0.456   4.052   8.319 -0.3182  0.4231  1.2946
 9045SOL    HW238772   0.347   4.085   8.414 -0.1964 -1.1165  1.1760
 9046SOL     OW38773   2.837   1.455  15.932  0.0530 -0.3172  0.2614
 9046SOL    HW138774   2.785   1.435  15.854 -1.7442 -1.2035  1.6681
 9046SOL    HW238775   2.816   1.547  15.942 -1.2409 -0.6955  1.0165
 9047SOL     OW38776   3.386   4.265  12.703  0.2369  0.0763  0.1850
 9047SOL    HW138777   3.387   4.221  12.788  1.0787  1.2719  0.8061
 9047SOL    HW238778   3.472   4.247  12.665  0.7240  0.8050  0.9461
 9048SOL     OW38779   4.082   1.947   4.751  0.4041 -0.1283 -0.6548
 9048SOL    HW138780   4.105   1.957   4.843 -1.4788 -2.6141  0.0761
 9048SOL    HW238781   3.999   1.899   4.758 -0.7003  1.5045 -2.2761
 9049SOL     OW38782   2.853   1.542   9.277 -0.2601 -0.5259  0.7624
 9049SOL    HW138783   2.883   1.571   9.363 -1.4252  0.6031  0.7734
 9049SOL    HW238784   2.862   1.621   9.223  1.5431 -0.9180  0.4796
 9050SOL     OW38785   1.337   2.136  13.297  0.1254  0.1861 -0.2255
 9050SOL    HW138786   1.318   2.096  13.212  0.2760 -0.4907  0.0530
 9050SOL    HW238787   1.262   2.110  13.351 -1.1422 -0.6911 -2.4316
 9051SOL     OW38788   4.609   2.975   5.081  0.0564 -0.4635 -0.4901
 9051SOL    HW138789   4.609   2.881   5.063  1.1924 -0.1805 -1.9648
 9051SOL    HW238790   4.580   2.999   4.993  1.9353  1.8106 -0.4655
 9052SOL     OW38791   3.018   0.989   5.737  0.1440 -0.6125  0.3129
 9052SOL    HW138792   3.054   1.059   5.792 -0.0404  0.5908 -1.0995
 9052SOL    HW238793   2.973   1.044   5.672  0.1388 -1.8723 -0.7382
 9053SOL     OW38794   0.263   0.313  16.126 -0.4426  0.2971 -0.6252
 9053SOL    HW138795   0.350   0.273  16.125 -1.3838 -1.7208 -1.0058
 9053SOL    HW238796   0.237   0.289  16.037 -0.5452  0.7182 -0.7078
 9054SOL     OW38797   3.924   3.559   2.556 -0.6099  0.3339 -0.3542
 9054SOL    HW138798   3.997   3.563   2.619 -1.2754  1.4386  0.3461
 9054SOL    HW238799   3.850   3.531   2.609  0.0815  1.8149  1.3872
 9055SOL     OW38800   2.101   2.390  17.121  0.2073 -0.5603  0.3047
 9055SOL    HW138801   2.092   2.407  17.215  2.4754  1.1074  0.2095
 9055SOL    HW238802   2.194   2.396  17.103  0.4779 -0.3720  1.7584
 9056SOL     OW38803   2.490   2.768   4.876 -0.3203 -0.1748 -0.0463
 9056SOL    HW138804   2.563   2.774   4.939 -1.2783  0.2901  1.0150
 9056SOL    HW238805   2.435   2.709   4.928 -0.2364  0.4953  0.8114
 9057SOL     OW38806   1.222   4.689   4.625 -0.0960 -0.0730  0.1531
 9057SOL    HW138807   1.244   0.009   4.550 -0.9697 -1.0818 -0.8387
 9057SOL    HW238808   1.131   4.668   4.602 -0.3780  0.7827  0.5011
 9058SOL     OW38809   1.342   1.363   2.758  0.2837 -0.6036  0.1359
 9058SOL    HW138810   1.303   1.277   2.773 -0.7718 -0.0874  0.3565
 9058SOL    HW238811   1.431   1.343   2.728 -0.2181  0.8098 -2.3124
 9059SOL     OW38812   4.122   1.426   7.744 -0.0763  0.0710 -0.3711
 9059SOL    HW138813   4.136   1.345   7.695  2.9330 -0.6472  1.7330
 9059SOL    HW238814   4.031   1.446   7.722 -0.1641  0.5106  0.4134
 9060SOL     OW38815   0.973   3.344   5.744 -0.0565  1.0434 -0.3700
 9060SOL    HW138816   1.006   3.257   5.720  1.4497  1.2765  0.8541
 9060SOL    HW238817   0.999   3.334   5.835 -1.0767 -2.6403 -0.4671
 9061SOL     OW38818   4.314   2.934   4.094  0.6674 -0.6319  0.0638
 9061SOL    HW138819   4.309   3.030   4.092  0.9666 -0.6172  0.0484
 9061SOL    HW238820   4.318   2.915   4.000 -0.0269 -0.4088 -0.0097
 9062SOL     OW38821   1.254   0.839   5.556 -0.8600  0.1085  0.2132
 9062SOL    HW138822   1.314   0.859   5.628 -2.6747 -2.0415  2.3287
 9062SOL    HW238823   1.175   0.821   5.608 -1.2339  2.1836  0.3670
 9063SOL     OW38824   3.017   2.443   6.657 -0.9229 -0.2059  0.1128
 9063SOL    HW138825   2.942   2.489   6.620 -0.4406  0.9851  0.6025
 9063SOL    HW238826   3.054   2.384   6.591 -1.1365  0.1573 -0.3344
 9064SOL     OW38827   0.188   0.796   6.253  0.6877  0.3746  0.7787
 9064SOL    HW138828   0.193   0.892   6.255 -1.0028  0.4522  0.8112
 9064SOL    HW238829   0.125   0.782   6.323  1.2462  1.6365  1.5530
 9065SOL     OW38830   1.905   1.684  17.053 -0.0560  0.2868  0.0482
 9065SOL    HW138831   1.896   1.589  17.063 -0.7264  0.4471  0.9819
 9065SOL    HW238832   1.875   1.700  17.143  0.2961  0.9431  0.0529
 9066SOL     OW38833   1.426   3.955   5.175  0.3020  0.1084  0.1726
 9066SOL    HW138834   1.511   3.952   5.219  0.6499 -0.5008 -0.5401
 9066SOL    HW238835   1.403   4.046   5.194 -0.2823  0.0247 -0.1263
 9067SOL     OW38836   3.105   1.686   1.589  0.1343  0.4294 -0.4628
 9067SOL    HW138837   3.110   1.657   1.498 -1.1508  0.2831 -0.4896
 9067SOL    HW238838   3.164   1.627   1.634 -0.8385  0.9129  1.4560
 9068SOL     OW38839   4.315   4.700  16.004  0.2997 -0.2646  0.1328
 9068SOL    HW138840   4.240   0.014  16.038 -0.2416 -0.0728 -1.3515
 9068SOL    HW238841   4.319   4.728  15.913 -0.3122 -1.1878 -0.1784
 9069SOL     OW38842   2.221   3.342   0.443 -0.1727  0.2388  0.1287
 9069SOL    HW138843   2.264   3.263   0.477 -0.5899 -0.6797 -1.4993
 9069SOL    HW238844   2.299   3.394   0.424 -0.6389  1.1352  0.6968
 9070SOL     OW38845   4.673   1.697   5.772  0.4113 -0.4980  0.2460
 9070SOL    HW138846   4.732   1.634   5.814  0.5602 -0.8190 -0.4466
 9070SOL    HW238847   4.599   1.680   5.831 -1.4619  0.4010 -1.8744
 9071SOL     OW38848   4.307   2.886  12.746  0.4693 -0.0599 -0.2335
 9071SOL    HW138849   4.239   2.924  12.802  1.5395  1.9372 -0.2869
 9071SOL    HW238850   4.383   2.876  12.803 -0.4330 -0.0831  0.9683
 9072SOL     OW38851   0.408   2.364   8.832  0.5080  0.0779  0.5114
 9072SOL    HW138852   0.332   2.414   8.861  0.0116  0.0673 -0.7592
 9072SOL    HW238853   0.373   2.329   8.750 -1.0600  0.6871  0.9355
 9073SOL     OW38854   1.124   2.864   3.984 -0.1692 -0.2009 -0.2201
 9073SOL    HW138855   1.122   2.960   3.990 -1.1885 -0.1722 -1.0861
 9073SOL    HW238856   1.076   2.835   4.061  1.8500 -0.8595  0.8017
 9074SOL     OW38857   3.826   1.377   4.811 -0.1083 -0.3746  0.4507
 9074SOL    HW138858   3.732   1.371   4.794 -0.1331 -1.3262  0.9419
 9074SOL    HW238859   3.856   1.302   4.760 -0.1271 -0.3603  0.4191
 9075SOL     OW38860   3.080   4.202  12.948 -1.0154 -0.0713 -0.6594
 9075SOL    HW138861   3.058   4.215  13.040 -0.6781  0.7530 -0.6892
 9075SOL    HW238862   3.021   4.264  12.904 -0.4550 -0.1753 -1.5708
 9076SOL     OW38863   3.127   3.528  14.537  0.1085 -0.1207 -0.1492
 9076SOL    HW138864   3.189   3.556  14.604 -0.9462  3.2931 -0.6249
 9076SOL    HW238865   3.052   3.539  14.597 -1.0002  0.7186 -1.6968
 9077SOL     OW38866   3.856   3.433  11.209 -0.1174  0.1855  0.3316
 9077SOL    HW138867   3.927   3.490  11.180  0.3347 -0.6223 -0.1790
 9077SOL    HW238868   3.888   3.344  11.190  0.2607  0.3221  0.3409
 9078SOL     OW38869   3.849   0.186  12.675 -0.4823  0.0925  0.2694
 9078SOL    HW138870   3.776   0.240  12.705  0.8586  3.0559 -1.7484
 9078SOL    HW238871   3.887   0.153  12.756 -2.3685 -0.4530  0.9304
 9079SOL     OW38872   1.246   1.046   4.648 -0.1563  0.4180 -0.5923
 9079SOL    HW138873   1.170   1.093   4.616 -0.9766 -1.2776 -1.1232
 9079SOL    HW238874   1.213   0.960   4.673 -0.4204  0.7605  0.2436
 9080SOL     OW38875   1.226   0.922   5.943  0.6516  0.0538 -0.0070
 9080SOL    HW138876   1.281   0.960   5.875  0.7892  0.2818  0.2343
 9080SOL    HW238877   1.288   0.857   5.977  0.8028  1.1215  1.7727
 9081SOL     OW38878   0.617   3.722  12.902  0.1733  0.5686  0.4225
 9081SOL    HW138879   0.549   3.671  12.858  3.7414 -1.4521 -2.8011
 9081SOL    HW238880   0.611   3.809  12.864 -1.4766  0.8785  1.4059
 9082SOL     OW38881   0.995   3.868  11.930 -0.1128 -0.4043 -0.0440
 9082SOL    HW138882   0.922   3.897  11.985 -0.8884 -1.4803 -0.5075
 9082SOL    HW238883   0.973   3.910  11.846 -0.3170  0.1668  0.2971
 9083SOL     OW38884   2.603   3.516  17.134 -0.3112 -0.2757 -0.2171
 9083SOL    HW138885   2.587   3.426  17.104 -1.9939  0.0302 -0.2305
 9083SOL    HW238886   2.636   3.502  17.223  2.0154  0.0158 -1.0224
 9084SOL     OW38887   3.502   4.519   6.387 -0.0418 -0.2851  1.0272
 9084SOL    HW138888   3.422   4.570   6.396 -0.7340 -1.1047 -0.6006
 9084SOL    HW238889   3.487   4.437   6.435  3.0739 -0.7877  1.1635
 9085SOL     OW38890   1.902   3.851   5.811  0.1966 -0.0692 -0.0968
 9085SOL    HW138891   1.923   3.759   5.823 -0.9783  0.2640  4.3896
 9085SOL    HW238892   1.937   3.870   5.724  1.5036 -1.1438  0.2090
 9086SOL     OW38893   0.351   3.177   5.196 -0.4004 -0.1306  0.6809
 9086SOL    HW138894   0.432   3.212   5.158  0.2672 -1.7460  0.6261
 9086SOL    HW238895   0.293   3.164   5.121 -1.4424 -0.3564  1.5267
 9087SOL     OW38896   1.979   0.811  11.212 -0.3006 -0.4532  0.5906
 9087SOL    HW138897   2.064   0.768  11.208  0.3364  0.7282  1.2194
 9087SOL    HW238898   1.934   0.772  11.138 -0.2767  0.9552 -0.1601
 9088SOL     OW38899   2.940   4.668   6.216  0.1564  0.4242 -0.2552
 9088SOL    HW138900   2.878   0.005   6.201  0.5195  0.9194  0.5607
 9088SOL    HW238901   2.905   4.644   6.302 -0.6122 -0.7930 -0.9239
 9089SOL     OW38902   0.084   1.576   3.179  0.2147  0.3482  0.0384
 9089SOL    HW138903   0.050   1.500   3.226  1.8654  1.0747  2.4054
 9089SOL    HW238904   0.178   1.582   3.193  0.1737 -0.0901  0.5128
 9090SOL     OW38905   4.279   3.034   4.486 -0.2017 -0.0146  0.7801
 9090SOL    HW138906   4.215   3.064   4.421 -1.0775  2.0670  2.6049
 9090SOL    HW238907   4.272   2.940   4.471 -1.1600  0.2576 -0.5039
 9091SOL     OW38908   3.089   3.665   5.330 -0.1135  0.3118 -0.1221
 9091SOL    HW138909   3.075   3.653   5.424  1.7572  2.0502  0.3538
 9091SOL    HW238910   3.166   3.611   5.315  0.3476  1.6387 -2.3878
 9092SOL     OW38911   0.876   1.393   6.769  0.1295  0.2548  0.1441
 9092SOL    HW138912   0.930   1.451   6.823  1.5512 -0.8213 -0.1155
 9092SOL    HW238913   0.850   1.439   6.689 -0.3493  0.7477  0.5826
 9093SOL     OW38914   1.322   1.363   2.030  0.6017 -0.0016 -0.2297
 9093SOL    HW138915   1.350   1.339   2.118 -1.6556 -1.2759  0.1137
 9093SOL    HW238916   1.229   1.385   2.037  0.7580 -0.1858  2.4849
 9094SOL     OW38917   0.981   0.481  12.171 -0.3555 -0.5983  0.5410
 9094SOL    HW138918   1.053   0.432  12.211  0.7698  2.2064  2.0024
 9094SOL    HW238919   0.986   0.450  12.081 -3.2065  1.7516 -0.4164
 9095SOL     OW38920   1.781   0.858   8.674  0.0545  0.5382  0.3842
 9095SOL    HW138921   1.748   0.948   8.671 -0.7870  0.2146 -0.2777
 9095SOL    HW238922   1.873   0.879   8.657  0.5241 -2.4584 -0.8566
 9096SOL     OW38923   1.922   0.155   6.412 -0.1568 -0.8062  0.0505
 9096SOL    HW138924   1.974   0.085   6.372  0.2906 -1.6500  2.1153
 9096SOL    HW238925   1.885   0.098   6.479  0.9873 -0.0616  1.3150
 9097SOL     OW38926   4.482   0.409  13.506 -0.5094 -0.0354 -0.2704
 9097SOL    HW138927   4.443   0.432  13.590 -2.0425 -1.7018 -0.5494
 9097SOL    HW238928   4.575   0.404  13.528 -0.5389 -1.7188 -0.5423
 9098SOL     OW38929   2.918   2.513   1.631 -0.1643 -0.3712 -0.1791
 9098SOL    HW138930   2.853   2.569   1.588 -0.0972  0.1652  0.4166
 9098SOL    HW238931   2.869   2.439   1.668  2.1675 -1.0563  1.5172
 9099SOL     OW38932   1.334   1.540   7.963  0.2604 -0.4342 -0.1578
 9099SOL    HW138933   1.326   1.621   8.014 -1.0432  1.1502 -2.9170
 9099SOL    HW238934   1.298   1.475   8.024 -1.3124  0.0528 -0.5610
 9100SOL     OW38935   4.618   0.149   4.772  0.0385 -0.2416 -0.5565
 9100SOL    HW138936   4.561   0.081   4.808 -0.5474  0.9701  0.7831
 9100SOL    HW238937   4.652   0.187   4.853 -0.2501 -0.7930 -0.1738
 9101SOL     OW38938   0.633   2.962  11.974 -0.3673 -0.6109 -0.4240
 9101SOL    HW138939   0.621   3.019  11.898 -2.1334  0.8859  0.9777
 9101SOL    HW238940   0.667   2.887  11.925 -0.7650 -0.4360 -0.9592
 9102SOL     OW38941   2.982   2.628  13.588  0.1847 -0.0920 -0.1257
 9102SOL    HW138942   2.956   2.711  13.547  1.2241 -0.1759 -0.9682
 9102SOL    HW238943   2.920   2.620  13.660 -1.0110 -0.5409 -1.1952
 9103SOL     OW38944   1.557   4.077   3.754  0.0391 -0.0987 -0.5598
 9103SOL    HW138945   1.584   4.075   3.662 -0.0423 -0.4365 -0.5769
 9103SOL    HW238946   1.647   4.072   3.787 -0.5309 -0.2017  0.9589
 9104SOL     OW38947   2.486   2.907  16.637  0.0139 -0.5359  0.3587
 9104SOL    HW138948   2.467   2.870  16.551 -0.3577 -2.1851  1.1582
 9104SOL    HW238949   2.408   2.962  16.647  0.5923 -0.0093  2.0791
 9105SOL     OW38950   3.578   0.604  12.073  0.0985 -0.2475  0.2452
 9105SOL    HW138951   3.672   0.613  12.063 -0.2544  2.2325 -0.8095
 9105SOL    HW238952   3.574   0.599  12.169  0.0291  0.6257  0.2863
 9106SOL     OW38953   4.038   2.248   3.902 -0.2494 -0.0778  0.0300
 9106SOL    HW138954   4.059   2.256   3.995 -1.2737 -3.4438  0.5618
 9106SOL    HW238955   4.125   2.273   3.872  0.6675 -2.7067  0.4409
 9107SOL     OW38956   2.813   3.260   2.643  0.3020  0.0537  0.2285
 9107SOL    HW138957   2.781   3.277   2.555 -0.5716  0.4738  0.6254
 9107SOL    HW238958   2.740   3.255   2.705  0.3722  0.2498  0.3250
 9108SOL     OW38959   0.725   1.075   8.646 -0.5341  0.3516  0.1586
 9108SOL    HW138960   0.742   1.079   8.740 -1.4108  0.8525  0.2971
 9108SOL    HW238961   0.763   1.152   8.603 -1.3543  0.5619 -0.1931
 9109SOL     OW38962   3.821   0.766   2.461 -0.1028 -0.4877 -0.2151
 9109SOL    HW138963   3.902   0.720   2.438 -0.1667 -1.6090  1.8472
 9109SOL    HW238964   3.814   0.826   2.387  1.8267  0.0144  0.0068
 9110SOL     OW38965   2.026   0.172   3.022 -0.2766  0.7153  0.4618
 9110SOL    HW138966   1.947   0.208   2.981 -1.6962  0.0798  2.6369
 9110SOL    HW238967   2.009   0.209   3.109 -1.0029  1.7699 -0.1169
 9111SOL     OW38968   0.270   4.538   9.272 -0.1354 -0.1761  0.0899
 9111SOL    HW138969   0.209   4.556   9.200 -0.7105 -1.9713  0.1135
 9111SOL    HW238970   0.280   4.443   9.274  0.2712 -0.1393 -0.4300
 9112SOL     OW38971   3.151   4.315  12.621 -0.5798  0.7153 -0.0520
 9112SOL    HW138972   3.242   4.309  12.648 -0.9521  0.3207  1.1446
 9112SOL    HW238973   3.126   4.394  12.671  0.3613  0.4138  0.9014
 9113SOL     OW38974   2.820   3.503   9.669  0.4072  0.4737 -0.0376
 9113SOL    HW138975   2.806   3.421   9.716  0.2996  0.6934  0.3123
 9113SOL    HW238976   2.850   3.554   9.744 -0.2798 -1.4907  1.5984
 9114SOL     OW38977   1.077   3.095   5.455 -0.2660  0.0125 -0.2745
 9114SOL    HW138978   1.120   3.133   5.378 -0.0387  0.0525 -0.1260
 9114SOL    HW238979   1.156   3.059   5.496  0.6843  0.6316 -1.5611
 9115SOL     OW38980   3.121   3.771  14.932 -0.1929  0.1412 -0.5239
 9115SOL    HW138981   3.110   3.693  14.985  0.0448  0.3922 -0.1078
 9115SOL    HW238982   3.157   3.831  14.997 -0.6233  0.0652 -0.2174
 9116SOL     OW38983   2.427   0.193   8.260  0.3570 -0.2346  0.3772
 9116SOL    HW138984   2.398   0.127   8.323  2.2299 -1.8975 -0.5304
 9116SOL    HW238985   2.429   0.268   8.321  1.5584 -1.0779  1.3726
 9117SOL     OW38986   4.661   3.485   7.506 -0.2280  0.5004  0.7174
 9117SOL    HW138987   4.566   3.495   7.501  0.1571  3.3528 -1.1261
 9117SOL    HW238988   4.682   3.577   7.523 -0.4154  0.5488  0.6851
 9118SOL     OW38989   3.156   4.421   4.786 -0.1035  0.0494 -0.1926
 9118SOL    HW138990   3.204   4.424   4.703  0.2135 -1.3097 -0.0521
 9118SOL    HW238991   3.187   4.339   4.823  1.0235  0.9321  0.7948
 9119SOL     OW38992   4.669   3.923   4.209  0.2732 -0.5834  0.4617
 9119SOL    HW138993   4.634   3.997   4.258 -0.3191  0.0217 -0.8807
 9119SOL    HW238994   0.029   3.928   4.222  0.7024 -1.0005 -2.3639
 9120SOL     OW38995   1.285   3.131   7.379 -0.2371  0.6203  0.4468
 9120SOL    HW138996   1.229   3.156   7.453 -2.3026 -0.1105 -0.8412
 9120SOL    HW238997   1.280   3.216   7.336 -1.6612  0.9524  1.2473
 9121SOL     OW38998   4.027   0.024   6.963  0.8143 -0.5375  0.0256
 9121SOL    HW138999   3.997   0.015   7.053 -0.8510 -2.6774 -0.7226
 9121SOL    HW239000   4.098   4.696   6.949 -0.0969 -1.6852  0.5235
 9122SOL     OW39001   2.981   3.455   8.222  0.8045  0.7880 -0.4283
 9122SOL    HW139002   2.926   3.533   8.223  0.0960  0.2932 -0.8136
 9122SOL    HW239003   3.051   3.482   8.281  0.4208  0.4031  0.2033
 9123SOL     OW39004   4.036   3.572   8.477  0.2060  0.1638  0.2473
 9123SOL    HW139005   4.031   3.581   8.382  1.8099 -0.1592  0.1304
 9123SOL    HW239006   3.974   3.504   8.502 -1.0549  1.1825 -0.1161
 9124SOL     OW39007   4.406   0.878  17.211 -0.1555  0.7732 -0.5007
 9124SOL    HW139008   4.370   0.959  17.175  0.3544  0.4794 -1.6671
 9124SOL    HW239009   4.467   0.908  17.278 -0.3090  1.0475 -0.4840
 9125SOL     OW39010   1.773   4.184   7.068 -0.2739  0.0646  1.0027
 9125SOL    HW139011   1.680   4.187   7.091 -0.7200  0.9431 -0.9772
 9125SOL    HW239012   1.797   4.276   7.070  0.9107 -0.2443  0.8787
 9126SOL     OW39013   4.294   1.380   5.089  0.1926 -0.4318  0.0908
 9126SOL    HW139014   4.220   1.388   5.029  0.1161 -1.2190  0.0686
 9126SOL    HW239015   4.365   1.383   5.025  0.8232 -0.8828  0.7670
 9127SOL     OW39016   0.427   2.481   5.216  0.9185  0.1706 -0.5964
 9127SOL    HW139017   0.359   2.549   5.215  1.2421  0.5082 -0.2893
 9127SOL    HW239018   0.504   2.532   5.243  1.2135 -0.2882 -0.5718
 9128SOL     OW39019   0.760   1.220  15.910  0.2146 -0.2978  0.1194
 9128SOL    HW139020   0.745   1.128  15.933 -0.7226 -0.4029 -0.9012
 9128SOL    HW239021   0.725   1.234  15.823 -1.6736  1.4814  1.1633
 9129SOL     OW39022   1.419   1.818  11.526  0.0958  0.1965  0.1231
 9129SOL    HW139023   1.398   1.789  11.615  0.0170  0.6311  0.2476
 9129SOL    HW239024   1.327   1.820  11.498  0.6905  0.1723 -1.8159
 9130SOL     OW39025   3.615   4.029   7.833  0.3210  0.1289  0.3841
 9130SOL    HW139026   3.620   3.963   7.903  0.1872  0.2664  0.5218
 9130SOL    HW239027   3.553   4.090   7.870  0.3271  2.0709 -2.7625
 9131SOL     OW39028   4.244   3.737   5.812  0.0293 -0.0566 -0.5408
 9131SOL    HW139029   4.160   3.763   5.850 -0.1446  0.4962 -1.2918
 9131SOL    HW239030   4.310   3.792   5.854 -0.5100 -0.0534  0.3112
 9132SOL     OW39031   2.827   1.148  12.898  0.1804 -0.3619  0.4621
 9132SOL    HW139032   2.889   1.169  12.828 -0.9225  1.5473  0.0499
 9132SOL    HW239033   2.750   1.158  12.842 -0.2840  1.5326  1.4517
 9133SOL     OW39034   4.620   4.215  12.530 -0.1283 -0.3920 -0.0070
 9133SOL    HW139035   4.539   4.187  12.489 -0.3576  1.1407 -0.5994
 9133SOL    HW239036   4.593   4.252  12.613  0.1702  0.1300 -0.1428
 9134SOL     OW39037   0.798   0.971   5.858  0.1222 -0.0629 -0.1871
 9134SOL    HW139038   0.851   1.031   5.807 -2.0800 -0.6986 -3.2223
 9134SOL    HW239039   0.737   1.033   5.898 -0.4224 -0.4736 -0.3736
 9135SOL     OW39040   3.716   4.323   1.533 -0.2203  0.4420  0.7293
 9135SOL    HW139041   3.747   4.234   1.516  1.0860  0.6758  1.7973
 9135SOL    HW239042   3.688   4.330   1.625  4.1837 -0.6303  2.1836
 9136SOL     OW39043   4.128   1.275   5.650 -0.1976 -0.2146 -0.2253
 9136SOL    HW139044   4.078   1.324   5.585 -1.4589 -0.1648  0.7826
 9136SOL    HW239045   4.121   1.335   5.725  0.5737 -0.0797 -0.2642
 9137SOL     OW39046   4.101   3.272   3.890  0.3663 -0.2501 -0.4298
 9137SOL    HW139047   4.046   3.212   3.940 -1.2675  1.5424 -0.0834
 9137SOL    HW239048   4.180   3.264   3.943  1.3856  1.9531 -1.6123
 9138SOL     OW39049   3.628   4.601   3.469 -0.3995  0.2694  0.4854
 9138SOL    HW139050   3.650   4.549   3.391  1.5561  1.6515  0.1015
 9138SOL    HW239051   3.650   4.687   3.432  0.8708 -0.3538 -0.2397
 9139SOL     OW39052   3.093   3.276   8.615 -0.0854 -0.7432  0.1951
 9139SOL    HW139053   3.070   3.267   8.707  1.7534 -0.6274  0.6686
 9139SOL    HW239054   3.016   3.308   8.568  1.0370 -0.3510 -1.3764
 9140SOL     OW39055   0.790   1.976   1.888 -0.5224  0.8036  0.1149
 9140SOL    HW139056   0.725   1.907   1.902  2.6784 -2.4415 -1.1173
 9140SOL    HW239057   0.861   1.927   1.929 -0.3964  2.5402  2.0169
 9141SOL     OW39058   4.680   1.030   8.094  0.0781  0.8565 -0.3809
 9141SOL    HW139059   4.619   1.096   8.061 -1.1959  1.0196  2.3328
 9141SOL    HW239060   4.730   1.083   8.156 -1.7321  2.6731 -0.4720
 9142SOL     OW39061   3.901   4.207   9.332  0.0338 -0.0291  0.2945
 9142SOL    HW139062   3.955   4.195   9.254 -1.6801 -0.6306 -0.7899
 9142SOL    HW239063   3.842   4.132   9.329  0.4873 -0.4616  2.4537
 9143SOL     OW39064   3.798   4.432   3.241  0.2003  0.3092 -0.0820
 9143SOL    HW139065   3.872   4.486   3.268  0.1540  0.3481 -0.0339
 9143SOL    HW239066   3.830   4.385   3.164 -0.4890  0.6460 -0.5750
 9144SOL     OW39067   0.764   2.670   4.760  0.5842  0.1357 -0.3363
 9144SOL    HW139068   0.696   2.682   4.693 -0.1482 -0.4995  0.3013
 9144SOL    HW239069   0.836   2.661   4.697  0.5301  1.1689 -0.5478
 9145SOL     OW39070   2.547   3.675  14.666  0.3968 -0.0180  0.2423
 9145SOL    HW139071   2.543   3.702  14.574  1.5338 -0.8146 -0.0486
 9145SOL    HW239072   2.497   3.747  14.704 -0.0087  0.2237 -0.7497
 9146SOL     OW39073   3.099   1.900   2.546  0.3578  0.0425 -0.0695
 9146SOL    HW139074   3.186   1.876   2.578  0.7251  0.2874 -0.9053
 9146SOL    HW239075   3.088   1.990   2.575 -0.8278 -0.5555  1.3561
 9147SOL     OW39076   1.491   4.723   6.322 -0.4582 -0.0614  0.0323
 9147SOL    HW139077   1.545   4.688   6.393  2.2281 -3.0216 -3.4462
 9147SOL    HW239078   1.549   0.057   6.289  1.1579 -1.6590 -0.4605
 9148SOL     OW39079   0.333   3.827  16.575 -0.1654  0.2064 -0.1090
 9148SOL    HW139080   0.382   3.809  16.495  0.0423  2.3113 -0.4661
 9148SOL    HW239081   0.390   3.889  16.622 -0.5172  0.2701  0.2378
 9149SOL     OW39082   0.693   0.086   5.353 -0.8903  1.0949  0.0131
 9149SOL    HW139083   0.754   0.067   5.282  1.3199  0.2329  2.1229
 9149SOL    HW239084   0.717   0.012   5.409 -0.8133  1.7448  0.8369
 9150SOL     OW39085   1.040   0.529   5.199 -0.4401 -0.3815 -0.8418
 9150SOL    HW139086   0.962   0.508   5.251 -0.4180  0.3485 -0.5033
 9150SOL    HW239087   1.027   0.473   5.123  0.0627 -0.3656 -0.9402
 9151SOL     OW39088   1.762   2.866   0.141 -0.0106  0.3622 -0.3032
 9151SOL    HW139089   1.675   2.907   0.141 -0.4611 -0.6075  0.9889
 9151SOL    HW239090   1.757   2.819   0.224  2.2159 -1.2557 -1.0812
 9152SOL     OW39091   3.936   3.231   9.694 -0.2432  0.5359  0.4536
 9152SOL    HW139092   3.936   3.210   9.601 -3.9731  0.3175  0.5101
 9152SOL    HW239093   3.916   3.140   9.719  0.0390  0.3305 -0.0663
 9153SOL     OW39094   0.582   3.796  15.123 -0.0746  0.2290 -0.2981
 9153SOL    HW139095   0.664   3.841  15.102 -0.2367  1.5367  1.9107
 9153SOL    HW239096   0.543   3.803  15.036  2.4079  2.5854 -1.2415
 9154SOL     OW39097   1.325   4.719  10.761  0.5707 -0.0240  0.0832
 9154SOL    HW139098   1.380   4.700  10.685  0.9496 -0.4181  0.4557
 9154SOL    HW239099   1.387   0.016  10.827  2.5237  0.1438 -1.8419
 9155SOL     OW39100   1.598   1.505   9.155  0.2548 -0.4012  0.8279
 9155SOL    HW139101   1.657   1.578   9.138  0.9991 -1.2970 -0.4718
 9155SOL    HW239102   1.524   1.526   9.098  1.9061  2.4594 -0.2502
 9156SOL     OW39103   1.385   2.343   7.271  0.2538  0.0529 -0.0128
 9156SOL    HW139104   1.377   2.438   7.274 -0.7934 -0.0326  0.2198
 9156SOL    HW239105   1.395   2.319   7.179  0.8907 -2.2037  0.6499
 9157SOL     OW39106   4.276   2.867   6.513 -0.2092  0.1217  0.2181
 9157SOL    HW139107   4.181   2.860   6.509 -0.4301  2.3531  1.5784
 9157SOL    HW239108   4.279   2.820   6.596  0.0386  1.6972  1.0903
 9158SOL     OW39109   1.853   4.104   7.470 -0.0187 -0.1804 -0.0972
 9158SOL    HW139110   1.768   4.146   7.482  0.3757  1.4112 -3.0903
 9158SOL    HW239111   1.834   4.011   7.457 -0.2525 -0.5845  2.9668
 9159SOL     OW39112   4.551   1.437   1.961 -0.1156 -0.4673 -0.5469
 9159SOL    HW139113   4.632   1.486   1.958 -2.1627  2.8034 -1.9767
 9159SOL    HW239114   4.495   1.507   1.994 -0.0527 -1.3561  1.4913
 9160SOL     OW39115   2.640   0.082   0.271  0.3311 -0.9512  0.2002
 9160SOL    HW139116   2.652   0.046   0.183 -1.6437 -0.8753 -0.0959
 9160SOL    HW239117   2.700   0.026   0.319 -1.9177 -1.6330  2.1807
 9161SOL     OW39118   1.999   0.082   7.450 -0.0995  0.1235 -0.1065
 9161SOL    HW139119   1.954   0.003   7.420 -0.2732 -0.2127  1.0540
 9161SOL    HW239120   2.087   0.051   7.469 -0.6819 -1.0504  0.7279
 9162SOL     OW39121   1.330   3.308   0.250 -0.1163 -0.0279 -0.1406
 9162SOL    HW139122   1.388   3.379   0.220 -1.5319  1.0328 -0.3427
 9162SOL    HW239123   1.248   3.325   0.204  0.2477 -1.7231 -1.4169
 9163SOL     OW39124   0.612   2.019   7.065 -0.0890  0.9681  0.0605
 9163SOL    HW139125   0.532   1.973   7.090  1.3009 -0.7632  1.2851
 9163SOL    HW239126   0.593   2.034   6.972 -0.7364 -0.8527 -0.0902
 9164SOL     OW39127   4.210   1.082  13.764 -0.6798 -0.6218 -0.2035
 9164SOL    HW139128   4.155   1.005  13.782 -0.5395 -0.6902 -0.0721
 9164SOL    HW239129   4.293   1.056  13.803 -1.4635  0.3461  2.1053
 9165SOL     OW39130   2.507   2.135   3.790  0.1974 -0.4977  0.2527
 9165SOL    HW139131   2.564   2.093   3.726 -0.4185 -1.2100  0.1724
 9165SOL    HW239132   2.522   2.083   3.868  0.6827 -0.5156  0.1476
 9166SOL     OW39133   3.696   0.169   5.931  0.3449 -0.0382 -0.1044
 9166SOL    HW139134   3.730   0.153   6.019  1.8041  0.5121 -0.5582
 9166SOL    HW239135   3.761   0.127   5.874  2.3179  1.2329  1.1810
 9167SOL     OW39136   4.354   2.220   7.824 -0.1986 -0.3648 -0.0710
 9167SOL    HW139137   4.281   2.206   7.885 -0.7680  1.8208 -0.2383
 9167SOL    HW239138   4.397   2.135   7.829  0.9922  0.2313 -0.3559
 9168SOL     OW39139   2.954   2.800  10.358 -0.6438 -0.3899  0.2285
 9168SOL    HW139140   2.952   2.806  10.454 -0.3661  1.8396  0.0831
 9168SOL    HW239141   2.907   2.717  10.348  0.4580 -0.9802 -0.0975
 9169SOL     OW39142   1.636   2.918   2.534 -0.1168  0.0680  0.1134
 9169SOL    HW139143   1.675   3.004   2.546  1.2917 -0.3143 -1.8394
 9169SOL    HW239144   1.613   2.889   2.622  0.8817  2.3564  1.1202
 9170SOL     OW39145   4.044   4.312   5.467 -0.3990  0.5616 -0.2605
 9170SOL    HW139146   4.041   4.242   5.402  0.6534  0.9636 -0.7244
 9170SOL    HW239147   4.134   4.311   5.497 -0.5813  2.4829  0.3633
 9171SOL     OW39148   4.569   3.805   8.426  0.7318  0.1596  0.4268
 9171SOL    HW139149   4.496   3.744   8.413  0.0620  0.9837  0.2942
 9171SOL    HW239150   4.563   3.812   8.521  1.1555  0.8914  0.4066
 9172SOL     OW39151   2.960   1.766   9.123  0.3527  0.4538 -0.0085
 9172SOL    HW139152   2.876   1.789   9.081  0.1511  0.1127  0.2074
 9172SOL    HW239153   3.015   1.792   9.050 -0.4759  0.7270 -0.5434
 9173SOL     OW39154   0.036   1.947   7.030 -0.0465  0.0673  0.3593
 9173SOL    HW139155   0.079   2.023   7.070  1.1387 -0.7288  0.5995
 9173SOL    HW239156   0.065   1.869   7.078  1.4589  0.4336  0.0631
 9174SOL     OW39157   4.617   0.214  12.530  0.3937 -0.1866  0.2686
 9174SOL    HW139158   4.686   0.277  12.550  0.2811 -2.0235  6.2714
 9174SOL    HW239159   4.661   0.134  12.560 -0.3932 -0.9129 -0.4854
 9175SOL     OW39160   0.637   2.676   5.641 -0.3692 -0.4466  0.5006
 9175SOL    HW139161   0.587   2.728   5.578  1.7550 -0.1246 -0.9572
 9175SOL    HW239162   0.570   2.636   5.695 -1.6946 -0.6343 -1.2878
 9176SOL     OW39163   3.237   2.083   6.313  0.1356  0.5583 -0.0453
 9176SOL    HW139164   3.221   2.101   6.406 -1.6119 -0.3571 -0.1623
 9176SOL    HW239165   3.164   2.132   6.275  0.1601  2.6282  2.6375
 9177SOL     OW39166   2.142   3.175   6.573 -0.4272 -0.1290 -0.1865
 9177SOL    HW139167   2.237   3.170   6.562 -0.2183 -2.1309  2.6351
 9177SOL    HW239168   2.117   3.097   6.524 -1.2799 -0.5333  0.8822
 9178SOL     OW39169   1.277   0.136   2.681 -0.2648 -0.4132 -0.3276
 9178SOL    HW139170   1.309   0.113   2.768 -0.6358 -0.6689 -0.2598
 9178SOL    HW239171   1.192   0.170   2.709  2.3711  3.0057  3.6182
 9179SOL     OW39172   3.401   2.705   8.104 -0.1884  0.1408  0.2006
 9179SOL    HW139173   3.340   2.633   8.092 -1.1676  0.8513  0.9388
 9179SOL    HW239174   3.481   2.661   8.075 -0.4637  0.9948 -1.8525
 9180SOL     OW39175   0.878   1.395   2.626  0.8624 -0.2954 -0.2128
 9180SOL    HW139176   0.785   1.413   2.610  0.6492 -1.3080 -0.0970
 9180SOL    HW239177   0.911   1.473   2.671 -1.5265  0.9526 -0.6086
 9181SOL     OW39178   4.054   3.534   7.719 -0.5513  0.2009 -0.9081
 9181SOL    HW139179   3.973   3.486   7.735 -1.4667  2.0347 -0.0977
 9181SOL    HW239180   4.080   3.487   7.639 -0.4168 -0.6396 -0.3748
 9182SOL     OW39181   1.054   3.489   4.098 -0.0639  0.2552 -0.0992
 9182SOL    HW139182   1.008   3.441   4.167 -1.2723 -0.8388 -1.6552
 9182SOL    HW239183   1.128   3.531   4.141  1.3114 -1.4932 -0.7423
 9183SOL     OW39184   1.925   4.080   4.431  0.3642  0.2758  0.8760
 9183SOL    HW139185   1.851   4.034   4.470 -0.4488 -0.0283 -1.0473
 9183SOL    HW239186   1.920   4.062   4.337 -0.4689 -2.5368  1.4737
 9184SOL     OW39187   4.392   3.765   3.533 -0.2981  0.0059 -0.6979
 9184SOL    HW139188   4.345   3.847   3.550 -0.8919 -0.3879 -0.4294
 9184SOL    HW239189   4.440   3.748   3.614 -0.0111 -0.2693 -0.9249
 9185SOL     OW39190   0.088   2.074   3.326 -0.0733 -0.1668  0.3696
 9185SOL    HW139191   0.146   2.099   3.254  0.1951  0.7606  0.9072
 9185SOL    HW239192   0.048   2.158   3.348  0.7134  0.4889 -0.7149
 9186SOL     OW39193   1.496   0.466   4.232  0.0641  0.7237  0.4734
 9186SOL    HW139194   1.523   0.471   4.324  0.4275  0.6383  0.3721
 9186SOL    HW239195   1.569   0.518   4.197 -0.7006 -1.0276 -3.6747
 9187SOL     OW39196   0.646   3.068   3.529 -1.0338 -0.0795  0.2953
 9187SOL    HW139197   0.665   3.035   3.617  1.0257  0.9235  0.2169
 9187SOL    HW239198   0.656   3.158   3.560  0.2371  0.1035 -0.6412
 9188SOL     OW39199   3.952   0.767   3.913  0.5330 -0.0475 -0.5919
 9188SOL    HW139200   3.956   0.806   4.001 -2.1613 -0.7630 -0.1623
 9188SOL    HW239201   3.905   0.687   3.938  0.7271  0.8660  2.7328
 9189SOL     OW39202   4.711   0.192  16.687 -0.5112 -0.2511 -0.1911
 9189SOL    HW139203   4.652   0.215  16.760  0.8299  1.7728  0.2544
 9189SOL    HW239204   4.647   0.161  16.623  2.1724  1.0751 -3.4456
 9190SOL     OW39205   1.016   1.049  15.009  0.2976  0.1917 -0.0343
 9190SOL    HW139206   1.001   0.979  15.072 -0.7592  0.6393  0.2082
 9190SOL    HW239207   0.951   1.036  14.940  1.3953  2.2262 -1.4739
 9191SOL     OW39208   3.277   1.991   0.170 -0.0171 -0.6063 -0.1784
 9191SOL    HW139209   3.305   2.015   0.082 -0.8470  1.7788  0.2189
 9191SOL    HW239210   3.292   2.076   0.211 -0.6512  0.8840 -3.0494
 9192SOL     OW39211   4.367   3.019  16.466  0.3140  0.3254  0.0882
 9192SOL    HW139212   4.338   3.105  16.436  1.5755  0.4258 -0.8065
 9192SOL    HW239213   4.428   3.007  16.393  1.2953 -3.7858  1.5886
 9193SOL     OW39214   3.796   3.276   8.511  0.0669 -0.0000 -0.1926
 9193SOL    HW139215   3.817   3.273   8.418  0.8594 -0.5391  0.0059
 9193SOL    HW239216   3.854   3.209   8.547 -0.3838  0.7460  1.9530
 9194SOL     OW39217   1.703   2.668   6.942  0.6083 -0.4409  0.5174
 9194SOL    HW139218   1.623   2.634   6.903 -0.7156  0.1764  2.6616
 9194SOL    HW239219   1.765   2.660   6.869  0.9076  2.4018  0.4909
 9195SOL     OW39220   2.170   0.610   5.253  0.5665 -0.4367 -0.0328
 9195SOL    HW139221   2.225   0.679   5.218 -0.8322  1.5818  1.7406
 9195SOL    HW239222   2.094   0.590   5.199 -0.2565  2.5558  0.0249
 9196SOL     OW39223   0.477   1.183   6.033  0.3040  0.1815 -0.6985
 9196SOL    HW139224   0.533   1.238   6.087  1.4576 -1.8304  0.1142
 9196SOL    HW239225   0.431   1.122   6.090 -0.9659  0.1882 -1.7113
 9197SOL     OW39226   0.775   3.099   2.159 -0.3956  0.1133  0.5632
 9197SOL    HW139227   0.744   3.168   2.100 -1.1740 -0.7825 -0.0915
 9197SOL    HW239228   0.818   3.047   2.090 -1.4813  0.1674 -0.1533
 9198SOL     OW39229   2.323   1.184  15.042  0.0496 -0.2040 -0.1899
 9198SOL    HW139230   2.335   1.180  14.947 -0.7678  1.5275 -0.3516
 9198SOL    HW239231   2.299   1.091  15.049 -1.7277  0.3108  0.5699
 9199SOL     OW39232   3.043   2.913   5.262  0.0155  0.5547 -0.1744
 9199SOL    HW139233   3.064   2.838   5.207  2.2963  2.1263 -1.4277
 9199SOL    HW239234   2.969   2.959   5.224 -0.4558 -0.1641 -0.1318
 9200SOL     OW39235   0.667   0.462   3.050  0.1782 -0.5181  0.3118
 9200SOL    HW139236   0.659   0.477   3.144 -0.6178 -1.5423  0.4140
 9200SOL    HW239237   0.585   0.420   3.021 -0.1822  0.9896 -0.8344
 9201SOL     OW39238   2.407   1.429   4.543 -0.0185  0.3692  0.3218
 9201SOL    HW139239   2.442   1.367   4.479  0.4258 -0.4712  1.3586
 9201SOL    HW239240   2.344   1.488   4.503 -1.3024 -0.8738  0.5267
 9202SOL     OW39241   1.624   1.672  16.067  0.2959 -0.0613 -0.3547
 9202SOL    HW139242   1.626   1.577  16.049 -0.1786 -0.2051  0.3753
 9202SOL    HW239243   1.640   1.692  15.975 -1.4687  2.0022 -0.1844
 9203SOL     OW39244   0.214   4.249   9.212 -0.4290  0.1347  0.0968
 9203SOL    HW139245   0.152   4.259   9.284  0.1127  0.4420  0.5211
 9203SOL    HW239246   0.205   4.154   9.207 -1.5410  0.2446  0.0115
 9204SOL     OW39247   0.543   2.893   4.535 -0.0066 -0.6324  0.2170
 9204SOL    HW139248   0.494   2.948   4.474  0.4818 -2.3623 -1.7640
 9204SOL    HW239249   0.470   2.835   4.556  1.3099 -2.4177 -0.1431
 9205SOL     OW39250   1.779   1.314   6.036  0.4316 -0.0880 -0.1866
 9205SOL    HW139251   1.805   1.244   5.977  2.6278 -1.0279  1.8933
 9205SOL    HW239252   1.847   1.381   6.027  0.8462 -0.6145 -0.8741
 9206SOL     OW39253   3.306   1.322   8.980 -0.4424  0.5698 -0.5434
 9206SOL    HW139254   3.303   1.277   9.065 -1.4900 -0.1011 -0.9301
 9206SOL    HW239255   3.217   1.350   8.959 -0.5040  0.8214  0.0562
 9207SOL     OW39256   1.468   1.129  10.380  0.2141  0.4589  0.2414
 9207SOL    HW139257   1.382   1.103  10.413  0.2938 -0.8274 -0.5694
 9207SOL    HW239258   1.501   1.195  10.441 -0.1747 -1.9400  3.0456
 9208SOL     OW39259   2.070   2.028   5.532  0.1771  0.2280 -0.2602
 9208SOL    HW139260   2.080   2.098   5.597  2.1198  1.7177 -2.1227
 9208SOL    HW239261   1.979   2.005   5.546 -0.1149 -0.4767 -3.2737
 9209SOL     OW39262   4.685   3.752   5.152 -0.4205 -0.5868 -0.6479
 9209SOL    HW139263   4.679   3.747   5.056  1.1349  0.4886 -0.8014
 9209SOL    HW239264   4.611   3.809   5.174  0.2430 -0.7474  1.8960
 9210SOL     OW39265   1.522   1.933  15.316  0.2721  0.2998 -0.0846
 9210SOL    HW139266   1.602   1.971  15.352  2.8751 -4.4124 -0.9159
 9210SOL    HW239267   1.459   2.001  15.339  1.3792  0.8006  1.4538
 9211SOL     OW39268   2.695   1.097   8.745 -0.4218 -0.4844  0.4140
 9211SOL    HW139269   2.751   1.170   8.773 -2.3176  0.2288  2.3381
 9211SOL    HW239270   2.703   1.089   8.650  2.2374 -1.5233  0.7341
 9212SOL     OW39271   2.312   4.249   7.839 -0.6228  0.6793  0.6074
 9212SOL    HW139272   2.405   4.241   7.819  0.1066  0.3674  4.1021
 9212SOL    HW239273   2.278   4.185   7.778 -1.6285 -0.5183  2.4296
 9213SOL     OW39274   2.047   4.734   8.566  0.3208  0.2658  1.0333
 9213SOL    HW139275   1.993   4.656   8.556  0.0547  0.4272  1.1890
 9213SOL    HW239276   2.028   0.034   8.653 -2.8623 -1.4753  1.0524
 9214SOL     OW39277   3.417   0.674  14.911 -0.4687 -0.1559 -0.4343
 9214SOL    HW139278   3.354   0.616  14.867 -2.0099 -0.5193  2.2723
 9214SOL    HW239279   3.456   0.611  14.971  0.8720  1.5384  0.4361
 9215SOL     OW39280   4.440   0.407   8.712  0.4290 -0.3257  0.0678
 9215SOL    HW139281   4.369   0.440   8.657  0.9880  0.8467  0.0626
 9215SOL    HW239282   4.404   0.433   8.797 -0.2977  0.1118 -0.3759
 9216SOL     OW39283   2.845   4.141   5.394  0.4944 -0.1245  0.0282
 9216SOL    HW139284   2.784   4.150   5.321 -1.8000 -1.5278  1.7538
 9216SOL    HW239285   2.803   4.210   5.446  0.4948 -0.0864 -0.0216
 9217SOL     OW39286   4.010   1.349   6.725 -0.0792  0.4979  0.5373
 9217SOL    HW139287   4.066   1.421   6.697  0.3543 -0.5962 -1.4121
 9217SOL    HW239288   3.921   1.375   6.700  1.1663  3.9614 -0.2459
 9218SOL     OW39289   1.135   1.522  16.048  0.3374  0.6747  0.2242
 9218SOL    HW139290   1.196   1.595  16.056  0.4641  0.3905  1.8454
 9218SOL    HW239291   1.073   1.546  16.118  0.7190 -0.5356  0.9761
 9219SOL     OW39292   4.163   0.400   7.591 -0.5046 -0.3837 -0.4352
 9219SOL    HW139293   4.157   0.388   7.496 -1.0900  3.0056 -0.8625
 9219SOL    HW239294   4.221   0.327   7.612  0.9324  0.9475  0.2326
 9220SOL     OW39295   2.966   1.955   7.779  0.0300 -0.3981 -0.5634
 9220SOL    HW139296   2.885   1.908   7.797  1.0136 -1.1048  2.0792
 9220SOL    HW239297   2.988   1.915   7.695  0.8304  1.1232 -1.0816
 9221SOL     OW39298   2.804   3.893   8.534 -0.7275  0.5856  0.1800
 9221SOL    HW139299   2.810   3.980   8.495 -0.0564  0.4727  0.0400
 9221SOL    HW239300   2.726   3.902   8.589 -0.4916 -0.0669  0.6236
 9222SOL     OW39301   4.666   4.342  12.812  0.1274 -0.4215  0.5639
 9222SOL    HW139302   4.633   4.360  12.900  1.8706 -0.8949  1.3165
 9222SOL    HW239303   4.727   4.271  12.835  3.4257  1.9945 -0.8223
 9223SOL     OW39304   2.774   2.992   7.975  0.1467 -0.9529 -0.4582
 9223SOL    HW139305   2.687   2.975   8.012  0.5776 -0.8105  0.6251
 9223SOL    HW239306   2.798   3.071   8.024  3.3367 -1.9183 -0.4773
 9224SOL     OW39307   1.031   4.533   3.885  0.4046  0.3253 -0.2344
 9224SOL    HW139308   0.986   4.490   3.812 -2.5835 -0.0559  1.8101
 9224SOL    HW239309   0.966   4.574   3.942  0.2522  1.3572 -1.1401
 9225SOL     OW39310   3.911   3.069   8.621 -0.7539  0.0253 -0.0787
 9225SOL    HW139311   3.933   2.993   8.567 -0.7728 -0.5555  0.7369
 9225SOL    HW239312   3.835   3.037   8.669 -0.7955  0.6341  0.2574
 9226SOL     OW39313   4.468   1.259   3.382 -0.5100  0.0412  0.2563
 9226SOL    HW139314   4.555   1.298   3.388 -0.0827 -0.6314 -1.5533
 9226SOL    HW239315   4.500   1.174   3.352 -0.2177  0.9060 -1.8650
 9227SOL     OW39316   2.385   0.854   7.232 -0.4115  0.1568  0.1544
 9227SOL    HW139317   2.433   0.849   7.315 -0.7235 -2.2108  0.1843
 9227SOL    HW239318   2.404   0.770   7.191  0.1568 -0.0773  0.9046
 9228SOL     OW39319   2.695   2.777   5.066  0.9031  0.0703  0.2263
 9228SOL    HW139320   2.747   2.697   5.056 -0.2375 -0.8910  1.9792
 9228SOL    HW239321   2.756   2.849   5.047 -0.6146  1.4007  0.4079
 9229SOL     OW39322   4.311   3.041   1.502 -0.0545 -0.1376 -0.0521
 9229SOL    HW139323   4.324   3.119   1.558 -0.9203  0.4433 -0.6681
 9229SOL    HW239324   4.265   2.985   1.564  2.4182 -0.8954  1.1133
 9230SOL     OW39325   0.372   2.933   2.075  0.2359 -0.2139  0.1119
 9230SOL    HW139326   0.404   3.017   2.040 -0.1406 -0.6616 -1.3163
 9230SOL    HW239327   0.455   2.886   2.079 -0.8859 -2.2333 -0.6047
 9231SOL     OW39328   4.645   3.099   6.230 -0.8853  0.0233  0.1666
 9231SOL    HW139329   4.552   3.120   6.225 -0.8592 -0.3247 -1.9991
 9231SOL    HW239330   4.651   3.032   6.298 -1.3072  0.0912  0.2663
 9232SOL     OW39331   1.389   2.790   9.205 -0.3063 -0.1306 -0.3738
 9232SOL    HW139332   1.394   2.845   9.283 -0.1032  2.0693 -1.9000
 9232SOL    HW239333   1.349   2.714   9.245  1.4116  0.2193  1.9845
 9233SOL     OW39334   3.604   2.652   6.389  0.2938 -0.4348 -0.3568
 9233SOL    HW139335   3.629   2.689   6.474 -2.5491 -1.7579  1.0509
 9233SOL    HW239336   3.510   2.652   6.372  0.0992 -1.0934  0.7605
 9234SOL     OW39337   0.674   1.085  14.943 -0.2996  0.0791 -0.4080
 9234SOL    HW139338   0.651   0.997  14.915  2.6465 -0.9010  0.3100
 9234SOL    HW239339   0.720   1.120  14.867  1.5373 -1.1960  0.1211
 9235SOL     OW39340   2.908   1.629   9.972 -0.1466  0.2606  0.2702
 9235SOL    HW139341   2.996   1.665   9.963 -0.7363  1.5554 -0.3209
 9235SOL    HW239342   2.922   1.569  10.046  0.6800  0.3877  0.2215
 9236SOL     OW39343   3.285   4.457  14.003 -0.3198 -0.6077 -0.4820
 9236SOL    HW139344   3.256   4.548  13.992 -0.0311 -0.4382  0.1576
 9236SOL    HW239345   3.220   4.407  13.955  0.3572 -1.6439 -0.3043
 9237SOL     OW39346   2.562   1.434   8.495 -0.2655  0.6339 -0.4562
 9237SOL    HW139347   2.492   1.475   8.445 -1.6511  0.0495  1.0155
 9237SOL    HW239348   2.533   1.343   8.482 -0.5890  0.6831 -0.0808
 9238SOL     OW39349   3.131   4.319  10.855  0.0114 -0.0621  0.1208
 9238SOL    HW139350   3.039   4.295  10.864  0.2668  0.0250  2.8083
 9238SOL    HW239351   3.130   4.406  10.895  1.8627 -1.3278  2.8712
 9239SOL     OW39352   1.106   2.572   8.512 -0.1186 -0.4266 -0.4034
 9239SOL    HW139353   1.111   2.492   8.565 -1.3698  0.3618  0.9105
 9239SOL    HW239354   1.108   2.645   8.575  1.4896 -1.2764  0.5335
 9240SOL     OW39355   0.191   2.802   0.167  0.3773  0.6285  0.0150
 9240SOL    HW139356   0.110   2.812   0.118  0.6766 -1.5923 -0.9219
 9240SOL    HW239357   0.203   2.887   0.210  1.1194  0.9742 -0.8694
 9241SOL     OW39358   4.675   3.109   4.227 -0.1480  0.0974 -0.3228
 9241SOL    HW139359   4.602   3.133   4.284 -1.0198 -2.4547 -0.3654
 9241SOL    HW239360   4.679   3.014   4.239 -1.3432  0.1864  0.7810
 9242SOL     OW39361   2.260   0.619   8.017 -0.1840 -0.1373  0.1246
 9242SOL    HW139362   2.342   0.583   7.985 -1.4029 -3.8819  1.2288
 9242SOL    HW239363   2.259   0.702   7.970 -2.2594  0.2297  0.7997
 9243SOL     OW39364   2.911   0.283  16.207 -0.0823  0.1004 -0.0245
 9243SOL    HW139365   2.880   0.249  16.123 -1.4250  0.6988  0.2376
 9243SOL    HW239366   2.836   0.288  16.266 -0.6280  0.1248 -0.7198
 9244SOL     OW39367   1.670   2.899  12.840 -0.4436  0.1888 -0.1951
 9244SOL    HW139368   1.739   2.860  12.893  1.1484  1.6707 -1.1573
 9244SOL    HW239369   1.648   2.981  12.885  0.3231  1.0012 -1.3003
 9245SOL     OW39370   0.771   1.273   9.392  0.0305  0.0313 -0.1315
 9245SOL    HW139371   0.724   1.330   9.452 -1.6678 -3.0725  1.4650
 9245SOL    HW239372   0.719   1.195   9.409 -0.6289  0.6454  0.6655
 9246SOL     OW39373   0.914   2.787   1.006 -0.1271  0.2105  0.2711
 9246SOL    HW139374   0.980   2.772   0.939  0.1447  1.7901  0.2050
 9246SOL    HW239375   0.955   2.736   1.076 -1.6425 -1.0186  0.2804
 9247SOL     OW39376   1.347   0.187   2.317 -0.0355  0.3699 -0.6624
 9247SOL    HW139377   1.427   0.139   2.336  0.7137  1.6551 -0.5797
 9247SOL    HW239378   1.338   0.253   2.386 -0.7739 -0.8135  0.3676
 9248SOL     OW39379   1.051   0.903   2.019  0.1905 -0.2467 -0.0418
 9248SOL    HW139380   1.116   0.833   2.023  1.1824  0.7759  1.9750
 9248SOL    HW239381   0.998   0.875   1.944  0.6681  1.4729 -1.0146
 9249SOL     OW39382   1.810   0.155   1.281 -0.2254  0.5606  0.4157
 9249SOL    HW139383   1.800   0.250   1.269  2.8494  1.0809  1.9929
 9249SOL    HW239384   1.829   0.144   1.374 -0.9186 -2.5208  0.1854
 9250SOL     OW39385   4.400   3.155   2.456  0.0900  0.1564 -0.6142
 9250SOL    HW139386   4.482   3.128   2.414  2.0489  2.6134  1.6092
 9250SOL    HW239387   4.375   3.079   2.509  0.3489  0.4768 -0.0398
 9251SOL     OW39388   1.690   0.685   8.258  0.1328  0.7449  0.3507
 9251SOL    HW139389   1.663   0.596   8.236 -2.1742  1.3613  0.6750
 9251SOL    HW239390   1.773   0.667   8.301 -0.8032 -0.9801  1.4299
 9252SOL     OW39391   4.577   0.215   0.929  0.5811 -0.1330  0.5025
 9252SOL    HW139392   4.556   0.123   0.913  0.7980 -0.0657 -0.2049
 9252SOL    HW239393   4.576   0.255   0.842 -0.1429 -2.0653 -0.3699
 9253SOL     OW39394   0.642   3.774  15.579 -0.1161 -0.2657  0.1682
 9253SOL    HW139395   0.661   3.790  15.671  1.9838 -0.9460 -0.1589
 9253SOL    HW239396   0.624   3.681  15.567 -1.8431  0.0277  0.3937
 9254SOL     OW39397   4.459   1.023   7.446  0.0396 -0.6373 -0.1269
 9254SOL    HW139398   4.406   1.093   7.408 -0.6830 -2.2716 -2.1624
 9254SOL    HW239399   4.427   0.950   7.392 -0.0771 -0.8848  0.2750
 9255SOL     OW39400   0.201   1.372   5.341 -0.1393 -0.0368  0.0614
 9255SOL    HW139401   0.201   1.454   5.391 -1.3951 -0.4127  0.6798
 9255SOL    HW239402   0.273   1.396   5.283 -0.1497 -0.2412 -0.0330
 9256SOL     OW39403   4.688   2.468   1.503  0.1186 -0.1659 -0.0337
 9256SOL    HW139404   0.035   2.446   1.458 -0.3925 -0.7065 -0.6910
 9256SOL    HW239405   4.679   2.561   1.480 -1.9408 -0.6748 -1.2019
 9257SOL     OW39406   1.865   2.220   8.696  0.0142 -0.2287  0.5978
 9257SOL    HW139407   1.909   2.147   8.654  0.6224  0.0294  0.7918
 9257SOL    HW239408   1.821   2.256   8.619 -0.6425  2.0141  2.0103
 9258SOL     OW39409   0.304   0.493   5.755  0.0575  0.0901  0.0225
 9258SOL    HW139410   0.252   0.571   5.736 -0.4386 -0.7369 -2.0330
 9258SOL    HW239411   0.239   0.432   5.790  0.3193  1.6602  3.1891
 9259SOL     OW39412   4.391   4.571   5.993 -0.7454  0.4137  0.0826
 9259SOL    HW139413   4.333   4.507   5.954  1.0822 -1.5916  0.6826
 9259SOL    HW239414   4.423   4.524   6.070 -2.3692  1.2864  1.3156
 9260SOL     OW39415   3.980   2.222   7.320 -0.3018  0.2508 -0.4271
 9260SOL    HW139416   3.906   2.213   7.380  2.3408  0.4262  2.8633
 9260SOL    HW239417   3.980   2.316   7.300 -1.1586  0.1919 -0.6770
 9261SOL     OW39418   0.536   0.001   4.249 -0.2315 -0.9295 -0.3955
 9261SOL    HW139419   0.547   4.641   4.260 -2.3656 -0.8363  2.4436
 9261SOL    HW239420   0.532   0.013   4.154  3.4840 -1.1676 -0.5753
 9262SOL     OW39421   3.614   2.823  11.474 -0.5292 -0.0272 -0.2801
 9262SOL    HW139422   3.527   2.841  11.510  0.0921 -0.1506  1.3119
 9262SOL    HW239423   3.647   2.913  11.470 -1.6251  0.2755 -2.1977
 9263SOL     OW39424   1.958   2.364   3.527  0.5260 -0.3057 -0.3145
 9263SOL    HW139425   1.935   2.298   3.461 -0.6372 -0.1885 -0.0261
 9263SOL    HW239426   1.873   2.395   3.559  0.7287 -0.4672  0.3755
 9264SOL     OW39427   1.138   4.432   2.015 -0.2755  0.0026  0.6085
 9264SOL    HW139428   1.137   4.478   2.099  0.1437  2.0225 -0.4850
 9264SOL    HW239429   1.066   4.377   2.046 -0.9791  0.6784  0.1589
 9265SOL     OW39430   4.180   2.731   0.629  0.5882  0.1934  0.2948
 9265SOL    HW139431   4.085   2.727   0.643  0.4746  0.4100 -0.4404
 9265SOL    HW239432   4.207   2.724   0.721 -0.2098 -0.7346  0.4616
 9266SOL     OW39433   0.978   3.397   1.812 -0.1925 -0.1575  0.5593
 9266SOL    HW139434   0.886   3.374   1.802  0.0045  0.1932 -2.0480
 9266SOL    HW239435   0.972   3.392   1.907  1.3504 -2.4168  0.5175
 9267SOL     OW39436   4.470   2.969   7.128  0.0291 -0.2642 -0.0678
 9267SOL    HW139437   4.526   2.892   7.124  0.4083  0.1269 -2.9430
 9267SOL    HW239438   4.400   2.930   7.180  0.1411  0.0072  0.2898
 9268SOL     OW39439   0.636   0.333   6.428 -0.0317  0.3939  0.4840
 9268SOL    HW139440   0.624   0.348   6.522 -0.9970  0.2739  0.3844
 9268SOL    HW239441   0.668   0.243   6.431  0.7826  0.7909  3.3219
 9269SOL     OW39442   4.594   0.708   8.981 -0.2250 -0.3200 -0.5324
 9269SOL    HW139443   4.504   0.730   8.954  0.2710  1.3280 -0.8329
 9269SOL    HW239444   4.578   0.689   9.073 -0.6018  2.0801 -0.0823
 9270SOL     OW39445   1.548   3.956   4.335 -0.3842 -0.4955 -0.1641
 9270SOL    HW139446   1.588   3.871   4.353  0.7587  0.0366 -0.2026
 9270SOL    HW239447   1.468   3.921   4.296  0.2664 -1.8110 -0.3155
 9271SOL     OW39448   1.421   0.429   2.909  0.3157  0.3742  0.3818
 9271SOL    HW139449   1.385   0.471   2.987  1.3292  1.7121  0.1522
 9271SOL    HW239450   1.349   0.386   2.864 -0.0400 -0.8282  2.0859
 9272SOL     OW39451   1.173   1.385  12.509 -1.1636 -0.0098 -0.2052
 9272SOL    HW139452   1.265   1.368  12.528 -1.4421 -0.8656  0.3967
 9272SOL    HW239453   1.154   1.302  12.465  2.3637 -1.7511  1.6025
 9273SOL     OW39454   4.416   4.045   9.162  0.3253  0.5085  0.3495
 9273SOL    HW139455   4.332   4.000   9.170 -0.1063  1.0847 -0.9960
 9273SOL    HW239456   4.420   4.067   9.255 -3.0121  1.5003  0.2596
 9274SOL     OW39457   3.394   3.639   4.456  0.1085  0.1790 -0.3141
 9274SOL    HW139458   3.456   3.694   4.504 -1.6721  1.2579  0.7213
 9274SOL    HW239459   3.407   3.555   4.501 -0.3861 -0.0485 -0.5979
 9275SOL     OW39460   2.096   0.242   3.496 -0.5252 -0.7114 -0.0102
 9275SOL    HW139461   2.191   0.232   3.487 -0.4839 -2.0310  1.9973
 9275SOL    HW239462   2.081   0.333   3.521 -2.4314 -0.7010 -1.2449
 9276SOL     OW39463   3.960   2.736   1.595 -0.2106  0.0504  0.3452
 9276SOL    HW139464   3.938   2.828   1.610 -1.0357 -0.0879  0.0247
 9276SOL    HW239465   3.892   2.701   1.654  2.8013 -0.7864  3.3300
 9277SOL     OW39466   3.799   0.780  15.066  0.3560  0.5949  0.1618
 9277SOL    HW139467   3.768   0.690  15.059  0.8096  0.4738 -0.3124
 9277SOL    HW239468   3.790   0.821  14.980  0.7169 -0.0159 -0.1650
 9278SOL     OW39469   0.800   4.142   7.549 -0.1648 -0.5658 -0.4805
 9278SOL    HW139470   0.723   4.086   7.559  1.7986 -2.9855  1.1073
 9278SOL    HW239471   0.815   4.130   7.455  1.2520 -2.7784  0.0325
 9279SOL     OW39472   4.492   4.239   8.020  0.0962  0.4493  0.0433
 9279SOL    HW139473   4.397   4.251   8.013  0.1334  0.3429 -0.6403
 9279SOL    HW239474   4.514   4.153   7.982 -1.2008 -0.2796  0.9327
 9280SOL     OW39475   2.201   3.476   8.882 -0.1066 -0.0455 -0.0283
 9280SOL    HW139476   2.126   3.455   8.937  0.3483 -0.0158  0.6038
 9280SOL    HW239477   2.232   3.561   8.914  0.8735 -0.6611  0.6541
 9281SOL     OW39478   4.114   2.678   7.978  0.1625  0.3837  0.4935
 9281SOL    HW139479   4.151   2.754   8.023 -1.8730  1.8184 -0.2175
 9281SOL    HW239480   4.187   2.643   7.927  0.4737  3.0998 -0.9244
 9282SOL     OW39481   0.406   1.813  11.942 -1.0733  0.0801 -0.4311
 9282SOL    HW139482   0.453   1.857  11.871  1.1062 -0.0267  0.9582
 9282SOL    HW239483   0.322   1.808  11.895 -0.6433  4.2772 -1.6066
 9283SOL     OW39484   4.359   1.852  15.569 -0.3857 -0.2924  0.4929
 9283SOL    HW139485   4.276   1.896  15.554 -1.6300 -2.8181 -0.1291
 9283SOL    HW239486   4.341   1.767  15.528 -2.7079 -0.0985  1.1080
 9284SOL     OW39487   2.326   2.840   5.124  0.4910 -0.1059  0.4887
 9284SOL    HW139488   2.418   2.859   5.109  0.0901  0.6836 -1.0233
 9284SOL    HW239489   2.303   2.880   5.208  1.2985 -0.4204  0.8514
 9285SOL     OW39490   4.345   2.370   6.847 -0.4345  0.9433  0.1445
 9285SOL    HW139491   4.264   2.395   6.803  1.0166  0.0532 -3.0461
 9285SOL    HW239492   4.311   2.285   6.876  0.6260 -0.1737 -1.8102
 9286SOL     OW39493   1.173   1.748   2.909  0.7335  0.2942  0.1368
 9286SOL    HW139494   1.259   1.721   2.878  0.2822 -0.4886 -0.4344
 9286SOL    HW239495   1.148   1.809   2.840  0.8628 -0.8829 -0.9539
 9287SOL     OW39496   0.308   0.521   5.262 -0.3694 -0.2307 -0.3151
 9287SOL    HW139497   0.306   0.581   5.337 -0.9053 -0.2150 -0.3402
 9287SOL    HW239498   0.386   0.549   5.214 -0.0630  0.4952  0.6062
 9288SOL     OW39499   3.451   2.448  12.249  0.3383 -0.6494 -0.3515
 9288SOL    HW139500   3.528   2.464  12.304  1.0510 -1.7529 -1.0252
 9288SOL    HW239501   3.382   2.439  12.315  2.3025 -0.5044  1.7222
 9289SOL     OW39502   1.229   0.326  14.411 -0.3088  0.1743  0.2016
 9289SOL    HW139503   1.155   0.320  14.352  1.1678 -0.5307 -1.5741
 9289SOL    HW239504   1.199   0.264  14.477 -0.0564  1.6614  1.7332
 9290SOL     OW39505   2.830   0.526   2.206  0.5722  0.2787  0.4550
 9290SOL    HW139506   2.859   0.614   2.183  2.0294 -0.6960 -1.4443
 9290SOL    HW239507   2.835   0.518   2.302  0.2235  0.5638  0.4967
 9291SOL     OW39508   2.352   3.844   6.245  0.4730 -0.6232  0.7166
 9291SOL    HW139509   2.385   3.847   6.335  1.0959 -1.7354  0.5245
 9291SOL    HW239510   2.265   3.882   6.254  1.7831  2.4316  0.7437
 9292SOL     OW39511   2.139   1.133   4.434  0.2843  0.2571  0.3257
 9292SOL    HW139512   2.115   1.062   4.374 -1.9978  0.6270  0.7817
 9292SOL    HW239513   2.100   1.086   4.508 -0.7286  0.7208  0.0924
 9293SOL     OW39514   3.138   2.673   9.466  0.9248 -0.0872  0.7270
 9293SOL    HW139515   3.210   2.717   9.512  0.2102  1.1259  0.6791
 9293SOL    HW239516   3.176   2.592   9.432  2.9571  1.3182 -0.3506
 9294SOL     OW39517   2.112   2.090   9.600 -0.0854 -0.0636 -0.5639
 9294SOL    HW139518   2.173   2.097   9.526  0.8052  1.0034  0.2716
 9294SOL    HW239519   2.130   2.169   9.650 -0.8235  0.3034 -0.8826
 9295SOL     OW39520   1.402   0.620   7.866  0.0731 -0.2297  0.2251
 9295SOL    HW139521   1.315   0.602   7.902  0.7500 -2.1994  0.9028
 9295SOL    HW239522   1.452   0.541   7.888 -1.1541 -1.2366 -0.5923
 9296SOL     OW39523   3.648   3.283  12.983 -0.2435  0.2563  0.0666
 9296SOL    HW139524   3.687   3.315  13.064  0.4435 -0.5607  0.0575
 9296SOL    HW239525   3.705   3.324  12.918 -1.5684  0.3115 -1.0798
 9297SOL     OW39526   2.883   1.674   3.481 -0.3221 -0.5706  0.1375
 9297SOL    HW139527   2.871   1.691   3.575 -0.7400 -0.6482  0.0997
 9297SOL    HW239528   2.929   1.756   3.466  0.1560 -1.1395 -1.4309
 9298SOL     OW39529   0.711   3.414   3.904 -0.4048 -0.2160  0.1470
 9298SOL    HW139530   0.774   3.344   3.887 -0.3664 -0.2217  0.3156
 9298SOL    HW239531   0.625   3.373   3.919  0.0140 -0.5176  1.7265
 9299SOL     OW39532   1.332   1.088  10.891 -0.6460  0.2380  0.6449
 9299SOL    HW139533   1.415   1.076  10.938 -0.8756 -3.6263  0.0506
 9299SOL    HW239534   1.303   1.177  10.911  4.3346  2.5886 -2.6526
 9300SOL     OW39535   1.663   4.026  16.846  0.7201  0.0902  0.2966
 9300SOL    HW139536   1.669   3.932  16.828 -0.6208  0.1226 -0.3377
 9300SOL    HW239537   1.578   4.029  16.890  0.4943 -0.5041 -0.1115
 9301SOL     OW39538   4.410   4.305   2.628 -0.1873 -0.4013  0.4865
 9301SOL    HW139539   4.329   4.318   2.579  0.2939 -2.0699 -0.7657
 9301SOL    HW239540   4.470   4.358   2.575 -2.5453 -0.8220 -2.6112
 9302SOL     OW39541   3.881   2.268   1.289  0.3085  0.2368  0.0099
 9302SOL    HW139542   3.886   2.328   1.215 -1.2975  1.0450  0.5678
 9302SOL    HW239543   3.953   2.215   1.254  0.1404  1.6730 -2.5178
 9303SOL     OW39544   1.229   4.592   3.674  0.0162  0.7195  0.4653
 9303SOL    HW139545   1.168   4.665   3.682 -1.2433 -0.0114 -2.5387
 9303SOL    HW239546   1.308   4.635   3.706  1.9357 -1.7197 -0.9917
 9304SOL     OW39547   3.784   2.493   6.255  0.1946  0.6236  0.1737
 9304SOL    HW139548   3.729   2.556   6.301  0.3236 -0.5109  1.8746
 9304SOL    HW239549   3.733   2.456   6.184 -0.0496 -1.8585  1.6308
 9305SOL     OW39550   2.226   4.691   7.582 -0.0379 -0.3777  0.1723
 9305SOL    HW139551   2.288   0.008   7.530 -1.0613  1.4143  0.7047
 9305SOL    HW239552   2.270   4.628   7.638 -2.9404 -0.3914  2.4201
 9306SOL     OW39553   2.049   4.351   5.896 -0.0687  0.2324  0.3696
 9306SOL    HW139554   1.996   4.431   5.894 -2.4543 -1.3393  1.5991
 9306SOL    HW239555   2.059   4.351   5.991  1.5439  1.1248  0.2159
 9307SOL     OW39556   3.092   0.054   3.846 -0.2246  0.0564  0.3934
 9307SOL    HW139557   3.103   0.073   3.753 -4.0326  1.1003  0.1580
 9307SOL    HW239558   3.118   0.134   3.891  0.0755  0.6728 -0.8828
 9308SOL     OW39559   4.361   0.796   8.906  0.6626  0.4476  0.0993
 9308SOL    HW139560   4.336   0.888   8.916 -0.2669  0.2121 -0.0082
 9308SOL    HW239561   4.356   0.792   8.810  0.4673  0.4021  0.1109
 9309SOL     OW39562   2.298   4.243   9.797  0.1815 -0.5993 -0.0402
 9309SOL    HW139563   2.344   4.186   9.858 -0.3241 -3.2752 -2.1427
 9309SOL    HW239564   2.223   4.190   9.771 -0.8319  1.0018 -0.3808
 9310SOL     OW39565   4.522   2.956  13.390 -0.2548  0.1016  0.3955
 9310SOL    HW139566   4.581   3.023  13.357 -0.8496  1.4746  2.0997
 9310SOL    HW239567   4.579   2.922  13.459  0.7344  2.0065  0.5302
 9311SOL     OW39568   2.434   3.809   9.880 -0.4674 -0.6867 -0.8683
 9311SOL    HW139569   2.511   3.846   9.835 -0.5602  1.4126  0.7131
 9311SOL    HW239570   2.398   3.747   9.817 -1.9440  0.5579 -1.2353
 9312SOL     OW39571   2.135   2.369  13.143  0.9708  0.0521  0.2189
 9312SOL    HW139572   2.096   2.281  13.144  0.9937  0.0368 -0.0598
 9312SOL    HW239573   2.221   2.361  13.102 -0.2163  0.4353 -2.3430
 9313SOL     OW39574   3.344   4.058   5.038 -0.1287 -0.2852 -0.1655
 9313SOL    HW139575   3.424   4.016   5.070 -0.2927 -1.4718 -1.2727
 9313SOL    HW239576   3.281   3.987   5.050 -0.7386  0.3744  0.4686
 9314SOL     OW39577   2.425   3.216  10.177  0.4459  0.1670 -0.0595
 9314SOL    HW139578   2.338   3.249  10.201  1.7701  2.6230  1.4799
 9314SOL    HW239579   2.480   3.290  10.204  1.0481 -0.6636  0.9743
 9315SOL     OW39580   3.980   0.324   8.162 -0.5314 -0.5731  0.3122
 9315SOL    HW139581   3.969   0.242   8.210  1.8354  0.9647  3.4340
 9315SOL    HW239582   4.034   0.305   8.085  1.5157  1.5564  1.2434
 9316SOL     OW39583   0.410   4.242   4.055 -0.4122  0.2163 -0.2311
 9316SOL    HW139584   0.475   4.300   4.015 -0.1505 -0.6736 -1.1051
 9316SOL    HW239585   0.376   4.302   4.121 -0.7528 -1.0809  0.7695
 9317SOL     OW39586   0.478   4.060   6.158  0.2064  0.1929 -0.3360
 9317SOL    HW139587   0.468   3.969   6.130  0.4299  0.0286  0.1215
 9317SOL    HW239588   0.500   4.110   6.079  0.6497  0.4055 -0.0736
 9318SOL     OW39589   0.273   2.373   5.708  0.8347  0.5546  0.6878
 9318SOL    HW139590   0.252   2.289   5.749  0.1412  2.0682  3.4518
 9318SOL    HW239591   0.183   2.404   5.698  0.3860 -0.5176  1.4402
 9319SOL     OW39592   4.111   1.013   3.835 -0.2049  0.2220  0.4332
 9319SOL    HW139593   4.039   0.958   3.805 -2.1998  1.9926  2.0019
 9319SOL    HW239594   4.117   1.075   3.762 -1.6981  1.7107  1.5947
 9320SOL     OW39595   2.526   2.666   5.671 -0.5652  0.1515  0.3282
 9320SOL    HW139596   2.516   2.670   5.576  1.6361 -1.3468  0.0433
 9320SOL    HW239597   2.617   2.638   5.685 -0.6529 -1.1405 -1.8285
 9321SOL     OW39598   3.546   2.373  14.171 -0.2818 -0.1876 -0.2503
 9321SOL    HW139599   3.488   2.427  14.118  2.5322  1.1855 -1.9305
 9321SOL    HW239600   3.493   2.303  14.210  0.0219  0.8292  1.9649
 9322SOL     OW39601   2.691   2.253   4.028 -0.1595 -0.5547  0.1841
 9322SOL    HW139602   2.764   2.244   4.090  0.7737 -0.8689 -0.9588
 9322SOL    HW239603   2.659   2.164   4.015  0.5117 -0.5759 -1.2643
 9323SOL     OW39604   1.102   0.105   3.747  0.1948  0.3328  0.4110
 9323SOL    HW139605   1.133   0.123   3.836  0.0040 -1.4340  0.8189
 9323SOL    HW239606   1.147   0.171   3.694 -0.9890  1.5649  0.9210
 9324SOL     OW39607   3.007   1.657   8.723  0.5402 -0.3266 -0.1745
 9324SOL    HW139608   3.006   1.715   8.799 -1.5792  2.2614 -2.1801
 9324SOL    HW239609   3.102   1.647   8.713  0.7635  0.8920  0.7728
 9325SOL     OW39610   2.464   0.390   8.419 -0.0774  0.4098  0.1228
 9325SOL    HW139611   2.443   0.467   8.366 -2.4396 -0.0338  0.4143
 9325SOL    HW239612   2.510   0.415   8.499 -0.7034  0.9321  0.3140
 9326SOL     OW39613   0.976   1.628   7.836  0.0750  0.6435  0.0865
 9326SOL    HW139614   1.003   1.719   7.847  1.1300  0.3678 -0.2242
 9326SOL    HW239615   0.885   1.644   7.809 -0.7103 -1.6585  1.3612
 9327SOL     OW39616   3.416   2.112  17.384 -0.0693  0.0504  0.0124
 9327SOL    HW139617   3.470   2.182  17.347 -0.7605  0.5600 -0.0500
 9327SOL    HW239618   3.339   2.106  17.327  1.3220 -1.2583 -1.6919
 9328SOL     OW39619   3.424   3.287   2.831 -0.3474 -0.4183 -0.0773
 9328SOL    HW139620   3.377   3.356   2.785  0.6138 -0.6261 -1.3848
 9328SOL    HW239621   3.476   3.332   2.897 -1.3432  1.5967 -0.6688
 9329SOL     OW39622   3.755   3.024   4.907  1.1045  0.2689  0.3215
 9329SOL    HW139623   3.727   3.114   4.886 -0.0864  0.2660  1.9314
 9329SOL    HW239624   3.849   3.034   4.893  1.6973 -2.1189  2.5842
 9330SOL     OW39625   0.861   0.862   9.606 -0.5756  0.2180 -0.0104
 9330SOL    HW139626   0.852   0.864   9.701 -0.7310 -1.1482  0.0002
 9330SOL    HW239627   0.955   0.849   9.614 -0.4275  1.4797  0.3681
 9331SOL     OW39628   2.111   1.978   3.563  0.3347 -0.5089 -0.3315
 9331SOL    HW139629   2.126   1.891   3.527 -0.8275 -1.0858  0.5809
 9331SOL    HW239630   2.017   1.976   3.581  0.6435 -0.3545  1.2598
 9332SOL     OW39631   3.910   0.170   4.660  0.2055 -0.2607 -0.3257
 9332SOL    HW139632   3.908   0.077   4.681 -2.6171 -0.0511  0.3183
 9332SOL    HW239633   3.989   0.206   4.700 -0.5263  0.9402  0.0151
 9333SOL     OW39634   4.396   1.677   8.293  0.1103  0.3657 -0.1147
 9333SOL    HW139635   4.323   1.682   8.232  1.0696 -2.3661 -1.5050
 9333SOL    HW239636   4.370   1.610   8.356  0.2664 -1.3379 -1.8634
 9334SOL     OW39637   2.613   4.320   1.895 -0.1447 -0.2264  0.1475
 9334SOL    HW139638   2.550   4.386   1.924  0.0151 -0.0407  0.0727
 9334SOL    HW239639   2.570   4.299   1.812 -3.0870 -3.0301  2.4308
 9335SOL     OW39640   2.497   3.332   0.921 -0.0019 -0.0933 -1.0646
 9335SOL    HW139641   2.506   3.312   1.014  0.3717  0.0710 -1.0656
 9335SOL    HW239642   2.507   3.243   0.885  1.1642 -0.5913  0.5020
 9336SOL     OW39643   1.575   0.685   9.767  0.7201 -0.4184  0.2746
 9336SOL    HW139644   1.575   0.605   9.819  0.6199  0.5596  1.7980
 9336SOL    HW239645   1.564   0.749   9.838  1.5720  2.1808 -1.9378
 9337SOL     OW39646   3.323   0.666   5.206  0.4747  0.0946  0.4074
 9337SOL    HW139647   3.278   0.745   5.237 -0.7573 -0.8151  0.9289
 9337SOL    HW239648   3.380   0.703   5.139 -0.1059 -0.3612 -0.3340
 9338SOL     OW39649   0.779   0.829  11.274  0.1463  0.4128  0.3553
 9338SOL    HW139650   0.817   0.770  11.339 -0.0658  0.2662  0.3491
 9338SOL    HW239651   0.685   0.819  11.293 -0.0886  0.4091 -0.8448
 9339SOL     OW39652   2.244   3.180   7.003  0.3418  0.5083  0.5071
 9339SOL    HW139653   2.258   3.274   6.996 -2.7769  1.0813  2.0165
 9339SOL    HW239654   2.149   3.175   6.990  0.4970  1.2658 -0.9566
 9340SOL     OW39655   3.030   4.189  15.471 -0.4464 -0.2839  0.3845
 9340SOL    HW139656   3.000   4.265  15.420  0.8056  0.8591  1.3532
 9340SOL    HW239657   2.993   4.113  15.425  0.1851 -1.1755  1.3598
 9341SOL     OW39658   2.739   2.283  10.365  0.0780 -0.2023  0.6799
 9341SOL    HW139659   2.688   2.235  10.300 -1.2302  0.9109  0.9012
 9341SOL    HW239660   2.786   2.210  10.407 -1.9688 -1.6272  0.5197
 9342SOL     OW39661   3.917   2.241   5.390  0.9028 -0.3271  0.3607
 9342SOL    HW139662   3.928   2.241   5.295  0.1745  2.3784  0.2897
 9342SOL    HW239663   3.856   2.167   5.399  0.8442 -0.2612  0.5117
 9343SOL     OW39664   0.925   0.404   2.081 -0.3881  0.0021  0.2559
 9343SOL    HW139665   0.996   0.346   2.054 -1.1952 -1.1822  0.7088
 9343SOL    HW239666   0.971   0.464   2.140 -0.0260 -1.5482  1.5500
 9344SOL     OW39667   2.341   1.873   3.180  0.3960  0.8376 -0.4893
 9344SOL    HW139668   2.298   1.906   3.101  0.7144 -2.0083 -1.8764
 9344SOL    HW239669   2.404   1.944   3.190  2.0861 -0.8541  0.8916
 9345SOL     OW39670   3.902   0.905   3.254 -0.0862 -0.1936 -0.5691
 9345SOL    HW139671   3.888   0.862   3.170  2.4969 -0.6980 -0.7489
 9345SOL    HW239672   3.884   0.993   3.220  0.7881  0.4306  0.5766
 9346SOL     OW39673   3.568   2.860  10.985 -0.1490  0.0573 -0.0254
 9346SOL    HW139674   3.620   2.931  11.023  1.0450 -0.4394 -0.7343
 9346SOL    HW239675   3.543   2.898  10.901  0.7954  1.8399  0.4903
 9347SOL     OW39676   2.364   3.700   1.505  0.1426 -1.2993 -0.2132
 9347SOL    HW139677   2.402   3.726   1.421  1.8298  1.3113  1.3822
 9347SOL    HW239678   2.412   3.759   1.563 -2.2735  1.5328 -1.1062
 9348SOL     OW39679   3.167   0.567  14.553  0.0397  0.1994 -0.1072
 9348SOL    HW139680   3.224   0.644  14.546 -1.2119  1.2386  0.9719
 9348SOL    HW239681   3.156   0.534  14.464  0.0722 -0.8625  0.2915
 9349SOL     OW39682   3.959   4.522   4.665  0.1035 -0.7164  0.0495
 9349SOL    HW139683   4.038   4.476   4.638  0.9374  1.5408 -1.3805
 9349SOL    HW239684   3.963   4.596   4.604  3.0421 -0.5593  0.4315
 9350SOL     OW39685   2.342   0.008   0.010  0.4482 -0.3645 -0.9063
 9350SOL    HW139686   2.267   0.056  17.713 -0.7771 -0.5006  1.6708
 9350SOL    HW239687   2.332   0.012   0.105  0.0529  1.6936 -1.0357
 9351SOL     OW39688   3.791   1.640  10.735 -0.4586 -0.7067 -0.5772
 9351SOL    HW139689   3.841   1.575  10.685 -0.9839 -2.4048  1.1249
 9351SOL    HW239690   3.839   1.719  10.709 -2.3945 -0.2928 -2.9043
 9352SOL     OW39691   4.640   2.516  13.207  0.3968 -0.0886 -0.2115
 9352SOL    HW139692   4.603   2.603  13.200 -1.0589 -0.8286 -1.6630
 9352SOL    HW239693   4.561   2.470  13.179 -0.8238  0.9671  1.5257
 9353SOL     OW39694   4.400   0.221  16.590 -0.1608 -0.1190  0.1990
 9353SOL    HW139695   4.357   0.162  16.652 -0.3794  0.2401  0.3917
 9353SOL    HW239696   4.381   0.307  16.628  0.2201  0.7317 -1.5597
 9354SOL     OW39697   3.032   2.147   2.922 -0.5375  0.0650 -0.8082
 9354SOL    HW139698   2.961   2.120   2.980  0.7022 -0.1692  0.5946
 9354SOL    HW239699   3.114   2.110   2.955 -0.5109  0.2074 -0.7152
 9355SOL     OW39700   3.587   2.274  12.617 -0.8331  0.1306 -0.4248
 9355SOL    HW139701   3.654   2.276  12.685 -0.9667  0.2504 -0.2982
 9355SOL    HW239702   3.522   2.221  12.663 -1.2987  0.8338 -0.2715
 9356SOL     OW39703   3.179   1.647   2.367 -0.4841 -0.7505 -0.6080
 9356SOL    HW139704   3.230   1.654   2.447 -0.8147 -4.1666 -0.0883
 9356SOL    HW239705   3.136   1.733   2.369  0.6924 -0.1657 -0.1044
 9357SOL     OW39706   2.398   0.235   2.522 -0.2083  0.2321  0.3519
 9357SOL    HW139707   2.346   0.237   2.603  1.3461  2.4405  1.3061
 9357SOL    HW239708   2.395   0.141   2.508 -0.8579  0.6226 -2.0791
 9358SOL     OW39709   1.999   1.498   6.284  0.2207 -0.2361  0.5597
 9358SOL    HW139710   1.914   1.472   6.321 -1.1070  2.2600 -0.7299
 9358SOL    HW239711   2.021   1.417   6.238 -1.8484  0.4516 -1.6881
 9359SOL     OW39712   0.077   3.130   2.175 -0.1649 -0.4050 -0.4780
 9359SOL    HW139713   0.100   3.045   2.213 -1.0548 -1.1619 -1.6318
 9359SOL    HW239714   0.151   3.157   2.120  0.0532 -0.3210 -0.1423
 9360SOL     OW39715   4.140   0.808   2.991 -0.3915  0.0942  0.0430
 9360SOL    HW139716   4.222   0.807   2.941 -0.6678  0.4163 -0.4185
 9360SOL    HW239717   4.146   0.890   3.040 -0.0996  0.9197 -1.3469
 9361SOL     OW39718   3.339   0.200  17.092 -0.1303 -0.2777  0.0681
 9361SOL    HW139719   3.274   0.265  17.119  2.2720  1.1621  2.3390
 9361SOL    HW239720   3.288   0.137  17.041  1.7533 -1.2211 -0.6509
 9362SOL     OW39721   3.134   1.470  11.547 -0.3801 -0.1804 -0.4170
 9362SOL    HW139722   3.085   1.524  11.610  0.0087  2.2772 -2.2061
 9362SOL    HW239723   3.119   1.379  11.570  1.3380  0.3329  2.7310
 9363SOL     OW39724   2.228   2.689   2.399 -0.0975 -0.7144  0.4100
 9363SOL    HW139725   2.287   2.756   2.433 -2.6559  1.1826  1.0807
 9363SOL    HW239726   2.162   2.670   2.467 -0.8604  0.0529 -0.1157
 9364SOL     OW39727   4.699   2.348   3.099 -0.0290  0.1887  0.4679
 9364SOL    HW139728   0.022   2.388   3.033  0.7967  0.5645  1.4277
 9364SOL    HW239729   0.026   2.327   3.169  0.1202 -0.6566  0.0904
 9365SOL     OW39730   0.280   1.204  15.574  0.4759  0.3629 -0.0501
 9365SOL    HW139731   0.224   1.257  15.630  1.5732 -0.6997  2.0663
 9365SOL    HW239732   0.224   1.173  15.503 -1.3653  0.4383  1.3886
 9366SOL     OW39733   4.625   3.030   4.817  0.5028 -0.9050 -0.0815
 9366SOL    HW139734   4.542   2.989   4.794  0.8591 -1.0718 -1.0580
 9366SOL    HW239735   4.684   3.009   4.745 -1.9581  0.1392 -2.3908
 9367SOL     OW39736   2.853   4.548  16.200  0.4495  0.0016 -0.3585
 9367SOL    HW139737   2.855   4.453  16.213 -1.0080  0.0073 -0.0974
 9367SOL    HW239738   2.861   4.559  16.105 -2.6606 -1.2775 -0.7693
 9368SOL     OW39739   2.976   4.046  12.190  0.0683  0.4648 -0.1294
 9368SOL    HW139740   3.015   4.051  12.277  0.8564  0.6017 -0.4936
 9368SOL    HW239741   3.034   3.980  12.152 -0.3257 -0.5010  0.9512
 9369SOL     OW39742   2.254   1.173   3.639 -0.3320 -0.1080  0.0994
 9369SOL    HW139743   2.318   1.244   3.633  0.2975 -0.7101 -0.3530
 9369SOL    HW239744   2.189   1.196   3.572 -2.3933 -2.9372  1.1284
 9370SOL     OW39745   0.028   4.583   1.762 -0.3327  0.0542  0.1251
 9370SOL    HW139746   0.063   4.610   1.677 -2.1032 -2.9547 -1.5471
 9370SOL    HW239747   4.670   4.578   1.739 -0.6404  2.7679  0.7454
 9371SOL     OW39748   2.556   2.688  17.409  0.0970  0.3862  0.6325
 9371SOL    HW139749   2.530   2.598  17.390 -2.6010  1.1978  0.4329
 9371SOL    HW239750   2.479   2.733  17.374 -1.6610 -1.3240  2.3281
 9372SOL     OW39751   4.404   1.170   5.510  0.7354  0.7724  0.2773
 9372SOL    HW139752   4.439   1.202   5.427  0.0069 -0.7835 -0.6381
 9372SOL    HW239753   4.387   1.248   5.562 -0.0682  0.6464  0.2067
 9373SOL     OW39754   0.186   3.226   4.221  0.7352 -0.0148 -0.3795
 9373SOL    HW139755   0.098   3.189   4.214  0.5343  0.5775 -0.9454
 9373SOL    HW239756   0.168   3.319   4.236  0.2461 -0.1763  0.0481
 9374SOL     OW39757   4.715   4.068   2.155  0.3543  0.5038  0.1111
 9374SOL    HW139758   4.720   3.973   2.170 -2.0028  0.0673 -1.9388
 9374SOL    HW239759   4.718   4.103   2.244  0.7400  2.8780 -0.8219
 9375SOL     OW39760   1.012   3.837   8.846  0.6945 -0.0717 -0.1854
 9375SOL    HW139761   0.920   3.853   8.825  0.7012 -0.7907 -0.7736
 9375SOL    HW239762   1.017   3.859   8.939  2.4993 -0.0749 -0.2829
 9376SOL     OW39763   2.119   0.057   5.483 -0.3592  0.1325  0.2401
 9376SOL    HW139764   2.043   0.016   5.441  0.0810  0.6803 -1.1082
 9376SOL    HW239765   2.109   0.143   5.442 -0.1915  1.2801  2.6693
 9377SOL     OW39766   2.920   3.791  14.733  0.0663 -0.1700  0.1077
 9377SOL    HW139767   2.913   3.886  14.741  1.1144  0.0045 -1.1188
 9377SOL    HW239768   2.996   3.777  14.789  0.9884  0.8291 -0.8959
 9378SOL     OW39769   3.374   4.197  15.516 -0.3274  0.3942  0.1070
 9378SOL    HW139770   3.463   4.215  15.549 -0.6266  1.3330  0.4173
 9378SOL    HW239771   3.381   4.229  15.426  0.2870  0.2081  0.0863
 9379SOL     OW39772   0.947   4.521  15.877 -0.0991 -0.3634  0.4130
 9379SOL    HW139773   0.946   4.586  15.947 -1.4264 -0.6336  0.6440
 9379SOL    HW239774   0.883   4.547  15.811  0.5408  1.9764  0.7476
 9380SOL     OW39775   2.513   3.065   8.755 -0.0652  0.3970 -0.1945
 9380SOL    HW139776   2.505   3.008   8.831  2.9094 -0.2557 -0.3532
 9380SOL    HW239777   2.457   3.139   8.778 -0.7451 -0.2049  0.0473
 9381SOL     OW39778   0.541   1.563   6.242 -0.7485 -0.5869 -0.1766
 9381SOL    HW139779   0.604   1.618   6.290 -2.3584  0.5490  0.6332
 9381SOL    HW239780   0.540   1.489   6.302  0.5050  0.3102  0.9625
 9382SOL     OW39781   1.227   4.120   6.835  0.9288 -0.2030  0.1718
 9382SOL    HW139782   1.145   4.070   6.840 -0.3675  1.7947 -1.5880
 9382SOL    HW239783   1.197   4.202   6.874  0.2064 -0.7707  0.8241
 9383SOL     OW39784   3.525   1.588   4.375  0.8214 -0.1842  0.2978
 9383SOL    HW139785   3.491   1.619   4.459 -0.3731  0.8129 -0.5696
 9383SOL    HW239786   3.582   1.516   4.403  1.4739  0.2031 -0.0472
 9384SOL     OW39787   1.675   0.656  14.756 -0.2983  0.4304  0.3553
 9384SOL    HW139788   1.728   0.664  14.835  0.1761 -2.0791  0.3044
 9384SOL    HW239789   1.675   0.747  14.726 -0.7185  1.3938  3.3169
 9385SOL     OW39790   4.363   0.561   1.568  0.1562  0.6036 -0.2098
 9385SOL    HW139791   4.405   0.562   1.483 -0.9827 -0.8852 -0.7863
 9385SOL    HW239792   4.275   0.594   1.546 -0.3230 -2.0667 -2.2968
 9386SOL     OW39793   4.375   4.629   2.394 -0.1947  0.7304  0.4648
 9386SOL    HW139794   4.324   4.695   2.347  1.8814  1.8396 -0.2898
 9386SOL    HW239795   4.464   4.666   2.389 -0.4163  1.2048  0.0534
 9387SOL     OW39796   3.332   1.146   5.775  0.6677 -0.5174 -0.2726
 9387SOL    HW139797   3.427   1.142   5.761  0.9323 -0.2487  1.4244
 9387SOL    HW239798   3.319   1.071   5.834 -0.1013 -0.2522 -0.1090
 9388SOL     OW39799   2.300   4.436   0.894 -0.6064  0.9175 -0.8662
 9388SOL    HW139800   2.295   4.456   0.801 -1.4164 -0.1329 -1.0384
 9388SOL    HW239801   2.294   4.341   0.892  3.4399  0.6073  0.0712
 9389SOL     OW39802   1.389   0.717   5.075 -0.5495  0.3796  0.5346
 9389SOL    HW139803   1.403   0.661   4.998 -0.2331 -1.0574  1.6394
 9389SOL    HW239804   1.361   0.804   5.048 -1.1510  0.5387  1.6839
 9390SOL     OW39805   1.098   0.142  14.571  0.0339 -0.0340 -0.3631
 9390SOL    HW139806   1.138   0.063  14.534  1.4869  0.3373  0.4206
 9390SOL    HW239807   1.008   0.115  14.590 -0.0829  0.5275 -0.1248
 9391SOL     OW39808   0.057   1.315  12.901  0.2050 -0.4640 -0.3739
 9391SOL    HW139809   4.705   1.299  12.864 -0.4899 -3.0217  2.2856
 9391SOL    HW239810   0.037   1.322  12.995  1.3292  0.4970 -0.2017
 9392SOL     OW39811   1.778   2.134   7.849  0.2333 -0.6105 -0.4992
 9392SOL    HW139812   1.791   2.154   7.756 -1.1568  1.0053 -0.3346
 9392SOL    HW239813   1.835   2.057   7.856  0.9182 -0.1978 -1.5298
 9393SOL     OW39814   1.724   3.415   5.957 -0.9660 -0.3443  0.3305
 9393SOL    HW139815   1.709   3.361   6.035 -0.4216  1.1635  1.4663
 9393SOL    HW239816   1.658   3.483   5.969  0.6915  1.3684 -0.2034
 9394SOL     OW39817   2.996   4.587  14.482  0.3608 -0.3699  0.5076
 9394SOL    HW139818   3.022   4.543  14.401  1.0400 -1.6944  1.4454
 9394SOL    HW239819   3.030   4.522  14.543  0.0478 -1.9714 -1.0187
 9395SOL     OW39820   2.940   2.874   4.787 -0.5996 -0.0464  0.1425
 9395SOL    HW139821   3.011   2.890   4.849  2.6140 -1.5072 -3.2034
 9395SOL    HW239822   2.944   2.950   4.729 -0.0853 -0.7080 -0.6914
 9396SOL     OW39823   1.648   4.211   5.122  0.3186  0.4196 -0.3527
 9396SOL    HW139824   1.582   4.244   5.184  1.4883 -1.6857  2.0006
 9396SOL    HW239825   1.718   4.177   5.178 -0.1768 -0.2776 -0.1680
 9397SOL     OW39826   4.305   3.383   6.143 -0.0037  0.4417 -0.9019
 9397SOL    HW139827   4.238   3.445   6.173 -1.0355 -0.5999 -1.0421
 9397SOL    HW239828   4.322   3.413   6.054 -0.9401 -1.5033 -1.7475
 9398SOL     OW39829   3.521   3.997   5.985  0.2184  0.0234  0.1055
 9398SOL    HW139830   3.471   4.079   5.983  0.1632  0.0369  1.7356
 9398SOL    HW239831   3.530   3.979   5.892  1.4428  0.8508  0.0598
 9399SOL     OW39832   1.722   1.843   0.755  0.6268 -0.1448  0.0958
 9399SOL    HW139833   1.685   1.865   0.669  1.0849  1.6785  0.3824
 9399SOL    HW239834   1.667   1.766   0.770 -0.3238  0.7751  1.3350
 9400SOL     OW39835   1.375   3.086   2.714 -0.1994 -0.3362  0.3120
 9400SOL    HW139836   1.396   2.994   2.702  2.2399  0.2187  0.3971
 9400SOL    HW239837   1.322   3.113   2.639  0.9185  0.4435 -0.1905
 9401SOL     OW39838   2.540   3.002   5.207  0.4542 -0.4004  0.9370
 9401SOL    HW139839   2.613   2.992   5.269  0.4170  2.1648  1.4052
 9401SOL    HW239840   2.578   2.970   5.125  1.1956 -0.7195  1.4047
 9402SOL     OW39841   3.884   2.231   2.986 -0.5608  0.5939  0.1672
 9402SOL    HW139842   3.926   2.147   3.003  2.6475  2.4977  1.8059
 9402SOL    HW239843   3.924   2.293   3.048 -0.9301  0.1358  0.8706
 9403SOL     OW39844   3.574   4.504  15.326 -0.5262 -0.1308 -0.0467
 9403SOL    HW139845   3.593   4.517  15.419 -0.9198 -1.1521  0.1753
 9403SOL    HW239846   3.524   4.582  15.303 -0.0790 -0.4126 -2.0578
 9404SOL     OW39847   1.280   0.668   9.190 -0.2216 -0.3254  0.5297
 9404SOL    HW139848   1.323   0.621   9.261  1.7821  0.7954  0.0579
 9404SOL    HW239849   1.214   0.720   9.235  0.2530  0.0281  0.8067
 9405SOL     OW39850   3.588   1.001  11.142  0.5102  0.6939  0.1875
 9405SOL    HW139851   3.682   1.020  11.150  0.7137 -0.2833  0.2065
 9405SOL    HW239852   3.572   0.974  11.233 -1.7354 -0.2021 -0.4842
 9406SOL     OW39853   2.747   3.391   9.026  0.1812 -0.2220  0.4218
 9406SOL    HW139854   2.784   3.375   8.939 -1.7154 -1.2128 -0.1986
 9406SOL    HW239855   2.783   3.321   9.080  0.6006 -0.6185 -0.3639
 9407SOL     OW39856   0.129   0.124   0.027 -0.1163  0.2331  0.5879
 9407SOL    HW139857   0.160   0.213   0.011  0.6087 -0.1549 -0.1245
 9407SOL    HW239858   0.044   0.145   0.065 -0.6035 -0.7819  0.0551
 9408SOL     OW39859   4.255   0.103   0.248  0.5202  0.4820 -0.2787
 9408SOL    HW139860   4.271   0.139   0.161  0.6603  0.4824 -0.2519
 9408SOL    HW239861   4.287   0.171   0.307  1.1429  1.4572 -1.7595
 9409SOL     OW39862   2.708   2.199   2.908 -0.1172 -0.3096  0.0996
 9409SOL    HW139863   2.742   2.268   2.964  0.2987 -1.3653  1.1554
 9409SOL    HW239864   2.756   2.208   2.826  1.1367 -0.4350  0.8085
 9410SOL     OW39865   0.362   0.882  12.337  0.0601 -0.0762  0.1736
 9410SOL    HW139866   0.327   0.969  12.319 -0.3253 -0.4449 -0.8447
 9410SOL    HW239867   0.418   0.902  12.412 -0.2690 -0.5723  0.5493
 9411SOL     OW39868   3.130   2.964   0.786  0.7163 -0.2037 -0.2054
 9411SOL    HW139869   3.041   2.999   0.775 -0.3774 -3.2388 -0.9531
 9411SOL    HW239870   3.119   2.946   0.880  2.1885  0.0152  0.0070
 9412SOL     OW39871   2.219   1.609   3.828 -0.0003 -0.1399  0.0161
 9412SOL    HW139872   2.186   1.685   3.875  0.0247 -1.0193  1.4446
 9412SOL    HW239873   2.216   1.636   3.736 -2.2008  1.7771  0.6636
 9413SOL     OW39874   2.796   3.115   1.292  0.1412  0.0406  0.1582
 9413SOL    HW139875   2.823   3.202   1.320  1.2292 -0.4539  0.6278
 9413SOL    HW239876   2.839   3.068   1.363 -2.2267  0.1410  1.6594
 9414SOL     OW39877   2.050   0.529   4.835  0.9901  0.2088 -0.2889
 9414SOL    HW139878   2.081   0.619   4.843 -0.2715  0.6362 -0.2066
 9414SOL    HW239879   2.124   0.498   4.784  2.8626 -1.0113  3.1446
 9415SOL     OW39880   0.067   3.261  10.339  0.0831 -0.4060 -0.1014
 9415SOL    HW139881   0.095   3.283  10.250 -0.7751 -4.5870 -1.3982
 9415SOL    HW239882   4.710   3.290  10.346  0.3494  0.1336  1.1199
 9416SOL     OW39883   4.065   4.207   1.229  0.2037 -0.1510 -0.0799
 9416SOL    HW139884   3.983   4.158   1.232 -2.3009  3.9766 -0.5596
 9416SOL    HW239885   4.069   4.243   1.318 -0.5804 -2.9163  1.0797
 9417SOL     OW39886   2.704   2.367  17.249 -0.3390 -0.8264 -0.5065
 9417SOL    HW139887   2.633   2.325  17.297 -0.6339  0.0604 -0.1609
 9417SOL    HW239888   2.660   2.422  17.184  0.8475  1.2640  0.4746
 9418SOL     OW39889   4.265   4.462   0.164  0.9723  0.6714  0.2919
 9418SOL    HW139890   4.289   4.388   0.108  1.8097  1.3759 -0.2690
 9418SOL    HW239891   4.280   4.421   0.250 -1.7301  2.1269  1.4524
 9419SOL     OW39892   2.577   2.697   9.388  0.4727  0.2328  0.6815
 9419SOL    HW139893   2.544   2.775   9.342  0.1520 -0.9115 -1.0287
 9419SOL    HW239894   2.650   2.730   9.441 -1.6284  0.6586  3.3406
 9420SOL     OW39895   4.654   0.122   6.407 -0.3299  0.0774 -0.0865
 9420SOL    HW139896   4.664   0.027   6.402  0.3987  0.0982  0.8994
 9420SOL    HW239897   4.606   0.136   6.325 -1.6753 -1.8854  0.3581
 9421SOL     OW39898   3.042   2.368   5.232 -0.2418 -0.4078 -0.0914
 9421SOL    HW139899   2.968   2.428   5.244  0.7346  0.7037  0.4093
 9421SOL    HW239900   3.095   2.387   5.309  1.8419 -0.1461 -1.6126
 9422SOL     OW39901   3.078   1.003   9.173 -0.4452  0.0605  0.0618
 9422SOL    HW139902   3.099   0.927   9.227 -0.2374 -1.0847 -1.6225
 9422SOL    HW239903   2.984   1.000   9.190 -0.5377 -1.2910 -0.6812
 9423SOL     OW39904   2.993   2.399   2.616  0.0058 -0.1113  0.0095
 9423SOL    HW139905   3.023   2.471   2.561 -2.8354  1.2882  0.2971
 9423SOL    HW239906   2.954   2.436   2.695  2.0309 -1.8987  1.8366
 9424SOL     OW39907   2.494   4.533   4.810  0.3106 -0.2434 -0.2135
 9424SOL    HW139908   2.558   4.603   4.800  0.6687 -0.4901  0.4158
 9424SOL    HW239909   2.467   4.529   4.901  0.6564 -1.1894 -0.1568
 9425SOL     OW39910   4.536   4.286  13.048  0.9256 -0.1228  0.1365
 9425SOL    HW139911   4.540   4.379  13.026 -0.2539 -0.3513 -1.0786
 9425SOL    HW239912   4.541   4.282  13.143  1.4169 -2.8505 -0.0156
 9426SOL     OW39913   1.925   2.391  16.219  0.1704 -0.1854 -0.1991
 9426SOL    HW139914   1.876   2.462  16.259  0.3909  0.7877 -1.6415
 9426SOL    HW239915   1.972   2.428  16.144 -1.3546  2.4007  0.1499
 9427SOL     OW39916   0.871   2.422   3.680  0.2668 -0.1833  0.5223
 9427SOL    HW139917   0.878   2.459   3.768  1.4138  1.6147 -0.3224
 9427SOL    HW239918   0.822   2.341   3.687 -0.5829  0.3260  0.3937
 9428SOL     OW39919   3.643   4.057   4.457 -0.1861 -0.0636  0.5005
 9428SOL    HW139920   3.557   4.096   4.467 -1.0299 -2.2564  1.6396
 9428SOL    HW239921   3.627   3.983   4.399  2.2563 -0.1617 -0.0737
 9429SOL     OW39922   3.278   3.521   9.197 -0.3611  0.2549  0.2826
 9429SOL    HW139923   3.226   3.491   9.272  0.0344  1.3823  1.0041
 9429SOL    HW239924   3.212   3.537   9.130  0.7315 -0.5976 -0.9874
 9430SOL     OW39925   0.006   1.373  13.993 -0.2714 -0.1242 -0.2340
 9430SOL    HW139926   4.710   1.356  13.904  0.9424 -0.0524 -0.6553
 9430SOL    HW239927   4.690   1.451  14.013  0.2813  0.5469 -1.4546
 9431SOL     OW39928   0.204   0.881   4.958 -0.1843  0.4438 -0.0494
 9431SOL    HW139929   0.260   0.862   5.033  2.5418  2.1769 -1.6782
 9431SOL    HW239930   0.225   0.972   4.935  1.3493  0.0001 -0.3737
 9432SOL     OW39931   1.501   3.392  13.606 -0.3687  0.2078 -0.6266
 9432SOL    HW139932   1.484   3.471  13.658 -0.5135 -0.4293  0.3109
 9432SOL    HW239933   1.461   3.328  13.665  1.2627 -1.5034 -1.3517
 9433SOL     OW39934   1.401   0.728   6.704 -0.5377 -0.0938  0.8190
 9433SOL    HW139935   1.310   0.696   6.700 -0.8725  0.6076  2.4519
 9433SOL    HW239936   1.418   0.750   6.613 -0.2947 -0.6190  0.7381
 9434SOL     OW39937   3.396   4.618  15.981  0.5588  0.3520  0.3767
 9434SOL    HW139938   3.343   4.542  15.955  0.8148  0.0059  0.8530
 9434SOL    HW239939   3.337   4.693  15.979 -0.2471 -0.2540  1.1479
 9435SOL     OW39940   2.957   0.266   1.401 -0.1082 -0.1361 -0.3965
 9435SOL    HW139941   2.959   0.237   1.492 -1.2436 -0.0325 -0.3416
 9435SOL    HW239942   2.870   0.233   1.379 -0.2956  1.2189 -1.7445
 9436SOL     OW39943   3.252   3.769  11.813 -0.3004 -0.0537 -0.2111
 9436SOL    HW139944   3.164   3.789  11.780 -1.1147 -1.0139  1.3366
 9436SOL    HW239945   3.310   3.774  11.737  2.6739  1.8101  2.1595
 9437SOL     OW39946   1.309   2.224   7.032  0.6102 -0.0152  0.0301
 9437SOL    HW139947   1.264   2.290   6.980 -1.7518 -0.7414  1.1362
 9437SOL    HW239948   1.233   2.167   7.048  2.7125 -3.0975 -1.0712
 9438SOL     OW39949   2.193   2.433   5.619  0.0423  0.1477  0.7219
 9438SOL    HW139950   2.144   2.479   5.687  0.9171  2.4605 -0.1866
 9438SOL    HW239951   2.221   2.508   5.565  0.3061 -0.6583 -0.2583
 9439SOL     OW39952   4.400   2.384   5.525 -0.2735 -0.1783  0.5647
 9439SOL    HW139953   4.398   2.472   5.564 -2.0297  1.1522 -2.5411
 9439SOL    HW239954   4.317   2.348   5.556 -0.6508 -0.6145 -0.9915
 9440SOL     OW39955   2.069   1.810   4.214 -0.1003  0.1279  0.0235
 9440SOL    HW139956   1.995   1.762   4.177 -0.8213  1.8323 -0.7632
 9440SOL    HW239957   2.031   1.876   4.272 -0.6261 -1.1362  1.0903
 9441SOL     OW39958   1.824   4.381   9.140 -0.2912 -0.5234 -0.0564
 9441SOL    HW139959   1.787   4.299   9.172 -2.1423  0.5954  0.6831
 9441SOL    HW239960   1.807   4.442   9.211 -1.9755 -0.8424 -0.1746
 9442SOL     OW39961   0.371   2.737  13.481 -0.0273  0.4313 -0.7751
 9442SOL    HW139962   0.451   2.687  13.466 -0.7375 -0.9202 -0.0302
 9442SOL    HW239963   0.361   2.732  13.576  3.0302 -1.3811 -0.5573
 9443SOL     OW39964   2.397   2.075   3.540  0.3928  0.2484 -0.4389
 9443SOL    HW139965   2.423   2.127   3.616  0.3461 -0.9229  0.3834
 9443SOL    HW239966   2.302   2.064   3.538  0.4433 -0.2321 -0.2869
 9444SOL     OW39967   0.271   3.513   1.378  0.9068  0.1606  0.0964
 9444SOL    HW139968   0.205   3.489   1.443  0.8445 -0.3103 -0.1378
 9444SOL    HW239969   0.252   3.456   1.303  0.1531  0.1632  0.2877
 9445SOL     OW39970   0.069   4.685   4.212  0.3201 -0.1437  0.0489
 9445SOL    HW139971   0.061   4.658   4.121  0.0655  0.2236 -0.0387
 9445SOL    HW239972   0.036   0.040   4.218  0.6008  0.0405 -1.1719
 9446SOL     OW39973   3.975   0.663   6.119 -0.1600  0.3068  0.2363
 9446SOL    HW139974   3.933   0.690   6.200  0.1448  1.3095  0.0704
 9446SOL    HW239975   3.928   0.582   6.099  0.0525  0.1650  0.3071
 9447SOL     OW39976   1.953   2.713   7.882 -0.4898  0.7708  0.1704
 9447SOL    HW139977   1.938   2.719   7.787 -0.6102 -0.5849  0.1047
 9447SOL    HW239978   1.980   2.624   7.906 -0.9739 -0.0008 -2.1476
 9448SOL     OW39979   1.696   0.563  12.211  0.1025 -0.3152  0.4943
 9448SOL    HW139980   1.732   0.499  12.272  0.9899 -0.6238 -0.3406
 9448SOL    HW239981   1.706   0.648  12.254 -0.5454 -0.6411  1.2666
 9449SOL     OW39982   0.862   2.716  15.828  0.3474  0.3113 -0.7687
 9449SOL    HW139983   0.783   2.666  15.808  0.7495  0.9546 -3.9897
 9449SOL    HW239984   0.920   2.699  15.753  0.1373  0.5750 -0.9914
 9450SOL     OW39985   1.978   4.608   7.675 -0.3203 -0.0284 -0.3934
 9450SOL    HW139986   2.059   4.650   7.647  0.0315 -0.6838 -0.3668
 9450SOL    HW239987   1.938   4.602   7.588 -3.5398  0.4724  1.0325
 9451SOL     OW39988   3.447   2.180   2.876  0.2256 -0.1303  0.3153
 9451SOL    HW139989   3.529   2.228   2.869  0.2072  0.1333  2.0027
 9451SOL    HW239990   3.415   2.227   2.799 -1.1968 -0.1017  0.9218
 9452SOL     OW39991   3.413   4.018   4.689 -0.3747 -0.7004  0.4764
 9452SOL    HW139992   3.470   3.963   4.743 -1.2528 -1.4690  0.6209
 9452SOL    HW239993   3.335   3.963   4.685  0.5745 -2.0417  0.4948
 9453SOL     OW39994   1.431   3.438   7.591 -0.1877 -0.1820 -0.4288
 9453SOL    HW139995   1.462   3.438   7.682 -1.6161  1.3283  0.0572
 9453SOL    HW239996   1.510   3.411   7.544  0.1953  3.2232 -1.7011
 9454SOL     OW39997   1.381   4.277   3.612 -0.0645  0.0786  0.2819
 9454SOL    HW139998   1.455   4.295   3.669  1.1827  0.1670 -1.3470
 9454SOL    HW239999   1.376   4.352   3.553 -0.6797 -1.1371 -1.2459
 9455SOL     OW40000   1.942   4.658   3.241 -0.5120  0.0780  0.2254
 9455SOL    HW140001   1.926   0.014   3.268 -0.7323  0.3276 -0.7523
 9455SOL    HW240002   1.974   4.621   3.323 -1.0063  2.1261  1.3424
 9456SOL     OW40003   0.689   3.711   2.450  0.0758  0.5245 -0.1062
 9456SOL    HW140004   0.747   3.767   2.501  0.1279  0.6410 -0.2917
 9456SOL    HW240005   0.611   3.698   2.505  1.2598 -0.0814  1.4106
 9457SOL     OW40006   3.047   2.130   3.256 -0.2765  0.1668  0.3194
 9457SOL    HW140007   3.109   2.108   3.186 -0.3585  0.1204  0.2627
 9457SOL    HW240008   3.101   2.187   3.310 -0.4312  0.2975  0.3348
 9458SOL     OW40009   3.345   2.522  15.095  0.1834 -0.0005  0.4409
 9458SOL    HW140010   3.439   2.541  15.095 -0.3184  2.4637 -1.7989
 9458SOL    HW240011   3.306   2.576  15.026 -2.4340  0.7267  2.4979
 9459SOL     OW40012   3.885   4.247   2.435 -0.9431 -0.2965 -0.3882
 9459SOL    HW140013   3.938   4.167   2.425 -0.2087  0.0720  0.5004
 9459SOL    HW240014   3.933   4.286   2.509 -0.8508 -0.9821 -0.0820
 9460SOL     OW40015   4.545   1.924   8.251 -0.0989  0.3005 -0.4432
 9460SOL    HW140016   4.507   1.945   8.336 -2.8133  2.1087 -2.0922
 9460SOL    HW240017   4.490   1.856   8.211  1.6142 -2.1608  1.4458
 9461SOL     OW40018   0.416   1.217  11.022 -0.2496 -0.0609 -0.3396
 9461SOL    HW140019   0.329   1.200  11.059 -0.5636  0.8735 -0.6599
 9461SOL    HW240020   0.459   1.169  11.094  1.1892  1.5629 -0.1145
 9462SOL     OW40021   4.614   1.355   7.537 -0.2282 -0.2551  0.0682
 9462SOL    HW140022   4.544   1.320   7.482 -0.1218 -0.0676 -0.1854
 9462SOL    HW240023   4.568   1.353   7.621 -2.1365  2.4763 -0.9260
 9463SOL     OW40024   3.713   3.186  11.335  0.2392  0.0655 -0.5200
 9463SOL    HW140025   3.701   3.259  11.396  1.0495  1.5505 -2.1217
 9463SOL    HW240026   3.797   3.150  11.362 -0.9905 -0.8338  2.0879
 9464SOL     OW40027   3.915   2.410  16.931  0.8198  0.0787  0.5557
 9464SOL    HW140028   3.825   2.393  16.900  0.7361 -1.2474  1.5035
 9464SOL    HW240029   3.918   2.502  16.957 -1.7808  0.2412  0.3551
 9465SOL     OW40030   2.864   3.144   7.682  0.1180  0.0677  0.3833
 9465SOL    HW140031   2.859   3.062   7.731 -2.0599  1.4981  2.5585
 9465SOL    HW240032   2.920   3.196   7.741  1.2598 -0.5230 -0.1716
 9466SOL     OW40033   3.205   3.158   3.299 -0.5857  0.3262  0.6325
 9466SOL    HW140034   3.127   3.178   3.247  0.2500  1.4964 -0.1571
 9466SOL    HW240035   3.271   3.152   3.229 -1.0409 -0.3773  0.2645
 9467SOL     OW40036   0.154   0.528   2.270 -0.0152  0.2962 -0.0616
 9467SOL    HW140037   0.217   0.553   2.202 -1.0107  1.9715 -0.3507
 9467SOL    HW240038   0.077   0.557   2.221 -0.0299  2.0162  1.0224
 9468SOL     OW40039   3.157   4.598   7.629  0.1590  0.0151 -0.5212
 9468SOL    HW140040   3.142   4.691   7.611  2.8554  0.7427  1.0398
 9468SOL    HW240041   3.072   4.587   7.672  0.5974 -2.0627 -0.1830
 9469SOL     OW40042   2.855   3.389   8.498 -0.0174  0.2500  0.2937
 9469SOL    HW140043   2.771   3.399   8.543 -0.8530 -0.7440 -1.0361
 9469SOL    HW240044   2.879   3.481   8.493  0.0945  0.1576 -0.8737
 9470SOL     OW40045   0.327   4.112  12.495 -0.2584 -0.1954 -0.2952
 9470SOL    HW140046   0.253   4.157  12.454 -0.8325 -2.1500 -1.4023
 9470SOL    HW240047   0.393   4.177  12.468  0.2222 -1.4929 -2.2475
 9471SOL     OW40048   0.740   0.851  12.172 -0.0407 -0.4836  0.2898
 9471SOL    HW140049   0.814   0.840  12.113  0.2315  1.6393  0.2334
 9471SOL    HW240050   0.677   0.798  12.124 -1.7454  1.8058  0.0004
 9472SOL     OW40051   3.229   2.871   4.899  0.2580 -0.0078 -0.2509
 9472SOL    HW140052   3.202   2.823   4.977 -0.9556 -0.5849 -1.0339
 9472SOL    HW240053   3.288   2.808   4.857 -0.5655 -2.5877  2.4862
 9473SOL     OW40054   0.070   2.936   8.989  0.7038 -0.9285 -0.7556
 9473SOL    HW140055   0.114   3.002   9.042  0.3964 -1.0505 -0.3448
 9473SOL    HW240056   0.020   2.996   8.934  0.6992 -0.1362  0.1193
 9474SOL     OW40057   0.702   4.561   5.482  0.1568 -0.7247  0.1115
 9474SOL    HW140058   0.743   4.476   5.495  0.0980 -0.8645 -0.6392
 9474SOL    HW240059   0.631   4.536   5.424 -2.0000  1.9205  1.5930
 9475SOL     OW40060   2.577   2.202   7.984 -0.4848  0.7209  0.0565
 9475SOL    HW140061   2.546   2.160   7.904  0.6116 -2.4964  1.3240
 9475SOL    HW240062   2.666   2.169   7.998 -0.9748  0.5571  2.7648
 9476SOL     OW40063   2.078   2.392  17.407 -0.3015 -0.5685 -0.1408
 9476SOL    HW140064   2.153   2.412  17.464 -0.8499  0.7825  0.1183
 9476SOL    HW240065   2.001   2.432  17.450 -0.1040  0.4301 -0.7110
 9477SOL     OW40066   0.420   1.600   3.788  0.3135 -0.3837  0.1481
 9477SOL    HW140067   0.400   1.539   3.717 -0.8273 -0.5318  0.5853
 9477SOL    HW240068   0.484   1.554   3.842 -0.4693 -0.3688  1.0896
 9478SOL     OW40069   4.383   4.667  17.593 -0.0771 -0.6934 -0.4277
 9478SOL    HW140070   4.303   4.615  17.599  0.8799 -2.1076 -0.0571
 9478SOL    HW240071   4.351   4.726  17.524 -0.2725  0.3047  0.5167
 9479SOL     OW40072   3.365   0.881   2.494 -0.5773 -0.0780 -0.4370
 9479SOL    HW140073   3.288   0.889   2.438 -2.6433 -0.3978  2.3524
 9479SOL    HW240074   3.337   0.810   2.553  0.0407  0.8654  0.9860
 9480SOL     OW40075   3.795   0.386   3.725  0.0697  0.5007  0.3252
 9480SOL    HW140076   3.725   0.417   3.667 -1.2059 -0.8567  1.1760
 9480SOL    HW240077   3.747   0.364   3.804 -0.7846 -1.1307 -0.6452
 9481SOL     OW40078   3.649   2.946   8.617  0.1221 -0.0869 -0.3928
 9481SOL    HW140079   3.664   2.953   8.711  0.4686  0.3422 -0.4801
 9481SOL    HW240080   3.650   2.852   8.601  3.4707 -0.2316  0.7333
 9482SOL     OW40081   2.036   2.069   4.800  0.2328  0.3376  0.5772
 9482SOL    HW140082   2.116   2.072   4.748  0.6304 -0.9113  1.1115
 9482SOL    HW240083   1.986   2.015   4.739  1.0111 -0.3389  0.5376
 9483SOL     OW40084   1.865   0.305   9.041  0.0804  0.3366 -0.4332
 9483SOL    HW140085   1.876   0.393   9.006 -0.3953  0.6160  0.1357
 9483SOL    HW240086   1.801   0.272   8.978 -0.6172  0.6770  0.1099
 9484SOL     OW40087   2.393   1.838   4.927 -0.5037 -0.7519 -0.1570
 9484SOL    HW140088   2.307   1.796   4.935 -0.0797 -1.0045  3.1957
 9484SOL    HW240089   2.452   1.765   4.912 -0.3226 -0.5954 -0.2016
 9485SOL     OW40090   3.512   3.816  13.994 -0.0641  0.1350 -0.9775
 9485SOL    HW140091   3.579   3.866  13.947 -0.3910  0.2701 -1.3050
 9485SOL    HW240092   3.569   3.740  14.001  2.8967  2.2921 -1.4828
 9486SOL     OW40093   1.183   2.483   7.961 -0.2875  0.4204  0.2737
 9486SOL    HW140094   1.193   2.410   8.022 -1.0721  0.1024  0.0198
 9486SOL    HW240095   1.216   2.448   7.879  1.4510 -0.4973  1.3589
 9487SOL     OW40096   2.698   4.692  13.450  0.3210 -0.3514  0.7645
 9487SOL    HW140097   2.650   0.041  13.444  0.6797 -0.1103  1.3488
 9487SOL    HW240098   2.789   4.705  13.424 -0.1045 -0.2822 -0.7423
 9488SOL     OW40099   2.637   0.672   4.353  0.0927  0.4770 -0.4605
 9488SOL    HW140100   2.697   0.739   4.320  0.6188  0.0388 -0.3979
 9488SOL    HW240101   2.559   0.690   4.301  0.9568  1.0244 -1.5949
 9489SOL     OW40102   1.078   2.119   5.394 -0.0563  0.7331  0.3845
 9489SOL    HW140103   1.120   2.202   5.375 -1.4289  1.0848 -1.0570
 9489SOL    HW240104   1.134   2.057   5.347 -0.8249  1.3461 -1.3073
 9490SOL     OW40105   2.114   2.398   4.744  0.0026  0.2836 -0.5334
 9490SOL    HW140106   2.122   2.320   4.689 -0.4066 -0.2910  0.2217
 9490SOL    HW240107   2.025   2.407   4.778 -0.5387 -0.4540 -1.7293
 9491SOL     OW40108   3.104   4.685   8.058 -0.0422 -0.5605 -0.5546
 9491SOL    HW140109   3.041   4.692   7.986 -0.9902  0.1766  0.3666
 9491SOL    HW240110   3.096   4.593   8.084 -1.3749 -0.2885 -0.0068
 9492SOL     OW40111   3.163   1.735   9.903  0.1522 -0.0916  0.3721
 9492SOL    HW140112   3.148   1.805   9.839 -0.5345  0.0911  0.7344
 9492SOL    HW240113   3.257   1.719   9.893  0.3006  0.3124  1.1816
 9493SOL     OW40114   4.638   4.494  14.859 -0.4946  0.2086 -0.0581
 9493SOL    HW140115   4.586   4.537  14.927 -0.2297 -0.4773  0.5752
 9493SOL    HW240116   4.722   4.512  14.901 -0.4228 -1.5074  0.5376
 9494SOL     OW40117   1.526   4.431   4.168  0.5585  0.4457 -0.3140
 9494SOL    HW140118   1.541   4.483   4.247 -0.4010 -1.1241  0.8946
 9494SOL    HW240119   1.487   4.351   4.201  0.9106  0.4616  0.1405
 9495SOL     OW40120   1.727   0.434  10.777  0.2837 -0.0640  0.7342
 9495SOL    HW140121   1.668   0.446  10.851 -0.1113 -0.1425  0.4331
 9495SOL    HW240122   1.689   0.361  10.729 -2.3255  1.1732  0.9018
 9496SOL     OW40123   1.666   1.395   4.827 -0.6603 -0.1043 -0.2596
 9496SOL    HW140124   1.674   1.324   4.763  2.8274  0.2258 -0.2198
 9496SOL    HW240125   1.758   1.418   4.844 -0.2487  0.6646 -3.4901
 9497SOL     OW40126   4.027   4.561   2.011 -0.0139 -0.0316  0.2218
 9497SOL    HW140127   4.038   4.468   1.996 -0.8494  0.3130 -2.4835
 9497SOL    HW240128   3.940   4.560   1.970 -0.1699  1.3803  0.5150
 9498SOL     OW40129   3.434   2.107   2.271 -0.9204  0.1206 -0.2294
 9498SOL    HW140130   3.500   2.174   2.284 -1.1204  0.2826 -0.0333
 9498SOL    HW240131   3.379   2.126   2.347 -1.6238  2.6412 -1.3749
 9499SOL     OW40132   0.659   0.733   2.181 -0.0799 -0.0862 -0.4060
 9499SOL    HW140133   0.657   0.658   2.122  1.3771 -1.3401  1.1288
 9499SOL    HW240134   0.625   0.794   2.117 -0.4410  0.1796  0.0366
 9500SOL     OW40135   0.892   2.715  13.416 -0.0267  0.1827 -0.5276
 9500SOL    HW140136   0.849   2.801  13.419 -0.0318  0.1306  0.8947
 9500SOL    HW240137   0.928   2.715  13.328  0.9747 -0.1684 -0.1142
 9501SOL     OW40138   2.868   0.054  14.309 -0.1703 -0.2890  0.2816
 9501SOL    HW140139   2.806   0.005  14.362 -0.4110  0.0759  0.3328
 9501SOL    HW240140   2.940   0.060  14.372  1.1399  1.2631 -1.3729
 9502SOL     OW40141   0.418   4.280   8.481 -0.0205  0.6831  0.4467
 9502SOL    HW140142   0.461   4.341   8.541 -0.5029  1.9320 -0.4712
 9502SOL    HW240143   0.493   4.251   8.429 -0.3395 -0.9586  0.9042
 9503SOL     OW40144   1.716   1.324  10.319 -0.2577  0.5333  0.5274
 9503SOL    HW140145   1.703   1.376  10.399 -1.6369  2.1740 -0.7579
 9503SOL    HW240146   1.800   1.367  10.302 -0.7402  1.0483 -0.5871
 9504SOL     OW40147   2.581   0.041   7.561  0.2809 -0.3350  0.6950
 9504SOL    HW140148   2.546   0.068   7.647 -0.7031 -0.2796  0.2823
 9504SOL    HW240149   2.671   0.073   7.559 -0.2531  1.2680  1.3429
 9505SOL     OW40150   1.427   1.449  12.343  0.5567  0.3160  0.1084
 9505SOL    HW140151   1.469   1.520  12.391  2.3297  1.0281 -2.5290
 9505SOL    HW240152   1.456   1.376  12.398  1.2629  2.2656  2.2907
 9506SOL     OW40153   3.554   4.004   5.257 -0.2186  0.0940  0.6038
 9506SOL    HW140154   3.639   4.028   5.292 -0.0608  1.4614 -0.7375
 9506SOL    HW240155   3.495   4.035   5.326 -1.2921 -2.1770  0.7084
 9507SOL     OW40156   3.760   1.370  10.500 -0.2307  0.6845  0.1634
 9507SOL    HW140157   3.707   1.352  10.422 -2.2212  1.4476  1.3431
 9507SOL    HW240158   3.694   1.373  10.570 -2.2993  1.9703 -1.8471
 9508SOL     OW40159   2.783   1.011   2.925 -0.1191  0.0277  0.4233
 9508SOL    HW140160   2.794   1.026   3.019  1.3327  2.7939 -0.1952
 9508SOL    HW240161   2.731   1.089   2.910 -0.8596 -0.2117  1.7392
 9509SOL     OW40162   3.875   1.110   5.861  0.0145  0.2893 -0.4638
 9509SOL    HW140163   3.828   1.050   5.919  0.2152  1.4782  0.9430
 9509SOL    HW240164   3.939   1.053   5.819 -0.1659 -0.3013  0.0615
 9510SOL     OW40165   0.012   1.969   4.339 -0.6362 -0.4421 -0.0946
 9510SOL    HW140166   4.654   1.988   4.356 -0.7934 -1.5599  0.2933
 9510SOL    HW240167   0.038   1.928   4.421 -2.0307 -1.8400 -0.3476
 9511SOL     OW40168   3.557   3.943  14.459  0.2043  0.0986 -0.1656
 9511SOL    HW140169   3.566   3.876  14.391  1.6380 -0.6465  0.7660
 9511SOL    HW240170   3.468   3.927  14.489 -0.4569  0.4655 -1.9244
 9512SOL     OW40171   2.792   2.397   6.443 -0.8783  0.4092  0.3296
 9512SOL    HW140172   2.800   2.487   6.476 -0.1844 -0.8634  3.6918
 9512SOL    HW240173   2.816   2.412   6.352 -1.1882 -2.8302 -0.2779
 9513SOL     OW40174   2.693   4.166   4.912  0.0516 -0.2738 -0.0278
 9513SOL    HW140175   2.715   4.078   4.883 -1.7665 -0.6247 -0.3139
 9513SOL    HW240176   2.668   4.218   4.836  0.9258  0.0252 -0.1145
 9514SOL     OW40177   0.868   2.712   5.155  0.3540 -0.2869  0.9602
 9514SOL    HW140178   0.871   2.655   5.231  0.9986 -1.0726  0.3475
 9514SOL    HW240179   0.951   2.680   5.119 -0.3428 -0.4721 -0.4996
 9515SOL     OW40180   4.282   4.191   3.219  0.6146  0.5096 -0.0591
 9515SOL    HW140181   4.285   4.286   3.223 -0.2633  0.5674 -0.9677
 9515SOL    HW240182   4.259   4.162   3.307  1.3265 -0.4994 -0.2103
 9516SOL     OW40183   2.829   4.624   7.302  0.1803  0.1031 -0.5946
 9516SOL    HW140184   2.734   4.635   7.291  0.0819  0.7886  0.9670
 9516SOL    HW240185   2.835   4.604   7.395  2.8375  0.1558 -0.7539
 9517SOL     OW40186   0.259   0.150   2.629 -0.4960 -0.2311  0.7476
 9517SOL    HW140187   0.206   0.229   2.637  3.0649  2.4282 -2.0867
 9517SOL    HW240188   0.301   0.148   2.716 -0.2543  1.5570  0.6682
 9518SOL     OW40189   4.675   2.548   7.333 -0.0391  0.1021  0.0484
 9518SOL    HW140190   4.602   2.609   7.323 -0.8615 -0.9531 -0.3203
 9518SOL    HW240191   0.014   2.607   7.349  1.0413 -1.7541  2.0166
 9519SOL     OW40192   0.992   1.577   9.562  0.0933 -0.0688 -0.1341
 9519SOL    HW140193   1.003   1.497   9.614  0.1993 -0.1443 -0.2717
 9519SOL    HW240194   1.078   1.567   9.521  0.4526  0.5364  0.4590
 9520SOL     OW40195   3.018   0.022   3.360  0.2848 -0.1006 -0.4498
 9520SOL    HW140196   3.025   0.113   3.329  1.6459 -0.4303 -1.1165
 9520SOL    HW240197   3.095   4.720   3.317  1.0035  0.7434  0.1357
 9521SOL     OW40198   2.870   2.475   2.841  0.0167 -0.1789  0.7353
 9521SOL    HW140199   2.785   2.472   2.883  0.6050  1.1682  2.0058
 9521SOL    HW240200   2.877   2.569   2.824 -0.1289 -0.2277  0.3964
 9522SOL     OW40201   3.038   0.228  15.277 -0.1222  0.3757  0.1124
 9522SOL    HW140202   3.058   0.321  15.279 -0.9003  0.5234  0.6452
 9522SOL    HW240203   3.070   0.214  15.188  1.3259  0.9445  0.5480
 9523SOL     OW40204   3.471   1.731   4.602  0.3113 -0.2492  0.1992
 9523SOL    HW140205   3.406   1.692   4.661  0.4333  1.1009  1.2290
 9523SOL    HW240206   3.527   1.776   4.664  1.3110 -2.5473  0.9618
 9524SOL     OW40207   0.853   2.285   1.643  0.3508  0.1640 -0.2163
 9524SOL    HW140208   0.776   2.340   1.660 -1.4375 -1.3280 -3.5100
 9524SOL    HW240209   0.847   2.244   1.557 -1.2936 -1.6665  0.7592
 9525SOL     OW40210   3.635   4.703   4.477  0.2699 -0.2377  0.0595
 9525SOL    HW140211   3.724   4.687   4.443 -0.1467 -3.1225  0.3591
 9525SOL    HW240212   3.634   4.666   4.565  1.1627  0.4649  0.3671
 9526SOL     OW40213   3.619   1.478   2.901 -0.0655 -0.1312 -0.4442
 9526SOL    HW140214   3.590   1.390   2.879 -0.6935  0.1669 -0.8177
 9526SOL    HW240215   3.710   1.460   2.926  0.0852  0.6160 -0.4467
 9527SOL     OW40216   1.763   3.861  11.670 -0.6323  0.0615  0.1819
 9527SOL    HW140217   1.833   3.824  11.723 -0.0405  0.5362 -0.2722
 9527SOL    HW240218   1.709   3.892  11.742  0.1412 -0.0206  0.7939
 9528SOL     OW40219   4.540   3.560   6.996 -0.0050  0.0409 -0.3971
 9528SOL    HW140220   4.582   3.478   6.970  1.4652  0.5433  0.4063
 9528SOL    HW240221   4.608   3.621   6.968  1.2104 -1.3037 -0.3647
 9529SOL     OW40222   1.569   1.319   9.610  0.2046  0.1560 -0.1480
 9529SOL    HW140223   1.590   1.325   9.517 -2.4920 -0.3545 -0.7830
 9529SOL    HW240224   1.646   1.269   9.638 -1.4421 -0.6063  3.0360
 9530SOL     OW40225   0.928   2.313   7.947 -0.0544  1.4843  0.3007
 9530SOL    HW140226   0.845   2.357   7.968  0.4318  0.4113  4.3639
 9530SOL    HW240227   0.975   2.382   7.900 -1.4041  1.0219 -1.7719
 9531SOL     OW40228   1.553   2.434   6.079  0.2235  0.5868 -0.3384
 9531SOL    HW140229   1.550   2.340   6.101 -1.0344  1.1070  1.7645
 9531SOL    HW240230   1.490   2.443   6.008  1.9650 -1.7101 -2.1875
 9532SOL     OW40231   2.764   3.391   1.303 -0.4736 -0.3130 -0.1707
 9532SOL    HW140232   2.738   3.470   1.256  1.3675  0.1195 -0.4840
 9532SOL    HW240233   2.833   3.432   1.356  1.0501  1.0337 -3.1833
 9533SOL     OW40234   0.161   4.415  16.155 -1.0278  0.0947 -0.3868
 9533SOL    HW140235   0.118   4.335  16.186 -1.9024  1.2921  1.5174
 9533SOL    HW240236   0.105   4.447  16.084  0.1405  2.5191 -0.2002
 9534SOL     OW40237   2.054   0.052   1.846  0.3305  0.1580  0.1355
 9534SOL    HW140238   2.024   0.104   1.921 -1.4348  0.7453 -1.0119
 9534SOL    HW240239   2.105   0.110   1.790  0.4720 -0.3787 -0.2951
 9535SOL     OW40240   0.942   0.772   7.174 -0.2379  0.3004 -0.1478
 9535SOL    HW140241   0.947   0.868   7.179 -0.2157  0.2530  0.7334
 9535SOL    HW240242   1.021   0.757   7.227  0.3152 -2.1531 -1.6760
 9536SOL     OW40243   1.796   2.055   3.084 -0.3860 -0.4235  0.5716
 9536SOL    HW140244   1.706   2.024   3.094 -0.6527  0.4830  0.9686
 9536SOL    HW240245   1.837   1.977   3.048 -0.2503  0.8178 -2.0066
 9537SOL     OW40246   3.443   0.257   4.017  0.6996  0.2587  0.1178
 9537SOL    HW140247   3.446   0.190   3.948 -0.1061 -0.4964  0.8261
 9537SOL    HW240248   3.381   0.228   4.084  1.4130  0.0344  0.6817
 9538SOL     OW40249   0.642   0.295   2.753  0.6484  0.6017  0.0801
 9538SOL    HW140250   0.647   0.297   2.657  0.1866  1.0268  0.0605
 9538SOL    HW240251   0.733   0.271   2.769 -0.6749 -3.6312  1.2503
 9539SOL     OW40252   0.977   3.062   9.510  0.4418 -0.3195  0.3632
 9539SOL    HW140253   1.044   3.109   9.559  0.3779  0.7355 -0.5504
 9539SOL    HW240254   1.013   2.977   9.487  3.4536  1.1820 -0.5216
 9540SOL     OW40255   1.067   3.908   4.572  0.8377 -0.0559 -0.6117
 9540SOL    HW140256   1.019   3.942   4.647  1.7496  0.1047 -0.0982
 9540SOL    HW240257   1.000   3.907   4.503 -1.3288 -1.7550  1.5135
 9541SOL     OW40258   4.390   4.639   7.206  0.1026  0.2342 -0.1295
 9541SOL    HW140259   4.316   4.627   7.265  0.6601 -0.1062  0.5010
 9541SOL    HW240260   4.355   4.717   7.163 -0.4152 -0.8709 -1.6974
 9542SOL     OW40261   0.592   0.487  17.186  0.4150  0.3151  0.4088
 9542SOL    HW140262   0.645   0.463  17.261  1.8618  0.1118 -0.6876
 9542SOL    HW240263   0.531   0.555  17.216 -1.8282 -1.5460  0.0872
 9543SOL     OW40264   2.239   3.002  16.982 -0.2364 -0.5802 -0.1149
 9543SOL    HW140265   2.207   3.069  16.922  2.8751  0.4888 -0.5634
 9543SOL    HW240266   2.178   2.929  16.969  0.9909 -1.5847 -0.2103
 9544SOL     OW40267   1.759   0.303   7.693  0.6497 -0.9916 -0.0573
 9544SOL    HW140268   1.749   0.363   7.618 -0.1306 -0.3698  0.5442
 9544SOL    HW240269   1.854   0.309   7.703  0.2893  2.9264  0.9930
 9545SOL     OW40270   3.260   3.327   6.975  0.5562 -0.2584 -0.4021
 9545SOL    HW140271   3.285   3.255   6.917 -0.8706 -1.0952  0.0133
 9545SOL    HW240272   3.199   3.280   7.031 -0.0804  0.1621 -0.7436
 9546SOL     OW40273   4.114   3.246  11.235  0.2404  0.2416  0.1410
 9546SOL    HW140274   4.091   3.166  11.283 -1.6353 -0.3966 -1.8171
 9546SOL    HW240275   4.061   3.239  11.156 -1.1712  0.6058  1.0507
 9547SOL     OW40276   3.250   1.248   4.315  0.2441  0.1079 -0.2678
 9547SOL    HW140277   3.228   1.156   4.305  0.4399 -0.1984  2.2306
 9547SOL    HW240278   3.165   1.289   4.299 -0.2449 -0.0139  2.0396
 9548SOL     OW40279   0.925   0.942   6.204 -0.5567  0.6776  0.6180
 9548SOL    HW140280   0.940   1.029   6.166 -1.6646  0.4966 -0.2442
 9548SOL    HW240281   1.000   0.943   6.264  0.6374  1.9390 -0.8794
 9549SOL     OW40282   0.438   0.631  11.856 -0.3416  0.0530  0.4491
 9549SOL    HW140283   0.378   0.557  11.866  1.0628 -1.2356 -0.7405
 9549SOL    HW240284   0.468   0.653  11.944 -1.0703  1.8991  0.2379
 9550SOL     OW40285   1.830   0.776   5.752 -0.8038  0.1457 -0.1611
 9550SOL    HW140286   1.748   0.757   5.708 -1.4874  0.6244  0.9034
 9550SOL    HW240287   1.804   0.789   5.843  1.0893 -0.4728  0.4760
 9551SOL     OW40288   3.397   2.498   1.632 -0.5516  0.6584 -0.1321
 9551SOL    HW140289   3.458   2.437   1.673 -0.3272  1.8213  1.2921
 9551SOL    HW240290   3.322   2.448   1.601  0.3323 -0.7706  0.0435
 9552SOL     OW40291   3.115   2.249   5.965 -0.4057  0.9791 -0.2072
 9552SOL    HW140292   3.143   2.236   6.055  0.5248 -1.2081 -0.8307
 9552SOL    HW240293   3.085   2.160   5.946 -1.2931  1.1179  0.5141
 9553SOL     OW40294   3.585   3.529   3.307 -0.0361  0.5141 -0.4001
 9553SOL    HW140295   3.664   3.583   3.312  1.4161 -1.6037 -0.2622
 9553SOL    HW240296   3.621   3.445   3.336  1.4947  1.3925  0.2253
 9554SOL     OW40297   3.578   3.447   1.891 -0.6734  0.1940 -0.1606
 9554SOL    HW140298   3.517   3.386   1.933  0.7490 -0.4960  0.9100
 9554SOL    HW240299   3.536   3.532   1.905  0.1801  0.8931 -1.8349
 9555SOL     OW40300   0.525   2.446  17.591 -0.1199  0.0313  0.0840
 9555SOL    HW140301   0.520   2.477  17.501 -0.3697 -2.3209 -0.7142
 9555SOL    HW240302   0.588   2.375  17.579 -1.6141 -1.5348  1.5271
 9556SOL     OW40303   3.576   2.043  11.208  0.0360 -0.3029  0.4308
 9556SOL    HW140304   3.541   1.973  11.154  2.1449  0.4712 -1.9139
 9556SOL    HW240305   3.671   2.039  11.207  0.1101  0.7083  3.2694
 9557SOL     OW40306   1.277   3.000   6.657  0.1113 -0.1821 -0.0936
 9557SOL    HW140307   1.243   3.081   6.696 -0.9463 -1.8413  2.4479
 9557SOL    HW240308   1.280   2.935   6.728  2.2994 -0.1390 -0.1668
 9558SOL     OW40309   0.657   4.407   2.170 -0.7367 -0.0414  0.3698
 9558SOL    HW140310   0.710   4.429   2.093  0.2765 -3.3966  0.0883
 9558SOL    HW240311   0.569   4.427   2.140 -0.9216 -2.6144 -0.7855
 9559SOL     OW40312   1.757   4.617   9.020  0.1545 -0.0996 -0.1009
 9559SOL    HW140313   1.832   4.649   9.070  0.2389 -0.5153  0.0398
 9559SOL    HW240314   1.741   4.533   9.064 -1.1887  1.8778  3.1608
 9560SOL     OW40315   3.057   2.594   1.881  0.2970 -0.0517  0.0857
 9560SOL    HW140316   3.018   2.568   1.798 -0.5552 -3.6215  1.6044
 9560SOL    HW240317   3.022   2.529   1.943  2.0278 -1.3284 -0.2939
 9561SOL     OW40318   3.921   3.507   8.153 -0.0865  0.2660  0.0779
 9561SOL    HW140319   3.866   3.580   8.128 -1.4964 -1.4870 -1.9536
 9561SOL    HW240320   4.003   3.520   8.104  0.4761  0.9621  1.2127
 9562SOL     OW40321   1.986   1.511   9.417  0.1935  0.1081  0.0442
 9562SOL    HW140322   2.067   1.477   9.454 -0.3980 -1.9385 -0.5444
 9562SOL    HW240323   1.938   1.549   9.490 -1.4280  0.2703 -1.0984
 9563SOL     OW40324   1.785   0.438  14.655  0.0116 -0.4329 -0.2357
 9563SOL    HW140325   1.875   0.471  14.647 -0.4351  0.7182 -0.5625
 9563SOL    HW240326   1.739   0.516  14.684 -0.3122 -0.5222 -0.5094
 9564SOL     OW40327   4.680   1.832   7.875 -0.2511 -0.2868 -0.3868
 9564SOL    HW140328   0.014   1.898   7.865 -0.7275  0.4848  1.5429
 9564SOL    HW240329   4.698   1.788   7.958  2.4493 -0.5683 -1.1016
 9565SOL     OW40330   2.980   1.269   4.454  0.0464 -0.3119  0.3924
 9565SOL    HW140331   3.018   1.182   4.469  1.8354  0.5037  0.5711
 9565SOL    HW240332   2.945   1.297   4.539  1.3127  2.0960  0.1197
 9566SOL     OW40333   0.061   0.963   8.798 -0.5911 -0.4960 -0.6053
 9566SOL    HW140334   0.063   0.942   8.704 -0.2259 -3.0169 -0.0207
 9566SOL    HW240335   4.703   0.941   8.802 -0.7934 -0.1601 -2.8794
 9567SOL     OW40336   4.182   1.913   2.114  0.5478 -0.6217 -0.0523
 9567SOL    HW140337   4.204   1.940   2.204  1.1617  0.4333 -0.5192
 9567SOL    HW240338   4.110   1.850   2.121 -1.0119  1.1142 -0.6475
 9568SOL     OW40339   0.617   0.274   3.598 -0.5168  0.4340  0.4511
 9568SOL    HW140340   0.569   0.274   3.681 -0.6655  0.0543  0.3631
 9568SOL    HW240341   0.707   0.256   3.623 -0.6612 -2.3346 -1.0038
 9569SOL     OW40342   0.463   3.065  16.386  0.1188 -0.1999  0.0698
 9569SOL    HW140343   0.518   3.135  16.350  0.1959 -1.5186 -2.3644
 9569SOL    HW240344   0.475   2.995  16.321  0.5019 -1.0815  1.0845
   4.73451   4.73451  17.73706
